   16   16   20    2
  0.9574673E+01  0.6006014E-09  0.6006014E-09  0.6006014E-09  0.5000000E-15
  1.000000000000000E-004
  CAR 
 unknown system                          
     57     16     48
 
  0.2500000E+00  0.2500000E+00  0.2500000E+00  0.6250000E-01
    1      -13.968796    -13.951963   1.000000   1.000000
    2      -13.186725    -13.146045   1.000000   1.000000
    3      -12.810558    -12.751623   1.000000   1.000000
    4      -12.636862    -12.578829   1.000000   1.000000
    5      -12.635373    -12.577392   1.000000   1.000000
    6      -12.434071    -12.370911   1.000000   1.000000
    7      -12.432965    -12.369766   1.000000   1.000000
    8       -1.167435     -1.116382   1.000000   1.000000
    9       -1.004676     -0.984904   1.000000   1.000000
   10       -1.003029     -0.983280   1.000000   1.000000
   11       -0.793808     -0.743744   1.000000   1.000000
   12       -0.505003     -0.402590   1.000000   1.000000
   13        0.050157      0.164198   1.000000   1.000000
   14        0.051039      0.165069   1.000000   1.000000
   15        1.080858      1.110934   1.000000   1.000000
   16        1.461017      1.514471   1.000000   1.000000
   17        1.461953      1.515700   1.000000   1.000000
   18        1.736619      1.766332   1.000000   1.000000
   19        1.738050      1.767678   1.000000   1.000000
   20        1.891038      2.086080   1.000000   1.000000
   21        2.128896      2.189173   1.000000   1.000000
   22        2.220409      2.277971   1.000000   1.000000
   23        2.221620      2.279079   1.000000   1.000000
   24        2.645089      2.679323   1.000000   1.000000
   25        2.645913      2.680121   1.000000   1.000000
   26        2.673660      2.748017   1.000000   1.000000
   27        2.867113      2.911549   1.000000   1.000000
   28        2.868810      2.913279   1.000000   1.000000
   29        3.574899      4.886762   1.000000   0.000006
   30        8.940509      9.291671   0.000000   0.000000
   31        9.626536     10.368454   0.000000   0.000000
   32        9.629266     10.371007   0.000000   0.000000
   33       10.249311     10.491732   0.000000   0.000000
   34       11.390725     11.631280   0.000000   0.000000
   35       11.962569     12.065419   0.000000   0.000000
   36       11.964675     12.067255   0.000000   0.000000
   37       12.610942     12.817074   0.000000   0.000000
   38       12.613335     12.819799   0.000000   0.000000
   39       13.070452     13.103891   0.000000   0.000000
   40       13.402356     13.618759   0.000000   0.000000
   41       13.406402     13.623594   0.000000   0.000000
   42       13.815117     13.956854   0.000000   0.000000
   43       15.354090     15.386831   0.000000   0.000000
   44       15.584148     15.625791   0.000000   0.000000
   45       15.590750     15.632146   0.000000   0.000000
   46       16.043014     16.090074   0.000000   0.000000
   47       17.034715     17.168974   0.000000   0.000000
   48       17.046608     17.178413   0.000000   0.000000
 
  0.2500000E+00  0.0000000E+00  0.0000000E+00  0.6250000E-01
    1      -13.964911    -13.948185   1.000000   1.000000
    2      -13.196076    -13.154843   1.000000   1.000000
    3      -12.797134    -12.739868   1.000000   1.000000
    4      -12.649374    -12.589260   1.000000   1.000000
    5      -12.637867    -12.579908   1.000000   1.000000
    6      -12.430949    -12.368138   1.000000   1.000000
    7      -12.430002    -12.367254   1.000000   1.000000
    8       -1.231789     -1.214776   1.000000   1.000000
    9       -0.994517     -0.974257   1.000000   1.000000
   10       -0.911975     -0.856867   1.000000   1.000000
   11       -0.648615     -0.627378   1.000000   1.000000
   12       -0.498584     -0.357609   1.000000   1.000000
   13       -0.165503     -0.051714   1.000000   1.000000
   14        0.033986      0.147902   1.000000   1.000000
   15        1.194435      1.224514   1.000000   1.000000
   16        1.401624      1.440580   1.000000   1.000000
   17        1.492151      1.529916   1.000000   1.000000
   18        1.675450      1.719938   1.000000   1.000000
   19        1.876010      1.934133   1.000000   1.000000
   20        1.926158      1.979270   1.000000   1.000000
   21        1.935752      2.055594   1.000000   1.000000
   22        2.077547      2.170088   1.000000   1.000000
   23        2.346364      2.401717   1.000000   1.000000
   24        2.364243      2.419422   1.000000   1.000000
   25        2.771421      2.819633   1.000000   1.000000
   26        2.792994      2.846958   1.000000   1.000000
   27        2.877484      2.944344   1.000000   1.000000
   28        2.930109      2.978541   1.000000   1.000000
   29        3.624166      4.902709   1.000000   0.000001
   30        8.669699      9.263040   0.000000   0.000000
   31        9.684372     10.112984   0.000000   0.000000
   32        9.805579     10.471689   0.000000   0.000000
   33       10.362025     10.869627   0.000000   0.000000
   34       11.272844     11.393790   0.000000   0.000000
   35       11.804986     11.905274   0.000000   0.000000
   36       11.810449     11.973194   0.000000   0.000000
   37       12.512414     12.672182   0.000000   0.000000
   38       12.670420     12.803624   0.000000   0.000000
   39       13.253466     13.302211   0.000000   0.000000
   40       13.426156     13.685043   0.000000   0.000000
   41       13.684148     13.921884   0.000000   0.000000
   42       13.919006     14.064344   0.000000   0.000000
   43       15.451624     15.492296   0.000000   0.000000
   44       15.576028     15.612188   0.000000   0.000000
   45       15.594134     15.633135   0.000000   0.000000
   46       15.969135     15.990995   0.000000   0.000000
   47       16.818878     17.293871   0.000000   0.000000
   48       17.225475     17.323074   0.000000   0.000000
 
  0.0000000E+00  0.0000000E+00 -0.2500000E+00  0.6250000E-01
    1      -13.964953    -13.948225   1.000000   1.000000
    2      -13.195981    -13.154751   1.000000   1.000000
    3      -12.797331    -12.740067   1.000000   1.000000
    4      -12.648862    -12.588767   1.000000   1.000000
    5      -12.638056    -12.580074   1.000000   1.000000
    6      -12.431757    -12.368578   1.000000   1.000000
    7      -12.429375    -12.366996   1.000000   1.000000
    8       -1.231873     -1.214868   1.000000   1.000000
    9       -0.994802     -0.974574   1.000000   1.000000
   10       -0.911828     -0.856559   1.000000   1.000000
   11       -0.648750     -0.627522   1.000000   1.000000
   12       -0.499047     -0.358107   1.000000   1.000000
   13       -0.165040     -0.051354   1.000000   1.000000
   14        0.034495      0.148414   1.000000   1.000000
   15        1.195178      1.225280   1.000000   1.000000
   16        1.402006      1.441007   1.000000   1.000000
   17        1.491777      1.529524   1.000000   1.000000
   18        1.675062      1.719560   1.000000   1.000000
   19        1.875752      1.933763   1.000000   1.000000
   20        1.926038      1.979316   1.000000   1.000000
   21        1.935846      2.055737   1.000000   1.000000
   22        2.078083      2.170407   1.000000   1.000000
   23        2.345868      2.401419   1.000000   1.000000
   24        2.363706      2.418766   1.000000   1.000000
   25        2.772224      2.820446   1.000000   1.000000
   26        2.792986      2.847023   1.000000   1.000000
   27        2.877698      2.944387   1.000000   1.000000
   28        2.929404      2.977797   1.000000   1.000000
   29        3.624067      4.902720   1.000000   0.000001
   30        8.668785      9.262712   0.000000   0.000000
   31        9.686661     10.112287   0.000000   0.000000
   32        9.805036     10.473853   0.000000   0.000000
   33       10.361306     10.868973   0.000000   0.000000
   34       11.273032     11.393751   0.000000   0.000000
   35       11.804720     11.905058   0.000000   0.000000
   36       11.811433     11.974070   0.000000   0.000000
   37       12.512235     12.671886   0.000000   0.000000
   38       12.668577     12.801934   0.000000   0.000000
   39       13.253670     13.302291   0.000000   0.000000
   40       13.426085     13.684841   0.000000   0.000000
   41       13.684135     13.922193   0.000000   0.000000
   42       13.919531     14.064645   0.000000   0.000000
   43       15.451983     15.492694   0.000000   0.000000
   44       15.574720     15.610939   0.000000   0.000000
   45       15.594638     15.633536   0.000000   0.000000
   46       15.969430     15.991284   0.000000   0.000000
   47       16.818707     17.294278   0.000000   0.000000
   48       17.224577     17.322378   0.000000   0.000000
 
  0.0000000E+00  0.2500000E+00  0.0000000E+00  0.6250000E-01
    1      -13.964865    -13.948144   1.000000   1.000000
    2      -13.196367    -13.155109   1.000000   1.000000
    3      -12.796859    -12.739598   1.000000   1.000000
    4      -12.648192    -12.588140   1.000000   1.000000
    5      -12.639157    -12.581155   1.000000   1.000000
    6      -12.431335    -12.368253   1.000000   1.000000
    7      -12.429502    -12.367023   1.000000   1.000000
    8       -1.231984     -1.214944   1.000000   1.000000
    9       -0.993712     -0.973486   1.000000   1.000000
   10       -0.913196     -0.858200   1.000000   1.000000
   11       -0.648595     -0.627434   1.000000   1.000000
   12       -0.500584     -0.359209   1.000000   1.000000
   13       -0.163681     -0.050172   1.000000   1.000000
   14        0.034212      0.148156   1.000000   1.000000
   15        1.192806      1.222821   1.000000   1.000000
   16        1.401934      1.440701   1.000000   1.000000
   17        1.492091      1.530011   1.000000   1.000000
   18        1.675976      1.720463   1.000000   1.000000
   19        1.877010      1.934894   1.000000   1.000000
   20        1.924494      1.979761   1.000000   1.000000
   21        1.935983      2.054359   1.000000   1.000000
   22        2.078320      2.171018   1.000000   1.000000
   23        2.346509      2.402065   1.000000   1.000000
   24        2.364364      2.419170   1.000000   1.000000
   25        2.771896      2.819531   1.000000   1.000000
   26        2.792749      2.846789   1.000000   1.000000
   27        2.878566      2.945195   1.000000   1.000000
   28        2.931435      2.979898   1.000000   1.000000
   29        3.623684      4.902603   1.000000   0.000001
   30        8.667874      9.262085   0.000000   0.000000
   31        9.686053     10.110485   0.000000   0.000000
   32        9.803972     10.472988   0.000000   0.000000
   33       10.362845     10.870231   0.000000   0.000000
   34       11.273088     11.394509   0.000000   0.000000
   35       11.806113     11.904992   0.000000   0.000000
   36       11.807884     11.972173   0.000000   0.000000
   37       12.516261     12.676178   0.000000   0.000000
   38       12.665481     12.799420   0.000000   0.000000
   39       13.250601     13.298801   0.000000   0.000000
   40       13.427433     13.685614   0.000000   0.000000
   41       13.684440     13.922599   0.000000   0.000000
   42       13.920226     14.065367   0.000000   0.000000
   43       15.453097     15.493899   0.000000   0.000000
   44       15.573007     15.609521   0.000000   0.000000
   45       15.598750     15.637617   0.000000   0.000000
   46       15.966306     15.988274   0.000000   0.000000
   47       16.817118     17.290333   0.000000   0.000000
   48       17.215098     17.313565   0.000000   0.000000
 
 -0.2500000E+00  0.2500000E+00  0.2500000E+00  0.6250000E-01
    1      -13.827197    -13.820712   1.000000   1.000000
    2      -13.161567    -13.108400   1.000000   1.000000
    3      -12.928506    -12.872331   1.000000   1.000000
    4      -12.681707    -12.622045   1.000000   1.000000
    5      -12.674602    -12.616219   1.000000   1.000000
    6      -12.501194    -12.440132   1.000000   1.000000
    7      -12.402071    -12.339164   1.000000   1.000000
    8       -0.889131     -0.762631   1.000000   1.000000
    9       -0.704194     -0.539293   1.000000   1.000000
   10       -0.515788     -0.504328   1.000000   1.000000
   11       -0.165901     -0.108056   1.000000   1.000000
   12        0.037400      0.074757   1.000000   1.000000
   13        0.115880      0.164484   1.000000   1.000000
   14        0.457948      0.574243   1.000000   1.000000
   15        0.662846      0.690870   1.000000   1.000000
   16        0.775707      0.833969   1.000000   1.000000
   17        1.005622      1.045399   1.000000   1.000000
   18        1.161863      1.212930   1.000000   1.000000
   19        1.572860      1.645127   1.000000   1.000000
   20        1.598098      1.647299   1.000000   1.000000
   21        1.759084      1.813745   1.000000   1.000000
   22        1.825417      1.886505   1.000000   1.000000
   23        2.147859      2.183825   1.000000   1.000000
   24        2.311462      2.357981   1.000000   1.000000
   25        2.408999      2.462751   1.000000   1.000000
   26        2.666198      2.710069   1.000000   1.000000
   27        2.667572      2.720351   1.000000   1.000000
   28        2.827068      2.868707   1.000000   1.000000
   29        4.567286      6.001286   0.999998   0.000000
   30        7.952788      8.682732   0.000000   0.000000
   31        9.158055      9.929416   0.000000   0.000000
   32        9.416719      9.937507   0.000000   0.000000
   33       11.058353     11.178869   0.000000   0.000000
   34       12.099538     12.189297   0.000000   0.000000
   35       12.379314     12.524813   0.000000   0.000000
   36       12.949389     13.063349   0.000000   0.000000
   37       13.053900     13.186133   0.000000   0.000000
   38       13.461227     13.556637   0.000000   0.000000
   39       13.790874     13.868594   0.000000   0.000000
   40       14.340008     14.497931   0.000000   0.000000
   41       14.477276     14.702995   0.000000   0.000000
   42       14.762811     14.821299   0.000000   0.000000
   43       14.950051     15.038393   0.000000   0.000000
   44       15.045531     15.157597   0.000000   0.000000
   45       15.245918     15.340050   0.000000   0.000000
   46       15.744810     15.845013   0.000000   0.000000
   47       16.107818     16.255119   0.000000   0.000000
   48       16.181121     16.272457   0.000000   0.000000
 
  0.2500000E+00 -0.2500000E+00  0.2500000E+00  0.6250000E-01
    1      -13.827135    -13.820665   1.000000   1.000000
    2      -13.162611    -13.109389   1.000000   1.000000
    3      -12.927401    -12.871214   1.000000   1.000000
    4      -12.680052    -12.620515   1.000000   1.000000
    5      -12.675848    -12.617430   1.000000   1.000000
    6      -12.501227    -12.440190   1.000000   1.000000
    7      -12.402545    -12.339577   1.000000   1.000000
    8       -0.889398     -0.762843   1.000000   1.000000
    9       -0.704940     -0.540510   1.000000   1.000000
   10       -0.515201     -0.503831   1.000000   1.000000
   11       -0.167731     -0.109445   1.000000   1.000000
   12        0.036498      0.074119   1.000000   1.000000
   13        0.116432      0.164893   1.000000   1.000000
   14        0.458219      0.574605   1.000000   1.000000
   15        0.662531      0.690425   1.000000   1.000000
   16        0.776559      0.835018   1.000000   1.000000
   17        1.005682      1.045468   1.000000   1.000000
   18        1.163387      1.214370   1.000000   1.000000
   19        1.573044      1.644059   1.000000   1.000000
   20        1.597136      1.647415   1.000000   1.000000
   21        1.760584      1.815460   1.000000   1.000000
   22        1.825838      1.886930   1.000000   1.000000
   23        2.149397      2.185058   1.000000   1.000000
   24        2.310949      2.357409   1.000000   1.000000
   25        2.407663      2.461342   1.000000   1.000000
   26        2.666510      2.709747   1.000000   1.000000
   27        2.666919      2.720489   1.000000   1.000000
   28        2.827761      2.869480   1.000000   1.000000
   29        4.567535      6.001580   0.999998   0.000000
   30        7.951028      8.681265   0.000000   0.000000
   31        9.159233      9.930454   0.000000   0.000000
   32        9.417743      9.938421   0.000000   0.000000
   33       11.057907     11.178315   0.000000   0.000000
   34       12.097575     12.187125   0.000000   0.000000
   35       12.379545     12.524515   0.000000   0.000000
   36       12.951170     13.065411   0.000000   0.000000
   37       13.053897     13.187878   0.000000   0.000000
   38       13.455913     13.550634   0.000000   0.000000
   39       13.785866     13.863114   0.000000   0.000000
   40       14.338637     14.497007   0.000000   0.000000
   41       14.475150     14.699754   0.000000   0.000000
   42       14.762334     14.820749   0.000000   0.000000
   43       14.952405     15.041203   0.000000   0.000000
   44       15.055810     15.168321   0.000000   0.000000
   45       15.244504     15.338558   0.000000   0.000000
   46       15.741887     15.841310   0.000000   0.000000
   47       16.107756     16.255534   0.000000   0.000000
   48       16.178037     16.270390   0.000000   0.000000
 
  0.2500000E+00  0.2500000E+00 -0.2500000E+00  0.6250000E-01
    1      -13.827239    -13.820751   1.000000   1.000000
    2      -13.161507    -13.108341   1.000000   1.000000
    3      -12.928727    -12.872566   1.000000   1.000000
    4      -12.681110    -12.621451   1.000000   1.000000
    5      -12.674947    -12.616558   1.000000   1.000000
    6      -12.500373    -12.439280   1.000000   1.000000
    7      -12.402943    -12.340061   1.000000   1.000000
    8       -0.889599     -0.762957   1.000000   1.000000
    9       -0.704159     -0.539272   1.000000   1.000000
   10       -0.516234     -0.504836   1.000000   1.000000
   11       -0.165680     -0.107952   1.000000   1.000000
   12        0.037683      0.075091   1.000000   1.000000
   13        0.115920      0.164558   1.000000   1.000000
   14        0.458570      0.574824   1.000000   1.000000
   15        0.662969      0.690919   1.000000   1.000000
   16        0.775456      0.833794   1.000000   1.000000
   17        1.005425      1.045214   1.000000   1.000000
   18        1.162468      1.213511   1.000000   1.000000
   19        1.572868      1.644667   1.000000   1.000000
   20        1.598242      1.648011   1.000000   1.000000
   21        1.759283      1.813976   1.000000   1.000000
   22        1.826232      1.887148   1.000000   1.000000
   23        2.147314      2.183298   1.000000   1.000000
   24        2.312068      2.358525   1.000000   1.000000
   25        2.408438      2.462325   1.000000   1.000000
   26        2.665970      2.709967   1.000000   1.000000
   27        2.667272      2.719950   1.000000   1.000000
   28        2.826152      2.867714   1.000000   1.000000
   29        4.567383      6.001361   0.999998   0.000000
   30        7.951466      8.681801   0.000000   0.000000
   31        9.159849      9.930975   0.000000   0.000000
   32        9.416733      9.937605   0.000000   0.000000
   33       11.058409     11.178799   0.000000   0.000000
   34       12.100387     12.190257   0.000000   0.000000
   35       12.379209     12.524805   0.000000   0.000000
   36       12.948942     13.062570   0.000000   0.000000
   37       13.054158     13.186131   0.000000   0.000000
   38       13.459934     13.555583   0.000000   0.000000
   39       13.790043     13.867696   0.000000   0.000000
   40       14.339926     14.497832   0.000000   0.000000
   41       14.475939     14.701937   0.000000   0.000000
   42       14.762608     14.821400   0.000000   0.000000
   43       14.950404     15.038422   0.000000   0.000000
   44       15.046725     15.158192   0.000000   0.000000
   45       15.245624     15.340900   0.000000   0.000000
   46       15.744878     15.844767   0.000000   0.000000
   47       16.108525     16.255310   0.000000   0.000000
   48       16.180436     16.272406   0.000000   0.000000
 
  0.2500000E+00  0.0000000E+00  0.5000000E+00  0.6250000E-01
    1      -13.827557    -13.821026   1.000000   1.000000
    2      -13.158272    -13.105248   1.000000   1.000000
    3      -12.923814    -12.867807   1.000000   1.000000
    4      -12.751686    -12.692296   1.000000   1.000000
    5      -12.577360    -12.519905   1.000000   1.000000
    6      -12.535696    -12.473172   1.000000   1.000000
    7      -12.402455    -12.339546   1.000000   1.000000
    8       -0.879387     -0.774000   1.000000   1.000000
    9       -0.733868     -0.578360   1.000000   1.000000
   10       -0.470599     -0.398927   1.000000   1.000000
   11       -0.176837     -0.146907   1.000000   1.000000
   12       -0.015242      0.009570   1.000000   1.000000
   13        0.227532      0.278169   1.000000   1.000000
   14        0.316407      0.406402   1.000000   1.000000
   15        0.674612      0.718701   1.000000   1.000000
   16        0.764894      0.815404   1.000000   1.000000
   17        0.989520      1.064011   1.000000   1.000000
   18        1.361230      1.430752   1.000000   1.000000
   19        1.474843      1.526097   1.000000   1.000000
   20        1.623266      1.696652   1.000000   1.000000
   21        1.750425      1.797380   1.000000   1.000000
   22        1.919988      1.954973   1.000000   1.000000
   23        2.066177      2.100884   1.000000   1.000000
   24        2.187142      2.229843   1.000000   1.000000
   25        2.431942      2.490512   1.000000   1.000000
   26        2.618982      2.664689   1.000000   1.000000
   27        2.742237      2.791921   1.000000   1.000000
   28        2.856122      2.901873   1.000000   1.000000
   29        4.560724      5.997499   0.999999   0.000000
   30        8.034139      8.728044   0.000000   0.000000
   31        8.816522      9.551344   0.000000   0.000000
   32        9.741768     10.353272   0.000000   0.000000
   33       11.061720     11.172754   0.000000   0.000000
   34       11.937287     12.061367   0.000000   0.000000
   35       12.526401     12.619113   0.000000   0.000000
   36       12.778955     12.915865   0.000000   0.000000
   37       13.229464     13.316277   0.000000   0.000000
   38       13.354525     13.460961   0.000000   0.000000
   39       13.953758     14.086728   0.000000   0.000000
   40       14.192573     14.324754   0.000000   0.000000
   41       14.481349     14.633762   0.000000   0.000000
   42       14.718907     14.819639   0.000000   0.000000
   43       14.928553     15.037348   0.000000   0.000000
   44       15.128327     15.242212   0.000000   0.000000
   45       15.308525     15.409962   0.000000   0.000000
   46       15.588657     15.673493   0.000000   0.000000
   47       16.113549     16.168324   0.000000   0.000000
   48       16.276872     16.424662   0.000000   0.000000
 
 -0.2500000E+00  0.5000000E+00  0.5000000E+00  0.6250000E-01
    1      -13.832895    -13.825957   1.000000   1.000000
    2      -13.140164    -13.088802   1.000000   1.000000
    3      -12.948233    -12.889655   1.000000   1.000000
    4      -12.674152    -12.616555   1.000000   1.000000
    5      -12.672428    -12.614157   1.000000   1.000000
    6      -12.504004    -12.441790   1.000000   1.000000
    7      -12.404037    -12.341188   1.000000   1.000000
    8       -0.978012     -0.746582   1.000000   1.000000
    9       -0.541144     -0.525551   1.000000   1.000000
   10       -0.536935     -0.518101   1.000000   1.000000
   11       -0.321349     -0.293887   1.000000   1.000000
   12       -0.063111     -0.011726   1.000000   1.000000
   13        0.098558      0.172028   1.000000   1.000000
   14        0.530014      0.645108   1.000000   1.000000
   15        0.757185      0.813318   1.000000   1.000000
   16        0.948547      1.024019   1.000000   1.000000
   17        0.968979      1.025134   1.000000   1.000000
   18        1.277377      1.349019   1.000000   1.000000
   19        1.424669      1.478629   1.000000   1.000000
   20        1.507082      1.548492   1.000000   1.000000
   21        1.839494      1.893077   1.000000   1.000000
   22        1.896426      1.922535   1.000000   1.000000
   23        2.181241      2.221910   1.000000   1.000000
   24        2.256270      2.296928   1.000000   1.000000
   25        2.484755      2.551730   1.000000   1.000000
   26        2.600988      2.650280   1.000000   1.000000
   27        2.642280      2.686274   1.000000   1.000000
   28        2.765773      2.802247   1.000000   1.000000
   29        4.492051      5.952601   1.000000   0.000000
   30        8.392276      8.988712   0.000000   0.000000
   31        8.981361      9.606469   0.000000   0.000000
   32        9.137837      9.895973   0.000000   0.000000
   33       11.238281     11.349950   0.000000   0.000000
   34       11.887570     12.052571   0.000000   0.000000
   35       12.766888     12.845935   0.000000   0.000000
   36       12.979583     13.088849   0.000000   0.000000
   37       13.164258     13.234806   0.000000   0.000000
   38       13.477644     13.663407   0.000000   0.000000
   39       13.758989     13.881778   0.000000   0.000000
   40       14.190707     14.306973   0.000000   0.000000
   41       14.331698     14.462911   0.000000   0.000000
   42       14.357050     14.564300   0.000000   0.000000
   43       14.727037     14.783638   0.000000   0.000000
   44       14.915581     14.989145   0.000000   0.000000
   45       15.053966     15.186023   0.000000   0.000000
   46       15.831392     15.884043   0.000000   0.000000
   47       16.210544     16.272325   0.000000   0.000000
   48       16.484437     16.675415   0.000000   0.000000
 
  0.2500000E+00  0.5000000E+00  0.0000000E+00  0.6250000E-01
    1      -13.827385    -13.820872   1.000000   1.000000
    2      -13.158545    -13.105494   1.000000   1.000000
    3      -12.924027    -12.868010   1.000000   1.000000
    4      -12.752172    -12.692827   1.000000   1.000000
    5      -12.578091    -12.520587   1.000000   1.000000
    6      -12.533763    -12.471185   1.000000   1.000000
    7      -12.402812    -12.339982   1.000000   1.000000
    8       -0.880054     -0.773759   1.000000   1.000000
    9       -0.732745     -0.577596   1.000000   1.000000
   10       -0.470087     -0.399166   1.000000   1.000000
   11       -0.178609     -0.148666   1.000000   1.000000
   12       -0.015871      0.009248   1.000000   1.000000
   13        0.225713      0.276404   1.000000   1.000000
   14        0.318594      0.408351   1.000000   1.000000
   15        0.671569      0.715649   1.000000   1.000000
   16        0.765526      0.816140   1.000000   1.000000
   17        0.988829      1.063289   1.000000   1.000000
   18        1.362789      1.432145   1.000000   1.000000
   19        1.475339      1.526495   1.000000   1.000000
   20        1.623320      1.696863   1.000000   1.000000
   21        1.751736      1.798630   1.000000   1.000000
   22        1.920209      1.955412   1.000000   1.000000
   23        2.067671      2.102435   1.000000   1.000000
   24        2.186598      2.229340   1.000000   1.000000
   25        2.432438      2.491296   1.000000   1.000000
   26        2.618543      2.663875   1.000000   1.000000
   27        2.742518      2.792110   1.000000   1.000000
   28        2.856787      2.902504   1.000000   1.000000
   29        4.560538      5.997377   0.999999   0.000000
   30        8.032505      8.726181   0.000000   0.000000
   31        8.815887      9.550492   0.000000   0.000000
   32        9.744037     10.356030   0.000000   0.000000
   33       11.061166     11.172080   0.000000   0.000000
   34       11.937116     12.061187   0.000000   0.000000
   35       12.523786     12.615713   0.000000   0.000000
   36       12.775792     12.913235   0.000000   0.000000
   37       13.233327     13.317628   0.000000   0.000000
   38       13.359464     13.468494   0.000000   0.000000
   39       13.956131     14.088268   0.000000   0.000000
   40       14.185840     14.318516   0.000000   0.000000
   41       14.481517     14.634763   0.000000   0.000000
   42       14.717916     14.819885   0.000000   0.000000
   43       14.926126     15.034200   0.000000   0.000000
   44       15.128817     15.242232   0.000000   0.000000
   45       15.312762     15.413727   0.000000   0.000000
   46       15.588350     15.674262   0.000000   0.000000
   47       16.108731     16.161609   0.000000   0.000000
   48       16.275002     16.424241   0.000000   0.000000
 
  0.0000000E+00  0.5000000E+00 -0.2500000E+00  0.6250000E-01
    1      -13.827401    -13.820887   1.000000   1.000000
    2      -13.158475    -13.105426   1.000000   1.000000
    3      -12.923907    -12.867889   1.000000   1.000000
    4      -12.752050    -12.692709   1.000000   1.000000
    5      -12.577947    -12.520409   1.000000   1.000000
    6      -12.535068    -12.472547   1.000000   1.000000
    7      -12.401945    -12.339088   1.000000   1.000000
    8       -0.879596     -0.773525   1.000000   1.000000
    9       -0.733284     -0.577983   1.000000   1.000000
   10       -0.469992     -0.399018   1.000000   1.000000
   11       -0.178581     -0.148618   1.000000   1.000000
   12       -0.015629      0.009433   1.000000   1.000000
   13        0.225742      0.276429   1.000000   1.000000
   14        0.318571      0.408492   1.000000   1.000000
   15        0.671602      0.715663   1.000000   1.000000
   16        0.765157      0.815669   1.000000   1.000000
   17        0.988921      1.063495   1.000000   1.000000
   18        1.362609      1.431941   1.000000   1.000000
   19        1.475728      1.526729   1.000000   1.000000
   20        1.623010      1.696637   1.000000   1.000000
   21        1.751340      1.798351   1.000000   1.000000