   16   16   20    2
  0.9574673E+01  0.6006014E-09  0.6006014E-09  0.6006014E-09  0.5000000E-15
  1.000000000000000E-004
  CAR 
 unknown system                          
     57      8     48
 
  0.0000000E+00  0.0000000E+00  0.0000000E+00  0.1250000E+00
    1      -14.034771    -14.016593   1.000000   1.000000
    2      -13.178828    -13.151383   1.000000   1.000000
    3      -12.687117    -12.637516   1.000000   1.000000
    4      -12.669022    -12.621262   1.000000   1.000000
    5      -12.667580    -12.619876   1.000000   1.000000
    6      -12.412602    -12.360210   1.000000   1.000000
    7      -12.411014    -12.358587   1.000000   1.000000
    8       -1.441018     -1.426807   1.000000   1.000000
    9       -1.204607     -1.187496   1.000000   1.000000
   10       -1.201583     -1.184427   1.000000   1.000000
   11       -0.991253     -0.980883   1.000000   1.000000
   12       -0.526720     -0.464495   1.000000   1.000000
   13       -0.181027     -0.100060   1.000000   1.000000
   14       -0.180214     -0.099279   1.000000   1.000000
   15        1.540969      1.556340   1.000000   1.000000
   16        1.622793      1.657274   1.000000   1.000000
   17        1.626282      1.661280   1.000000   1.000000
   18        1.877905      1.907459   1.000000   1.000000
   19        1.880163      1.909512   1.000000   1.000000
   20        2.040472      2.092256   1.000000   1.000000
   21        2.419895      2.466969   1.000000   1.000000
   22        2.423511      2.470291   1.000000   1.000000
   23        2.595460      2.833764   1.000000   1.000000
   24        2.771323      2.836467   1.000000   1.000000
   25        2.806563      2.837470   1.000000   1.000000
   26        2.807366      2.927777   1.000000   1.000000
   27        2.962608      2.999985   1.000000   1.000000
   28        2.966808      3.004220   1.000000   1.000000
   29        3.052712      3.872932   1.000000   1.000000
   30        8.900403      9.032986   0.000000   0.000000
   31       10.124054     10.672473   0.000000   0.000000
   32       10.129781     10.682515   0.000000   0.000000
   33       10.592435     10.686572   0.000000   0.000000
   34       11.154802     11.303401   0.000000   0.000000
   35       11.220625     11.306525   0.000000   0.000000
   36       11.222279     11.589514   0.000000   0.000000
   37       12.323895     12.494053   0.000000   0.000000
   38       12.326167     12.499934   0.000000   0.000000
   39       12.614242     12.719299   0.000000   0.000000
   40       12.615139     12.722395   0.000000   0.000000
   41       12.826983     12.858008   0.000000   0.000000
   42       13.384582     13.462226   0.000000   0.000000
   43       15.677729     15.705385   0.000000   0.000000
   44       15.814815     15.833136   0.000000   0.000000
   45       15.816642     15.835279   0.000000   0.000000
   46       16.202900     16.215990   0.000000   0.000000
   47       16.976843     17.687019   0.000000   0.000000
   48       18.404899     18.415940   0.000000   0.000000
 
  0.5000000E+00  0.0000000E+00  0.0000000E+00  0.1250000E+00
    1      -13.821077    -13.814415   1.000000   1.000000
    2      -13.191020    -13.146168   1.000000   1.000000
    3      -12.953630    -12.912252   1.000000   1.000000
    4      -12.623940    -12.573842   1.000000   1.000000
    5      -12.605130    -12.558718   1.000000   1.000000
    6      -12.494207    -12.440739   1.000000   1.000000
    7      -12.485248    -12.433948   1.000000   1.000000
    8       -0.937659     -0.929878   1.000000   1.000000
    9       -0.742366     -0.664439   1.000000   1.000000
   10       -0.672001     -0.550875   1.000000   1.000000
   11       -0.347032     -0.329028   1.000000   1.000000
   12        0.018749      0.078914   1.000000   1.000000
   13        0.187071      0.226973   1.000000   1.000000
   14        0.274882      0.371972   1.000000   1.000000
   15        0.712598      0.747878   1.000000   1.000000
   16        0.845789      0.888404   1.000000   1.000000
   17        1.132713      1.169453   1.000000   1.000000
   18        1.373850      1.400876   1.000000   1.000000
   19        1.464179      1.522053   1.000000   1.000000
   20        1.613634      1.672277   1.000000   1.000000
   21        1.774882      1.789189   1.000000   1.000000
   22        1.974295      1.992683   1.000000   1.000000
   23        2.065013      2.131835   1.000000   1.000000
   24        2.170705      2.197303   1.000000   1.000000
   25        2.732198      2.767975   1.000000   1.000000
   26        2.766295      2.806675   1.000000   1.000000
   27        2.865164      2.905491   1.000000   1.000000
   28        2.866982      2.906864   1.000000   1.000000
   29        4.512571      5.581647   1.000000   0.000000
   30        7.739969      8.211470   0.000000   0.000000
   31        9.565789     10.154857   0.000000   0.000000
   32       10.225564     10.673213   0.000000   0.000000
   33       10.824627     10.923895   0.000000   0.000000
   34       11.349146     11.464417   0.000000   0.000000
   35       12.254487     12.323286   0.000000   0.000000
   36       12.605737     12.719489   0.000000   0.000000
   37       12.874358     12.952581   0.000000   0.000000
   38       13.073912     13.097466   0.000000   0.000000
   39       13.942005     13.981159   0.000000   0.000000
   40       14.348372     14.489719   0.000000   0.000000
   41       14.514643     14.579368   0.000000   0.000000
   42       14.771578     14.866005   0.000000   0.000000
   43       15.100568     15.149672   0.000000   0.000000
   44       15.425101     15.487948   0.000000   0.000000
   45       15.530768     15.601399   0.000000   0.000000
   46       15.637458     15.751619   0.000000   0.000000
   47       15.960593     15.982528   0.000000   0.000000
   48       16.235924     16.295045   0.000000   0.000000
 
  0.0000000E+00  0.5000000E+00  0.0000000E+00  0.1250000E+00
    1      -13.820722    -13.814095   1.000000   1.000000
    2      -13.192471    -13.147563   1.000000   1.000000
    3      -12.952500    -12.911136   1.000000   1.000000
    4      -12.624088    -12.573901   1.000000   1.000000
    5      -12.605501    -12.559150   1.000000   1.000000
    6      -12.491455    -12.437954   1.000000   1.000000
    7      -12.487470    -12.436237   1.000000   1.000000
    8       -0.936342     -0.928597   1.000000   1.000000
    9       -0.741634     -0.662080   1.000000   1.000000
   10       -0.669604     -0.550082   1.000000   1.000000
   11       -0.350688     -0.332753   1.000000   1.000000
   12        0.015945      0.075512   1.000000   1.000000
   13        0.188498      0.228757   1.000000   1.000000
   14        0.272978      0.370256   1.000000   1.000000
   15        0.711122      0.746120   1.000000   1.000000
   16        0.843298      0.886502   1.000000   1.000000
   17        1.129416      1.165993   1.000000   1.000000
   18        1.373681      1.400760   1.000000   1.000000
   19        1.466321      1.524323   1.000000   1.000000
   20        1.617132      1.675540   1.000000   1.000000
   21        1.775567      1.789872   1.000000   1.000000
   22        1.975785      1.994423   1.000000   1.000000
   23        2.061376      2.128212   1.000000   1.000000
   24        2.175768      2.202174   1.000000   1.000000
   25        2.731669      2.767492   1.000000   1.000000
   26        2.765563      2.805824   1.000000   1.000000
   27        2.865726      2.904798   1.000000   1.000000
   28        2.870845      2.912110   1.000000   1.000000
   29        4.512051      5.581044   1.000000   0.000000
   30        7.740790      8.211594   0.000000   0.000000
   31        9.563877     10.153013   0.000000   0.000000
   32       10.226090     10.673764   0.000000   0.000000
   33       10.824491     10.923726   0.000000   0.000000
   34       11.348691     11.464121   0.000000   0.000000
   35       12.255180     12.323649   0.000000   0.000000
   36       12.600018     12.713934   0.000000   0.000000
   37       12.878960     12.958058   0.000000   0.000000
   38       13.076534     13.100169   0.000000   0.000000
   39       13.940309     13.979249   0.000000   0.000000
   40       14.347263     14.488610   0.000000   0.000000
   41       14.513003     14.577856   0.000000   0.000000
   42       14.768952     14.862784   0.000000   0.000000
   43       15.104306     15.154105   0.000000   0.000000
   44       15.431394     15.493695   0.000000   0.000000
   45       15.536855     15.608787   0.000000   0.000000
   46       15.633972     15.746592   0.000000   0.000000
   47       15.956990     15.979195   0.000000   0.000000
   48       16.224377     16.284214   0.000000   0.000000
 
  0.5000000E+00  0.5000000E+00  0.0000000E+00  0.1250000E+00
    1      -13.758890    -13.756208   1.000000   1.000000
    2      -13.173207    -13.128027   1.000000   1.000000
    3      -12.856187    -12.809554   1.000000   1.000000
    4      -12.726507    -12.678494   1.000000   1.000000
    5      -12.718889    -12.669730   1.000000   1.000000
    6      -12.603228    -12.553342   1.000000   1.000000
    7      -12.370622    -12.318494   1.000000   1.000000
    8       -0.941990     -0.734279   1.000000   1.000000
    9       -0.495277     -0.474841   1.000000   1.000000
   10       -0.269663     -0.260267   1.000000   1.000000
   11        0.041662      0.067842   1.000000   1.000000
   12        0.193244      0.226753   1.000000   1.000000
   13        0.327059      0.332608   1.000000   1.000000
   14        0.422221      0.478233   1.000000   1.000000
   15        0.588636      0.622720   1.000000   1.000000
   16        0.744074      0.817436   1.000000   1.000000
   17        1.077139      1.152779   1.000000   1.000000
   18        1.169886      1.213102   1.000000   1.000000
   19        1.231531      1.305935   1.000000   1.000000
   20        1.441401      1.490768   1.000000   1.000000
   21        1.487881      1.524348   1.000000   1.000000
   22        1.534708      1.555666   1.000000   1.000000
   23        2.045698      2.061492   1.000000   1.000000
   24        2.233869      2.251036   1.000000   1.000000
   25        2.490525      2.518611   1.000000   1.000000
   26        2.576334      2.638084   1.000000   1.000000
   27        2.670842      2.711145   1.000000   1.000000
   28        2.839370      2.869392   1.000000   1.000000
   29        4.927194      6.058514   0.661546   0.000000
   30        7.877693      8.358921   0.000000   0.000000
   31        9.029923      9.585828   0.000000   0.000000
   32        9.555271     10.006924   0.000000   0.000000
   33       11.451723     11.500090   0.000000   0.000000
   34       12.133165     12.203411   0.000000   0.000000
   35       12.607914     12.686435   0.000000   0.000000
   36       13.181226     13.260364   0.000000   0.000000
   37       13.434701     13.507579   0.000000   0.000000
   38       13.785667     13.871382   0.000000   0.000000
   39       13.840647     13.910097   0.000000   0.000000
   40       14.419936     14.505311   0.000000   0.000000
   41       14.728722     14.746202   0.000000   0.000000
   42       14.781067     14.850401   0.000000   0.000000
   43       14.831856     14.893437   0.000000   0.000000
   44       15.050732     15.141064   0.000000   0.000000
   45       15.155711     15.322857   0.000000   0.000000
   46       15.476209     15.520728   0.000000   0.000000
   47       16.120440     16.191115   0.000000   0.000000
   48       16.418919     16.470202   0.000000   0.000000
 
  0.0000000E+00  0.0000000E+00  0.5000000E+00  0.1250000E+00
    1      -13.821139    -13.814475   1.000000   1.000000
    2      -13.190679    -13.145811   1.000000   1.000000
    3      -12.953852    -12.912523   1.000000   1.000000
    4      -12.625439    -12.575226   1.000000   1.000000
    5      -12.603387    -12.557044   1.000000   1.000000
    6      -12.493802    -12.440340   1.000000   1.000000
    7      -12.485980    -12.434690   1.000000   1.000000
    8       -0.936894     -0.929116   1.000000   1.000000
    9       -0.742430     -0.664542   1.000000   1.000000
   10       -0.672110     -0.551123   1.000000   1.000000
   11       -0.346204     -0.328236   1.000000   1.000000
   12        0.019099      0.079426   1.000000   1.000000
   13        0.187293      0.227166   1.000000   1.000000
   14        0.274486      0.371631   1.000000   1.000000
   15        0.712308      0.747721   1.000000   1.000000
   16        0.846135      0.888569   1.000000   1.000000
   17        1.132990      1.169804   1.000000   1.000000
   18        1.373992      1.400848   1.000000   1.000000
   19        1.460911      1.518935   1.000000   1.000000
   20        1.612292      1.670893   1.000000   1.000000
   21        1.775933      1.790238   1.000000   1.000000
   22        1.975541      1.993673   1.000000   1.000000
   23        2.064983      2.132053   1.000000   1.000000
   24        2.170257      2.197007   1.000000   1.000000
   25        2.733145      2.768981   1.000000   1.000000
   26        2.767787      2.808204   1.000000   1.000000
   27        2.863735      2.903953   1.000000   1.000000
   28        2.865784      2.905707   1.000000   1.000000
   29        4.512054      5.580829   1.000000   0.000000
   30        7.740383      8.211911   0.000000   0.000000
   31        9.567298     10.155803   0.000000   0.000000
   32       10.225689     10.674092   0.000000   0.000000
   33       10.825857     10.924959   0.000000   0.000000
   34       11.350133     11.465666   0.000000   0.000000
   35       12.257029     12.326249   0.000000   0.000000
   36       12.605862     12.719180   0.000000   0.000000
   37       12.874489     12.952799   0.000000   0.000000
   38       13.074767     13.098426   0.000000   0.000000
   39       13.940042     13.978881   0.000000   0.000000
   40       14.346573     14.488432   0.000000   0.000000
   41       14.514543     14.578831   0.000000   0.000000
   42       14.770515     14.866313   0.000000   0.000000
   43       15.095398     15.143775   0.000000   0.000000
   44       15.423432     15.485894   0.000000   0.000000
   45       15.535110     15.605722   0.000000   0.000000
   46       15.642038     15.757306   0.000000   0.000000
   47       15.956739     15.979107   0.000000   0.000000
   48       16.235679     16.294878   0.000000   0.000000
 
  0.5000000E+00  0.0000000E+00  0.5000000E+00  0.1250000E+00
    1      -13.759077    -13.756389   1.000000   1.000000
    2      -13.174054    -13.128854   1.000000   1.000000
    3      -12.852259    -12.805563   1.000000   1.000000
    4      -12.727016    -12.678997   1.000000   1.000000
    5      -12.718594    -12.669471   1.000000   1.000000
    6      -12.606465    -12.556773   1.000000   1.000000
    7      -12.370081    -12.317818   1.000000   1.000000
    8       -0.941459     -0.733908   1.000000   1.000000
    9       -0.498369     -0.477901   1.000000   1.000000
   10       -0.267009     -0.257613   1.000000   1.000000
   11        0.041169      0.067510   1.000000   1.000000
   12        0.194857      0.228542   1.000000   1.000000
   13        0.325177      0.330831   1.000000   1.000000
   14        0.420870      0.476565   1.000000   1.000000
   15        0.589445      0.623662   1.000000   1.000000
   16        0.748117      0.821858   1.000000   1.000000
   17        1.080155      1.156190   1.000000   1.000000
   18        1.176129      1.219143   1.000000   1.000000
   19        1.231464      1.306425   1.000000   1.000000
   20        1.437756      1.486392   1.000000   1.000000
   21        1.478987      1.514153   1.000000   1.000000
   22        1.530321      1.552146   1.000000   1.000000
   23        2.042749      2.058501   1.000000   1.000000
   24        2.239854      2.256680   1.000000   1.000000
   25        2.485716      2.514036   1.000000   1.000000
   26        2.584670      2.646528   1.000000   1.000000
   27        2.669751      2.710143   1.000000   1.000000
   28        2.838716      2.868662   1.000000   1.000000
   29        4.926859      6.058330   0.665012   0.000000
   30        7.882167      8.362748   0.000000   0.000000
   31        9.025855      9.582269   0.000000   0.000000
   32        9.555357     10.006654   0.000000   0.000000
   33       11.452944     11.501572   0.000000   0.000000
   34       12.134290     12.203884   0.000000   0.000000
   35       12.600541     12.679303   0.000000   0.000000
   36       13.176353     13.255183   0.000000   0.000000
   37       13.440907     13.514328   0.000000   0.000000
   38       13.779485     13.875033   0.000000   0.000000
   39       13.844227     13.904011   0.000000   0.000000
   40       14.425217     14.511631   0.000000   0.000000
   41       14.732031     14.749641   0.000000   0.000000
   42       14.791522     14.857910   0.000000   0.000000
   43       14.835638     14.896606   0.000000   0.000000
   44       15.050743     15.143007   0.000000   0.000000
   45       15.153029     15.320293   0.000000   0.000000
   46       15.458615     15.502025   0.000000   0.000000
   47       16.123654     16.191793   0.000000   0.000000
   48       16.418564     16.469670   0.000000   0.000000
 
  0.0000000E+00  0.5000000E+00  0.5000000E+00  0.1250000E+00
    1      -13.758859    -13.756188   1.000000   1.000000
    2      -13.174255    -13.129023   1.000000   1.000000
    3      -12.854611    -12.807930   1.000000   1.000000
    4      -12.727635    -12.679584   1.000000   1.000000
    5      -12.716806    -12.667772   1.000000   1.000000
    6      -12.604012    -12.554242   1.000000   1.000000
    7      -12.371375    -12.319130   1.000000   1.000000
    8       -0.941860     -0.733938   1.000000   1.000000
    9       -0.495225     -0.475176   1.000000   1.000000
   10       -0.269511     -0.260115   1.000000   1.000000
   11        0.041031      0.067200   1.000000   1.000000
   12        0.192734      0.226436   1.000000   1.000000
   13        0.326995      0.332602   1.000000   1.000000
   14        0.421055      0.476935   1.000000   1.000000
   15        0.588396      0.622521   1.000000   1.000000
   16        0.746237      0.819671   1.000000   1.000000
   17        1.080972      1.156246   1.000000   1.000000
   18        1.172054      1.215327   1.000000   1.000000
   19        1.230740      1.305765   1.000000   1.000000
   20        1.439314      1.488511   1.000000   1.000000
   21        1.486082      1.521791   1.000000   1.000000
   22        1.534129      1.555712   1.000000   1.000000
   23        2.046160      2.061887   1.000000   1.000000
   24        2.235399      2.252370   1.000000   1.000000
   25        2.488577      2.516709   1.000000   1.000000
   26        2.576688      2.638611   1.000000   1.000000
   27        2.669850      2.710190   1.000000   1.000000
   28        2.838702      2.868718   1.000000   1.000000
   29        4.926037      6.057683   0.673441   0.000000
   30        7.880372      8.360267   0.000000   0.000000
   31        9.028720      9.585002   0.000000   0.000000
   32        9.556471     10.008459   0.000000   0.000000
   33       11.452197     11.500579   0.000000   0.000000
   34       12.135098     12.205070   0.000000   0.000000
   35       12.606503     12.684999   0.000000   0.000000
   36       13.178966     13.257838   0.000000   0.000000
   37       13.434638     13.507653   0.000000   0.000000
   38       13.791140     13.874243   0.000000   0.000000
   39       13.843508     13.916007   0.000000   0.000000
   40       14.423379     14.510589   0.000000   0.000000
   41       14.728169     14.745826   0.000000   0.000000
   42       14.783896     14.855595   0.000000   0.000000
   43       14.830350     14.887291   0.000000   0.000000
   44       15.048807     15.139211   0.000000   0.000000
   45       15.154520     15.321776   0.000000   0.000000
   46       15.467171     15.513005   0.000000   0.000000
   47       16.119959     16.190079   0.000000   0.000000
   48       16.420631     16.466694   0.000000   0.000000
 
  0.5000000E+00  0.5000000E+00  0.5000000E+00  0.1250000E+00
    1      -13.831901    -13.824805   1.000000   1.000000
    2      -13.144152    -13.098877   1.000000   1.000000
    3      -13.000979    -12.959354   1.000000   1.000000
    4      -12.598471    -12.552334   1.000000   1.000000
    5      -12.595853    -12.549750   1.000000   1.000000
    6      -12.501846    -12.447956   1.000000   1.000000
    7      -12.498949    -12.444970   1.000000   1.000000
    8       -1.030278     -0.887276   1.000000   1.000000
    9       -0.708386     -0.700835   1.000000   1.000000
   10       -0.704963     -0.697454   1.000000   1.000000
   11       -0.492372     -0.476571   1.000000   1.000000
   12        0.001124      0.025109   1.000000   1.000000
   13        0.356106      0.454943   1.000000   1.000000
   14        0.358944      0.457721   1.000000   1.000000
   15        0.606473      0.703065   1.000000   1.000000
   16        0.951935      0.973175   1.000000   1.000000
   17        1.310553      1.369905   1.000000   1.000000
   18        1.313520      1.373071   1.000000   1.000000
   19        1.444571      1.474012   1.000000   1.000000
   20        1.450418      1.480282   1.000000   1.000000
   21        1.898250      1.910899   1.000000   1.000000
   22        1.902382      1.915053   1.000000   1.000000
   23        2.289989      2.338297   1.000000   1.000000
   24        2.483683      2.549403   1.000000   1.000000
   25        2.641038      2.678090   1.000000   1.000000
   26        2.645130      2.681936   1.000000   1.000000
   27        2.717035      2.743232   1.000000   1.000000
   28        2.719996      2.746403   1.000000   1.000000
   29        4.401782      5.499911   1.000000   0.000000
   30        8.302895      8.620636   0.000000   0.000000
   31        9.484374     10.041088   0.000000   0.000000
   32        9.492079     10.048759   0.000000   0.000000
   33       11.034749     11.085377   0.000000   0.000000
   34       11.344990     11.528502   0.000000   0.000000
   35       12.884601     12.933914   0.000000   0.000000
   36       12.885240     12.934561   0.000000   0.000000
   37       13.052186     13.188166   0.000000   0.000000
   38       13.060257     13.197456   0.000000   0.000000
   39       13.320273     13.342153   0.000000   0.000000
   40       14.255843     14.339132   0.000000   0.000000
   41       14.266747     14.385995   0.000000   0.000000
   42       14.269165     14.396951   0.000000   0.000000
   43       14.793196     14.809318   0.000000   0.000000
   44       15.142470     15.192345   0.000000   0.000000
   45       15.153230     15.202736   0.000000   0.000000
   46       16.074082     16.108515   0.000000   0.000000
   47       16.248512     16.325357   0.000000   0.000000
   48       16.263643     16.338134   0.000000   0.000000
