 vasp.5.4.1 05Feb16 (build Mar 31 2016 13:39:20) complex                        
  
 executed on           IFC91_ompi date 2018.04.28  12:51:23
 running on   16 total cores
 distrk:  each k-point on   16 cores,    1 groups
 distr:  one band on NCORES_PER_BAND=   4 cores,    4 groups


--------------------------------------------------------------------------------------------------------


 INCAR:
 POTCAR:    PAW_PBE Mg 13Apr2007                  
 POTCAR:    PAW_PBE O 08Apr2002                   
 POTCAR:    PAW_PBE Mg 13Apr2007                  
   VRHFIN =Mg: s2p0                                                             
   LEXCH  = PE                                                                  
   EATOM  =    23.0369 eV,    1.6932 Ry                                         
                                                                                
   TITEL  = PAW_PBE Mg 13Apr2007                                                
   LULTRA =        F    use ultrasoft PP ?                                      
   IUNSCR =        1    unscreen: 0-lin 1-nonlin 2-no                           
   RPACOR =    1.500    partial core radius                                     
   POMASS =   24.305; ZVAL   =    2.000    mass and valenz                      
   RCORE  =    2.000    outmost cutoff radius                                   
   RWIGS  =    2.880; RWIGS  =    1.524    wigner-seitz radius (au A)           
   ENMAX  =  126.143; ENMIN  =   94.607 eV                                      
   RCLOC  =    1.506    cutoff for local pot                                    
   LCOR   =        T    correct aug charges                                     
   LPAW   =        T    paw PP                                                  
   EAUG   =  454.734                                                            
   DEXC   =    0.000                                                            
   RMAX   =    2.045    core radius for proj-oper                               
   RAUG   =    1.300    factor for augmentation sphere                          
   RDEP   =    2.025    radius for radial grids                                 
   RDEPT  =    1.942    core radius for aug-charge                              
                                                                                
   Atomic configuration                                                         
    6 entries                                                                   
     n  l   j            E        occ.                                          
     1  0  0.50     -1259.6230   2.0000                                         
     2  0  0.50       -79.8442   2.0000                                         
     2  1  1.50       -46.6121   6.0000                                         
     3  0  0.50        -4.7055   2.0000                                         
     3  1  0.50        -1.3660   0.0000                                         
     3  2  1.50        -1.3606   0.0000                                         
   Description                                                                  
     l       E           TYP  RCUT    TYP  RCUT                                 
     0     -4.7054661     23  2.000                                             
     0     27.2116520     23  2.000                                             
     1      1.3605826     23  2.000                                             
     1     27.2116520     23  2.000                                             
     2     -1.3605826     23  2.000                                             
  local pseudopotential read in
  partial core-charges read in
  partial kinetic energy density read in
  atomic valenz-charges read in
  non local Contribution for L=           0  read in
    real space projection operators read in
  non local Contribution for L=           0  read in
    real space projection operators read in
  non local Contribution for L=           1  read in
    real space projection operators read in
  non local Contribution for L=           1  read in
    real space projection operators read in
  non local Contribution for L=           2  read in
    real space projection operators read in
    PAW grid and wavefunctions read in
 
   number of l-projection  operators is LMAX  =           5
   number of lm-projection operators is LMMAX =          13
 
 POTCAR:    PAW_PBE O 08Apr2002                   
   VRHFIN =O: s2p4                                                              
   LEXCH  = PE                                                                  
   EATOM  =   432.3788 eV,   31.7789 Ry                                         
                                                                                
   TITEL  = PAW_PBE O 08Apr2002                                                 
   LULTRA =        F    use ultrasoft PP ?                                      
   IUNSCR =        1    unscreen: 0-lin 1-nonlin 2-no                           
   RPACOR =    1.200    partial core radius                                     
   POMASS =   16.000; ZVAL   =    6.000    mass and valenz                      
   RCORE  =    1.520    outmost cutoff radius                                   
   RWIGS  =    1.550; RWIGS  =    0.820    wigner-seitz radius (au A)           
   ENMAX  =  400.000; ENMIN  =  300.000 eV                                      
   ICORE  =        2    local potential                                         
   LCOR   =        T    correct aug charges                                     
   LPAW   =        T    paw PP                                                  
   EAUG   =  605.392                                                            
   DEXC   =    0.000                                                            
   RMAX   =    1.553    core radius for proj-oper                               
   RAUG   =    1.300    factor for augmentation sphere                          
   RDEP   =    1.550    radius for radial grids                                 
   RDEPT  =    1.329    core radius for aug-charge                              
                                                                                
   Atomic configuration                                                         
    4 entries                                                                   
     n  l   j            E        occ.                                          
     1  0  0.50      -514.6923   2.0000                                         
     2  0  0.50       -23.9615   2.0000                                         
     2  1  0.50        -9.0305   4.0000                                         
     3  2  1.50        -9.5241   0.0000                                         
   Description                                                                  
     l       E           TYP  RCUT    TYP  RCUT                                 
     0    -23.9615318     23  1.200                                             
     0     -9.5240782     23  1.200                                             
     1     -9.0304911     23  1.520                                             
     1      8.1634956     23  1.520                                             
     2     -9.5240782      7  1.500                                             
  local pseudopotential read in
  partial core-charges read in
  partial kinetic energy density read in
  kinetic energy density of atom read in
  atomic valenz-charges read in
  non local Contribution for L=           0  read in
    real space projection operators read in
  non local Contribution for L=           0  read in
    real space projection operators read in
  non local Contribution for L=           1  read in
    real space projection operators read in
  non local Contribution for L=           1  read in
    real space projection operators read in
    PAW grid and wavefunctions read in
 
   number of l-projection  operators is LMAX  =           4
   number of lm-projection operators is LMMAX =           8
 
 Optimization of the real space projectors (new method)

 maximal supplied QI-value         = 18.90
 optimisation between [QCUT,QGAM] = [ 10.20, 20.41] = [ 29.16,116.64] Ry 
 Optimized for a Real-space Cutoff    1.30 Angstroem

   l    n(q)    QCUT    max X(q) W(low)/X(q) W(high)/X(q)  e(spline) 
   0      8    10.205    28.265    0.22E-03    0.17E-03    0.53E-07
   0      8    10.205    10.429    0.17E-03    0.15E-03    0.43E-07
   1      7    10.205    13.073    0.71E-04    0.41E-03    0.76E-07
   1      7    10.205     9.625    0.71E-04    0.33E-03    0.63E-07
   2      7    10.205     4.652    0.24E-03    0.41E-03    0.55E-07
 Optimization of the real space projectors (new method)

 maximal supplied QI-value         = 24.76
 optimisation between [QCUT,QGAM] = [ 10.15, 20.30] = [ 28.85,115.39] Ry 
 Optimized for a Real-space Cutoff    1.38 Angstroem

   l    n(q)    QCUT    max X(q) W(low)/X(q) W(high)/X(q)  e(spline) 
   0      8    10.150    20.381    0.22E-03    0.32E-03    0.29E-06
   0      8    10.150    15.268    0.23E-03    0.35E-03    0.30E-06
   1      8    10.150     5.964    0.46E-03    0.53E-03    0.21E-06
   1      8    10.150     5.382    0.38E-03    0.45E-03    0.19E-06
  PAW_PBE Mg 13Apr2007                  :
 energy of atom  1       EATOM=  -23.0369
 kinetic energy error for atom=    0.0001 (will be added to EATOM!!)
  PAW_PBE O 08Apr2002                   :
 energy of atom  2       EATOM= -432.3788
 kinetic energy error for atom=    0.1156 (will be added to EATOM!!)
 
 
 POSCAR: Mg9 O7                                  
  positions in direct lattice
  velocities in cartesian coordinates
 exchange correlation table for  LEXCH =        8
   RHO(1)=    0.500       N(1)  =     2000
   RHO(2)=  100.500       N(2)  =     4000
 


--------------------------------------------------------------------------------------------------------


 ion  position               nearest neighbor table
   1  0.161  0.159  0.159-  10 1.93  11 1.93  13 1.94   6 2.09   3 2.09   4 2.09   2 2.38   5 3.19
                             7 3.19   8 3.19   9 3.47   9 3.48   9 3.48
   2  0.999  0.999  0.997-  15 2.05  12 2.05  14 2.05  10 2.20  13 2.20  11 2.20   1 2.38   3 2.75
                             6 2.75   4 2.76   5 3.00   8 3.00   7 3.01   7 3.01   8 3.01   5 3.01
   3  0.970  0.970  0.570-  16 1.91  12 2.00  14 2.00   1 2.09  13 2.21  11 2.22   6 2.38   4 2.39
                             2 2.75   7 2.87   5 2.87   9 3.02   9 3.03   5 3.17   7 3.17   2 3.28
   4  0.970  0.571  0.968-  16 1.91  12 2.01  15 2.01   1 2.09  13 2.21  10 2.21   3 2.39   6 2.39
                             2 2.76   8 2.86   5 2.87   9 3.02   9 3.03   5 3.16   8 3.17   2 3.27
   5  0.997  0.512  0.508-  16 2.00  15 2.12  14 2.12  11 2.21  10 2.22   4 2.87   3 2.87   7 2.91
                             8 2.91   9 2.96   2 3.00   2 3.01   9 3.05   8 3.09   7 3.10   4 3.16
   6  0.573  0.970  0.967-  16 1.91  15 2.00  14 2.00   1 2.09  10 2.21  11 2.22   3 2.38   4 2.39
                             2 2.75   7 2.86   8 2.87   9 3.02   9 3.03   8 3.17   7 3.17   2 3.28
   7  0.512  0.996  0.510-  16 2.00  12 2.13  15 2.13  10 2.21  13 2.21   6 2.86   3 2.87   5 2.91
                             8 2.91   9 2.96   2 3.01   2 3.01   9 3.05   8 3.10   5 3.10   3 3.17
   8  0.512  0.511  0.994-  16 2.00  14 2.12  12 2.12  13 2.21  11 2.21   4 2.86   6 2.87   7 2.91
                             5 2.91   9 2.96   2 3.00   2 3.01   9 3.05   5 3.09   7 3.10   6 3.17
   9  0.507  0.508  0.506-  12 2.12  14 2.13  15 2.13  11 2.13  13 2.14  10 2.14   7 2.96   5 2.96
                             8 2.96   4 3.02   3 3.02   6 3.02   4 3.03   6 3.03   3 3.03   8 3.05
  10  0.257  0.255  0.771-   1 1.93   9 2.14   2 2.20   6 2.21   7 2.21   4 2.21   5 2.22
  11  0.257  0.771  0.255-   1 1.93   9 2.13   2 2.20   5 2.21   8 2.21   3 2.22   6 2.22
  12  0.250  0.757  0.756-   3 2.00   4 2.01   2 2.05   8 2.12   9 2.12   7 2.13
  13  0.773  0.256  0.255-   1 1.94   9 2.14   2 2.20   4 2.21   8 2.21   7 2.21   3 2.21
  14  0.758  0.251  0.755-   3 2.00   6 2.00   2 2.05   8 2.12   5 2.12   9 2.13
  15  0.758  0.758  0.248-   6 2.00   4 2.01   2 2.05   5 2.12   9 2.13   7 2.13
  16  0.748  0.747  0.745-   4 1.91   6 1.91   3 1.91   7 2.00   5 2.00   8 2.00
 
  LATTYP: Found a face centered cubic cell.
 ALAT       =     8.4937860000
  
  Lattice vectors:
  
 A1 = (   0.0000000000,   4.2468930000,   4.2468930000)
 A2 = (   4.2468930000,   0.0000000000,   4.2468930000)
 A3 = (   4.2468930000,   4.2468930000,   0.0000000000)


Analysis of symmetry for initial positions (statically):
=====================================================================
 Subroutine PRICEL returns:
 Original cell was already a primitive cell.
 

 Routine SETGRP: Setting up the symmetry group for a 
 face centered cubic supercell.


 Subroutine GETGRP returns: Found  1 space group operations
 (whereof  1 operations were pure point group operations)
 out of a pool of 48 trial point group operations.


The static configuration has the point symmetry C_1 .


Analysis of symmetry for dynamics (positions and initial velocities):
=====================================================================
 Subroutine PRICEL returns:
 Original cell was already a primitive cell.
 

 Routine SETGRP: Setting up the symmetry group for a 
 face centered cubic supercell.


 Subroutine GETGRP returns: Found  1 space group operations
 (whereof  1 operations were pure point group operations)
 out of a pool of 48 trial point group operations.


The dynamic configuration has the point symmetry C_1 .


Analysis of structural, dynamic, and magnetic symmetry:
=====================================================================
 Subroutine PRICEL returns:
 Original cell was already a primitive cell.
 

 Routine SETGRP: Setting up the symmetry group for a 
 face centered cubic supercell.


 Subroutine GETGRP returns: Found  1 space group operations
 (whereof  1 operations were pure point group operations)
 out of a pool of 48 trial point group operations.


The magnetic configuration has the point symmetry C_1 .


 Subroutine INISYM returns: Found  1 space group operations
 (whereof  1 operations are pure point group operations),
 and found     1 'primitive' translations

 
 
 KPOINTS: k-point mesh                            

Automatic generation of k-mesh.
Space group operators:
 irot       det(A)        alpha          n_x          n_y          n_z        tau_x        tau_y        tau_z
    1     1.000000     0.000000     1.000000     0.000000     0.000000     0.000000     0.000000     0.000000
 
 Subroutine IBZKPT returns following result:
 ===========================================
 
 Found      8 irreducible k-points:
 
 Following reciprocal coordinates:
            Coordinates               Weight
  0.000000  0.000000  0.000000      1.000000
  0.500000  0.000000  0.000000      1.000000
  0.000000  0.500000  0.000000      1.000000
  0.500000  0.500000  0.000000      1.000000
  0.000000  0.000000  0.500000      1.000000
  0.500000  0.000000  0.500000      1.000000
  0.000000  0.500000  0.500000      1.000000
  0.500000  0.500000  0.500000      1.000000
 
 Following cartesian coordinates:
            Coordinates               Weight
  0.000000  0.000000  0.000000      1.000000
 -0.058867  0.058867  0.058867      1.000000
  0.058867 -0.058867  0.058867      1.000000
  0.000000  0.000000  0.117733      1.000000
  0.058867  0.058867 -0.058867      1.000000
  0.000000  0.117733  0.000000      1.000000
  0.117733  0.000000  0.000000      1.000000
  0.058867  0.058867  0.058867      1.000000
 


--------------------------------------------------------------------------------------------------------




 Dimension of arrays:
   k-points           NKPTS =      8   k-points in BZ     NKDIM =      8   number of bands    NBANDS=     48
   number of dos      NEDOS =    301   number of ions     NIONS =     16
   non local maximal  LDIM  =      5   non local SUM 2l+1 LMDIM =     13
   total plane-waves  NPLWV =  27000
   max r-space proj   IRMAX =   1992   max aug-charges    IRDMAX=   7686
   dimension x,y,z NGX =    30 NGY =   30 NGZ =   30
   dimension x,y,z NGXF=    60 NGYF=   60 NGZF=   60
   support grid    NGXF=    60 NGYF=   60 NGZF=   60
   ions per type =               9   7
 NGX,Y,Z   is equivalent  to a cutoff of   8.30,  8.30,  8.30 a.u.
 NGXF,Y,Z  is equivalent  to a cutoff of  16.61, 16.61, 16.61 a.u.


 I would recommend the setting:
   dimension x,y,z NGX =    29 NGY =   29 NGZ =   29
 SYSTEM =  unknown system                          
 POSCAR =  Mg9 O7                                  

 Startparameter for this run:
   NWRITE =      2    write-flag & timer
   PREC   = n         normal or accurate (medium, high low for compatibility)
   ISTART =      0    job   : 0-new  1-cont  2-samecut
   ICHARG =      2    charge: 1-file 2-atom 10-const
   ISPIN  =      2    spin polarized calculation?
   LNONCOLLINEAR =      F non collinear calculations
   LSORBIT =      F    spin-orbit coupling
   INIWAV =      1    electr: 0-lowe 1-rand  2-diag
   LASPH  =      T    aspherical Exc in radial PAW
   METAGGA=      F    non-selfconsistent MetaGGA calc.

 Electronic Relaxation 1
   ENCUT  =  400.0 eV  29.40 Ry    5.42 a.u.   9.79  9.79  9.79*2*pi/ulx,y,z
   ENINI  =  400.0     initial cutoff
   ENAUG  =  605.4 eV  augmentation charge cutoff
   NELM   =    100;   NELMIN=  4; NELMDL=  0     # of ELM steps 
   EDIFF  = 0.1E-05   stopping-criterion for ELM
   LREAL  =      T    real-space projection
   NLSPLINE    = F    spline interpolate recip. space projectors
   LCOMPAT=      F    compatible to vasp.4.4
   GGA_COMPAT  = T    GGA compatible to vasp.4.4-vasp.4.6
   LMAXPAW     = -100 max onsite density
   LMAXMIX     =    2 max onsite mixed and CHGCAR
   VOSKOWN=      0    Vosko Wilk Nusair interpolation
   ROPT   =   -0.00050  -0.00050
 Ionic relaxation
   EDIFFG = -.5E-01   stopping-criterion for IOM
   NSW    =     20    number of steps for IOM
   NBLOCK =      1;   KBLOCK =     20    inner block; outer block 
   IBRION =      2    ionic relax: 0-MD 1-quasi-New 2-CG
   NFREE  =      1    steps in history (QN), initial steepest desc. (CG)
   ISIF   =      2    stress and relaxation
   IWAVPR =     11    prediction:  0-non 1-charg 2-wave 3-comb
   ISYM   =      2    0-nonsym 1-usesym 2-fastsym
   LCORR  =      T    Harris-Foulkes like correction to forces

   POTIM  = 0.5000    time-step for ionic-motion
   TEIN   =    0.0    initial temperature
   TEBEG  =    0.0;   TEEND  =   0.0 temperature during run
   SMASS  =  -3.00    Nose mass-parameter (am)
   estimated Nose-frequenzy (Omega)   =  0.10E-29 period in steps =****** mass=  -0.824E-27a.u.
   SCALEE = 1.0000    scale energy and forces
   NPACO  =    256;   APACO  = 16.0  distance and # of slots for P.C.
   PSTRESS=    0.0 pullay stress

  Mass of Ions in am
   POMASS =  24.30 16.00
  Ionic Valenz
   ZVAL   =   2.00  6.00
  Atomic Wigner-Seitz radii
   RWIGS  =  -1.00 -1.00
  virtual crystal weights 
   VCA    =   1.00  1.00
   NELECT =      57.0000    total number of electrons
   NUPDOWN=      -1.0000    fix difference up-down

 DOS related values:
   EMIN   =  10.00;   EMAX   =-10.00  energy-range for DOS
   EFERMI =   0.00
   ISMEAR =     0;   SIGMA  =   0.05  broadening in eV -4-tet -1-fermi 0-gaus

 Electronic relaxation 2 (details)
   IALGO  =     38    algorithm
   LDIAG  =      T    sub-space diagonalisation (order eigenvalues)
   LSUBROT=      F    optimize rotation matrix (better conditioning)
   TURBO    =      0    0=normal 1=particle mesh
   IRESTART =      0    0=no restart 2=restart with 2 vectors
   NREBOOT  =      0    no. of reboots
   NMIN     =      0    reboot dimension
   EREF     =   0.00    reference energy to select bands
   IMIX   =      4    mixing-type and parameters
     AMIX     =   0.40;   BMIX     =  1.00
     AMIX_MAG =   1.60;   BMIX_MAG =  1.00
     AMIN     =   0.10
     WC   =   100.;   INIMIX=   1;  MIXPRE=   1;  MAXMIX= -45

 Intra band minimization:
   WEIMIN = 0.0010     energy-eigenvalue tresh-hold
   EBREAK =  0.52E-08  absolut break condition
   DEPER  =   0.30     relativ break condition  

   TIME   =   0.40     timestep for ELM

  volume/ion in A,a.u.               =       9.57        64.61
  Fermi-wavevector in a.u.,A,eV,Ry     =   1.177475  2.225106 18.863771  1.386448
  Thomas-Fermi vector in A             =   2.313821
 
 Write flags
   LWAVE  =      F    write WAVECAR
   LCHARG =      F    write CHGCAR
   LVTOT  =      F    write LOCPOT, total local potential
   LVHAR  =      F    write LOCPOT, Hartree potential only
   LELF   =      F    write electronic localiz. function (ELF)
   LORBIT =     12    0 simple, 1 ext, 2 COOP (PROOUT)


 Dipole corrections
   LMONO  =      F    monopole corrections only (constant potential shift)
   LDIPOL =      F    correct potential (dipole corrections)
   IDIPOL =      0    1-x, 2-y, 3-z, 4-all directions 
   EPSILON=  1.0000000 bulk dielectric constant

 Exchange correlation treatment:
   GGA     =    --    GGA type
   LEXCH   =     8    internal setting for exchange type
   VOSKOWN=      0    Vosko Wilk Nusair interpolation
   LHFCALC =     F    Hartree Fock is set to
   LHFONE  =     F    Hartree Fock one center treatment
   AEXX    =    0.0000 exact exchange contribution

 Linear response parameters
   LEPSILON=     F    determine dielectric tensor
   LRPA    =     F    only Hartree local field effects (RPA)
   LNABLA  =     F    use nabla operator in PAW spheres
   LVEL    =     F    velocity operator in full k-point grid
   LINTERFAST=   F  fast interpolation
   KINTER  =     0    interpolate to denser k-point grid
   CSHIFT  =0.1000    complex shift for real part using Kramers Kronig
   OMEGAMAX=  -1.0    maximum frequency
   DEG_THRESHOLD= 0.2000000E-02 threshold for treating states as degnerate
   RTIME   =    0.100 relaxation time in fs

 Orbital magnetization related:
   ORBITALMAG=     F  switch on orbital magnetization
   LCHIMAG   =     F  perturbation theory with respect to B field
   DQ        =  0.001000  dq finite difference perturbation B field



--------------------------------------------------------------------------------------------------------


 conjugate gradient relaxation of ions
 charge density and potential will be updated during run
 spin polarized calculation
 Variant of blocked Davidson
 Davidson routine will perform the subspace rotation
 perform sub-space diagonalisation
    after iterative eigenvector-optimisation
 modified Broyden-mixing scheme, WC =      100.0
 initial mixing is a Kerker type mixing with AMIX =  0.4000 and BMIX =      1.0000
 Hartree-type preconditioning will be used
 using additional bands           19
 real space projection scheme for non local part
 use partial core corrections
 calculate Harris-corrections to forces 
   (improved forces if not selfconsistent)
 use gradient corrections 
 use of overlap-Matrix (Vanderbilt PP)
 Gauss-broadening in eV      SIGMA  =   0.05


--------------------------------------------------------------------------------------------------------


  energy-cutoff  :      400.00
  volume of cell :      153.19
      direct lattice vectors                 reciprocal lattice vectors
     0.000000000  4.246893000  4.246893000    -0.117733129  0.117733129  0.117733129
     4.246893000  0.000000000  4.246893000     0.117733129 -0.117733129  0.117733129
     4.246893000  4.246893000  0.000000000     0.117733129  0.117733129 -0.117733129

  length of vectors
     6.006013679  6.006013679  6.006013679     0.203919761  0.203919761  0.203919761


 
 k-points in units of 2pi/SCALE and weight: k-point mesh                            
   0.00000000  0.00000000  0.00000000       0.125
  -0.05886656  0.05886656  0.05886656       0.125
   0.05886656 -0.05886656  0.05886656       0.125
   0.00000000  0.00000000  0.11773313       0.125
   0.05886656  0.05886656 -0.05886656       0.125
   0.00000000  0.11773313  0.00000000       0.125
   0.11773313  0.00000000  0.00000000       0.125
   0.05886656  0.05886656  0.05886656       0.125
 
 k-points in reciprocal lattice and weights: k-point mesh                            
   0.00000000  0.00000000  0.00000000       0.125
   0.50000000  0.00000000  0.00000000       0.125
   0.00000000  0.50000000  0.00000000       0.125
   0.50000000  0.50000000  0.00000000       0.125
   0.00000000  0.00000000  0.50000000       0.125
   0.50000000  0.00000000  0.50000000       0.125
   0.00000000  0.50000000  0.50000000       0.125
   0.50000000  0.50000000  0.50000000       0.125
 
 position of ions in fractional coordinates (direct lattice) 
   0.16127941  0.15930671  0.15886703
   0.99878088  0.99877541  0.99707987
   0.97000667  0.96978076  0.57049324
   0.97004882  0.57059208  0.96763495
   0.99658910  0.51210955  0.50832658
   0.57265506  0.96994508  0.96704075
   0.51176186  0.99621765  0.50997740
   0.51211322  0.51125686  0.99436786
   0.50726157  0.50796711  0.50563426
   0.25724953  0.25532777  0.77120100
   0.25656653  0.77144952  0.25542896
   0.25022582  0.75740687  0.75644760
   0.77292221  0.25633643  0.25465817
   0.75791935  0.25089901  0.75548543
   0.75801761  0.75779259  0.24763853
   0.74787035  0.74716358  0.74493338
 
 position of ions in cartesian coordinates  (Angst):
   1.35124983  1.35962768  1.36149493
   8.47618384  8.47620708  8.48340785
   6.54137886  6.54233828  8.23806968
   6.53268563  8.22913565  6.54293707
   4.33368305  6.39121585  6.40728173
   8.22617157  6.53892333  6.55125774
   6.39664921  4.33921732  6.40422764
   6.39422711  6.39786398  4.34614324
   4.30465656  4.30166021  4.31156761
   4.35955784  4.36771935  2.17686095
   4.36104303  2.17439009  4.36587418
   6.42917797  4.27523430  4.27930822
   2.17013939  4.36402391  4.37115133
   4.27400704  6.42726817  4.28434361
   4.26995838  4.27091400  6.43748374
   6.33677612  6.33977771  6.34924915
 


--------------------------------------------------------------------------------------------------------


 k-point  1 :   0.0000 0.0000 0.0000  plane waves:    2733
 k-point  2 :   0.5000 0.0000 0.0000  plane waves:    2788
 k-point  3 :   0.0000 0.5000 0.0000  plane waves:    2788
 k-point  4 :   0.5000 0.5000 0.0000  plane waves:    2778
 k-point  5 :   0.0000 0.0000 0.5000  plane waves:    2788
 k-point  6 :   0.5000 0.0000 0.5000  plane waves:    2778
 k-point  7 :   0.0000 0.5000 0.5000  plane waves:    2778
 k-point  8 :   0.5000 0.5000 0.5000  plane waves:    2788

 maximum and minimum number of plane-waves per node :       715      668

 maximum number of plane-waves:      2788
 maximum index in each direction: 
   IXMAX=    9   IYMAX=    9   IZMAX=    9
   IXMIN=  -10   IYMIN=  -10   IZMIN=  -10

 WARNING: aliasing errors must be expected set NGX to  40 to avoid them
 WARNING: aliasing errors must be expected set NGY to  40 to avoid them
 WARNING: aliasing errors must be expected set NGZ to  40 to avoid them
 aliasing errors are usually negligible using standard VASP settings
 and one can safely disregard these warnings

 real space projection operators:
  total allocation   :       2260.41 KBytes
  max/ min on nodes  :        611.30        517.76


 parallel 3D FFT for wavefunctions:
    minimum data exchange during FFTs selected (reduces bandwidth)
 parallel 3D FFT for charge:
    minimum data exchange during FFTs selected (reduces bandwidth)


 total amount of memory used by VASP on root node    36166. kBytes
========================================================================

   base      :      30000. kBytes
   nonlr-proj:       1281. kBytes
   fftplans  :        708. kBytes
   grid      :       1766. kBytes
   one-center:         64. kBytes
   wavefun   :       2347. kBytes
 
     INWAV:  cpu time    0.0000: real time    0.0004
 Broyden mixing: mesh for mixing (old mesh)
   NGX = 19   NGY = 19   NGZ = 19
  (NGX  = 60   NGY  = 60   NGZ  = 60)
  gives a total of   6859 points

 initial charge density was supplied:
 charge density of overlapping atoms calculated
 number of electron      60.0000000 magnetization      16.0000000
 keeping initial charge density in first step


--------------------------------------------------------------------------------------------------------


 Maximum index for non-local projection operator          525
 Maximum index for augmentation-charges          573 (set IRDMAX)


--------------------------------------------------------------------------------------------------------


 First call to EWALD:  gamma=   0.331
 Maximum number of real-space cells 3x 3x 3
 Maximum number of reciprocal cells 3x 3x 3

 FEWALD executed in parallel
    FEWALD:  cpu time    0.0000: real time    0.0017


----------------------------------------- Iteration    1(   1)  ---------------------------------------


    POTLOK:  cpu time    0.0240: real time    0.0210
    SETDIJ:  cpu time    0.6800: real time    0.6808
     EDDAV:  cpu time    0.5280: real time    0.5299
       DOS:  cpu time    0.0000: real time    0.0008
    --------------------------------------------
      LOOP:  cpu time    1.2320: real time    1.2361

 eigenvalue-minimisations  :  1600
 total energy-change (2. order) : 0.2136132E+03  (-0.2354078E+04)
 number of electron      60.0000000 magnetization      16.0000000
 augmentation part       60.0000000 magnetization      16.0000000

 Free energy of the ion-electron system (eV)
  ---------------------------------------------------
  alpha Z        PSCENC =       142.81396753
  Ewald energy   TEWEN  =     -2433.25326359
  -Hartree energ DENC   =      -976.91970415
  -exchange      EXHF   =         0.00000000
  -V(xc)+E(xc)   XCENC  =      -235.95818536
  PAW double counting   =      3011.45132117    -2557.24446474
  entropy T*S    EENTRO =        -0.00136575
  eigenvalues    EBANDS =        29.55155022
  atomic energy  EATOM  =      3233.17333345
  Solvation  Ediel_sol  =         0.00000000
  ---------------------------------------------------
  free energy    TOTEN  =       213.61318878 eV

  energy without entropy =      213.61455453  energy(sigma->0) =      213.61387165


--------------------------------------------------------------------------------------------------------




----------------------------------------- Iteration    1(   2)  ---------------------------------------


     EDDAV:  cpu time    0.6040: real time    0.6053
       DOS:  cpu time    0.0000: real time    0.0005
    --------------------------------------------
      LOOP:  cpu time    0.6040: real time    0.6097

 eigenvalue-minimisations  :  1952
 total energy-change (2. order) :-0.2963598E+03  (-0.2868902E+03)
 number of electron      60.0000000 magnetization      16.0000000
 augmentation part       60.0000000 magnetization      16.0000000

 Free energy of the ion-electron system (eV)
  ---------------------------------------------------
  alpha Z        PSCENC =       142.81396753
  Ewald energy   TEWEN  =     -2433.25326359
  -Hartree energ DENC   =      -976.91970415
  -exchange      EXHF   =         0.00000000
  -V(xc)+E(xc)   XCENC  =      -235.95818536
  PAW double counting   =      3011.45132117    -2557.24446474
  entropy T*S    EENTRO =        -0.00265772
  eigenvalues    EBANDS =      -266.80694858
  atomic energy  EATOM  =      3233.17333345
  Solvation  Ediel_sol  =         0.00000000
  ---------------------------------------------------
  free energy    TOTEN  =       -82.74660199 eV

  energy without entropy =      -82.74394427  energy(sigma->0) =      -82.74527313


--------------------------------------------------------------------------------------------------------




----------------------------------------- Iteration    1(   3)  ---------------------------------------


     EDDAV:  cpu time    0.5960: real time    0.5957
       DOS:  cpu time    0.0000: real time    0.0005
    --------------------------------------------
      LOOP:  cpu time    0.5960: real time    0.5997

 eigenvalue-minimisations  :  1896
 total energy-change (2. order) :-0.1703323E+02  (-0.1693750E+02)
 number of electron      60.0000000 magnetization      16.0000000
 augmentation part       60.0000000 magnetization      16.0000000

 Free energy of the ion-electron system (eV)
  ---------------------------------------------------
  alpha Z        PSCENC =       142.81396753
  Ewald energy   TEWEN  =     -2433.25326359
  -Hartree energ DENC   =      -976.91970415
  -exchange      EXHF   =         0.00000000
  -V(xc)+E(xc)   XCENC  =      -235.95818536
  PAW double counting   =      3011.45132117    -2557.24446474
  entropy T*S    EENTRO =        -0.00438616
  eigenvalues    EBANDS =      -283.83844577
  atomic energy  EATOM  =      3233.17333345
  Solvation  Ediel_sol  =         0.00000000
  ---------------------------------------------------
  free energy    TOTEN  =       -99.77982762 eV

  energy without entropy =      -99.77544146  energy(sigma->0) =      -99.77763454


--------------------------------------------------------------------------------------------------------




----------------------------------------- Iteration    1(   4)  ---------------------------------------


     EDDAV:  cpu time    0.5680: real time    0.5660
       DOS:  cpu time    0.0000: real time    0.0005
    --------------------------------------------
      LOOP:  cpu time    0.5680: real time    0.5697

 eigenvalue-minimisations  :  1800
 total energy-change (2. order) :-0.1010125E+00  (-0.1009668E+00)
 number of electron      60.0000000 magnetization      16.0000000
 augmentation part       60.0000000 magnetization      16.0000000

 Free energy of the ion-electron system (eV)
  ---------------------------------------------------
  alpha Z        PSCENC =       142.81396753
  Ewald energy   TEWEN  =     -2433.25326359
  -Hartree energ DENC   =      -976.91970415
  -exchange      EXHF   =         0.00000000
  -V(xc)+E(xc)   XCENC  =      -235.95818536
  PAW double counting   =      3011.45132117    -2557.24446474
  entropy T*S    EENTRO =        -0.00438024
  eigenvalues    EBANDS =      -283.93946419
  atomic energy  EATOM  =      3233.17333345
  Solvation  Ediel_sol  =         0.00000000
  ---------------------------------------------------
  free energy    TOTEN  =       -99.88084013 eV

  energy without entropy =      -99.87645988  energy(sigma->0) =      -99.87865000


--------------------------------------------------------------------------------------------------------




----------------------------------------- Iteration    1(   5)  ---------------------------------------


     EDDAV:  cpu time    0.5880: real time    0.5887
       DOS:  cpu time    0.0000: real time    0.0005
    CHARGE:  cpu time    0.0200: real time    0.0200
    MIXING:  cpu time    0.0040: real time    0.0007
    --------------------------------------------
      LOOP:  cpu time    0.6120: real time    0.6132

 eigenvalue-minimisations  :  1896
 total energy-change (2. order) :-0.5257189E-03  (-0.5256966E-03)
 number of electron      56.9999979 magnetization       0.9929859
 augmentation part        5.5254178 magnetization       0.1686870

 Broyden mixing:
  rms(total) = 0.26653E+01    rms(broyden)= 0.26537E+01
  rms(prec ) = 0.44566E+01
  weight for this iteration     100.00

 Free energy of the ion-electron system (eV)
  ---------------------------------------------------
  alpha Z        PSCENC =       142.81396753
  Ewald energy   TEWEN  =     -2433.25326359
  -Hartree energ DENC   =      -976.91970415
  -exchange      EXHF   =         0.00000000
  -V(xc)+E(xc)   XCENC  =      -235.95818536
  PAW double counting   =      3011.45132117    -2557.24446474
  entropy T*S    EENTRO =        -0.00438019
  eigenvalues    EBANDS =      -283.93998997
  atomic energy  EATOM  =      3233.17333345
  Solvation  Ediel_sol  =         0.00000000
  ---------------------------------------------------
  free energy    TOTEN  =       -99.88136585 eV

  energy without entropy =      -99.87698566  energy(sigma->0) =      -99.87917575


--------------------------------------------------------------------------------------------------------




----------------------------------------- Iteration    1(   6)  ---------------------------------------


    POTLOK:  cpu time    0.0200: real time    0.0207
    SETDIJ:  cpu time    0.6800: real time    0.6806
     EDDAV:  cpu time    0.5480: real time    0.5467
       DOS:  cpu time    0.0000: real time    0.0005
    CHARGE:  cpu time    0.0200: real time    0.0209
    MIXING:  cpu time    0.0000: real time    0.0006
    --------------------------------------------
      LOOP:  cpu time    1.2680: real time    1.2735

 eigenvalue-minimisations  :  1688
 total energy-change (2. order) : 0.3853427E+01  (-0.3174963E+01)
 number of electron      56.9999983 magnetization       0.7622604
 augmentation part        4.6242084 magnetization      -0.0466919

 Broyden mixing:
  rms(total) = 0.74488E+00    rms(broyden)= 0.74364E+00
  rms(prec ) = 0.10900E+01
  weight for this iteration     100.00

 eigenvalues of (default mixing * dielectric matrix)
  average eigenvalue GAMMA=   0.8340
  0.8340

 Free energy of the ion-electron system (eV)
  ---------------------------------------------------
  alpha Z        PSCENC =       142.81396753
  Ewald energy   TEWEN  =     -2433.25326359
  -Hartree energ DENC   =     -1110.21910060
  -exchange      EXHF   =         0.00000000
  -V(xc)+E(xc)   XCENC  =      -238.49518046
  PAW double counting   =      3536.70156875    -3084.65431003
  entropy T*S    EENTRO =        -0.00481968
  eigenvalues    EBANDS =      -142.09013463
  atomic energy  EATOM  =      3233.17333345
  Solvation  Ediel_sol  =         0.00000000
  ---------------------------------------------------
  free energy    TOTEN  =       -96.02793927 eV

  energy without entropy =      -96.02311958  energy(sigma->0) =      -96.02552942


--------------------------------------------------------------------------------------------------------




----------------------------------------- Iteration    1(   7)  ---------------------------------------


    POTLOK:  cpu time    0.0240: real time    0.0217
    SETDIJ:  cpu time    0.6800: real time    0.6817
     EDDAV:  cpu time    0.5640: real time    0.5657
       DOS:  cpu time    0.0000: real time    0.0005
    CHARGE:  cpu time    0.0240: real time    0.0208
    MIXING:  cpu time    0.0000: real time    0.0006
    --------------------------------------------
      LOOP:  cpu time    1.2920: real time    1.2948

 eigenvalue-minimisations  :  1792
 total energy-change (2. order) :-0.2504836E-01  (-0.1096253E+00)
 number of electron      56.9999982 magnetization       0.7439797
 augmentation part        4.6060338 magnetization       0.0348077

 Broyden mixing:
  rms(total) = 0.39234E+00    rms(broyden)= 0.39225E+00
  rms(prec ) = 0.64451E+00
  weight for this iteration     100.00

 eigenvalues of (default mixing * dielectric matrix)
  average eigenvalue GAMMA=   0.9729
  0.9729  0.9729

 Free energy of the ion-electron system (eV)
  ---------------------------------------------------
  alpha Z        PSCENC =       142.81396753
  Ewald energy   TEWEN  =     -2433.25326359
  -Hartree energ DENC   =     -1115.92814854
  -exchange      EXHF   =         0.00000000
  -V(xc)+E(xc)   XCENC  =      -238.11247654
  PAW double counting   =      3722.56625831    -3270.31505821
  entropy T*S    EENTRO =        -0.00482032
  eigenvalues    EBANDS =      -136.99277972
  atomic energy  EATOM  =      3233.17333345
  Solvation  Ediel_sol  =         0.00000000
  ---------------------------------------------------
  free energy    TOTEN  =       -96.05298763 eV

  energy without entropy =      -96.04816731  energy(sigma->0) =      -96.05057747


--------------------------------------------------------------------------------------------------------




----------------------------------------- Iteration    1(   8)  ---------------------------------------


    POTLOK:  cpu time    0.0200: real time    0.0218
    SETDIJ:  cpu time    0.6840: real time    0.6817
     EDDAV:  cpu time    0.5680: real time    0.5684
       DOS:  cpu time    0.0000: real time    0.0005
    CHARGE:  cpu time    0.0200: real time    0.0197
    MIXING:  cpu time    0.0000: real time    0.0006
    --------------------------------------------
      LOOP:  cpu time    1.2920: real time    1.2960

 eigenvalue-minimisations  :  1816
 total energy-change (2. order) : 0.1493826E+00  (-0.2049798E-01)
 number of electron      56.9999982 magnetization       0.7457559
 augmentation part        4.6230796 magnetization       0.0457888

 Broyden mixing:
  rms(total) = 0.15107E+00    rms(broyden)= 0.15103E+00
  rms(prec ) = 0.24042E+00
  weight for this iteration     100.00

 eigenvalues of (default mixing * dielectric matrix)
  average eigenvalue GAMMA=   1.2690
  2.0546  0.9272  0.8251

 Free energy of the ion-electron system (eV)
  ---------------------------------------------------
  alpha Z        PSCENC =       142.81396753
  Ewald energy   TEWEN  =     -2433.25326359
  -Hartree energ DENC   =     -1121.94967665
  -exchange      EXHF   =         0.00000000
  -V(xc)+E(xc)   XCENC  =      -237.48341534
  PAW double counting   =      3920.51108134    -3468.06476382
  entropy T*S    EENTRO =        -0.00482018
  eigenvalues    EBANDS =      -131.64604774
  atomic energy  EATOM  =      3233.17333345
  Solvation  Ediel_sol  =         0.00000000
  ---------------------------------------------------
  free energy    TOTEN  =       -95.90360500 eV

  energy without entropy =      -95.89878482  energy(sigma->0) =      -95.90119491


--------------------------------------------------------------------------------------------------------




----------------------------------------- Iteration    1(   9)  ---------------------------------------


    POTLOK:  cpu time    0.0240: real time    0.0219
    SETDIJ:  cpu time    0.6800: real time    0.6814
     EDDAV:  cpu time    0.5960: real time    0.5963
       DOS:  cpu time    0.0000: real time    0.0006
    CHARGE:  cpu time    0.0200: real time    0.0197
    MIXING:  cpu time    0.0000: real time    0.0006
    --------------------------------------------
      LOOP:  cpu time    1.3200: real time    1.3240

 eigenvalue-minimisations  :  1912
 total energy-change (2. order) : 0.9497836E-02  (-0.5256955E-02)
 number of electron      56.9999982 magnetization       0.7488614
 augmentation part        4.6153039 magnetization       0.0522461

 Broyden mixing:
  rms(total) = 0.50731E-01    rms(broyden)= 0.50690E-01
  rms(prec ) = 0.58411E-01
  weight for this iteration     100.00

 eigenvalues of (default mixing * dielectric matrix)
  average eigenvalue GAMMA=   1.2501
  2.4210  0.9638  0.9638  0.6517

 Free energy of the ion-electron system (eV)
  ---------------------------------------------------
  alpha Z        PSCENC =       142.81396753
  Ewald energy   TEWEN  =     -2433.25326359
  -Hartree energ DENC   =     -1127.44089282
  -exchange      EXHF   =         0.00000000
  -V(xc)+E(xc)   XCENC  =      -236.93446081
  PAW double counting   =      4016.70812875    -3564.22137907
  entropy T*S    EENTRO =        -0.00482021
  eigenvalues    EBANDS =      -126.73472040
  atomic energy  EATOM  =      3233.17333345
  Solvation  Ediel_sol  =         0.00000000
  ---------------------------------------------------
  free energy    TOTEN  =       -95.89410717 eV

  energy without entropy =      -95.88928696  energy(sigma->0) =      -95.89169706


--------------------------------------------------------------------------------------------------------




----------------------------------------- Iteration    1(  10)  ---------------------------------------


    POTLOK:  cpu time    0.0200: real time    0.0205
    SETDIJ:  cpu time    0.6840: real time    0.6823
     EDDAV:  cpu time    0.5560: real time    0.5556
       DOS:  cpu time    0.0000: real time    0.0006
    CHARGE:  cpu time    0.0200: real time    0.0197
    MIXING:  cpu time    0.0000: real time    0.0006
    --------------------------------------------
      LOOP:  cpu time    1.2800: real time    1.2828

 eigenvalue-minimisations  :  1760
 total energy-change (2. order) : 0.4545337E-03  (-0.3644173E-03)
 number of electron      56.9999982 magnetization       0.7510195
 augmentation part        4.6115084 magnetization       0.0545646

 Broyden mixing:
  rms(total) = 0.17387E-01    rms(broyden)= 0.17380E-01
  rms(prec ) = 0.24906E-01
  weight for this iteration     100.00

 eigenvalues of (default mixing * dielectric matrix)
  average eigenvalue GAMMA=   1.2349
  2.4944  1.2139  0.9132  0.9132  0.6400

 Free energy of the ion-electron system (eV)
  ---------------------------------------------------
  alpha Z        PSCENC =       142.81396753
  Ewald energy   TEWEN  =     -2433.25326359
  -Hartree energ DENC   =     -1127.90345193
  -exchange      EXHF   =         0.00000000
  -V(xc)+E(xc)   XCENC  =      -236.88178792
  PAW double counting   =      4010.64070559    -3558.16838026
  entropy T*S    EENTRO =        -0.00482026
  eigenvalues    EBANDS =      -126.30995524
  atomic energy  EATOM  =      3233.17333345
  Solvation  Ediel_sol  =         0.00000000
  ---------------------------------------------------
  free energy    TOTEN  =       -95.89365263 eV

  energy without entropy =      -95.88883238  energy(sigma->0) =      -95.89124251


--------------------------------------------------------------------------------------------------------




----------------------------------------- Iteration    1(  11)  ---------------------------------------


    POTLOK:  cpu time    0.0200: real time    0.0203
    SETDIJ:  cpu time    0.6840: real time    0.6826
     EDDAV:  cpu time    0.5840: real time    0.5846
       DOS:  cpu time    0.0000: real time    0.0006
    CHARGE:  cpu time    0.0200: real time    0.0197
    MIXING:  cpu time    0.0000: real time    0.0007
    --------------------------------------------
      LOOP:  cpu time    1.3080: real time    1.3117

 eigenvalue-minimisations  :  1872
 total energy-change (2. order) :-0.5319870E-03  (-0.6764829E-04)
 number of electron      56.9999982 magnetization       0.7501429
 augmentation part        4.6122450 magnetization       0.0523947

 Broyden mixing:
  rms(total) = 0.73943E-02    rms(broyden)= 0.73934E-02
  rms(prec ) = 0.10423E-01
  weight for this iteration     100.00

 eigenvalues of (default mixing * dielectric matrix)
  average eigenvalue GAMMA=   1.3572
  2.6696  2.1247  0.9786  0.9786  0.7591  0.6327

 Free energy of the ion-electron system (eV)
  ---------------------------------------------------
  alpha Z        PSCENC =       142.81396753
  Ewald energy   TEWEN  =     -2433.25326359
  -Hartree energ DENC   =     -1127.82000069
  -exchange      EXHF   =         0.00000000
  -V(xc)+E(xc)   XCENC  =      -236.86819471
  PAW double counting   =      3999.32250297    -3546.85978379
  entropy T*S    EENTRO =        -0.00482024
  eigenvalues    EBANDS =      -126.39792555
  atomic energy  EATOM  =      3233.17333345
  Solvation  Ediel_sol  =         0.00000000
  ---------------------------------------------------
  free energy    TOTEN  =       -95.89418462 eV

  energy without entropy =      -95.88936438  energy(sigma->0) =      -95.89177450


--------------------------------------------------------------------------------------------------------




----------------------------------------- Iteration    1(  12)  ---------------------------------------


    POTLOK:  cpu time    0.0240: real time    0.0203
    SETDIJ:  cpu time    0.6800: real time    0.6832
     EDDAV:  cpu time    0.5760: real time    0.5739
       DOS:  cpu time    0.0000: real time    0.0006
    CHARGE:  cpu time    0.0200: real time    0.0198
    MIXING:  cpu time    0.0000: real time    0.0008
    --------------------------------------------
      LOOP:  cpu time    1.3000: real time    1.3017

 eigenvalue-minimisations  :  1824
 total energy-change (2. order) :-0.1857134E-03  (-0.2842208E-04)
 number of electron      56.9999982 magnetization       0.7499570
 augmentation part        4.6127025 magnetization       0.0525222

 Broyden mixing:
  rms(total) = 0.22828E-02    rms(broyden)= 0.22819E-02
  rms(prec ) = 0.33277E-02
  weight for this iteration     100.00

 eigenvalues of (default mixing * dielectric matrix)
  average eigenvalue GAMMA=   1.3112
  2.6680  2.3422  0.9929  0.9929  0.8226  0.7303  0.6296

 Free energy of the ion-electron system (eV)
  ---------------------------------------------------
  alpha Z        PSCENC =       142.81396753
  Ewald energy   TEWEN  =     -2433.25326359
  -Hartree energ DENC   =     -1127.81287059
  -exchange      EXHF   =         0.00000000
  -V(xc)+E(xc)   XCENC  =      -236.85524262
  PAW double counting   =      3992.74212109    -3540.28547670
  entropy T*S    EENTRO =        -0.00482023
  eigenvalues    EBANDS =      -126.41211867
  atomic energy  EATOM  =      3233.17333345
  Solvation  Ediel_sol  =         0.00000000
  ---------------------------------------------------
  free energy    TOTEN  =       -95.89437033 eV

  energy without entropy =      -95.88955010  energy(sigma->0) =      -95.89196022


--------------------------------------------------------------------------------------------------------




----------------------------------------- Iteration    1(  13)  ---------------------------------------


    POTLOK:  cpu time    0.0200: real time    0.0203
    SETDIJ:  cpu time    0.6840: real time    0.6836
     EDDAV:  cpu time    0.5880: real time    0.5868
       DOS:  cpu time    0.0000: real time    0.0005
    CHARGE:  cpu time    0.0200: real time    0.0204
    MIXING:  cpu time    0.0000: real time    0.0008
    --------------------------------------------
      LOOP:  cpu time    1.3120: real time    1.3161

 eigenvalue-minimisations  :  1856
 total energy-change (2. order) :-0.6239795E-05  (-0.2370501E-05)
 number of electron      56.9999982 magnetization       0.7500333
 augmentation part        4.6125418 magnetization       0.0526610

 Broyden mixing:
  rms(total) = 0.10046E-02    rms(broyden)= 0.10042E-02
  rms(prec ) = 0.16418E-02
  weight for this iteration     100.00

 eigenvalues of (default mixing * dielectric matrix)
  average eigenvalue GAMMA=   1.2841
  2.6544  2.4041  0.9825  0.9825  1.0138  0.9087  0.6287  0.6980

 Free energy of the ion-electron system (eV)
  ---------------------------------------------------
  alpha Z        PSCENC =       142.81396753
  Ewald energy   TEWEN  =     -2433.25326359
  -Hartree energ DENC   =     -1127.83741172
  -exchange      EXHF   =         0.00000000
  -V(xc)+E(xc)   XCENC  =      -236.85279946
  PAW double counting   =      3991.81524832    -3539.36024975
  entropy T*S    EENTRO =        -0.00482024
  eigenvalues    EBANDS =      -126.38838112
  atomic energy  EATOM  =      3233.17333345
  Solvation  Ediel_sol  =         0.00000000
  ---------------------------------------------------
  free energy    TOTEN  =       -95.89437657 eV

  energy without entropy =      -95.88955633  energy(sigma->0) =      -95.89196645


--------------------------------------------------------------------------------------------------------




----------------------------------------- Iteration    1(  14)  ---------------------------------------


    POTLOK:  cpu time    0.0240: real time    0.0205
    SETDIJ:  cpu time    0.6800: real time    0.6825
     EDDAV:  cpu time    0.5760: real time    0.5739
       DOS:  cpu time    0.0000: real time    0.0005
    CHARGE:  cpu time    0.0200: real time    0.0197
    MIXING:  cpu time    0.0000: real time    0.0009
    --------------------------------------------
      LOOP:  cpu time    1.3000: real time    1.3014

 eigenvalue-minimisations  :  1832
 total energy-change (2. order) :-0.1714755E-05  (-0.9639001E-06)
 number of electron      56.9999982 magnetization       0.7499986
 augmentation part        4.6123434 magnetization       0.0526348

 Broyden mixing:
  rms(total) = 0.56410E-03    rms(broyden)= 0.56370E-03
  rms(prec ) = 0.86457E-03
  weight for this iteration     100.00

 eigenvalues of (default mixing * dielectric matrix)
  average eigenvalue GAMMA=   1.3253
  2.7159  2.4218  1.8891  1.0333  0.9338  0.8222  0.8222  0.6280  0.6612

 Free energy of the ion-electron system (eV)
  ---------------------------------------------------
  alpha Z        PSCENC =       142.81396753
  Ewald energy   TEWEN  =     -2433.25326359
  -Hartree energ DENC   =     -1127.85313798
  -exchange      EXHF   =         0.00000000
  -V(xc)+E(xc)   XCENC  =      -236.85131502
  PAW double counting   =      3991.21452090    -3538.76079480
  entropy T*S    EENTRO =        -0.00482025
  eigenvalues    EBANDS =      -126.37286853
  atomic energy  EATOM  =      3233.17333345
  Solvation  Ediel_sol  =         0.00000000
  ---------------------------------------------------
  free energy    TOTEN  =       -95.89437829 eV

  energy without entropy =      -95.88955804  energy(sigma->0) =      -95.89196817


--------------------------------------------------------------------------------------------------------




----------------------------------------- Iteration    1(  15)  ---------------------------------------


    POTLOK:  cpu time    0.0200: real time    0.0205
    SETDIJ:  cpu time    0.6840: real time    0.6832
     EDDAV:  cpu time    0.4600: real time    0.4594
       DOS:  cpu time    0.0000: real time    0.0005
    --------------------------------------------
      LOOP:  cpu time    1.1640: real time    1.1669

 eigenvalue-minimisations  :  1320
 total energy-change (2. order) :-0.7835797E-07  (-0.1367854E-06)
 number of electron      56.9999982 magnetization       0.7499986
 augmentation part        4.6123434 magnetization       0.0526348

 Free energy of the ion-electron system (eV)
  ---------------------------------------------------
  alpha Z        PSCENC =       142.81396753
  Ewald energy   TEWEN  =     -2433.25326359
  -Hartree energ DENC   =     -1127.84816931
  -exchange      EXHF   =         0.00000000
  -V(xc)+E(xc)   XCENC  =      -236.85140666
  PAW double counting   =      3991.25268410    -3538.79888360
  entropy T*S    EENTRO =        -0.00482024
  eigenvalues    EBANDS =      -126.37782004
  atomic energy  EATOM  =      3233.17333345
  Solvation  Ediel_sol  =         0.00000000
  ---------------------------------------------------
  free energy    TOTEN  =       -95.89437837 eV

  energy without entropy =      -95.88955812  energy(sigma->0) =      -95.89196825


--------------------------------------------------------------------------------------------------------




 average (electrostatic) potential at core
  the test charge radii are     1.0714  0.7215
  (the norm of the test charge is              1.0000)
       1 -36.4525       2 -34.1412       3 -35.2724       4 -35.2581       5 -34.6318
       6 -35.2727       7 -34.6350       8 -34.6302       9 -33.8720      10 -69.7276
      11 -69.7239      12 -69.5353      13 -69.7262      14 -69.5374      15 -69.5352
      16 -70.0532
 
 
 
 E-fermi :   4.9419     XC(G=0): -10.7091     alpha+bet :-13.3416


 spin component 1

 k-point     1 :       0.0000    0.0000    0.0000
  band No.  band energies     occupation 
      1     -14.0348      1.00000
      2     -13.1788      1.00000
      3     -12.6871      1.00000
      4     -12.6690      1.00000
      5     -12.6676      1.00000
      6     -12.4126      1.00000
      7     -12.4110      1.00000
      8      -1.4410      1.00000
      9      -1.2046      1.00000
     10      -1.2016      1.00000
     11      -0.9913      1.00000
     12      -0.5267      1.00000
     13      -0.1810      1.00000
     14      -0.1802      1.00000
     15       1.5410      1.00000
     16       1.6228      1.00000
     17       1.6263      1.00000
     18       1.8779      1.00000
     19       1.8802      1.00000
     20       2.0405      1.00000
     21       2.4199      1.00000
     22       2.4235      1.00000
     23       2.5955      1.00000
     24       2.7713      1.00000
     25       2.8066      1.00000
     26       2.8074      1.00000
     27       2.9626      1.00000
     28       2.9668      1.00000
     29       3.0527      1.00000
     30       8.9004      0.00000
     31      10.1241      0.00000
     32      10.1298      0.00000
     33      10.5924      0.00000
     34      11.1548      0.00000
     35      11.2206      0.00000
     36      11.2223      0.00000
     37      12.3239      0.00000
     38      12.3262      0.00000
     39      12.6142      0.00000
     40      12.6151      0.00000
     41      12.8270      0.00000
     42      13.3846      0.00000
     43      15.6777      0.00000
     44      15.8148      0.00000
     45      15.8166      0.00000
     46      16.2029      0.00000
     47      16.9768      0.00000
     48      18.4049      0.00000

 k-point     2 :       0.5000    0.0000    0.0000
  band No.  band energies     occupation 
      1     -13.8211      1.00000
      2     -13.1910      1.00000
      3     -12.9536      1.00000
      4     -12.6239      1.00000
      5     -12.6051      1.00000
      6     -12.4942      1.00000
      7     -12.4852      1.00000
      8      -0.9377      1.00000
      9      -0.7424      1.00000
     10      -0.6720      1.00000
     11      -0.3470      1.00000
     12       0.0187      1.00000
     13       0.1871      1.00000
     14       0.2749      1.00000
     15       0.7126      1.00000
     16       0.8458      1.00000
     17       1.1327      1.00000
     18       1.3739      1.00000
     19       1.4642      1.00000
     20       1.6136      1.00000
     21       1.7749      1.00000
     22       1.9743      1.00000
     23       2.0650      1.00000
     24       2.1707      1.00000
     25       2.7322      1.00000
     26       2.7663      1.00000
     27       2.8652      1.00000
     28       2.8670      1.00000
     29       4.5126      1.00000
     30       7.7400      0.00000
     31       9.5658      0.00000
     32      10.2256      0.00000
     33      10.8246      0.00000
     34      11.3491      0.00000
     35      12.2545      0.00000
     36      12.6057      0.00000
     37      12.8744      0.00000
     38      13.0739      0.00000
     39      13.9420      0.00000
     40      14.3484      0.00000
     41      14.5146      0.00000
     42      14.7716      0.00000
     43      15.1006      0.00000
     44      15.4251      0.00000
     45      15.5308      0.00000
     46      15.6375      0.00000
     47      15.9606      0.00000
     48      16.2359      0.00000

 k-point     3 :       0.0000    0.5000    0.0000
  band No.  band energies     occupation 
      1     -13.8207      1.00000
      2     -13.1925      1.00000
      3     -12.9525      1.00000
      4     -12.6241      1.00000
      5     -12.6055      1.00000
      6     -12.4915      1.00000
      7     -12.4875      1.00000
      8      -0.9363      1.00000
      9      -0.7416      1.00000
     10      -0.6696      1.00000
     11      -0.3507      1.00000
     12       0.0159      1.00000
     13       0.1885      1.00000
     14       0.2730      1.00000
     15       0.7111      1.00000
     16       0.8433      1.00000
     17       1.1294      1.00000
     18       1.3737      1.00000
     19       1.4663      1.00000
     20       1.6171      1.00000
     21       1.7756      1.00000
     22       1.9758      1.00000
     23       2.0614      1.00000
     24       2.1758      1.00000
     25       2.7317      1.00000
     26       2.7656      1.00000
     27       2.8657      1.00000
     28       2.8708      1.00000
     29       4.5121      1.00000
     30       7.7408      0.00000
     31       9.5639      0.00000
     32      10.2261      0.00000
     33      10.8245      0.00000
     34      11.3487      0.00000
     35      12.2552      0.00000
     36      12.6000      0.00000
     37      12.8790      0.00000
     38      13.0765      0.00000
     39      13.9403      0.00000
     40      14.3473      0.00000
     41      14.5130      0.00000
     42      14.7690      0.00000
     43      15.1043      0.00000
     44      15.4314      0.00000
     45      15.5369      0.00000
     46      15.6340      0.00000
     47      15.9570      0.00000
     48      16.2244      0.00000

 k-point     4 :       0.5000    0.5000    0.0000
  band No.  band energies     occupation 
      1     -13.7589      1.00000
      2     -13.1732      1.00000
      3     -12.8562      1.00000
      4     -12.7265      1.00000
      5     -12.7189      1.00000
      6     -12.6032      1.00000
      7     -12.3706      1.00000
      8      -0.9420      1.00000
      9      -0.4953      1.00000
     10      -0.2697      1.00000
     11       0.0417      1.00000
     12       0.1932      1.00000
     13       0.3271      1.00000
     14       0.4222      1.00000
     15       0.5886      1.00000
     16       0.7441      1.00000
     17       1.0771      1.00000
     18       1.1699      1.00000
     19       1.2315      1.00000
     20       1.4414      1.00000
     21       1.4879      1.00000
     22       1.5347      1.00000
     23       2.0457      1.00000
     24       2.2339      1.00000
     25       2.4905      1.00000
     26       2.5763      1.00000
     27       2.6708      1.00000
     28       2.8394      1.00000
     29       4.9272      0.66155
     30       7.8777      0.00000
     31       9.0299      0.00000
     32       9.5553      0.00000
     33      11.4517      0.00000
     34      12.1332      0.00000
     35      12.6079      0.00000
     36      13.1812      0.00000
     37      13.4347      0.00000
     38      13.7857      0.00000
     39      13.8406      0.00000
     40      14.4199      0.00000
     41      14.7287      0.00000
     42      14.7811      0.00000
     43      14.8319      0.00000
     44      15.0507      0.00000
     45      15.1557      0.00000
     46      15.4762      0.00000
     47      16.1204      0.00000
     48      16.4189      0.00000

 k-point     5 :       0.0000    0.0000    0.5000
  band No.  band energies     occupation 
      1     -13.8211      1.00000
      2     -13.1907      1.00000
      3     -12.9539      1.00000
      4     -12.6254      1.00000
      5     -12.6034      1.00000
      6     -12.4938      1.00000
      7     -12.4860      1.00000
      8      -0.9369      1.00000
      9      -0.7424      1.00000
     10      -0.6721      1.00000
     11      -0.3462      1.00000
     12       0.0191      1.00000
     13       0.1873      1.00000
     14       0.2745      1.00000
     15       0.7123      1.00000
     16       0.8461      1.00000
     17       1.1330      1.00000
     18       1.3740      1.00000
     19       1.4609      1.00000
     20       1.6123      1.00000
     21       1.7759      1.00000
     22       1.9755      1.00000
     23       2.0650      1.00000
     24       2.1703      1.00000
     25       2.7331      1.00000
     26       2.7678      1.00000
     27       2.8637      1.00000
     28       2.8658      1.00000
     29       4.5121      1.00000
     30       7.7404      0.00000
     31       9.5673      0.00000
     32      10.2257      0.00000
     33      10.8259      0.00000
     34      11.3501      0.00000
     35      12.2570      0.00000
     36      12.6059      0.00000
     37      12.8745      0.00000
     38      13.0748      0.00000
     39      13.9400      0.00000
     40      14.3466      0.00000
     41      14.5145      0.00000
     42      14.7705      0.00000
     43      15.0954      0.00000
     44      15.4234      0.00000
     45      15.5351      0.00000
     46      15.6420      0.00000
     47      15.9567      0.00000
     48      16.2357      0.00000

 k-point     6 :       0.5000    0.0000    0.5000
  band No.  band energies     occupation 
      1     -13.7591      1.00000
      2     -13.1741      1.00000
      3     -12.8523      1.00000
      4     -12.7270      1.00000
      5     -12.7186      1.00000
      6     -12.6065      1.00000
      7     -12.3701      1.00000
      8      -0.9415      1.00000
      9      -0.4984      1.00000
     10      -0.2670      1.00000
     11       0.0412      1.00000
     12       0.1949      1.00000
     13       0.3252      1.00000
     14       0.4209      1.00000
     15       0.5894      1.00000
     16       0.7481      1.00000
     17       1.0802      1.00000
     18       1.1761      1.00000
     19       1.2315      1.00000
     20       1.4378      1.00000
     21       1.4790      1.00000
     22       1.5303      1.00000
     23       2.0427      1.00000
     24       2.2399      1.00000
     25       2.4857      1.00000
     26       2.5847      1.00000
     27       2.6698      1.00000
     28       2.8387      1.00000
     29       4.9269      0.66501
     30       7.8822      0.00000
     31       9.0259      0.00000
     32       9.5554      0.00000
     33      11.4529      0.00000
     34      12.1343      0.00000
     35      12.6005      0.00000
     36      13.1764      0.00000
     37      13.4409      0.00000
     38      13.7795      0.00000
     39      13.8442      0.00000
     40      14.4252      0.00000
     41      14.7320      0.00000
     42      14.7915      0.00000
     43      14.8356      0.00000
     44      15.0507      0.00000
     45      15.1530      0.00000
     46      15.4586      0.00000
     47      16.1237      0.00000
     48      16.4186      0.00000

 k-point     7 :       0.0000    0.5000    0.5000
  band No.  band energies     occupation 
      1     -13.7589      1.00000
      2     -13.1743      1.00000
      3     -12.8546      1.00000
      4     -12.7276      1.00000
      5     -12.7168      1.00000
      6     -12.6040      1.00000
      7     -12.3714      1.00000
      8      -0.9419      1.00000
      9      -0.4952      1.00000
     10      -0.2695      1.00000
     11       0.0410      1.00000
     12       0.1927      1.00000
     13       0.3270      1.00000
     14       0.4211      1.00000
     15       0.5884      1.00000
     16       0.7462      1.00000
     17       1.0810      1.00000
     18       1.1721      1.00000
     19       1.2307      1.00000
     20       1.4393      1.00000
     21       1.4861      1.00000
     22       1.5341      1.00000
     23       2.0462      1.00000
     24       2.2354      1.00000
     25       2.4886      1.00000
     26       2.5767      1.00000
     27       2.6698      1.00000
     28       2.8387      1.00000
     29       4.9260      0.67344
     30       7.8804      0.00000
     31       9.0287      0.00000
     32       9.5565      0.00000
     33      11.4522      0.00000
     34      12.1351      0.00000
     35      12.6065      0.00000
     36      13.1790      0.00000
     37      13.4346      0.00000
     38      13.7911      0.00000
     39      13.8435      0.00000
     40      14.4234      0.00000
     41      14.7282      0.00000
     42      14.7839      0.00000
     43      14.8303      0.00000
     44      15.0488      0.00000
     45      15.1545      0.00000
     46      15.4672      0.00000
     47      16.1200      0.00000
     48      16.4206      0.00000

 k-point     8 :       0.5000    0.5000    0.5000
  band No.  band energies     occupation 
      1     -13.8319      1.00000
      2     -13.1442      1.00000
      3     -13.0010      1.00000
      4     -12.5985      1.00000
      5     -12.5959      1.00000
      6     -12.5018      1.00000
      7     -12.4989      1.00000
      8      -1.0303      1.00000
      9      -0.7084      1.00000
     10      -0.7050      1.00000
     11      -0.4924      1.00000
     12       0.0011      1.00000
     13       0.3561      1.00000
     14       0.3589      1.00000
     15       0.6065      1.00000
     16       0.9519      1.00000
     17       1.3106      1.00000
     18       1.3135      1.00000
     19       1.4446      1.00000
     20       1.4504      1.00000
     21       1.8983      1.00000
     22       1.9024      1.00000
     23       2.2900      1.00000
     24       2.4837      1.00000
     25       2.6410      1.00000
     26       2.6451      1.00000
     27       2.7170      1.00000
     28       2.7200      1.00000
     29       4.4018      1.00000
     30       8.3029      0.00000
     31       9.4844      0.00000
     32       9.4921      0.00000
     33      11.0347      0.00000
     34      11.3450      0.00000
     35      12.8846      0.00000
     36      12.8852      0.00000
     37      13.0522      0.00000
     38      13.0603      0.00000
     39      13.3203      0.00000
     40      14.2558      0.00000
     41      14.2667      0.00000
     42      14.2692      0.00000
     43      14.7932      0.00000
     44      15.1425      0.00000
     45      15.1532      0.00000
     46      16.0741      0.00000
     47      16.2485      0.00000
     48      16.2636      0.00000

 spin component 2

 k-point     1 :       0.0000    0.0000    0.0000
  band No.  band energies     occupation 
      1     -14.0166      1.00000
      2     -13.1514      1.00000
      3     -12.6375      1.00000
      4     -12.6213      1.00000
      5     -12.6199      1.00000
      6     -12.3602      1.00000
      7     -12.3586      1.00000
      8      -1.4268      1.00000
      9      -1.1875      1.00000
     10      -1.1844      1.00000
     11      -0.9809      1.00000
     12      -0.4645      1.00000
     13      -0.1001      1.00000
     14      -0.0993      1.00000
     15       1.5563      1.00000
     16       1.6573      1.00000
     17       1.6613      1.00000
     18       1.9075      1.00000
     19       1.9095      1.00000
     20       2.0923      1.00000
     21       2.4670      1.00000
     22       2.4703      1.00000
     23       2.8338      1.00000
     24       2.8365      1.00000
     25       2.8375      1.00000
     26       2.9278      1.00000
     27       3.0000      1.00000
     28       3.0042      1.00000
     29       3.8729      1.00000
     30       9.0330      0.00000
     31      10.6725      0.00000
     32      10.6825      0.00000
     33      10.6866      0.00000
     34      11.3034      0.00000
     35      11.3065      0.00000
     36      11.5895      0.00000
     37      12.4941      0.00000
     38      12.4999      0.00000
     39      12.7193      0.00000
     40      12.7224      0.00000
     41      12.8580      0.00000
     42      13.4622      0.00000
     43      15.7054      0.00000
     44      15.8331      0.00000
     45      15.8353      0.00000
     46      16.2160      0.00000
     47      17.6870      0.00000
     48      18.4159      0.00000

 k-point     2 :       0.5000    0.0000    0.0000
  band No.  band energies     occupation 
      1     -13.8144      1.00000
      2     -13.1462      1.00000
      3     -12.9123      1.00000
      4     -12.5738      1.00000
      5     -12.5587      1.00000
      6     -12.4407      1.00000
      7     -12.4339      1.00000
      8      -0.9299      1.00000
      9      -0.6644      1.00000
     10      -0.5509      1.00000
     11      -0.3290      1.00000
     12       0.0789      1.00000
     13       0.2270      1.00000
     14       0.3720      1.00000
     15       0.7479      1.00000
     16       0.8884      1.00000
     17       1.1695      1.00000
     18       1.4009      1.00000
     19       1.5221      1.00000
     20       1.6723      1.00000
     21       1.7892      1.00000
     22       1.9927      1.00000
     23       2.1318      1.00000
     24       2.1973      1.00000
     25       2.7680      1.00000
     26       2.8067      1.00000
     27       2.9055      1.00000
     28       2.9069      1.00000
     29       5.5816      0.00000
     30       8.2115      0.00000
     31      10.1549      0.00000
     32      10.6732      0.00000
     33      10.9239      0.00000
     34      11.4644      0.00000
     35      12.3233      0.00000
     36      12.7195      0.00000
     37      12.9526      0.00000
     38      13.0975      0.00000
     39      13.9812      0.00000
     40      14.4897      0.00000
     41      14.5794      0.00000
     42      14.8660      0.00000
     43      15.1497      0.00000
     44      15.4879      0.00000
     45      15.6014      0.00000
     46      15.7516      0.00000
     47      15.9825      0.00000
     48      16.2950      0.00000

 k-point     3 :       0.0000    0.5000    0.0000
  band No.  band energies     occupation 
      1     -13.8141      1.00000
      2     -13.1476      1.00000
      3     -12.9111      1.00000
      4     -12.5739      1.00000
      5     -12.5592      1.00000
      6     -12.4380      1.00000
      7     -12.4362      1.00000
      8      -0.9286      1.00000
      9      -0.6621      1.00000
     10      -0.5501      1.00000
     11      -0.3328      1.00000
     12       0.0755      1.00000
     13       0.2288      1.00000
     14       0.3703      1.00000
     15       0.7461      1.00000
     16       0.8865      1.00000
     17       1.1660      1.00000
     18       1.4008      1.00000
     19       1.5243      1.00000
     20       1.6755      1.00000
     21       1.7899      1.00000
     22       1.9944      1.00000
     23       2.1282      1.00000
     24       2.2022      1.00000
     25       2.7675      1.00000
     26       2.8058      1.00000
     27       2.9048      1.00000
     28       2.9121      1.00000
     29       5.5810      0.00000
     30       8.2116      0.00000
     31      10.1530      0.00000
     32      10.6738      0.00000
     33      10.9237      0.00000
     34      11.4641      0.00000
     35      12.3236      0.00000
     36      12.7139      0.00000
     37      12.9581      0.00000
     38      13.1002      0.00000
     39      13.9792      0.00000
     40      14.4886      0.00000
     41      14.5779      0.00000
     42      14.8628      0.00000
     43      15.1541      0.00000
     44      15.4937      0.00000
     45      15.6088      0.00000
     46      15.7466      0.00000
     47      15.9792      0.00000
     48      16.2842      0.00000

 k-point     4 :       0.5000    0.5000    0.0000
  band No.  band energies     occupation 
      1     -13.7562      1.00000
      2     -13.1280      1.00000
      3     -12.8096      1.00000
      4     -12.6785      1.00000
      5     -12.6697      1.00000
      6     -12.5533      1.00000
      7     -12.3185      1.00000
      8      -0.7343      1.00000
      9      -0.4748      1.00000
     10      -0.2603      1.00000
     11       0.0678      1.00000
     12       0.2268      1.00000
     13       0.3326      1.00000
     14       0.4782      1.00000
     15       0.6227      1.00000
     16       0.8174      1.00000
     17       1.1528      1.00000
     18       1.2131      1.00000
     19       1.3059      1.00000
     20       1.4908      1.00000
     21       1.5243      1.00000
     22       1.5557      1.00000
     23       2.0615      1.00000
     24       2.2510      1.00000
     25       2.5186      1.00000
     26       2.6381      1.00000
     27       2.7111      1.00000
     28       2.8694      1.00000
     29       6.0585      0.00000
     30       8.3589      0.00000
     31       9.5858      0.00000
     32      10.0069      0.00000
     33      11.5001      0.00000
     34      12.2034      0.00000
     35      12.6864      0.00000
     36      13.2604      0.00000
     37      13.5076      0.00000
     38      13.8714      0.00000
     39      13.9101      0.00000
     40      14.5053      0.00000
     41      14.7462      0.00000
     42      14.8504      0.00000
     43      14.8934      0.00000
     44      15.1411      0.00000
     45      15.3229      0.00000
     46      15.5207      0.00000
     47      16.1911      0.00000
     48      16.4702      0.00000

 k-point     5 :       0.0000    0.0000    0.5000
  band No.  band energies     occupation 
      1     -13.8145      1.00000
      2     -13.1458      1.00000
      3     -12.9125      1.00000
      4     -12.5752      1.00000
      5     -12.5570      1.00000
      6     -12.4403      1.00000
      7     -12.4347      1.00000
      8      -0.9291      1.00000
      9      -0.6645      1.00000
     10      -0.5511      1.00000
     11      -0.3282      1.00000
     12       0.0794      1.00000
     13       0.2272      1.00000
     14       0.3716      1.00000
     15       0.7477      1.00000
     16       0.8886      1.00000
     17       1.1698      1.00000
     18       1.4008      1.00000
     19       1.5189      1.00000
     20       1.6709      1.00000
     21       1.7902      1.00000
     22       1.9937      1.00000
     23       2.1321      1.00000
     24       2.1970      1.00000
     25       2.7690      1.00000
     26       2.8082      1.00000
     27       2.9040      1.00000
     28       2.9057      1.00000
     29       5.5808      0.00000
     30       8.2119      0.00000
     31      10.1558      0.00000
     32      10.6741      0.00000
     33      10.9250      0.00000
     34      11.4657      0.00000
     35      12.3262      0.00000
     36      12.7192      0.00000
     37      12.9528      0.00000
     38      13.0984      0.00000
     39      13.9789      0.00000
     40      14.4884      0.00000
     41      14.5788      0.00000
     42      14.8663      0.00000
     43      15.1438      0.00000
     44      15.4859      0.00000
     45      15.6057      0.00000
     46      15.7573      0.00000
     47      15.9791      0.00000
     48      16.2949      0.00000

 k-point     6 :       0.5000    0.0000    0.5000
  band No.  band energies     occupation 
      1     -13.7564      1.00000
      2     -13.1289      1.00000
      3     -12.8056      1.00000
      4     -12.6790      1.00000
      5     -12.6695      1.00000
      6     -12.5568      1.00000
      7     -12.3178      1.00000
      8      -0.7339      1.00000
      9      -0.4779      1.00000
     10      -0.2576      1.00000
     11       0.0675      1.00000
     12       0.2285      1.00000
     13       0.3308      1.00000
     14       0.4766      1.00000
     15       0.6237      1.00000
     16       0.8219      1.00000
     17       1.1562      1.00000
     18       1.2191      1.00000
     19       1.3064      1.00000
     20       1.4864      1.00000
     21       1.5142      1.00000
     22       1.5521      1.00000
     23       2.0585      1.00000
     24       2.2567      1.00000
     25       2.5140      1.00000
     26       2.6465      1.00000
     27       2.7101      1.00000
     28       2.8687      1.00000
     29       6.0583      0.00000
     30       8.3627      0.00000
     31       9.5823      0.00000
     32      10.0067      0.00000
     33      11.5016      0.00000
     34      12.2039      0.00000
     35      12.6793      0.00000
     36      13.2552      0.00000
     37      13.5143      0.00000
     38      13.8750      0.00000
     39      13.9040      0.00000
     40      14.5116      0.00000
     41      14.7496      0.00000
     42      14.8579      0.00000
     43      14.8966      0.00000
     44      15.1430      0.00000
     45      15.3203      0.00000
     46      15.5020      0.00000
     47      16.1918      0.00000
     48      16.4697      0.00000

 k-point     7 :       0.0000    0.5000    0.5000
  band No.  band energies     occupation 
      1     -13.7562      1.00000
      2     -13.1290      1.00000
      3     -12.8079      1.00000
      4     -12.6796      1.00000
      5     -12.6678      1.00000
      6     -12.5542      1.00000
      7     -12.3191      1.00000
      8      -0.7339      1.00000
      9      -0.4752      1.00000
     10      -0.2601      1.00000
[...]
     15       0.6225      1.00000
     16       0.8197      1.00000
     17       1.1562      1.00000
     18       1.2153      1.00000
     19       1.3058      1.00000
     20       1.4885      1.00000
     21       1.5218      1.00000
     22       1.5557      1.00000
     23       2.0619      1.00000
     24       2.2524      1.00000
     25       2.5167      1.00000
     26       2.6386      1.00000
     27       2.7102      1.00000
     28       2.8687      1.00000
     29       6.0577      0.00000
     30       8.3603      0.00000
     31       9.5850      0.00000
     32      10.0085      0.00000
     33      11.5006      0.00000
     34      12.2051      0.00000
     35      12.6850      0.00000
     36      13.2578      0.00000
     37      13.5077      0.00000
     38      13.8742      0.00000
     39      13.9160      0.00000
     40      14.5106      0.00000
     41      14.7458      0.00000
     42      14.8556      0.00000
     43      14.8873      0.00000
     44      15.1392      0.00000
     45      15.3218      0.00000
     46      15.5130      0.00000
     47      16.1901      0.00000
     48      16.4667      0.00000

 k-point     8 :       0.5000    0.5000    0.5000
  band No.  band energies     occupation 
      1     -13.8248      1.00000
      2     -13.0989      1.00000
      3     -12.9594      1.00000
      4     -12.5523      1.00000
      5     -12.5498      1.00000
      6     -12.4480      1.00000
      7     -12.4450      1.00000
      8      -0.8873      1.00000
      9      -0.7008      1.00000
     10      -0.6975      1.00000
     11      -0.4766      1.00000
     12       0.0251      1.00000
     13       0.4549      1.00000
     14       0.4577      1.00000
     15       0.7031      1.00000
     16       0.9732      1.00000
     17       1.3699      1.00000
     18       1.3731      1.00000
     19       1.4740      1.00000
     20       1.4803      1.00000
     21       1.9109      1.00000
     22       1.9151      1.00000
     23       2.3383      1.00000
     24       2.5494      1.00000
     25       2.6781      1.00000
     26       2.6819      1.00000
     27       2.7432      1.00000
     28       2.7464      1.00000
     29       5.4999      0.00000
     30       8.6206      0.00000
     31      10.0411      0.00000
     32      10.0488      0.00000
     33      11.0854      0.00000
     34      11.5285      0.00000
     35      12.9339      0.00000
     36      12.9346      0.00000
     37      13.1882      0.00000
     38      13.1975      0.00000
     39      13.3422      0.00000
     40      14.3391      0.00000
     41      14.3860      0.00000
     42      14.3970      0.00000
     43      14.8093      0.00000
     44      15.1923      0.00000
     45      15.2027      0.00000
     46      16.1085      0.00000
     47      16.3254      0.00000
     48      16.3381      0.00000


--------------------------------------------------------------------------------------------------------


 soft charge-density along one line, spin component           1
         0         1         2         3         4         5         6         7         8         9
 total charge-density along one line
 
 soft charge-density along one line, spin component           2
         0         1         2         3         4         5         6         7         8         9
 total charge-density along one line
 
 pseudopotential strength for first ion, spin component:           1
  3.006   9.571   0.006   0.006   0.006   0.013   0.013   0.013
  9.571  30.313   0.025   0.025   0.025   0.046   0.047   0.046
  0.006   0.025   7.323  -0.007  -0.007  10.664  -0.010  -0.010
  0.006   0.025  -0.007   7.323  -0.007  -0.010  10.664  -0.010
  0.006   0.025  -0.007  -0.007   7.324  -0.010  -0.010  10.664
  0.013   0.046  10.664  -0.010  -0.010  14.727  -0.015  -0.015
  0.013   0.047  -0.010  10.664  -0.010  -0.015  14.727  -0.015
  0.013   0.046  -0.010  -0.010  10.664  -0.015  -0.015  14.727
 -0.004  -0.010   0.013  -0.008   0.013   0.016  -0.009   0.016
 -0.004  -0.010   0.013   0.013  -0.008   0.016   0.016  -0.009
 -0.000  -0.000  -0.005   0.010  -0.005  -0.006   0.013  -0.006
 -0.004  -0.011  -0.008   0.013   0.013  -0.009   0.016   0.016
  0.000   0.000  -0.009  -0.000   0.009  -0.011  -0.000   0.011
 pseudopotential strength for first ion, spin component:           2
  3.003   9.560   0.005   0.005   0.005   0.010   0.010   0.010
  9.560  30.272   0.019   0.019   0.019   0.034   0.035   0.034
  0.005   0.019   7.324  -0.005  -0.005  10.657  -0.010  -0.010
  0.005   0.019  -0.005   7.324  -0.005  -0.010  10.657  -0.010
  0.005   0.019  -0.005  -0.005   7.324  -0.010  -0.010  10.657
  0.010   0.034  10.657  -0.010  -0.010  14.708  -0.016  -0.016
  0.010   0.035  -0.010  10.657  -0.010  -0.016  14.708  -0.017
  0.010   0.034  -0.010  -0.010  10.657  -0.016  -0.017  14.708
 -0.004  -0.012   0.013  -0.007   0.013   0.013  -0.008   0.013
 -0.004  -0.012   0.013   0.013  -0.007   0.013   0.013  -0.008
 -0.000  -0.000  -0.004   0.009  -0.004  -0.004   0.009  -0.005
 -0.004  -0.013  -0.007   0.012   0.013  -0.008   0.013   0.013
  0.000   0.000  -0.008  -0.000   0.008  -0.008  -0.000   0.008
 total augmentation occupancy for first ion, spin component:           1
  1.634  -0.059  -0.038  -0.037  -0.038   0.012   0.012   0.012  -0.016  -0.017  -0.000  -0.017   0.000
 -0.059   0.003   0.005   0.005   0.005  -0.001  -0.001  -0.001   0.001   0.001   0.000   0.001   0.000
 -0.038   0.005   0.158  -0.004  -0.003  -0.015   0.001   0.001  -0.020  -0.020   0.009   0.045   0.016
 -0.037   0.005  -0.004   0.158  -0.004   0.001  -0.015   0.001   0.045  -0.020  -0.018  -0.020   0.000
 -0.038   0.005  -0.003  -0.004   0.158   0.001   0.001  -0.015  -0.020   0.045   0.009  -0.020  -0.016
  0.012  -0.001  -0.015   0.001   0.001   0.002  -0.000  -0.000   0.002   0.002  -0.001  -0.005  -0.002
  0.012  -0.001   0.001  -0.015   0.001  -0.000   0.002  -0.000  -0.005   0.002   0.002   0.002   0.000
  0.012  -0.001   0.001   0.001  -0.015  -0.000  -0.000   0.002   0.002  -0.005  -0.001   0.002   0.002
 -0.016   0.001  -0.020   0.045  -0.020   0.002  -0.005   0.002   0.041  -0.009  -0.002  -0.009   0.000
 -0.017   0.001  -0.020  -0.020   0.045   0.002   0.002  -0.005  -0.009   0.041   0.001  -0.009  -0.002
 -0.000   0.000   0.009  -0.018   0.009  -0.001   0.002  -0.001  -0.002   0.001   0.022   0.001   0.000
 -0.017   0.001   0.045  -0.020  -0.020  -0.005   0.002   0.002  -0.009  -0.009   0.001   0.041   0.002
  0.000   0.000   0.016   0.000  -0.016  -0.002   0.000   0.002   0.000  -0.002   0.000   0.002   0.022
 total augmentation occupancy for first ion, spin component:           2
  0.172  -0.003   0.056   0.056   0.056  -0.003  -0.003  -0.003   0.017   0.016  -0.000   0.017   0.000
 -0.003   0.000  -0.000  -0.000  -0.000   0.000   0.000   0.000  -0.000  -0.000   0.000  -0.000  -0.000
  0.056  -0.000   0.019   0.017   0.017  -0.001  -0.001  -0.001   0.005   0.005  -0.000   0.005  -0.000
  0.056  -0.000   0.017   0.019   0.017  -0.001  -0.001  -0.001   0.005   0.005   0.000   0.005   0.000
  0.056  -0.000   0.017   0.017   0.019  -0.001  -0.001  -0.001   0.005   0.005  -0.000   0.005   0.000
 -0.003   0.000  -0.001  -0.001  -0.001   0.000   0.000   0.000  -0.000  -0.000   0.000  -0.000   0.000
 -0.003   0.000  -0.001  -0.001  -0.001   0.000   0.000   0.000  -0.000  -0.000  -0.000  -0.000  -0.000
 -0.003   0.000  -0.001  -0.001  -0.001   0.000   0.000   0.000  -0.000  -0.000   0.000  -0.000  -0.000
  0.017  -0.000   0.005   0.005   0.005  -0.000  -0.000  -0.000   0.001   0.001   0.000   0.001   0.000
  0.016  -0.000   0.005   0.005   0.005  -0.000  -0.000  -0.000   0.001   0.001  -0.000   0.001   0.000
 -0.000   0.000  -0.000   0.000  -0.000   0.000  -0.000   0.000   0.000  -0.000   0.000  -0.000  -0.000
  0.017  -0.000   0.005   0.005   0.005  -0.000  -0.000  -0.000   0.001   0.001  -0.000   0.001  -0.000
  0.000  -0.000  -0.000   0.000   0.000   0.000  -0.000  -0.000   0.000   0.000  -0.000  -0.000   0.000


------------------------ aborting loop because EDIFF is reached ----------------------------------------


 


 total charge     
 
# of ion     s       p       d       tot
----------------------------------------
  1        0.250   0.243   0.092   0.585
  2        0.144   0.172   0.074   0.391
  3        0.182   0.211   0.091   0.483
  4        0.181   0.210   0.091   0.482
  5        0.131   0.143   0.057   0.332
  6        0.182   0.211   0.091   0.483
  7        0.131   0.143   0.057   0.332
  8        0.131   0.143   0.057   0.332
  9        0.126   0.149   0.064   0.340
 10        1.567   3.503   0.000   5.070
 11        1.567   3.503   0.000   5.070
 12        1.569   3.526   0.000   5.095
 13        1.567   3.503   0.000   5.070
 14        1.569   3.527   0.000   5.096
 15        1.569   3.526   0.000   5.096
 16        1.572   3.642   0.000   5.214
------------------------------------------------
tot       12.440  26.357   0.674  39.471
 


 magnetization (x)
 
# of ion     s       p       d       tot
----------------------------------------
  1        0.029   0.032   0.002   0.063
  2       -0.000  -0.000  -0.000  -0.001
  3        0.000   0.003   0.002   0.005
  4        0.000   0.003   0.002   0.005
  5        0.002   0.006   0.002   0.011
  6        0.000   0.003   0.002   0.005
  7        0.002   0.006   0.002   0.011
  8        0.002   0.006   0.002   0.011
  9       -0.000  -0.000  -0.000  -0.001
 10        0.001   0.025   0.000   0.027
 11        0.001   0.025   0.000   0.027
 12        0.001   0.031   0.000   0.032
 13        0.001   0.025   0.000   0.027
 14        0.001   0.031   0.000   0.032
 15        0.001   0.031   0.000   0.032
 16       -0.000  -0.000   0.000  -0.000
------------------------------------------------
tot        0.043   0.226   0.016   0.285
 
    CHARGE:  cpu time    0.0200: real time    0.0196
    FORLOC:  cpu time    0.0000: real time    0.0015
    FORNL :  cpu time    0.1400: real time    0.1407
    STRESS:  cpu time    0.4200: real time    0.4207
    FORCOR:  cpu time    0.0240: real time    0.0213
    FORHAR:  cpu time    0.0000: real time    0.0030
    MIXING:  cpu time    0.0000: real time    0.0009
    OFIELD:  cpu time    0.0000: real time    0.0000

  FORCE on cell =-STRESS in cart. coord.  units (eV):
  Direction    XX          YY          ZZ          XY          YZ          ZX
  --------------------------------------------------------------------------------------
  Alpha Z   142.81397   142.81397   142.81397
  Ewald    -811.20680  -810.81802  -811.23343    -5.95562    -6.12523    -5.60367
  Hartree   375.94761   375.83158   376.05732    -1.40519    -1.42624    -1.36670
  E(xc)    -258.17770  -258.18406  -258.17645     0.00258     0.00495     0.00059
  Local    -382.82255  -383.05102  -382.91482     3.56625     3.74125     3.06682
  n-local  -114.10722  -114.06502  -114.13488     0.02507     0.00728     0.04631
  augment    47.48631    47.48167    47.48661     0.00327     0.00368     0.00183
  Kinetic   991.47218   991.41809   991.48399    -0.10038    -0.10734    -0.14844
  Fock        0.00000     0.00000     0.00000     0.00000     0.00000     0.00000
  -------------------------------------------------------------------------------------
  Total      -8.59420    -8.57281    -8.61769    -3.86401    -3.90165    -4.00327
  in kB     -89.88184   -89.65812   -90.12755   -40.41146   -40.80515   -41.86797
  external pressure =      -89.89 kB  Pullay stress =        0.00 kB


 VOLUME and BASIS-vectors are now :
 -----------------------------------------------------------------------------
  energy-cutoff  :      400.00
  volume of cell :      153.19
      direct lattice vectors                 reciprocal lattice vectors
     0.000000000  4.246893000  4.246893000    -0.117733129  0.117733129  0.117733129
     4.246893000  0.000000000  4.246893000     0.117733129 -0.117733129  0.117733129
     4.246893000  4.246893000  0.000000000     0.117733129  0.117733129 -0.117733129

  length of vectors
     6.006013679  6.006013679  6.006013679     0.203919761  0.203919761  0.203919761


 FORCES acting on ions
    electron-ion (+dipol)            ewald-force                    non-local-force                 convergence-correction
 -----------------------------------------------------------------------------------------------
   -.312E+02 -.312E+02 -.311E+02   0.291E+02 0.290E+02 0.289E+02   0.214E+01 0.213E+01 0.210E+01   -.106E-03 -.107E-03 -.102E-03
   -.235E+01 -.224E+01 -.233E+01   0.150E+01 0.140E+01 0.148E+01   0.833E+00 0.833E+00 0.841E+00   -.423E-04 -.441E-04 -.385E-04
   0.374E+01 0.376E+01 -.289E+02   -.255E+01 -.255E+01 0.263E+02   -.120E+01 -.121E+01 0.256E+01   0.634E-04 0.607E-04 -.265E-04
   0.366E+01 -.288E+02 0.360E+01   -.248E+01 0.262E+02 -.243E+01   -.115E+01 0.258E+01 -.115E+01   0.570E-04 -.245E-04 0.604E-04
   0.382E+02 -.507E+01 -.448E+01   -.362E+02 0.442E+01 0.390E+01   -.199E+01 0.664E+00 0.566E+00   0.775E-04 -.404E-04 -.446E-04
   -.287E+02 0.367E+01 0.391E+01   0.262E+02 -.248E+01 -.269E+01   0.257E+01 -.118E+01 -.123E+01   -.253E-04 0.573E-04 0.634E-04
   -.448E+01 0.383E+02 -.463E+01   0.390E+01 -.363E+02 0.403E+01   0.566E+00 -.203E+01 0.593E+00   -.386E-04 0.776E-04 -.426E-04
   -.480E+01 -.473E+01 0.381E+02   0.419E+01 0.412E+01 -.361E+02   0.619E+00 0.596E+00 -.200E+01   -.452E-04 -.430E-04 0.772E-04
   0.201E+01 0.190E+01 0.202E+01   -.188E+01 -.178E+01 -.188E+01   -.152E+00 -.956E-01 -.141E+00   0.391E-04 0.417E-04 0.350E-04
   0.175E+02 0.179E+02 -.123E+02   -.220E+02 -.225E+02 0.150E+02   0.449E+01 0.456E+01 -.264E+01   0.554E-03 0.542E-03 -.124E-03
   0.179E+02 -.122E+02 0.174E+02   -.223E+02 0.148E+02 -.218E+02   0.443E+01 -.261E+01 0.439E+01   0.535E-03 -.126E-03 0.533E-03
   0.308E+01 -.105E+02 -.105E+02   -.520E+01 0.138E+02 0.137E+02   0.211E+01 -.333E+01 -.322E+01   0.191E-03 -.366E-03 -.381E-03
   -.122E+02 0.176E+02 0.177E+02   0.150E+02 -.220E+02 -.222E+02   -.272E+01 0.441E+01 0.448E+01   -.123E-03 0.541E-03 0.548E-03
   -.103E+02 0.278E+01 -.104E+02   0.136E+02 -.497E+01 0.138E+02   -.330E+01 0.222E+01 -.333E+01   -.365E-03 0.190E-03 -.363E-03
   -.108E+02 -.103E+02 0.311E+01   0.140E+02 0.136E+02 -.531E+01   -.321E+01 -.324E+01 0.220E+01   -.378E-03 -.367E-03 0.192E-03
   0.978E+01 0.977E+01 0.986E+01   -.148E+02 -.147E+02 -.148E+02   0.502E+01 0.496E+01 0.493E+01   0.490E-03 0.493E-03 0.488E-03
 -----------------------------------------------------------------------------------------------
   -.902E+01 -.924E+01 -.895E+01   0.124E-13 0.178E-13 0.533E-14   0.904E+01 0.925E+01 0.896E+01   0.884E-03 0.886E-03 0.875E-03
 
 
 POSITION                                       TOTAL-FORCE (eV/Angst)
 -----------------------------------------------------------------------------------
      1.35125      1.35963      1.36149        -0.006345     -0.013616     -0.042137
      8.47618      8.47621      8.48341        -0.019928     -0.007382     -0.006418
      6.54138      6.54234      8.23807        -0.011046     -0.002422     -0.004514
      6.53269      8.22914      6.54294         0.026704     -0.011949      0.021752
      4.33368      6.39122      6.40728         0.005998      0.013846     -0.016123
      8.22617      6.53892      6.55126        -0.003260      0.005334     -0.011267
      6.39665      4.33922      6.40423        -0.014868     -0.022773     -0.006356
      6.39423      6.39786      4.34614         0.000472     -0.021096     -0.009117
      4.30466      4.30166      4.31157        -0.019965      0.015325     -0.001005
      4.35956      4.36772      2.17686         0.011552     -0.011844      0.027600
      4.36104      2.17439      4.36587        -0.001077     -0.005506      0.022915
      6.42918      4.27523      4.27931        -0.002949      0.010195      0.017177
      2.17014      4.36402      4.37115         0.001294      0.012440      0.011286
      4.27401      6.42727      4.28434         0.000987      0.026494      0.005203
      4.26996      4.27091      6.43748         0.027764      0.013492      0.001423
      6.33678      6.33978      6.34925         0.004669     -0.000538     -0.010420
 -----------------------------------------------------------------------------------
    total drift:                                0.018548      0.015868      0.010962


--------------------------------------------------------------------------------------------------------



  FREE ENERGIE OF THE ION-ELECTRON SYSTEM (eV)
  ---------------------------------------------------
  free  energy   TOTEN  =       -95.89437837 eV

  energy  without entropy=      -95.88955812  energy(sigma->0) =      -95.89196825
 


--------------------------------------------------------------------------------------------------------


    POTLOK:  cpu time    0.7000: real time    0.6964


--------------------------------------------------------------------------------------------------------




--------------------------------------------------------------------------------------------------------


  
 reached required accuracy - stopping structural energy minimisation
     LOOP+:  cpu time   18.4360: real time   18.4966
    4ORBIT:  cpu time    0.0000: real time    0.0000
 


 total charge     
 
# of ion     s       p       d       tot
----------------------------------------
  1        0.250   0.243   0.092   0.585
  2        0.144   0.172   0.074   0.391
  3        0.182   0.211   0.091   0.483
  4        0.181   0.210   0.091   0.482
  5        0.131   0.143   0.057   0.332
  6        0.182   0.211   0.091   0.483
  7        0.131   0.143   0.057   0.332
  8        0.131   0.143   0.057   0.332
  9        0.126   0.149   0.064   0.340
 10        1.567   3.503   0.000   5.070
 11        1.567   3.503   0.000   5.070
 12        1.569   3.526   0.000   5.095
 13        1.567   3.503   0.000   5.070
 14        1.569   3.527   0.000   5.096
 15        1.569   3.526   0.000   5.096
 16        1.572   3.642   0.000   5.214
------------------------------------------------
tot       12.440  26.357   0.674  39.471
 


 magnetization (x)
 
# of ion     s       p       d       tot
----------------------------------------
  1        0.029   0.032   0.002   0.063
  2       -0.000  -0.000  -0.000  -0.001
  3        0.000   0.003   0.002   0.005
  4        0.000   0.003   0.002   0.005
  5        0.002   0.006   0.002   0.011
  6        0.000   0.003   0.002   0.005
  7        0.002   0.006   0.002   0.011
  8        0.002   0.006   0.002   0.011
  9       -0.000  -0.000  -0.000  -0.001
 10        0.001   0.025   0.000   0.027
 11        0.001   0.025   0.000   0.027
 12        0.001   0.031   0.000   0.032
 13        0.001   0.025   0.000   0.027
 14        0.001   0.031   0.000   0.032
 15        0.001   0.031   0.000   0.032
 16       -0.000  -0.000   0.000  -0.000
------------------------------------------------
tot        0.043   0.226   0.016   0.285
 

 total amount of memory used by VASP on root node    36166. kBytes
========================================================================

   base      :      30000. kBytes
   nonlr-proj:       1281. kBytes
   fftplans  :        708. kBytes
   grid      :       1766. kBytes
   one-center:         64. kBytes
   wavefun   :       2347. kBytes
 
  
  
 General timing and accounting informations for this job:
 ========================================================
  
                  Total CPU time used (sec):       19.608
                            User time (sec):       19.404
                          System time (sec):        0.204
                         Elapsed time (sec):       19.852
  
                   Maximum memory used (kb):       63332.
                   Average memory used (kb):           0.
  
                          Minor page faults:        19610
                          Major page faults:            9
                 Voluntary context switches:         1532
