<?xml version="1.0" encoding="ISO-8859-1"?>
<modeling>
 <generator>
  <i name="program" type="string">vasp </i>
  <i name="version" type="string">5.4.1  </i>
  <i name="subversion" type="string">05Feb16 (build Mar 31 2016 13:39:20) complex                          parallel </i>
  <i name="platform" type="string">IFC91_ompi </i>
  <i name="date" type="string">2018 04 28 </i>
  <i name="time" type="string">12:51:23 </i>
 </generator>
 <incar>
  <i type="string" name="PREC">n</i>
  <i type="string" name="ALGO"> N</i>
  <i type="int" name="ISPIN">     2</i>
  <i type="int" name="NELM">   100</i>
  <i type="int" name="NELMIN">     4</i>
  <i type="int" name="IBRION">     2</i>
  <i name="EDIFF">      0.00000100</i>
  <i name="EDIFFG">     -0.05000000</i>
  <i type="int" name="NSW">    20</i>
  <i type="int" name="ISIF">     2</i>
  <i name="ENCUT">    400.00000000</i>
  <i name="NELECT">     57.00000000</i>
  <i type="string" name="LREAL"> A</i>
  <i type="int" name="ISMEAR">     0</i>
  <i name="SIGMA">      0.05000000</i>
  <i type="logical" name="LWAVE"> F  </i>
  <i type="logical" name="LCHARG"> F  </i>
  <i type="logical" name="LORBIT"> F  </i>
  <i type="logical" name="LASPH"> T  </i>
  <v type="int" name="KPOINT_BSE">    -1     0     0     0</v>
  <i type="int" name="NELM">   100</i>
  <i type="logical" name="LASPH"> T  </i>
 </incar>
 <kpoints>
  <generation param="Gamma">
   <v type="int" name="divisions">       2        2        2 </v>
   <v name="usershift">      0.00000000       0.00000000       0.00000000 </v>
   <v name="genvec1">      0.50000000       0.00000000       0.00000000 </v>
   <v name="genvec2">      0.00000000       0.50000000       0.00000000 </v>
   <v name="genvec3">      0.00000000       0.00000000       0.50000000 </v>
   <v name="shift">      0.00000000       0.00000000       0.00000000 </v>
  </generation>
  <varray name="kpointlist" >
   <v>       0.00000000       0.00000000       0.00000000 </v>
   <v>       0.50000000       0.00000000       0.00000000 </v>
   <v>       0.00000000       0.50000000       0.00000000 </v>
   <v>       0.50000000       0.50000000       0.00000000 </v>
   <v>       0.00000000       0.00000000       0.50000000 </v>
   <v>       0.50000000       0.00000000       0.50000000 </v>
   <v>       0.00000000       0.50000000       0.50000000 </v>
   <v>       0.50000000       0.50000000       0.50000000 </v>
  </varray>
  <varray name="weights" >
   <v>       0.12500000 </v>
   <v>       0.12500000 </v>
   <v>       0.12500000 </v>
   <v>       0.12500000 </v>
   <v>       0.12500000 </v>
   <v>       0.12500000 </v>
   <v>       0.12500000 </v>
   <v>       0.12500000 </v>
  </varray>
 </kpoints>
 <parameters>
  <separator name="general" >
   <i type="string" name="SYSTEM">unknown system</i>
   <i type="logical" name="LCOMPAT"> F  </i>
  </separator>
  <separator name="electronic" >
   <i type="string" name="PREC">n</i>
   <i name="ENMAX">    400.00000000</i>
   <i name="ENAUG">    605.39200000</i>
   <i name="EDIFF">      0.00000100</i>
   <i type="int" name="IALGO">    38</i>
   <i type="int" name="IWAVPR">    11</i>
   <i type="int" name="NBANDS">    48</i>
   <i name="NELECT">     57.00000000</i>
   <i type="int" name="TURBO">     0</i>
   <i type="int" name="IRESTART">     0</i>
   <i type="int" name="NREBOOT">     0</i>
   <i type="int" name="NMIN">     0</i>
   <i name="EREF">      0.00000000</i>
   <separator name="electronic smearing" >
    <i type="int" name="ISMEAR">     0</i>
    <i name="SIGMA">      0.05000000</i>
    <i name="KSPACING">      0.50000000</i>
    <i type="logical" name="KGAMMA"> T  </i>
   </separator>
   <separator name="electronic projectors" >
    <i type="logical" name="LREAL"> T  </i>
    <v name="ROPT">     -0.00050000     -0.00050000</v>
    <i type="int" name="LMAXPAW">  -100</i>
    <i type="int" name="LMAXMIX">     2</i>
    <i type="logical" name="NLSPLINE"> F  </i>
   </separator>
   <separator name="electronic startup" >
    <i type="int" name="ISTART">     0</i>
    <i type="int" name="ICHARG">     2</i>
    <i type="int" name="INIWAV">     1</i>
   </separator>
   <separator name="electronic spin" >
    <i type="int" name="ISPIN">     2</i>
    <i type="logical" name="LNONCOLLINEAR"> F  </i>
    <v name="MAGMOM">      1.00000000      1.00000000      1.00000000      1.00000000      1.00000000      1.00000000      1.00000000      1.00000000      1.00000000      1.00000000      1.00000000      1.00000000      1.00000000      1.00000000      1.00000000      1.00000000</v>
    <i name="NUPDOWN">     -1.00000000</i>
    <i type="logical" name="LSORBIT"> F  </i>
    <v name="SAXIS">      0.00000000      0.00000000      1.00000000</v>
    <i type="logical" name="LSPIRAL"> F  </i>
    <v name="QSPIRAL">      0.00000000      0.00000000      0.00000000</v>
    <i type="logical" name="LZEROZ"> F  </i>
   </separator>
   <separator name="electronic exchange-correlation" >
    <i type="logical" name="LASPH"> T  </i>
    <i type="logical" name="LMETAGGA"> F  </i>
   </separator>
   <separator name="electronic convergence" >
    <i type="int" name="NELM">   100</i>
    <i type="int" name="NELMDL">     0</i>
    <i type="int" name="NELMIN">     4</i>
    <i name="ENINI">    400.00000000</i>
    <separator name="electronic convergence detail" >
     <i type="logical" name="LDIAG"> T  </i>
     <i type="logical" name="LSUBROT"> F  </i>
     <i name="WEIMIN">      0.00100000</i>
     <i name="EBREAK">      0.00000001</i>
     <i name="DEPER">      0.30000000</i>
     <i type="int" name="NRMM">     4</i>
     <i name="TIME">      0.40000000</i>
    </separator>
   </separator>
   <separator name="electronic mixer" >
    <i name="AMIX">      0.40000000</i>
    <i name="BMIX">      1.00000000</i>
    <i name="AMIN">      0.10000000</i>
    <i name="AMIX_MAG">      1.60000000</i>
    <i name="BMIX_MAG">      1.00000000</i>
    <separator name="electronic mixer details" >
     <i type="int" name="IMIX">     4</i>
     <i type="logical" name="MIXFIRST"> F  </i>
     <i type="int" name="MAXMIX">   -45</i>
     <i name="WC">    100.00000000</i>
     <i type="int" name="INIMIX">     1</i>
     <i type="int" name="MIXPRE">     1</i>
     <i type="int" name="MREMOVE">     5</i>
    </separator>
   </separator>
   <separator name="electronic dipolcorrection" >
    <i type="logical" name="LDIPOL"> F  </i>
    <i type="logical" name="LMONO"> F  </i>
    <i type="int" name="IDIPOL">     0</i>
    <i name="EPSILON">      1.00000000</i>
    <v name="DIPOL">   -100.00000000   -100.00000000   -100.00000000</v>
    <i name="EFIELD">      0.00000000</i>
   </separator>
  </separator>
  <separator name="grids" >
   <i type="int" name="NGX">    30</i>
   <i type="int" name="NGY">    30</i>
   <i type="int" name="NGZ">    30</i>
   <i type="int" name="NGXF">    60</i>
   <i type="int" name="NGYF">    60</i>
   <i type="int" name="NGZF">    60</i>
   <i type="logical" name="ADDGRID"> F  </i>
  </separator>
  <separator name="ionic" >
   <i type="int" name="NSW">    20</i>
   <i type="int" name="IBRION">     2</i>
   <i type="int" name="ISIF">     2</i>
   <i name="PSTRESS">      0.00000000</i>
   <i name="EDIFFG">     -0.05000000</i>
   <i type="int" name="NFREE">     1</i>
   <i name="POTIM">      0.50000000</i>
   <i name="SMASS">     -3.00000000</i>
   <i name="SCALEE">      1.00000000</i>
  </separator>
  <separator name="ionic md" >
   <i name="TEBEG">      0.00010000</i>
   <i name="TEEND">      0.00010000</i>
   <i type="int" name="NBLOCK">     1</i>
   <i type="int" name="KBLOCK">    20</i>
   <i type="int" name="NPACO">   256</i>
   <i name="APACO">     16.00000000</i>
  </separator>
  <separator name="symmetry" >
   <i type="int" name="ISYM">     2</i>
   <i name="SYMPREC">      0.00001000</i>
  </separator>
  <separator name="dos" >
   <i type="logical" name="LORBIT"> F  </i>
   <v name="RWIGS">     -1.00000000     -1.00000000</v>
   <i type="int" name="NEDOS">   301</i>
   <i name="EMIN">     10.00000000</i>
   <i name="EMAX">    -10.00000000</i>
   <i name="EFERMI">      0.00000000</i>
  </separator>
  <separator name="writing" >
   <i type="int" name="NWRITE">     2</i>
   <i type="logical" name="LWAVE"> F  </i>
   <i type="logical" name="LCHARG"> F  </i>
   <i type="logical" name="LPARD"> F  </i>
   <i type="logical" name="LVTOT"> F  </i>
   <i type="logical" name="LVHAR"> F  </i>
   <i type="logical" name="LELF"> F  </i>
   <i type="logical" name="LOPTICS"> F  </i>
   <v name="STM">      0.00000000      0.00000000      0.00000000      0.00000000      0.00000000      0.00000000      0.00000000</v>
  </separator>
  <separator name="performance" >
   <i type="int" name="NPAR">     4</i>
   <i type="int" name="NSIM">     4</i>
   <i type="int" name="NBLK">    -1</i>
   <i type="logical" name="LPLANE"> T  </i>
   <i type="logical" name="LSCALAPACK"> T  </i>
   <i type="logical" name="LSCAAWARE"> F  </i>
   <i type="logical" name="LSCALU"> F  </i>
   <i type="logical" name="LASYNC"> F  </i>
   <i type="logical" name="LORBITALREAL"> F  </i>
  </separator>
  <separator name="miscellaneous" >
   <i type="int" name="IDIOT">     3</i>
   <i type="logical" name="LMUSIC"> F  </i>
   <v name="POMASS">     24.30500000     16.00000000</v>
   <v name="DARWINR">      0.00000000      0.00000000</v>
   <v name="DARWINV">      1.00000000      1.00000000</v>
   <i type="logical" name="LCORR"> T  </i>
  </separator>
  <i type="logical" name="GGA_COMPAT"> T  </i>
  <i type="logical" name="LBERRY"> F  </i>
  <i type="int" name="ICORELEVEL">     0</i>
  <i type="logical" name="LDAU"> F  </i>
  <i type="int" name="I_CONSTRAINED_M">     0</i>
  <separator name="electronic exchange-correlation" >
   <i type="string" name="GGA">--</i>
   <i type="int" name="VOSKOWN">     0</i>
   <i type="logical" name="LHFCALC"> F  </i>
   <i type="string" name="PRECFOCK"></i>
   <i type="logical" name="LSYMGRAD"> F  </i>
   <i type="logical" name="LHFONE"> F  </i>
   <i type="logical" name="LRHFCALC"> F  </i>
   <i type="logical" name="LTHOMAS"> F  </i>
   <i type="logical" name="LMODELHF"> F  </i>
   <i name="ENCUT4O">     -1.00000000</i>
   <i type="int" name="EXXOEP">     0</i>
   <i type="int" name="FOURORBIT">     0</i>
   <i name="AEXX">      0.00000000</i>
   <i name="HFALPHA">      0.00000000</i>
   <i name="MCALPHA">      0.00000000</i>
   <i name="ALDAX">      1.00000000</i>
   <i name="AGGAX">      1.00000000</i>
   <i name="ALDAC">      1.00000000</i>
   <i name="AGGAC">      1.00000000</i>
   <i type="int" name="NKREDX">     1</i>
   <i type="int" name="NKREDY">     1</i>
   <i type="int" name="NKREDZ">     1</i>
   <i type="logical" name="SHIFTRED"> F  </i>
   <i type="logical" name="ODDONLY"> F  </i>
   <i type="logical" name="EVENONLY"> F  </i>
   <i type="int" name="LMAXFOCK">     0</i>
   <i type="int" name="NMAXFOCKAE">     0</i>
   <i type="logical" name="LFOCKAEDFT"> F  </i>
   <i name="HFSCREEN">      0.00000000</i>
   <i name="HFSCREENC">      0.00000000</i>
   <i type="int" name="NBANDSGWLOW">     0</i>
  </separator>
  <separator name="vdW DFT" >
   <i type="logical" name="LUSE_VDW"> F  </i>
   <i name="Zab_VDW">     -0.84910000</i>
   <i name="PARAM1">      0.12340000</i>
   <i name="PARAM2">      1.00000000</i>
   <i name="PARAM3">      0.00000000</i>
  </separator>
  <separator name="model GW" >
   <i type="int" name="MODEL_GW">     0</i>
   <i name="MODEL_EPS0">      5.74480406</i>
   <i name="MODEL_ALPHA">      1.00000000</i>
  </separator>
  <separator name="linear response parameters" >
   <i type="logical" name="LEPSILON"> F  </i>
   <i type="logical" name="LRPA"> F  </i>
   <i type="logical" name="LNABLA"> F  </i>
   <i type="logical" name="LVEL"> F  </i>
   <i type="int" name="KINTER">     0</i>
   <i name="CSHIFT">      0.10000000</i>
   <i name="OMEGAMAX">     -1.00000000</i>
   <i name="DEG_THRESHOLD">      0.00200000</i>
  </separator>
  <separator name="orbital magnetization" >
   <i type="logical" name="NUCIND"> F  </i>
   <v name="MAGPOS">      0.00000000      0.00000000      0.00000000</v>
   <i type="logical" name="LNICSALL"> T  </i>
   <i type="logical" name="ORBITALMAG"> F  </i>
   <i type="logical" name="LMAGBLOCH"> F  </i>
   <i type="logical" name="LCHIMAG"> F  </i>
   <i type="logical" name="LGAUGE"> T  </i>
   <i type="int" name="MAGATOM">     0</i>
   <v name="MAGDIPOL">      0.00000000      0.00000000      0.00000000</v>
   <v name="AVECCONST">      0.00000000      0.00000000      0.00000000</v>
  </separator>
  <separator name="response functions" >
   <i type="logical" name="LADDER"> F  </i>
   <i type="logical" name="LFXC"> F  </i>
   <i type="logical" name="LHARTREE"> T  </i>
   <i type="int" name="IBSE">     0</i>
   <v type="int" name="KPOINT">    -1     0     0     0</v>
   <i type="logical" name="LTCTE"> F  </i>
   <i type="logical" name="LTETE"> F  </i>
   <i type="logical" name="LTRIPLET"> F  </i>
   <i type="logical" name="LFXCEPS"> F  </i>
   <i type="logical" name="LFXHEG"> F  </i>
   <i type="int" name="NATURALO">     0</i>
   <i type="logical" name="L2ORDER"> F  </i>
   <i type="logical" name="LUSEW"> F  </i>
   <i name="ENCUTGW">     -2.00000000</i>
   <i name="ENCUTGWSOFT">     -2.00000000</i>
   <i name="ENCUTLF">     -1.00000000</i>
   <i type="int" name="LMAXMP2">    -1</i>
   <i name="SCISSOR">      0.00000000</i>
   <i type="int" name="NOMEGA">     0</i>
   <i type="int" name="NOMEGAR">     0</i>
   <i type="int" name="NBANDSGW">    -1</i>
   <i type="int" name="NBANDSO">    -1</i>
   <i type="int" name="NBANDSV">    -1</i>
   <i type="int" name="NELM">   100</i>
   <i type="int" name="NELMHF">     1</i>
   <i type="int" name="DIM">     3</i>
   <i type="int" name="ANTIRES">     0</i>
   <i name="OMEGAMAX">    -30.00000000</i>
   <i name="OMEGAMIN">    -30.00000000</i>
   <i name="OMEGATL">   -200.00000000</i>
   <i type="int" name="OMEGAGRID">     0</i>
   <i name="CSHIFT">     -0.10000000</i>
   <i type="logical" name="SELFENERGY"> F  </i>
   <i type="logical" name="LSPECTRAL"> F  </i>
   <i type="logical" name="LSPECTRALGW"> F  </i>
   <i type="logical" name="LSINGLES"> F  </i>
   <i type="logical" name="LFERMIGW"> F  </i>
   <i type="logical" name="ODDONLYGW"> F  </i>
   <i type="logical" name="EVENONLYGW"> F  </i>
   <i type="int" name="NKREDLFX">     1</i>
   <i type="int" name="NKREDLFY">     1</i>
   <i type="int" name="NKREDLFZ">     1</i>
   <i type="int" name="MAXMEM">  1800</i>
   <i type="int" name="TELESCOPE">     0</i>
   <i type="int" name="TAUPAR">     1</i>
   <i type="int" name="OMEGAPAR">    -1</i>
   <i name="LAMBDA">      1.00000000</i>
  </separator>
  <separator name="External order field" >
   <i name="OFIELD_KAPPA">      0.00000000</i>
   <v name="OFIELD_K">      0.00000000      0.00000000      0.00000000</v>
   <i name="OFIELD_Q6_NEAR">      0.00000000</i>
   <i name="OFIELD_Q6_FAR">      0.00000000</i>
   <i name="OFIELD_A">      0.00000000</i>
  </separator>
 </parameters>
 <atominfo>
  <atoms>      16 </atoms>
  <types>       2 </types>
  <array name="atoms" >
   <dimension dim="1">ion</dimension>
   <field type="string">element</field>
   <field type="int">atomtype</field>
   <set>
    <rc><c>Mg</c><c>   1</c></rc>
    <rc><c>Mg</c><c>   1</c></rc>
    <rc><c>Mg</c><c>   1</c></rc>
    <rc><c>Mg</c><c>   1</c></rc>
    <rc><c>Mg</c><c>   1</c></rc>
    <rc><c>Mg</c><c>   1</c></rc>
    <rc><c>Mg</c><c>   1</c></rc>
    <rc><c>Mg</c><c>   1</c></rc>
    <rc><c>Mg</c><c>   1</c></rc>
    <rc><c>O </c><c>   2</c></rc>
    <rc><c>O </c><c>   2</c></rc>
    <rc><c>O </c><c>   2</c></rc>
    <rc><c>O </c><c>   2</c></rc>
    <rc><c>O </c><c>   2</c></rc>
    <rc><c>O </c><c>   2</c></rc>
    <rc><c>O </c><c>   2</c></rc>
   </set>
  </array>
  <array name="atomtypes" >
   <dimension dim="1">type</dimension>
   <field type="int">atomspertype</field>
   <field type="string">element</field>
   <field>mass</field>
   <field>valence</field>
   <field type="string">pseudopotential</field>
   <set>
    <rc><c>   9</c><c>Mg</c><c>     24.30500000</c><c>      2.00000000</c><c>  PAW_PBE Mg 13Apr2007                  </c></rc>
    <rc><c>   7</c><c>O </c><c>     16.00000000</c><c>      6.00000000</c><c>  PAW_PBE O 08Apr2002                   </c></rc>
   </set>
  </array>
 </atominfo>
 <structure name="initialpos" >
  <crystal>
   <varray name="basis" >
    <v>       0.00000000       4.24689300       4.24689300 </v>
    <v>       4.24689300       0.00000000       4.24689300 </v>
    <v>       4.24689300       4.24689300       0.00000000 </v>
   </varray>
   <i name="volume">    153.19477498 </i>
   <varray name="rec_basis" >
    <v>      -0.11773313       0.11773313       0.11773313 </v>
    <v>       0.11773313      -0.11773313       0.11773313 </v>
    <v>       0.11773313       0.11773313      -0.11773313 </v>
   </varray>
  </crystal>
  <varray name="positions" >
   <v>       0.16127941       0.15930671       0.15886703 </v>
   <v>       0.99878088       0.99877541       0.99707987 </v>
   <v>       0.97000667       0.96978076       0.57049324 </v>
   <v>       0.97004882       0.57059208       0.96763495 </v>
   <v>       0.99658910       0.51210955       0.50832658 </v>
   <v>       0.57265506       0.96994508       0.96704075 </v>
   <v>       0.51176186       0.99621765       0.50997740 </v>
   <v>       0.51211322       0.51125686       0.99436786 </v>
   <v>       0.50726157       0.50796711       0.50563426 </v>
   <v>       0.25724953       0.25532777       0.77120100 </v>
   <v>       0.25656653       0.77144952       0.25542896 </v>
   <v>       0.25022582       0.75740687       0.75644760 </v>
   <v>       0.77292221       0.25633643       0.25465817 </v>
   <v>       0.75791935       0.25089901       0.75548543 </v>
   <v>       0.75801761       0.75779259       0.24763853 </v>
   <v>       0.74787035       0.74716358       0.74493338 </v>
  </varray>
 </structure>
 <calculation>
  <scstep>
   <time name="dav">    0.53    0.53</time>
   <time name="total">    1.23    1.24</time>
   <energy>
    <i name="alphaZ">    142.81396753 </i>
    <i name="ewald">  -2433.25326359 </i>
    <i name="hartreedc">   -976.91970415 </i>
    <i name="XCdc">   -235.95818536 </i>
    <i name="pawpsdc">   3011.45132117 </i>
    <i name="pawaedc">  -2557.24446474 </i>
    <i name="eentropy">     -0.00136575 </i>
    <i name="bandstr">     29.55155022 </i>
    <i name="atom">   3233.17333345 </i>
    <i name="e_fr_energy">    213.61318878 </i>
    <i name="e_wo_entrp">    213.61455453 </i>
    <i name="e_0_energy">    213.61387165 </i>
   </energy>
  </scstep>
  <scstep>
   <time name="dav">    0.60    0.61</time>
   <time name="total">    0.60    0.61</time>
   <energy>
    <i name="e_fr_energy">    -82.74660199 </i>
    <i name="e_wo_entrp">    -82.74394427 </i>
    <i name="e_0_energy">    -82.74527313 </i>
   </energy>
  </scstep>
  <scstep>
   <time name="dav">    0.60    0.60</time>
   <time name="total">    0.60    0.60</time>
   <energy>
    <i name="e_fr_energy">    -99.77982762 </i>
    <i name="e_wo_entrp">    -99.77544146 </i>
    <i name="e_0_energy">    -99.77763454 </i>
   </energy>
  </scstep>
  <scstep>
   <time name="dav">    0.57    0.57</time>
   <time name="total">    0.57    0.57</time>
   <energy>
    <i name="e_fr_energy">    -99.88084013 </i>
    <i name="e_wo_entrp">    -99.87645988 </i>
    <i name="e_0_energy">    -99.87865000 </i>
   </energy>
  </scstep>
  <scstep>
   <time name="dav">    0.59    0.59</time>
   <time name="total">    0.61    0.61</time>
   <energy>
    <i name="e_fr_energy">    -99.88136585 </i>
    <i name="e_wo_entrp">    -99.87698566 </i>
    <i name="e_0_energy">    -99.87917575 </i>
   </energy>
  </scstep>
  <scstep>
   <time name="dav">    0.55    0.55</time>
   <time name="total">    1.27    1.27</time>
   <energy>
    <i name="e_fr_energy">    -96.02793927 </i>
    <i name="e_wo_entrp">    -96.02311958 </i>
    <i name="e_0_energy">    -96.02552942 </i>
   </energy>
  </scstep>
  <scstep>
   <time name="dav">    0.56    0.57</time>
   <time name="total">    1.29    1.29</time>
   <energy>
    <i name="e_fr_energy">    -96.05298763 </i>
    <i name="e_wo_entrp">    -96.04816731 </i>
    <i name="e_0_energy">    -96.05057747 </i>
   </energy>
  </scstep>
  <scstep>
   <time name="dav">    0.57    0.57</time>
   <time name="total">    1.29    1.30</time>
   <energy>
    <i name="e_fr_energy">    -95.90360500 </i>
    <i name="e_wo_entrp">    -95.89878482 </i>
    <i name="e_0_energy">    -95.90119491 </i>
   </energy>
  </scstep>
  <scstep>
   <time name="dav">    0.60    0.60</time>
   <time name="total">    1.32    1.32</time>
   <energy>
    <i name="e_fr_energy">    -95.89410717 </i>
    <i name="e_wo_entrp">    -95.88928696 </i>
    <i name="e_0_energy">    -95.89169706 </i>
   </energy>
  </scstep>
  <scstep>
   <time name="dav">    0.56    0.56</time>
   <time name="total">    1.28    1.28</time>
   <energy>
    <i name="e_fr_energy">    -95.89365263 </i>
    <i name="e_wo_entrp">    -95.88883238 </i>
    <i name="e_0_energy">    -95.89124251 </i>
   </energy>
  </scstep>
  <scstep>
   <time name="dav">    0.58    0.58</time>
   <time name="total">    1.31    1.31</time>
   <energy>
    <i name="e_fr_energy">    -95.89418462 </i>
    <i name="e_wo_entrp">    -95.88936438 </i>
    <i name="e_0_energy">    -95.89177450 </i>
   </energy>
  </scstep>
  <scstep>
   <time name="dav">    0.58    0.57</time>
   <time name="total">    1.30    1.30</time>
   <energy>
    <i name="e_fr_energy">    -95.89437033 </i>
    <i name="e_wo_entrp">    -95.88955010 </i>
    <i name="e_0_energy">    -95.89196022 </i>
   </energy>
  </scstep>
  <scstep>
   <time name="dav">    0.59    0.59</time>
   <time name="total">    1.31    1.32</time>
   <energy>
    <i name="e_fr_energy">    -95.89437657 </i>
    <i name="e_wo_entrp">    -95.88955633 </i>
    <i name="e_0_energy">    -95.89196645 </i>
   </energy>
  </scstep>
  <scstep>
   <time name="dav">    0.58    0.57</time>
   <time name="total">    1.30    1.30</time>
   <energy>
    <i name="e_fr_energy">    -95.89437829 </i>
    <i name="e_wo_entrp">    -95.88955804 </i>
    <i name="e_0_energy">    -95.89196817 </i>
   </energy>
  </scstep>
  <scstep>
   <time name="dav">    0.46    0.46</time>
   <time name="total">    1.16    1.17</time>
   <energy>
    <i name="alphaZ">    142.81396753 </i>
    <i name="ewald">  -2433.25326359 </i>
    <i name="hartreedc">  -1127.84816931 </i>
    <i name="XCdc">   -236.85140666 </i>
    <i name="pawpsdc">   3991.25268410 </i>
    <i name="pawaedc">  -3538.79888360 </i>
    <i name="eentropy">     -0.00482024 </i>
    <i name="bandstr">   -126.37782004 </i>
    <i name="atom">   3233.17333345 </i>
    <i name="e_fr_energy">    -95.89437837 </i>
    <i name="e_wo_entrp">    -95.88955812 </i>
    <i name="e_0_energy">    -95.89196825 </i>
   </energy>
  </scstep>
  <structure>
   <crystal>
    <varray name="basis" >
     <v>       0.00000000       4.24689300       4.24689300 </v>
     <v>       4.24689300       0.00000000       4.24689300 </v>
     <v>       4.24689300       4.24689300       0.00000000 </v>
    </varray>
    <i name="volume">    153.19477498 </i>
    <varray name="rec_basis" >
     <v>      -0.11773313       0.11773313       0.11773313 </v>
     <v>       0.11773313      -0.11773313       0.11773313 </v>
     <v>       0.11773313       0.11773313      -0.11773313 </v>
    </varray>
   </crystal>
   <varray name="positions" >
    <v>       0.16127941       0.15930671       0.15886703 </v>
    <v>       0.99878088       0.99877541       0.99707987 </v>
    <v>       0.97000667       0.96978076       0.57049324 </v>
    <v>       0.97004882       0.57059208       0.96763495 </v>
    <v>       0.99658910       0.51210955       0.50832658 </v>
    <v>       0.57265506       0.96994508       0.96704075 </v>
    <v>       0.51176186       0.99621765       0.50997740 </v>
    <v>       0.51211322       0.51125686       0.99436786 </v>
    <v>       0.50726157       0.50796711       0.50563426 </v>
    <v>       0.25724953       0.25532777       0.77120100 </v>
    <v>       0.25656653       0.77144952       0.25542896 </v>
    <v>       0.25022582       0.75740687       0.75644760 </v>
    <v>       0.77292221       0.25633643       0.25465817 </v>
    <v>       0.75791935       0.25089901       0.75548543 </v>
    <v>       0.75801761       0.75779259       0.24763853 </v>
    <v>       0.74787035       0.74716358       0.74493338 </v>
   </varray>
  </structure>
  <varray name="forces" >
   <v>      -0.00634519      -0.01361580      -0.04213748 </v>
   <v>      -0.01992831      -0.00738248      -0.00641828 </v>
   <v>      -0.01104606      -0.00242161      -0.00451353 </v>
   <v>       0.02670365      -0.01194894       0.02175229 </v>
   <v>       0.00599800       0.01384649      -0.01612335 </v>
   <v>      -0.00326046       0.00533376      -0.01126702 </v>
   <v>      -0.01486843      -0.02277314      -0.00635593 </v>
   <v>       0.00047208      -0.02109583      -0.00911703 </v>
   <v>      -0.01996516       0.01532525      -0.00100468 </v>
   <v>       0.01155170      -0.01184412       0.02759974 </v>
   <v>      -0.00107720      -0.00550611       0.02291533 </v>
   <v>      -0.00294856       0.01019475       0.01717686 </v>
   <v>       0.00129361       0.01243969       0.01128615 </v>
   <v>       0.00098749       0.02649381       0.00520349 </v>
   <v>       0.02776391       0.01349211       0.00142301 </v>
   <v>       0.00466893      -0.00053785      -0.01041960 </v>
  </varray>
  <varray name="stress" >
   <v>     -89.88184134     -40.41146371     -41.86796639 </v>
   <v>     -40.41146239     -89.65811673     -40.80514790 </v>
   <v>     -41.86796704     -40.80514843     -90.12754601 </v>
  </varray>
  <energy>
   <i name="e_fr_energy">    -95.89437837 </i>
   <i name="e_wo_entrp">    -95.89196825 </i>
   <i name="e_0_energy">     -0.00482024 </i>
  </energy>
  <time name="totalsc">   18.44   18.50</time>
  <eigenvalues>
   <array>
    <dimension dim="1">band</dimension>
    <dimension dim="2">kpoint</dimension>
    <dimension dim="3">spin</dimension>
    <field>eigene</field>
    <field>occ</field>
    <set>
     <set comment="spin 1">
      <set comment="kpoint 1">
       <r>  -14.0348    1.0000 </r>
       <r>  -13.1788    1.0000 </r>
       <r>  -12.6871    1.0000 </r>
       <r>  -12.6690    1.0000 </r>
       <r>  -12.6676    1.0000 </r>
       <r>  -12.4126    1.0000 </r>
       <r>  -12.4110    1.0000 </r>
       <r>   -1.4410    1.0000 </r>
       <r>   -1.2046    1.0000 </r>
       <r>   -1.2016    1.0000 </r>
       <r>   -0.9913    1.0000 </r>
       <r>   -0.5267    1.0000 </r>
       <r>   -0.1810    1.0000 </r>
       <r>   -0.1802    1.0000 </r>
       <r>    1.5410    1.0000 </r>
       <r>    1.6228    1.0000 </r>
       <r>    1.6263    1.0000 </r>
       <r>    1.8779    1.0000 </r>
       <r>    1.8802    1.0000 </r>
       <r>    2.0405    1.0000 </r>
       <r>    2.4199    1.0000 </r>
       <r>    2.4235    1.0000 </r>
       <r>    2.5955    1.0000 </r>
       <r>    2.7713    1.0000 </r>
       <r>    2.8066    1.0000 </r>
       <r>    2.8074    1.0000 </r>
       <r>    2.9626    1.0000 </r>
       <r>    2.9668    1.0000 </r>
       <r>    3.0527    1.0000 </r>
       <r>    8.9004    0.0000 </r>
       <r>   10.1241    0.0000 </r>
       <r>   10.1298    0.0000 </r>
       <r>   10.5924    0.0000 </r>
       <r>   11.1548    0.0000 </r>
       <r>   11.2206    0.0000 </r>
       <r>   11.2223    0.0000 </r>
       <r>   12.3239    0.0000 </r>
       <r>   12.3262    0.0000 </r>
       <r>   12.6142    0.0000 </r>
       <r>   12.6151    0.0000 </r>
       <r>   12.8270    0.0000 </r>
       <r>   13.3846    0.0000 </r>
       <r>   15.6777    0.0000 </r>
       <r>   15.8148    0.0000 </r>
       <r>   15.8166    0.0000 </r>
       <r>   16.2029    0.0000 </r>
       <r>   16.9768    0.0000 </r>
       <r>   18.4049    0.0000 </r>
      </set>
      <set comment="kpoint 2">
       <r>  -13.8211    1.0000 </r>
       <r>  -13.1910    1.0000 </r>
       <r>  -12.9536    1.0000 </r>
       <r>  -12.6239    1.0000 </r>
       <r>  -12.6051    1.0000 </r>
       <r>  -12.4942    1.0000 </r>
       <r>  -12.4852    1.0000 </r>
       <r>   -0.9377    1.0000 </r>
       <r>   -0.7424    1.0000 </r>
       <r>   -0.6720    1.0000 </r>
       <r>   -0.3470    1.0000 </r>
       <r>    0.0187    1.0000 </r>
       <r>    0.1871    1.0000 </r>
       <r>    0.2749    1.0000 </r>
       <r>    0.7126    1.0000 </r>
       <r>    0.8458    1.0000 </r>
       <r>    1.1327    1.0000 </r>
       <r>    1.3739    1.0000 </r>
       <r>    1.4642    1.0000 </r>
       <r>    1.6136    1.0000 </r>
       <r>    1.7749    1.0000 </r>
       <r>    1.9743    1.0000 </r>
       <r>    2.0650    1.0000 </r>
       <r>    2.1707    1.0000 </r>
       <r>    2.7322    1.0000 </r>
       <r>    2.7663    1.0000 </r>
       <r>    2.8652    1.0000 </r>
       <r>    2.8670    1.0000 </r>
       <r>    4.5126    1.0000 </r>
       <r>    7.7400    0.0000 </r>
       <r>    9.5658    0.0000 </r>
       <r>   10.2256    0.0000 </r>
       <r>   10.8246    0.0000 </r>
       <r>   11.3491    0.0000 </r>
       <r>   12.2545    0.0000 </r>
       <r>   12.6057    0.0000 </r>
       <r>   12.8744    0.0000 </r>
       <r>   13.0739    0.0000 </r>
       <r>   13.9420    0.0000 </r>
       <r>   14.3484    0.0000 </r>
       <r>   14.5146    0.0000 </r>
       <r>   14.7716    0.0000 </r>
       <r>   15.1006    0.0000 </r>
       <r>   15.4251    0.0000 </r>
       <r>   15.5308    0.0000 </r>
       <r>   15.6375    0.0000 </r>
       <r>   15.9606    0.0000 </r>
       <r>   16.2359    0.0000 </r>
      </set>
      <set comment="kpoint 3">
       <r>  -13.8207    1.0000 </r>
       <r>  -13.1925    1.0000 </r>
       <r>  -12.9525    1.0000 </r>
       <r>  -12.6241    1.0000 </r>
       <r>  -12.6055    1.0000 </r>
       <r>  -12.4915    1.0000 </r>
       <r>  -12.4875    1.0000 </r>
       <r>   -0.9363    1.0000 </r>
       <r>   -0.7416    1.0000 </r>
       <r>   -0.6696    1.0000 </r>
       <r>   -0.3507    1.0000 </r>
       <r>    0.0159    1.0000 </r>
       <r>    0.1885    1.0000 </r>
       <r>    0.2730    1.0000 </r>
       <r>    0.7111    1.0000 </r>
       <r>    0.8433    1.0000 </r>
       <r>    1.1294    1.0000 </r>
       <r>    1.3737    1.0000 </r>
       <r>    1.4663    1.0000 </r>
       <r>    1.6171    1.0000 </r>
       <r>    1.7756    1.0000 </r>
       <r>    1.9758    1.0000 </r>
       <r>    2.0614    1.0000 </r>
       <r>    2.1758    1.0000 </r>
       <r>    2.7317    1.0000 </r>
       <r>    2.7656    1.0000 </r>
       <r>    2.8657    1.0000 </r>
       <r>    2.8708    1.0000 </r>
       <r>    4.5121    1.0000 </r>
       <r>    7.7408    0.0000 </r>
       <r>    9.5639    0.0000 </r>
       <r>   10.2261    0.0000 </r>
       <r>   10.8245    0.0000 </r>
       <r>   11.3487    0.0000 </r>
       <r>   12.2552    0.0000 </r>
       <r>   12.6000    0.0000 </r>
       <r>   12.8790    0.0000 </r>
       <r>   13.0765    0.0000 </r>
       <r>   13.9403    0.0000 </r>
       <r>   14.3473    0.0000 </r>
       <r>   14.5130    0.0000 </r>
       <r>   14.7690    0.0000 </r>
       <r>   15.1043    0.0000 </r>
       <r>   15.4314    0.0000 </r>
       <r>   15.5369    0.0000 </r>
       <r>   15.6340    0.0000 </r>
       <r>   15.9570    0.0000 </r>
       <r>   16.2244    0.0000 </r>
      </set>
      <set comment="kpoint 4">
       <r>  -13.7589    1.0000 </r>
       <r>  -13.1732    1.0000 </r>
       <r>  -12.8562    1.0000 </r>
       <r>  -12.7265    1.0000 </r>
       <r>  -12.7189    1.0000 </r>
       <r>  -12.6032    1.0000 </r>
       <r>  -12.3706    1.0000 </r>
       <r>   -0.9420    1.0000 </r>
       <r>   -0.4953    1.0000 </r>
       <r>   -0.2697    1.0000 </r>
       <r>    0.0417    1.0000 </r>
       <r>    0.1932    1.0000 </r>
       <r>    0.3271    1.0000 </r>
       <r>    0.4222    1.0000 </r>
       <r>    0.5886    1.0000 </r>
       <r>    0.7441    1.0000 </r>
       <r>    1.0771    1.0000 </r>
       <r>    1.1699    1.0000 </r>
       <r>    1.2315    1.0000 </r>
       <r>    1.4414    1.0000 </r>
       <r>    1.4879    1.0000 </r>
       <r>    1.5347    1.0000 </r>
       <r>    2.0457    1.0000 </r>
       <r>    2.2339    1.0000 </r>
       <r>    2.4905    1.0000 </r>
       <r>    2.5763    1.0000 </r>
       <r>    2.6708    1.0000 </r>
       <r>    2.8394    1.0000 </r>
       <r>    4.9272    0.6615 </r>
       <r>    7.8777    0.0000 </r>
       <r>    9.0299    0.0000 </r>
       <r>    9.5553    0.0000 </r>
       <r>   11.4517    0.0000 </r>
       <r>   12.1332    0.0000 </r>
       <r>   12.6079    0.0000 </r>
       <r>   13.1812    0.0000 </r>
       <r>   13.4347    0.0000 </r>
       <r>   13.7857    0.0000 </r>
       <r>   13.8406    0.0000 </r>
       <r>   14.4199    0.0000 </r>
       <r>   14.7287    0.0000 </r>
       <r>   14.7811    0.0000 </r>
       <r>   14.8319    0.0000 </r>
       <r>   15.0507    0.0000 </r>
       <r>   15.1557    0.0000 </r>
       <r>   15.4762    0.0000 </r>
       <r>   16.1204    0.0000 </r>
       <r>   16.4189    0.0000 </r>
      </set>
      <set comment="kpoint 5">
       <r>  -13.8211    1.0000 </r>
       <r>  -13.1907    1.0000 </r>
       <r>  -12.9539    1.0000 </r>
       <r>  -12.6254    1.0000 </r>
       <r>  -12.6034    1.0000 </r>
       <r>  -12.4938    1.0000 </r>
       <r>  -12.4860    1.0000 </r>
       <r>   -0.9369    1.0000 </r>
       <r>   -0.7424    1.0000 </r>
       <r>   -0.6721    1.0000 </r>
       <r>   -0.3462    1.0000 </r>
       <r>    0.0191    1.0000 </r>
       <r>    0.1873    1.0000 </r>
       <r>    0.2745    1.0000 </r>
       <r>    0.7123    1.0000 </r>
       <r>    0.8461    1.0000 </r>
       <r>    1.1330    1.0000 </r>
       <r>    1.3740    1.0000 </r>
       <r>    1.4609    1.0000 </r>
       <r>    1.6123    1.0000 </r>
       <r>    1.7759    1.0000 </r>
       <r>    1.9755    1.0000 </r>
       <r>    2.0650    1.0000 </r>
       <r>    2.1703    1.0000 </r>
       <r>    2.7331    1.0000 </r>
       <r>    2.7678    1.0000 </r>
       <r>    2.8637    1.0000 </r>
       <r>    2.8658    1.0000 </r>
       <r>    4.5121    1.0000 </r>
       <r>    7.7404    0.0000 </r>
       <r>    9.5673    0.0000 </r>
       <r>   10.2257    0.0000 </r>
       <r>   10.8259    0.0000 </r>
       <r>   11.3501    0.0000 </r>
       <r>   12.2570    0.0000 </r>
       <r>   12.6059    0.0000 </r>
       <r>   12.8745    0.0000 </r>
       <r>   13.0748    0.0000 </r>
       <r>   13.9400    0.0000 </r>
       <r>   14.3466    0.0000 </r>
       <r>   14.5145    0.0000 </r>
       <r>   14.7705    0.0000 </r>
       <r>   15.0954    0.0000 </r>
       <r>   15.4234    0.0000 </r>
       <r>   15.5351    0.0000 </r>
       <r>   15.6420    0.0000 </r>
       <r>   15.9567    0.0000 </r>
       <r>   16.2357    0.0000 </r>
      </set>
      <set comment="kpoint 6">
       <r>  -13.7591    1.0000 </r>
       <r>  -13.1741    1.0000 </r>
       <r>  -12.8523    1.0000 </r>
       <r>  -12.7270    1.0000 </r>
       <r>  -12.7186    1.0000 </r>
       <r>  -12.6065    1.0000 </r>
       <r>  -12.3701    1.0000 </r>
       <r>   -0.9415    1.0000 </r>
       <r>   -0.4984    1.0000 </r>
       <r>   -0.2670    1.0000 </r>
       <r>    0.0412    1.0000 </r>
       <r>    0.1949    1.0000 </r>
       <r>    0.3252    1.0000 </r>
       <r>    0.4209    1.0000 </r>
       <r>    0.5894    1.0000 </r>
       <r>    0.7481    1.0000 </r>
       <r>    1.0802    1.0000 </r>
       <r>    1.1761    1.0000 </r>
       <r>    1.2315    1.0000 </r>
       <r>    1.4378    1.0000 </r>
       <r>    1.4790    1.0000 </r>
       <r>    1.5303    1.0000 </r>
       <r>    2.0427    1.0000 </r>
       <r>    2.2399    1.0000 </r>
       <r>    2.4857    1.0000 </r>
       <r>    2.5847    1.0000 </r>
       <r>    2.6698    1.0000 </r>
       <r>    2.8387    1.0000 </r>
       <r>    4.9269    0.6650 </r>
       <r>    7.8822    0.0000 </r>
       <r>    9.0259    0.0000 </r>
       <r>    9.5554    0.0000 </r>
       <r>   11.4529    0.0000 </r>
       <r>   12.1343    0.0000 </r>
       <r>   12.6005    0.0000 </r>
       <r>   13.1764    0.0000 </r>
       <r>   13.4409    0.0000 </r>
       <r>   13.7795    0.0000 </r>
       <r>   13.8442    0.0000 </r>
       <r>   14.4252    0.0000 </r>
       <r>   14.7320    0.0000 </r>
       <r>   14.7915    0.0000 </r>
       <r>   14.8356    0.0000 </r>
       <r>   15.0507    0.0000 </r>
       <r>   15.1530    0.0000 </r>
       <r>   15.4586    0.0000 </r>
       <r>   16.1237    0.0000 </r>
       <r>   16.4186    0.0000 </r>
      </set>
      <set comment="kpoint 7">
       <r>  -13.7589    1.0000 </r>
       <r>  -13.1743    1.0000 </r>
       <r>  -12.8546    1.0000 </r>
       <r>  -12.7276    1.0000 </r>
       <r>  -12.7168    1.0000 </r>
       <r>  -12.6040    1.0000 </r>
       <r>  -12.3714    1.0000 </r>
       <r>   -0.9419    1.0000 </r>
       <r>   -0.4952    1.0000 </r>
       <r>   -0.2695    1.0000 </r>
       <r>    0.0410    1.0000 </r>
       <r>    0.1927    1.0000 </r>
       <r>    0.3270    1.0000 </r>
       <r>    0.4211    1.0000 </r>
       <r>    0.5884    1.0000 </r>
       <r>    0.7462    1.0000 </r>
       <r>    1.0810    1.0000 </r>
       <r>    1.1721    1.0000 </r>
       <r>    1.2307    1.0000 </r>
       <r>    1.4393    1.0000 </r>
       <r>    1.4861    1.0000 </r>
       <r>    1.5341    1.0000 </r>
       <r>    2.0462    1.0000 </r>
       <r>    2.2354    1.0000 </r>
       <r>    2.4886    1.0000 </r>
       <r>    2.5767    1.0000 </r>
       <r>    2.6698    1.0000 </r>
       <r>    2.8387    1.0000 </r>
       <r>    4.9260    0.6734 </r>
       <r>    7.8804    0.0000 </r>
       <r>    9.0287    0.0000 </r>
       <r>    9.5565    0.0000 </r>
       <r>   11.4522    0.0000 </r>
       <r>   12.1351    0.0000 </r>
       <r>   12.6065    0.0000 </r>
       <r>   13.1790    0.0000 </r>
       <r>   13.4346    0.0000 </r>
       <r>   13.7911    0.0000 </r>
       <r>   13.8435    0.0000 </r>
       <r>   14.4234    0.0000 </r>
       <r>   14.7282    0.0000 </r>
       <r>   14.7839    0.0000 </r>
       <r>   14.8303    0.0000 </r>
       <r>   15.0488    0.0000 </r>
       <r>   15.1545    0.0000 </r>
       <r>   15.4672    0.0000 </r>
       <r>   16.1200    0.0000 </r>
       <r>   16.4206    0.0000 </r>
      </set>
      <set comment="kpoint 8">
       <r>  -13.8319    1.0000 </r>
       <r>  -13.1442    1.0000 </r>
       <r>  -13.0010    1.0000 </r>
       <r>  -12.5985    1.0000 </r>
       <r>  -12.5959    1.0000 </r>
       <r>  -12.5018    1.0000 </r>
       <r>  -12.4989    1.0000 </r>
       <r>   -1.0303    1.0000 </r>
       <r>   -0.7084    1.0000 </r>
       <r>   -0.7050    1.0000 </r>
       <r>   -0.4924    1.0000 </r>
       <r>    0.0011    1.0000 </r>
       <r>    0.3561    1.0000 </r>
       <r>    0.3589    1.0000 </r>
       <r>    0.6065    1.0000 </r>
       <r>    0.9519    1.0000 </r>
       <r>    1.3106    1.0000 </r>
       <r>    1.3135    1.0000 </r>
       <r>    1.4446    1.0000 </r>
       <r>    1.4504    1.0000 </r>
       <r>    1.8983    1.0000 </r>
       <r>    1.9024    1.0000 </r>
       <r>    2.2900    1.0000 </r>
       <r>    2.4837    1.0000 </r>
       <r>    2.6410    1.0000 </r>
       <r>    2.6451    1.0000 </r>
       <r>    2.7170    1.0000 </r>
       <r>    2.7200    1.0000 </r>
       <r>    4.4018    1.0000 </r>
       <r>    8.3029    0.0000 </r>
       <r>    9.4844    0.0000 </r>
       <r>    9.4921    0.0000 </r>
       <r>   11.0347    0.0000 </r>
       <r>   11.3450    0.0000 </r>
       <r>   12.8846    0.0000 </r>
       <r>   12.8852    0.0000 </r>
       <r>   13.0522    0.0000 </r>
       <r>   13.0603    0.0000 </r>
       <r>   13.3203    0.0000 </r>
       <r>   14.2558    0.0000 </r>
       <r>   14.2667    0.0000 </r>
       <r>   14.2692    0.0000 </r>
       <r>   14.7932    0.0000 </r>
       <r>   15.1425    0.0000 </r>
       <r>   15.1532    0.0000 </r>
       <r>   16.0741    0.0000 </r>
       <r>   16.2485    0.0000 </r>
       <r>   16.2636    0.0000 </r>
      </set>
     </set>
     <set comment="spin 2">
      <set comment="kpoint 1">
       <r>  -14.0166    1.0000 </r>
       <r>  -13.1514    1.0000 </r>
       <r>  -12.6375    1.0000 </r>
       <r>  -12.6213    1.0000 </r>
       <r>  -12.6199    1.0000 </r>
       <r>  -12.3602    1.0000 </r>
       <r>  -12.3586    1.0000 </r>
       <r>   -1.4268    1.0000 </r>
       <r>   -1.1875    1.0000 </r>
       <r>   -1.1844    1.0000 </r>
       <r>   -0.9809    1.0000 </r>
       <r>   -0.4645    1.0000 </r>
       <r>   -0.1001    1.0000 </r>
       <r>   -0.0993    1.0000 </r>
       <r>    1.5563    1.0000 </r>
       <r>    1.6573    1.0000 </r>
       <r>    1.6613    1.0000 </r>
       <r>    1.9075    1.0000 </r>
       <r>    1.9095    1.0000 </r>
       <r>    2.0923    1.0000 </r>
       <r>    2.4670    1.0000 </r>
       <r>    2.4703    1.0000 </r>
       <r>    2.8338    1.0000 </r>
       <r>    2.8365    1.0000 </r>
       <r>    2.8375    1.0000 </r>
       <r>    2.9278    1.0000 </r>
       <r>    3.0000    1.0000 </r>
       <r>    3.0042    1.0000 </r>
       <r>    3.8729    1.0000 </r>
       <r>    9.0330    0.0000 </r>
       <r>   10.6725    0.0000 </r>
       <r>   10.6825    0.0000 </r>
       <r>   10.6866    0.0000 </r>
       <r>   11.3034    0.0000 </r>
       <r>   11.3065    0.0000 </r>
       <r>   11.5895    0.0000 </r>
       <r>   12.4941    0.0000 </r>
       <r>   12.4999    0.0000 </r>
       <r>   12.7193    0.0000 </r>
       <r>   12.7224    0.0000 </r>
       <r>   12.8580    0.0000 </r>
       <r>   13.4622    0.0000 </r>
       <r>   15.7054    0.0000 </r>
       <r>   15.8331    0.0000 </r>
       <r>   15.8353    0.0000 </r>
       <r>   16.2160    0.0000 </r>
       <r>   17.6870    0.0000 </r>
       <r>   18.4159    0.0000 </r>
      </set>
      <set comment="kpoint 2">
       <r>  -13.8144    1.0000 </r>
       <r>  -13.1462    1.0000 </r>
       <r>  -12.9123    1.0000 </r>
       <r>  -12.5738    1.0000 </r>
       <r>  -12.5587    1.0000 </r>
       <r>  -12.4407    1.0000 </r>
       <r>  -12.4339    1.0000 </r>
       <r>   -0.9299    1.0000 </r>
       <r>   -0.6644    1.0000 </r>
       <r>   -0.5509    1.0000 </r>
       <r>   -0.3290    1.0000 </r>
       <r>    0.0789    1.0000 </r>
       <r>    0.2270    1.0000 </r>
       <r>    0.3720    1.0000 </r>
       <r>    0.7479    1.0000 </r>
       <r>    0.8884    1.0000 </r>
       <r>    1.1695    1.0000 </r>
       <r>    1.4009    1.0000 </r>
       <r>    1.5221    1.0000 </r>
       <r>    1.6723    1.0000 </r>
       <r>    1.7892    1.0000 </r>
       <r>    1.9927    1.0000 </r>
       <r>    2.1318    1.0000 </r>
       <r>    2.1973    1.0000 </r>
       <r>    2.7680    1.0000 </r>
       <r>    2.8067    1.0000 </r>
       <r>    2.9055    1.0000 </r>
       <r>    2.9069    1.0000 </r>
       <r>    5.5816    0.0000 </r>
       <r>    8.2115    0.0000 </r>
       <r>   10.1549    0.0000 </r>
       <r>   10.6732    0.0000 </r>
       <r>   10.9239    0.0000 </r>
       <r>   11.4644    0.0000 </r>
       <r>   12.3233    0.0000 </r>
       <r>   12.7195    0.0000 </r>
       <r>   12.9526    0.0000 </r>
       <r>   13.0975    0.0000 </r>
       <r>   13.9812    0.0000 </r>
       <r>   14.4897    0.0000 </r>
       <r>   14.5794    0.0000 </r>
       <r>   14.8660    0.0000 </r>
       <r>   15.1497    0.0000 </r>
       <r>   15.4879    0.0000 </r>
       <r>   15.6014    0.0000 </r>
       <r>   15.7516    0.0000 </r>
       <r>   15.9825    0.0000 </r>
       <r>   16.2950    0.0000 </r>
      </set>
      <set comment="kpoint 3">
       <r>  -13.8141    1.0000 </r>
       <r>  -13.1476    1.0000 </r>
       <r>  -12.9111    1.0000 </r>
       <r>  -12.5739    1.0000 </r>
       <r>  -12.5592    1.0000 </r>
       <r>  -12.4380    1.0000 </r>
       <r>  -12.4362    1.0000 </r>
       <r>   -0.9286    1.0000 </r>
       <r>   -0.6621    1.0000 </r>
       <r>   -0.5501    1.0000 </r>
       <r>   -0.3328    1.0000 </r>
       <r>    0.0755    1.0000 </r>
       <r>    0.2288    1.0000 </r>
       <r>    0.3703    1.0000 </r>
       <r>    0.7461    1.0000 </r>
       <r>    0.8865    1.0000 </r>
       <r>    1.1660    1.0000 </r>
       <r>    1.4008    1.0000 </r>
       <r>    1.5243    1.0000 </r>
       <r>    1.6755    1.0000 </r>
       <r>    1.7899    1.0000 </r>
       <r>    1.9944    1.0000 </r>
       <r>    2.1282    1.0000 </r>
       <r>    2.2022    1.0000 </r>
       <r>    2.7675    1.0000 </r>
       <r>    2.8058    1.0000 </r>
       <r>    2.9048    1.0000 </r>
       <r>    2.9121    1.0000 </r>
       <r>    5.5810    0.0000 </r>
       <r>    8.2116    0.0000 </r>
       <r>   10.1530    0.0000 </r>
       <r>   10.6738    0.0000 </r>
       <r>   10.9237    0.0000 </r>
       <r>   11.4641    0.0000 </r>
       <r>   12.3236    0.0000 </r>
       <r>   12.7139    0.0000 </r>
       <r>   12.9581    0.0000 </r>
       <r>   13.1002    0.0000 </r>
       <r>   13.9792    0.0000 </r>
       <r>   14.4886    0.0000 </r>
       <r>   14.5779    0.0000 </r>
       <r>   14.8628    0.0000 </r>
       <r>   15.1541    0.0000 </r>
       <r>   15.4937    0.0000 </r>
       <r>   15.6088    0.0000 </r>
       <r>   15.7466    0.0000 </r>
       <r>   15.9792    0.0000 </r>
       <r>   16.2842    0.0000 </r>
      </set>
      <set comment="kpoint 4">
       <r>  -13.7562    1.0000 </r>
       <r>  -13.1280    1.0000 </r>
       <r>  -12.8096    1.0000 </r>
       <r>  -12.6785    1.0000 </r>
       <r>  -12.6697    1.0000 </r>
       <r>  -12.5533    1.0000 </r>
       <r>  -12.3185    1.0000 </r>
       <r>   -0.7343    1.0000 </r>
       <r>   -0.4748    1.0000 </r>
       <r>   -0.2603    1.0000 </r>
       <r>    0.0678    1.0000 </r>
       <r>    0.2268    1.0000 </r>
       <r>    0.3326    1.0000 </r>
       <r>    0.4782    1.0000 </r>
       <r>    0.6227    1.0000 </r>
       <r>    0.8174    1.0000 </r>
       <r>    1.1528    1.0000 </r>
       <r>    1.2131    1.0000 </r>
       <r>    1.3059    1.0000 </r>
       <r>    1.4908    1.0000 </r>
       <r>    1.5243    1.0000 </r>
       <r>    1.5557    1.0000 </r>
       <r>    2.0615    1.0000 </r>
       <r>    2.2510    1.0000 </r>
       <r>    2.5186    1.0000 </r>
       <r>    2.6381    1.0000 </r>
       <r>    2.7111    1.0000 </r>
       <r>    2.8694    1.0000 </r>
       <r>    6.0585    0.0000 </r>
       <r>    8.3589    0.0000 </r>
       <r>    9.5858    0.0000 </r>
       <r>   10.0069    0.0000 </r>
       <r>   11.5001    0.0000 </r>
       <r>   12.2034    0.0000 </r>
       <r>   12.6864    0.0000 </r>
       <r>   13.2604    0.0000 </r>
       <r>   13.5076    0.0000 </r>
       <r>   13.8714    0.0000 </r>
       <r>   13.9101    0.0000 </r>
       <r>   14.5053    0.0000 </r>
       <r>   14.7462    0.0000 </r>
       <r>   14.8504    0.0000 </r>
       <r>   14.8934    0.0000 </r>
       <r>   15.1411    0.0000 </r>
       <r>   15.3229    0.0000 </r>
       <r>   15.5207    0.0000 </r>
       <r>   16.1911    0.0000 </r>
       <r>   16.4702    0.0000 </r>
      </set>
      <set comment="kpoint 5">
       <r>  -13.8145    1.0000 </r>
       <r>  -13.1458    1.0000 </r>
       <r>  -12.9125    1.0000 </r>
       <r>  -12.5752    1.0000 </r>
       <r>  -12.5570    1.0000 </r>
       <r>  -12.4403    1.0000 </r>
       <r>  -12.4347    1.0000 </r>
       <r>   -0.9291    1.0000 </r>
       <r>   -0.6645    1.0000 </r>
       <r>   -0.5511    1.0000 </r>
       <r>   -0.3282    1.0000 </r>
       <r>    0.0794    1.0000 </r>
       <r>    0.2272    1.0000 </r>
       <r>    0.3716    1.0000 </r>
       <r>    0.7477    1.0000 </r>
       <r>    0.8886    1.0000 </r>
       <r>    1.1698    1.0000 </r>
       <r>    1.4008    1.0000 </r>
       <r>    1.5189    1.0000 </r>
       <r>    1.6709    1.0000 </r>
       <r>    1.7902    1.0000 </r>
       <r>    1.9937    1.0000 </r>
       <r>    2.1321    1.0000 </r>
       <r>    2.1970    1.0000 </r>
       <r>    2.7690    1.0000 </r>
       <r>    2.8082    1.0000 </r>
       <r>    2.9040    1.0000 </r>
       <r>    2.9057    1.0000 </r>
       <r>    5.5808    0.0000 </r>
       <r>    8.2119    0.0000 </r>
       <r>   10.1558    0.0000 </r>
       <r>   10.6741    0.0000 </r>
       <r>   10.9250    0.0000 </r>
       <r>   11.4657    0.0000 </r>
       <r>   12.3262    0.0000 </r>
       <r>   12.7192    0.0000 </r>
       <r>   12.9528    0.0000 </r>
       <r>   13.0984    0.0000 </r>
       <r>   13.9789    0.0000 </r>
       <r>   14.4884    0.0000 </r>
       <r>   14.5788    0.0000 </r>
       <r>   14.8663    0.0000 </r>
       <r>   15.1438    0.0000 </r>
       <r>   15.4859    0.0000 </r>
       <r>   15.6057    0.0000 </r>
       <r>   15.7573    0.0000 </r>
       <r>   15.9791    0.0000 </r>
       <r>   16.2949    0.0000 </r>
      </set>
      <set comment="kpoint 6">
       <r>  -13.7564    1.0000 </r>
       <r>  -13.1289    1.0000 </r>
       <r>  -12.8056    1.0000 </r>
       <r>  -12.6790    1.0000 </r>
       <r>  -12.6695    1.0000 </r>
       <r>  -12.5568    1.0000 </r>
       <r>  -12.3178    1.0000 </r>
       <r>   -0.7339    1.0000 </r>
       <r>   -0.4779    1.0000 </r>
       <r>   -0.2576    1.0000 </r>
       <r>    0.0675    1.0000 </r>
       <r>    0.2285    1.0000 </r>
       <r>    0.3308    1.0000 </r>
       <r>    0.4766    1.0000 </r>
       <r>    0.6237    1.0000 </r>
       <r>    0.8219    1.0000 </r>
       <r>    1.1562    1.0000 </r>
       <r>    1.2191    1.0000 </r>
       <r>    1.3064    1.0000 </r>
       <r>    1.4864    1.0000 </r>
       <r>    1.5142    1.0000 </r>
       <r>    1.5521    1.0000 </r>
       <r>    2.0585    1.0000 </r>
       <r>    2.2567    1.0000 </r>
       <r>    2.5140    1.0000 </r>
       <r>    2.6465    1.0000 </r>
       <r>    2.7101    1.0000 </r>
       <r>    2.8687    1.0000 </r>
       <r>    6.0583    0.0000 </r>
       <r>    8.3627    0.0000 </r>
       <r>    9.5823    0.0000 </r>
       <r>   10.0067    0.0000 </r>
       <r>   11.5016    0.0000 </r>
       <r>   12.2039    0.0000 </r>
       <r>   12.6793    0.0000 </r>
       <r>   13.2552    0.0000 </r>
       <r>   13.5143    0.0000 </r>
       <r>   13.8750    0.0000 </r>
       <r>   13.9040    0.0000 </r>
       <r>   14.5116    0.0000 </r>
       <r>   14.7496    0.0000 </r>
       <r>   14.8579    0.0000 </r>
       <r>   14.8966    0.0000 </r>
       <r>   15.1430    0.0000 </r>
       <r>   15.3203    0.0000 </r>
       <r>   15.5020    0.0000 </r>
       <r>   16.1918    0.0000 </r>
       <r>   16.4697    0.0000 </r>
      </set>
      <set comment="kpoint 7">
       <r>  -13.7562    1.0000 </r>
       <r>  -13.1290    1.0000 </r>
       <r>  -12.8079    1.0000 </r>
       <r>  -12.6796    1.0000 </r>
       <r>  -12.6678    1.0000 </r>
       <r>  -12.5542    1.0000 </r>
       <r>  -12.3191    1.0000 </r>
       <r>   -0.7339    1.0000 </r>
       <r>   -0.4752    1.0000 </r>
       <r>   -0.2601    1.0000 </r>
       <r>    0.0672    1.0000 </r>
       <r>    0.2264    1.0000 </r>
       <r>    0.3326    1.0000 </r>
       <r>    0.4769    1.0000 </r>
       <r>    0.6225    1.0000 </r>
       <r>    0.8197    1.0000 </r>
       <r>    1.1562    1.0000 </r>
       <r>    1.2153    1.0000 </r>
       <r>    1.3058    1.0000 </r>
       <r>    1.4885    1.0000 </r>
       <r>    1.5218    1.0000 </r>
       <r>    1.5557    1.0000 </r>
       <r>    2.0619    1.0000 </r>
       <r>    2.2524    1.0000 </r>
       <r>    2.5167    1.0000 </r>
       <r>    2.6386    1.0000 </r>
       <r>    2.7102    1.0000 </r>
       <r>    2.8687    1.0000 </r>
       <r>    6.0577    0.0000 </r>
       <r>    8.3603    0.0000 </r>
       <r>    9.5850    0.0000 </r>
       <r>   10.0085    0.0000 </r>
       <r>   11.5006    0.0000 </r>
       <r>   12.2051    0.0000 </r>
       <r>   12.6850    0.0000 </r>
       <r>   13.2578    0.0000 </r>
       <r>   13.5077    0.0000 </r>
       <r>   13.8742    0.0000 </r>
       <r>   13.9160    0.0000 </r>
       <r>   14.5106    0.0000 </r>
       <r>   14.7458    0.0000 </r>
       <r>   14.8556    0.0000 </r>
       <r>   14.8873    0.0000 </r>
       <r>   15.1392    0.0000 </r>
       <r>   15.3218    0.0000 </r>
       <r>   15.5130    0.0000 </r>
       <r>   16.1901    0.0000 </r>
       <r>   16.4667    0.0000 </r>
      </set>
      <set comment="kpoint 8">
       <r>  -13.8248    1.0000 </r>
       <r>  -13.0989    1.0000 </r>
       <r>  -12.9594    1.0000 </r>
       <r>  -12.5523    1.0000 </r>
       <r>  -12.5498    1.0000 </r>
       <r>  -12.4480    1.0000 </r>
       <r>  -12.4450    1.0000 </r>
       <r>   -0.8873    1.0000 </r>
       <r>   -0.7008    1.0000 </r>
       <r>   -0.6975    1.0000 </r>
       <r>   -0.4766    1.0000 </r>
       <r>    0.0251    1.0000 </r>
       <r>    0.4549    1.0000 </r>
       <r>    0.4577    1.0000 </r>
       <r>    0.7031    1.0000 </r>
       <r>    0.9732    1.0000 </r>
       <r>    1.3699    1.0000 </r>
       <r>    1.3731    1.0000 </r>
       <r>    1.4740    1.0000 </r>
       <r>    1.4803    1.0000 </r>
       <r>    1.9109    1.0000 </r>
       <r>    1.9151    1.0000 </r>
       <r>    2.3383    1.0000 </r>
       <r>    2.5494    1.0000 </r>
       <r>    2.6781    1.0000 </r>
       <r>    2.6819    1.0000 </r>
       <r>    2.7432    1.0000 </r>
       <r>    2.7464    1.0000 </r>
       <r>    5.4999    0.0000 </r>
       <r>    8.6206    0.0000 </r>
       <r>   10.0411    0.0000 </r>
       <r>   10.0488    0.0000 </r>
       <r>   11.0854    0.0000 </r>
       <r>   11.5285    0.0000 </r>
       <r>   12.9339    0.0000 </r>
       <r>   12.9346    0.0000 </r>
       <r>   13.1882    0.0000 </r>
       <r>   13.1975    0.0000 </r>
       <r>   13.3422    0.0000 </r>
       <r>   14.3391    0.0000 </r>
       <r>   14.3860    0.0000 </r>
       <r>   14.3970    0.0000 </r>
       <r>   14.8093    0.0000 </r>
       <r>   15.1923    0.0000 </r>
       <r>   15.2027    0.0000 </r>
       <r>   16.1085    0.0000 </r>
       <r>   16.3254    0.0000 </r>
       <r>   16.3381    0.0000 </r>
      </set>
     </set>
    </set>
   </array>
  </eigenvalues>
  <separator name="orbital magnetization" >
   <v name="MAGDIPOLOUT">      0.00000000      0.00000000      0.00000000</v>
  </separator>
  <dos>
   <i name="efermi">      4.94192651 </i>
   <total>
    <array>
     <dimension dim="1">gridpoints</dimension>
     <dimension dim="2">spin</dimension>
     <field>energy</field>
     <field>total</field>
     <field>integrated</field>
     <set>
      <set comment="spin 1">
       <r>   -15.6573     0.0000     0.0000 </r>
       <r>   -15.5383     0.0000     0.0000 </r>
       <r>   -15.4193     0.0000     0.0000 </r>
       <r>   -15.3003     0.0000     0.0000 </r>
       <r>   -15.1814     0.0000     0.0000 </r>
       <r>   -15.0624     0.0000     0.0000 </r>
       <r>   -14.9434     0.0000     0.0000 </r>
       <r>   -14.8244     0.0000     0.0000 </r>
       <r>   -14.7054     0.0000     0.0000 </r>
       <r>   -14.5864     0.0000     0.0000 </r>
       <r>   -14.4674     0.0000     0.0000 </r>
       <r>   -14.3485     0.0000     0.0000 </r>
       <r>   -14.2295     0.0000     0.0000 </r>
       <r>   -14.1105     0.0169     0.0020 </r>
       <r>   -13.9915     0.9175     0.1112 </r>
       <r>   -13.8725     0.4782     0.1681 </r>
       <r>   -13.7535     5.5046     0.8231 </r>
       <r>   -13.6345     1.4864     0.9999 </r>
       <r>   -13.5156     0.0007     1.0000 </r>
       <r>   -13.3966     0.0000     1.0000 </r>
       <r>   -13.2776     0.0314     1.0037 </r>
       <r>   -13.1586     5.7752     1.6909 </r>
       <r>   -13.0396     2.7631     2.0197 </r>
       <r>   -12.9206     3.5614     2.4434 </r>
       <r>   -12.8016     3.4965     2.8595 </r>
       <r>   -12.6827     7.1632     3.7118 </r>
       <r>   -12.5637    12.8956     5.2462 </r>
       <r>   -12.4447     9.1462     6.3344 </r>
       <r>   -12.3257     5.2577     6.9600 </r>
       <r>   -12.2067     0.3359     7.0000 </r>
       <r>   -12.0877     0.0000     7.0000 </r>
       <r>   -11.9687     0.0000     7.0000 </r>
       <r>   -11.8498     0.0000     7.0000 </r>
       <r>   -11.7308     0.0000     7.0000 </r>
       <r>   -11.6118     0.0000     7.0000 </r>
       <r>   -11.4928     0.0000     7.0000 </r>
       <r>   -11.3738     0.0000     7.0000 </r>
       <r>   -11.2548     0.0000     7.0000 </r>
       <r>   -11.1358     0.0000     7.0000 </r>
       <r>   -11.0169     0.0000     7.0000 </r>
       <r>   -10.8979     0.0000     7.0000 </r>
       <r>   -10.7789     0.0000     7.0000 </r>
       <r>   -10.6599     0.0000     7.0000 </r>
       <r>   -10.5409     0.0000     7.0000 </r>
       <r>   -10.4219     0.0000     7.0000 </r>
       <r>   -10.3029     0.0000     7.0000 </r>
       <r>   -10.1840     0.0000     7.0000 </r>
       <r>   -10.0650     0.0000     7.0000 </r>
       <r>    -9.9460     0.0000     7.0000 </r>
       <r>    -9.8270     0.0000     7.0000 </r>
       <r>    -9.7080     0.0000     7.0000 </r>
       <r>    -9.5890     0.0000     7.0000 </r>
       <r>    -9.4700     0.0000     7.0000 </r>
       <r>    -9.3511     0.0000     7.0000 </r>
       <r>    -9.2321     0.0000     7.0000 </r>
       <r>    -9.1131     0.0000     7.0000 </r>
       <r>    -8.9941     0.0000     7.0000 </r>
       <r>    -8.8751     0.0000     7.0000 </r>
       <r>    -8.7561     0.0000     7.0000 </r>
       <r>    -8.6371     0.0000     7.0000 </r>
       <r>    -8.5182     0.0000     7.0000 </r>
       <r>    -8.3992     0.0000     7.0000 </r>
       <r>    -8.2802     0.0000     7.0000 </r>
       <r>    -8.1612     0.0000     7.0000 </r>
       <r>    -8.0422     0.0000     7.0000 </r>
       <r>    -7.9232     0.0000     7.0000 </r>
       <r>    -7.8042     0.0000     7.0000 </r>
       <r>    -7.6852     0.0000     7.0000 </r>
       <r>    -7.5663     0.0000     7.0000 </r>
       <r>    -7.4473     0.0000     7.0000 </r>
       <r>    -7.3283     0.0000     7.0000 </r>
       <r>    -7.2093     0.0000     7.0000 </r>
       <r>    -7.0903     0.0000     7.0000 </r>
       <r>    -6.9713     0.0000     7.0000 </r>
       <r>    -6.8523     0.0000     7.0000 </r>
       <r>    -6.7334     0.0000     7.0000 </r>
       <r>    -6.6144     0.0000     7.0000 </r>
       <r>    -6.4954     0.0000     7.0000 </r>
       <r>    -6.3764     0.0000     7.0000 </r>
       <r>    -6.2574     0.0000     7.0000 </r>
       <r>    -6.1384     0.0000     7.0000 </r>
       <r>    -6.0194     0.0000     7.0000 </r>
       <r>    -5.9005     0.0000     7.0000 </r>
       <r>    -5.7815     0.0000     7.0000 </r>
       <r>    -5.6625     0.0000     7.0000 </r>
       <r>    -5.5435     0.0000     7.0000 </r>
       <r>    -5.4245     0.0000     7.0000 </r>
       <r>    -5.3055     0.0000     7.0000 </r>
       <r>    -5.1865     0.0000     7.0000 </r>
       <r>    -5.0676     0.0000     7.0000 </r>
       <r>    -4.9486     0.0000     7.0000 </r>
       <r>    -4.8296     0.0000     7.0000 </r>
       <r>    -4.7106     0.0000     7.0000 </r>
       <r>    -4.5916     0.0000     7.0000 </r>
       <r>    -4.4726     0.0000     7.0000 </r>
       <r>    -4.3536     0.0000     7.0000 </r>
       <r>    -4.2347     0.0000     7.0000 </r>
       <r>    -4.1157     0.0000     7.0000 </r>
       <r>    -3.9967     0.0000     7.0000 </r>
       <r>    -3.8777     0.0000     7.0000 </r>
       <r>    -3.7587     0.0000     7.0000 </r>
       <r>    -3.6397     0.0000     7.0000 </r>
       <r>    -3.5207     0.0000     7.0000 </r>
       <r>    -3.4018     0.0000     7.0000 </r>
       <r>    -3.2828     0.0000     7.0000 </r>
       <r>    -3.1638     0.0000     7.0000 </r>
       <r>    -3.0448     0.0000     7.0000 </r>
       <r>    -2.9258     0.0000     7.0000 </r>
       <r>    -2.8068     0.0000     7.0000 </r>
       <r>    -2.6878     0.0000     7.0000 </r>
       <r>    -2.5689     0.0000     7.0000 </r>
       <r>    -2.4499     0.0000     7.0000 </r>
       <r>    -2.3309     0.0000     7.0000 </r>
       <r>    -2.2119     0.0000     7.0000 </r>
       <r>    -2.0929     0.0000     7.0000 </r>
       <r>    -1.9739     0.0000     7.0000 </r>
       <r>    -1.8549     0.0000     7.0000 </r>
       <r>    -1.7360     0.0000     7.0000 </r>
       <r>    -1.6170     0.0000     7.0000 </r>
       <r>    -1.4980     0.0563     7.0067 </r>
       <r>    -1.3790     0.9526     7.1200 </r>
       <r>    -1.2600     0.1549     7.1385 </r>
       <r>    -1.1410     1.9054     7.3652 </r>
       <r>    -1.0220     0.9683     7.4804 </r>
       <r>    -0.9030     6.5491     8.2596 </r>
       <r>    -0.7841     1.3735     8.4231 </r>
       <r>    -0.6651     6.3443     9.1779 </r>
       <r>    -0.5461     2.2807     9.4493 </r>
       <r>    -0.4271     4.5519     9.9909 </r>
       <r>    -0.3081     3.2362    10.3760 </r>
       <r>    -0.1891     3.9553    10.8466 </r>
       <r>    -0.0701     1.3329    11.0052 </r>
       <r>     0.0488     5.3051    11.6365 </r>
       <r>     0.1678     3.6496    12.0707 </r>
       <r>     0.2868     7.1173    12.9176 </r>
       <r>     0.4058     6.7640    13.7224 </r>
       <r>     0.5248     2.4492    14.0138 </r>
       <r>     0.6438     3.8342    14.4700 </r>
       <r>     0.7628     5.3417    15.1056 </r>
       <r>     0.8817     3.9170    15.5717 </r>
       <r>     1.0007     1.4524    15.7445 </r>
       <r>     1.1197     4.1693    16.2406 </r>
       <r>     1.2387     7.1086    17.0864 </r>
       <r>     1.3577     4.3387    17.6026 </r>
       <r>     1.4767    10.1838    18.8144 </r>
       <r>     1.5957     9.0519    19.8914 </r>
       <r>     1.7146     4.1800    20.3888 </r>
       <r>     1.8336     3.1504    20.7636 </r>
       <r>     1.9526     4.7491    21.3287 </r>
       <r>     2.0716     7.6321    22.2368 </r>
       <r>     2.1906     4.7219    22.7987 </r>
       <r>     2.3096     4.4793    23.3316 </r>
       <r>     2.4286     1.7832    23.5438 </r>
       <r>     2.5475     5.3864    24.1847 </r>
       <r>     2.6665     6.9263    25.0089 </r>
       <r>     2.7855    10.7640    26.2896 </r>
       <r>     2.9045    11.3724    27.6428 </r>
       <r>     3.0235     3.1148    28.0134 </r>
       <r>     3.1425     0.9321    28.1243 </r>
       <r>     3.2615     0.0058    28.1250 </r>
       <r>     3.3804     0.0000    28.1250 </r>
       <r>     3.4994     0.0000    28.1250 </r>
       <r>     3.6184     0.0000    28.1250 </r>
       <r>     3.7374     0.0000    28.1250 </r>
       <r>     3.8564     0.0000    28.1250 </r>
       <r>     3.9754     0.0000    28.1250 </r>
       <r>     4.0944     0.0000    28.1250 </r>
       <r>     4.2133     0.0000    28.1250 </r>
       <r>     4.3323     0.0260    28.1281 </r>
       <r>     4.4513     1.0737    28.2559 </r>
       <r>     4.5703     2.9441    28.6062 </r>
       <r>     4.6893     0.1583    28.6250 </r>
       <r>     4.8083     0.0013    28.6252 </r>
       <r>     4.9273     1.5946    28.8149 </r>
       <r>     5.0462     1.5546    28.9999 </r>
       <r>     5.1652     0.0011    29.0000 </r>
       <r>     5.2842     0.0000    29.0000 </r>
       <r>     5.4032     0.0000    29.0000 </r>
       <r>     5.5222     0.0000    29.0000 </r>
       <r>     5.6412     0.0000    29.0000 </r>
       <r>     5.7602     0.0000    29.0000 </r>
       <r>     5.8791     0.0000    29.0000 </r>
       <r>     5.9981     0.0000    29.0000 </r>
       <r>     6.1171     0.0000    29.0000 </r>
       <r>     6.2361     0.0000    29.0000 </r>
       <r>     6.3551     0.0000    29.0000 </r>
       <r>     6.4741     0.0000    29.0000 </r>
       <r>     6.5931     0.0000    29.0000 </r>
       <r>     6.7121     0.0000    29.0000 </r>
       <r>     6.8310     0.0000    29.0000 </r>
       <r>     6.9500     0.0000    29.0000 </r>
       <r>     7.0690     0.0000    29.0000 </r>
       <r>     7.1880     0.0000    29.0000 </r>
       <r>     7.3070     0.0000    29.0000 </r>
       <r>     7.4260     0.0000    29.0000 </r>
       <r>     7.5450     0.0000    29.0000 </r>
       <r>     7.6639     0.0482    29.0057 </r>
       <r>     7.7829     2.7523    29.3332 </r>
       <r>     7.9019     2.6558    29.6492 </r>
       <r>     8.0209     0.8468    29.7500 </r>
       <r>     8.1399     0.0001    29.7500 </r>
       <r>     8.2589     0.1119    29.7633 </r>
       <r>     8.3779     0.9208    29.8729 </r>
       <r>     8.4968     0.0179    29.8750 </r>
       <r>     8.6158     0.0000    29.8750 </r>
       <r>     8.7348     0.0000    29.8750 </r>
       <r>     8.8538     0.0985    29.8867 </r>
       <r>     8.9728     1.1162    30.0195 </r>
       <r>     9.0918     2.8735    30.3614 </r>
       <r>     9.2108     0.1140    30.3750 </r>
       <r>     9.3297     0.0000    30.3750 </r>
       <r>     9.4487     0.2856    30.4090 </r>
       <r>     9.5677     5.4326    31.0554 </r>
       <r>     9.6867     2.6848    31.3748 </r>
       <r>     9.8057     0.0013    31.3750 </r>
       <r>     9.9247     0.0000    31.3750 </r>
       <r>    10.0437     0.0199    31.3774 </r>
       <r>    10.1626     1.8683    31.5997 </r>
       <r>    10.2816     3.1846    31.9786 </r>
       <r>    10.4006     0.1800    32.0000 </r>
       <r>    10.5196     0.0207    32.0025 </r>
       <r>    10.6386     0.9291    32.1130 </r>
       <r>    10.7576     0.1899    32.1356 </r>
       <r>    10.8766     2.8344    32.4729 </r>
       <r>    10.9955     0.3686    32.5167 </r>
       <r>    11.1145     1.0338    32.6397 </r>
       <r>    11.2335     2.2467    32.9070 </r>
       <r>    11.3525     3.0908    33.2748 </r>
       <r>    11.4715     4.1179    33.7648 </r>
       <r>    11.5905     0.9261    33.8750 </r>
       <r>    11.7095     0.0001    33.8750 </r>
       <r>    11.8284     0.0000    33.8750 </r>
       <r>    11.9474     0.0000    33.8750 </r>
       <r>    12.0664     0.0872    33.8854 </r>
       <r>    12.1854     2.9066    34.2312 </r>
       <r>    12.3044     3.6334    34.6635 </r>
       <r>    12.4234     1.7715    34.8743 </r>
       <r>    12.5424     0.3016    34.9102 </r>
       <r>    12.6613     7.5695    35.8109 </r>
       <r>    12.7803     0.6514    35.8884 </r>
       <r>    12.8993     4.6488    36.4415 </r>
       <r>    13.0183     2.0140    36.6812 </r>
       <r>    13.1373     5.0122    37.2775 </r>
       <r>    13.2563     2.9119    37.6240 </r>
       <r>    13.3753     1.5428    37.8076 </r>
       <r>    13.4942     3.5516    38.2302 </r>
       <r>    13.6132     0.1666    38.2500 </r>
       <r>    13.7322     0.2169    38.2758 </r>
       <r>    13.8512     4.7218    38.8376 </r>
       <r>    13.9702     3.8765    39.2989 </r>
       <r>    14.0892     0.6397    39.3750 </r>
       <r>    14.2082     0.1890    39.3975 </r>
       <r>    14.3272     3.7448    39.8431 </r>
       <r>    14.4461     4.7942    40.4135 </r>
       <r>    14.5651     3.6440    40.8471 </r>
       <r>    14.6841     0.5784    40.9159 </r>
       <r>    14.8031     8.7922    41.9621 </r>
       <r>    14.9221     4.5029    42.4978 </r>
       <r>    15.0411     1.4341    42.6685 </r>
       <r>    15.1601     7.8462    43.6021 </r>
       <r>    15.2790     2.2929    43.8749 </r>
       <r>    15.3980     0.7498    43.9641 </r>
       <r>    15.5170     6.2602    44.7090 </r>
       <r>    15.6360     4.0754    45.1939 </r>
       <r>    15.7550     2.6460    45.5087 </r>
       <r>    15.8740     1.9504    45.7408 </r>
       <r>    15.9930     2.7286    46.0655 </r>
       <r>    16.1119     2.6534    46.3812 </r>
       <r>    16.2309     4.9208    46.9667 </r>
       <r>    16.3499     3.4980    47.3829 </r>
       <r>    16.4689     2.8306    47.7197 </r>
       <r>    16.5879     0.2543    47.7500 </r>
       <r>    16.7069     0.0000    47.7500 </r>
       <r>    16.8259     0.0000    47.7500 </r>
       <r>    16.9448     0.1919    47.7728 </r>
       <r>    17.0638     0.8513    47.8741 </r>
       <r>    17.1828     0.0073    47.8750 </r>
       <r>    17.3018     0.0000    47.8750 </r>
       <r>    17.4208     0.0000    47.8750 </r>
       <r>    17.5398     0.0000    47.8750 </r>
       <r>    17.6588     0.0000    47.8750 </r>
       <r>    17.7777     0.0000    47.8750 </r>
       <r>    17.8967     0.0000    47.8750 </r>
       <r>    18.0157     0.0000    47.8750 </r>
       <r>    18.1347     0.0000    47.8750 </r>
       <r>    18.2537     0.0000    47.8750 </r>
       <r>    18.3727     0.1902    47.8976 </r>
       <r>    18.4917     0.8530    47.9991 </r>
       <r>    18.6106     0.0074    48.0000 </r>
       <r>    18.7296     0.0000    48.0000 </r>
       <r>    18.8486     0.0000    48.0000 </r>
       <r>    18.9676     0.0000    48.0000 </r>
       <r>    19.0866     0.0000    48.0000 </r>
       <r>    19.2056     0.0000    48.0000 </r>
       <r>    19.3246     0.0000    48.0000 </r>
       <r>    19.4435     0.0000    48.0000 </r>
       <r>    19.5625     0.0000    48.0000 </r>
       <r>    19.6815     0.0000    48.0000 </r>
       <r>    19.8005     0.0000    48.0000 </r>
       <r>    19.9195     0.0000    48.0000 </r>
       <r>    20.0385     0.0000    48.0000 </r>
      </set>
      <set comment="spin 2">
       <r>   -15.6573     0.0000     0.0000 </r>
       <r>   -15.5383     0.0000     0.0000 </r>
       <r>   -15.4193     0.0000     0.0000 </r>
       <r>   -15.3003     0.0000     0.0000 </r>
       <r>   -15.1814     0.0000     0.0000 </r>
       <r>   -15.0624     0.0000     0.0000 </r>
       <r>   -14.9434     0.0000     0.0000 </r>
       <r>   -14.8244     0.0000     0.0000 </r>
       <r>   -14.7054     0.0000     0.0000 </r>
       <r>   -14.5864     0.0000     0.0000 </r>
       <r>   -14.4674     0.0000     0.0000 </r>
       <r>   -14.3485     0.0000     0.0000 </r>
       <r>   -14.2295     0.0000     0.0000 </r>
       <r>   -14.1105     0.0042     0.0005 </r>
       <r>   -13.9915     0.7953     0.0951 </r>
       <r>   -13.8725     0.5029     0.1550 </r>
       <r>   -13.7535     5.4653     0.8053 </r>
       <r>   -13.6345     1.6357     0.9999 </r>
       <r>   -13.5156     0.0009     1.0000 </r>
       <r>   -13.3966     0.0000     1.0000 </r>
       <r>   -13.2776     0.0006     1.0001 </r>
       <r>   -13.1586     2.2670     1.2698 </r>
       <r>   -13.0396     6.0768     1.9929 </r>
       <r>   -12.9206     2.2401     2.2594 </r>
       <r>   -12.8016     3.8096     2.7127 </r>
       <r>   -12.6827     4.1059     3.2012 </r>
       <r>   -12.5637    11.9320     4.6210 </r>
       <r>   -12.4447    10.0715     5.8193 </r>
       <r>   -12.3257     7.7282     6.7389 </r>
       <r>   -12.2067     2.1920     6.9997 </r>
       <r>   -12.0877     0.0025     7.0000 </r>
       <r>   -11.9687     0.0000     7.0000 </r>
       <r>   -11.8498     0.0000     7.0000 </r>
       <r>   -11.7308     0.0000     7.0000 </r>
       <r>   -11.6118     0.0000     7.0000 </r>
       <r>   -11.4928     0.0000     7.0000 </r>
       <r>   -11.3738     0.0000     7.0000 </r>
       <r>   -11.2548     0.0000     7.0000 </r>
       <r>   -11.1358     0.0000     7.0000 </r>
       <r>   -11.0169     0.0000     7.0000 </r>
       <r>   -10.8979     0.0000     7.0000 </r>
       <r>   -10.7789     0.0000     7.0000 </r>
       <r>   -10.6599     0.0000     7.0000 </r>
       <r>   -10.5409     0.0000     7.0000 </r>
       <r>   -10.4219     0.0000     7.0000 </r>
       <r>   -10.3029     0.0000     7.0000 </r>
       <r>   -10.1840     0.0000     7.0000 </r>
       <r>   -10.0650     0.0000     7.0000 </r>
       <r>    -9.9460     0.0000     7.0000 </r>
       <r>    -9.8270     0.0000     7.0000 </r>
       <r>    -9.7080     0.0000     7.0000 </r>
       <r>    -9.5890     0.0000     7.0000 </r>
       <r>    -9.4700     0.0000     7.0000 </r>
       <r>    -9.3511     0.0000     7.0000 </r>
       <r>    -9.2321     0.0000     7.0000 </r>
       <r>    -9.1131     0.0000     7.0000 </r>
       <r>    -8.9941     0.0000     7.0000 </r>
       <r>    -8.8751     0.0000     7.0000 </r>
       <r>    -8.7561     0.0000     7.0000 </r>
       <r>    -8.6371     0.0000     7.0000 </r>
       <r>    -8.5182     0.0000     7.0000 </r>
       <r>    -8.3992     0.0000     7.0000 </r>
       <r>    -8.2802     0.0000     7.0000 </r>
       <r>    -8.1612     0.0000     7.0000 </r>
       <r>    -8.0422     0.0000     7.0000 </r>
       <r>    -7.9232     0.0000     7.0000 </r>
       <r>    -7.8042     0.0000     7.0000 </r>
       <r>    -7.6852     0.0000     7.0000 </r>
       <r>    -7.5663     0.0000     7.0000 </r>
       <r>    -7.4473     0.0000     7.0000 </r>
       <r>    -7.3283     0.0000     7.0000 </r>
       <r>    -7.2093     0.0000     7.0000 </r>
       <r>    -7.0903     0.0000     7.0000 </r>
       <r>    -6.9713     0.0000     7.0000 </r>
       <r>    -6.8523     0.0000     7.0000 </r>
       <r>    -6.7334     0.0000     7.0000 </r>
       <r>    -6.6144     0.0000     7.0000 </r>
       <r>    -6.4954     0.0000     7.0000 </r>
       <r>    -6.3764     0.0000     7.0000 </r>
       <r>    -6.2574     0.0000     7.0000 </r>
       <r>    -6.1384     0.0000     7.0000 </r>
       <r>    -6.0194     0.0000     7.0000 </r>
       <r>    -5.9005     0.0000     7.0000 </r>
       <r>    -5.7815     0.0000     7.0000 </r>
       <r>    -5.6625     0.0000     7.0000 </r>
       <r>    -5.5435     0.0000     7.0000 </r>
       <r>    -5.4245     0.0000     7.0000 </r>
       <r>    -5.3055     0.0000     7.0000 </r>
       <r>    -5.1865     0.0000     7.0000 </r>
       <r>    -5.0676     0.0000     7.0000 </r>
       <r>    -4.9486     0.0000     7.0000 </r>
       <r>    -4.8296     0.0000     7.0000 </r>
       <r>    -4.7106     0.0000     7.0000 </r>
       <r>    -4.5916     0.0000     7.0000 </r>
       <r>    -4.4726     0.0000     7.0000 </r>
       <r>    -4.3536     0.0000     7.0000 </r>
       <r>    -4.2347     0.0000     7.0000 </r>
       <r>    -4.1157     0.0000     7.0000 </r>
       <r>    -3.9967     0.0000     7.0000 </r>
       <r>    -3.8777     0.0000     7.0000 </r>
       <r>    -3.7587     0.0000     7.0000 </r>
       <r>    -3.6397     0.0000     7.0000 </r>
       <r>    -3.5207     0.0000     7.0000 </r>
       <r>    -3.4018     0.0000     7.0000 </r>
       <r>    -3.2828     0.0000     7.0000 </r>
       <r>    -3.1638     0.0000     7.0000 </r>
       <r>    -3.0448     0.0000     7.0000 </r>
       <r>    -2.9258     0.0000     7.0000 </r>
       <r>    -2.8068     0.0000     7.0000 </r>
       <r>    -2.6878     0.0000     7.0000 </r>
       <r>    -2.5689     0.0000     7.0000 </r>
       <r>    -2.4499     0.0000     7.0000 </r>
       <r>    -2.3309     0.0000     7.0000 </r>
       <r>    -2.2119     0.0000     7.0000 </r>
       <r>    -2.0929     0.0000     7.0000 </r>
       <r>    -1.9739     0.0000     7.0000 </r>
       <r>    -1.8549     0.0000     7.0000 </r>
       <r>    -1.7360     0.0000     7.0000 </r>
       <r>    -1.6170     0.0000     7.0000 </r>
       <r>    -1.4980     0.0232     7.0028 </r>
       <r>    -1.3790     0.9348     7.1140 </r>
       <r>    -1.2600     0.1308     7.1296 </r>
       <r>    -1.1410     1.8484     7.3495 </r>
       <r>    -1.0220     0.3565     7.3919 </r>
       <r>    -0.9030     3.6656     7.8281 </r>
       <r>    -0.7841     1.7091     8.0314 </r>
       <r>    -0.6651     6.0837     8.7553 </r>
       <r>    -0.5461     3.9060     9.2200 </r>
       <r>    -0.4271     6.0629     9.9414 </r>
       <r>    -0.3081     3.0628    10.3059 </r>
       <r>    -0.1891     3.6701    10.7426 </r>
       <r>    -0.0701     1.7434    10.9500 </r>
       <r>     0.0488     2.7956    11.2826 </r>
       <r>     0.1678     5.2433    11.9065 </r>
       <r>     0.2868     6.0884    12.6309 </r>
       <r>     0.4058     5.9057    13.3336 </r>
       <r>     0.5248     5.2714    13.9609 </r>
       <r>     0.6438     2.6584    14.2772 </r>
       <r>     0.7628     4.1056    14.7657 </r>
       <r>     0.8817     5.3105    15.3976 </r>
       <r>     1.0007     2.7309    15.7225 </r>
       <r>     1.1197     1.0084    15.8425 </r>
       <r>     1.2387     7.8463    16.7761 </r>
       <r>     1.3577     4.8390    17.3519 </r>
       <r>     1.4767     7.2715    18.2171 </r>
       <r>     1.5957    12.3630    19.6881 </r>
       <r>     1.7146     5.3263    20.3218 </r>
       <r>     1.8336     3.3223    20.7171 </r>
       <r>     1.9526     4.3711    21.2372 </r>
       <r>     2.0716     5.6190    21.9058 </r>
       <r>     2.1906     6.2539    22.6500 </r>
       <r>     2.3096     5.0813    23.2546 </r>
       <r>     2.4286     1.2980    23.4090 </r>
       <r>     2.5475     4.8580    23.9871 </r>
       <r>     2.6665     4.6738    24.5432 </r>
       <r>     2.7855     9.9749    25.7300 </r>
       <r>     2.9045    12.3204    27.1960 </r>
       <r>     3.0235     6.1769    27.9310 </r>
       <r>     3.1425     0.5802    28.0000 </r>
       <r>     3.2615     0.0001    28.0000 </r>
       <r>     3.3804     0.0000    28.0000 </r>
       <r>     3.4994     0.0000    28.0000 </r>
       <r>     3.6184     0.0000    28.0000 </r>
       <r>     3.7374     0.0001    28.0000 </r>
       <r>     3.8564     0.3360    28.0400 </r>
       <r>     3.9754     0.7125    28.1248 </r>
       <r>     4.0944     0.0020    28.1250 </r>
       <r>     4.2133     0.0000    28.1250 </r>
       <r>     4.3323     0.0000    28.1250 </r>
       <r>     4.4513     0.0000    28.1250 </r>
       <r>     4.5703     0.0000    28.1250 </r>
       <r>     4.6893     0.0000    28.1250 </r>
       <r>     4.8083     0.0000    28.1250 </r>
       <r>     4.9273     0.0000    28.1250 </r>
       <r>     5.0462     0.0000    28.1250 </r>
       <r>     5.1652     0.0000    28.1250 </r>
       <r>     5.2842     0.0000    28.1250 </r>
       <r>     5.4032     0.0033    28.1254 </r>
       <r>     5.5222     0.9198    28.2348 </r>
       <r>     5.6412     3.1378    28.6082 </r>
       <r>     5.7602     0.1414    28.6250 </r>
       <r>     5.8791     0.0000    28.6250 </r>
       <r>     5.9981     0.1410    28.6418 </r>
       <r>     6.1171     2.8602    28.9821 </r>
       <r>     6.2361     0.1505    29.0000 </r>
       <r>     6.3551     0.0000    29.0000 </r>
       <r>     6.4741     0.0000    29.0000 </r>
       <r>     6.5931     0.0000    29.0000 </r>
       <r>     6.7121     0.0000    29.0000 </r>
       <r>     6.8310     0.0000    29.0000 </r>
       <r>     6.9500     0.0000    29.0000 </r>
       <r>     7.0690     0.0000    29.0000 </r>
       <r>     7.1880     0.0000    29.0000 </r>
       <r>     7.3070     0.0000    29.0000 </r>
       <r>     7.4260     0.0000    29.0000 </r>
       <r>     7.5450     0.0000    29.0000 </r>
       <r>     7.6639     0.0000    29.0000 </r>
       <r>     7.7829     0.0000    29.0000 </r>
       <r>     7.9019     0.0000    29.0000 </r>
       <r>     8.0209     0.0000    29.0000 </r>
       <r>     8.1399     0.0667    29.0079 </r>
       <r>     8.2589     2.8048    29.3417 </r>
       <r>     8.3779     2.4440    29.6325 </r>
       <r>     8.4968     0.9878    29.7500 </r>
       <r>     8.6158     0.4684    29.8057 </r>
[...]
        <r>  0.0012  0.0030  0.0000  0.0029  0.0000  0.0000  0.0000  0.0000  0.0000 </r>
        <r>  0.0100  0.0008  0.0013  0.0014  0.0000  0.0000  0.0000  0.0000  0.0000 </r>
        <r>  0.0047  0.0128  0.0188  0.0132  0.0000  0.0000  0.0000  0.0000  0.0000 </r>
        <r>  0.0183  0.0003  0.0003  0.0011  0.0000  0.0000  0.0000  0.0000  0.0000 </r>
        <r>  0.0028  0.0074  0.0159  0.0036  0.0000  0.0000  0.0000  0.0000  0.0000 </r>
        <r>  0.0002  0.0059  0.0009  0.0002  0.0000  0.0000  0.0000  0.0000  0.0000 </r>
        <r>  0.0000  0.0040  0.0003  0.0066  0.0000  0.0000  0.0000  0.0000  0.0000 </r>
       </set>
       <set comment="band 37">
        <r>  0.0000  0.0004  0.0001  0.0001  0.0008  0.0011  0.0032  0.0037  0.0134 </r>
        <r>  0.0000  0.0088  0.0017  0.0026  0.0001  0.0001  0.0000  0.0005  0.0001 </r>
        <r>  0.0078  0.0015  0.0014  0.0023  0.0008  0.0022  0.0000  0.0039  0.0001 </r>
        <r>  0.0376  0.0065  0.0000  0.0000  0.0002  0.0006  0.0000  0.0040  0.0001 </r>
        <r>  0.0080  0.0001  0.0116  0.0021  0.0001  0.0002  0.0002  0.0004  0.0002 </r>
        <r>  0.0113  0.0015  0.0020  0.0020  0.0015  0.0014  0.0001  0.0036  0.0000 </r>
        <r>  0.0276  0.0068  0.0085  0.0069  0.0007  0.0006  0.0000  0.0007  0.0001 </r>
        <r>  0.0058  0.0007  0.0013  0.0105  0.0002  0.0001  0.0000  0.0003  0.0003 </r>
        <r>  0.0000  0.0038  0.0010  0.0011  0.0007  0.0013  0.0002  0.0039  0.0008 </r>
        <r>  0.0000  0.0219  0.0044  0.0056  0.0000  0.0000  0.0000  0.0000  0.0000 </r>
        <r>  0.0003  0.0215  0.0055  0.0075  0.0000  0.0000  0.0000  0.0000  0.0000 </r>
        <r>  0.0104  0.0002  0.0029  0.0000  0.0000  0.0000  0.0000  0.0000  0.0000 </r>
        <r>  0.0001  0.0224  0.0037  0.0064  0.0000  0.0000  0.0000  0.0000  0.0000 </r>
        <r>  0.0353  0.0001  0.0010  0.0007  0.0000  0.0000  0.0000  0.0000  0.0000 </r>
        <r>  0.0074  0.0006  0.0000  0.0024  0.0000  0.0000  0.0000  0.0000  0.0000 </r>
        <r>  0.0000  0.0090  0.0019  0.0026  0.0000  0.0000  0.0000  0.0000  0.0000 </r>
       </set>
       <set comment="band 38">
        <r>  0.0000  0.0000  0.0003  0.0003  0.0030  0.0025  0.0138  0.0000  0.0032 </r>
        <r>  0.0000  0.0001  0.0068  0.0062  0.0004  0.0004  0.0001  0.0000  0.0000 </r>
        <r>  0.0293  0.0009  0.0050  0.0004  0.0034  0.0019  0.0001  0.0001  0.0000 </r>
        <r>  0.0001  0.0000  0.0025  0.0022  0.0039  0.0036  0.0001  0.0000  0.0000 </r>
        <r>  0.0194  0.0126  0.0011  0.0048  0.0006  0.0005  0.0002  0.0004  0.0000 </r>
        <r>  0.0267  0.0009  0.0004  0.0044  0.0027  0.0028  0.0000  0.0004  0.0001 </r>
        <r>  0.0000  0.0000  0.0042  0.0059  0.0000  0.0000  0.0003  0.0000  0.0001 </r>
        <r>  0.0217  0.0121  0.0056  0.0022  0.0005  0.0007  0.0001  0.0004  0.0001 </r>
        <r>  0.0000  0.0000  0.0030  0.0027  0.0033  0.0027  0.0008  0.0000  0.0002 </r>
        <r>  0.0003  0.0002  0.0171  0.0169  0.0000  0.0000  0.0000  0.0000  0.0000 </r>
        <r>  0.0000  0.0001  0.0168  0.0144  0.0000  0.0000  0.0000  0.0000  0.0000 </r>
        <r>  0.0248  0.0024  0.0000  0.0000  0.0000  0.0000  0.0000  0.0000  0.0000 </r>
        <r>  0.0002  0.0000  0.0182  0.0152  0.0000  0.0000  0.0000  0.0000  0.0000 </r>
        <r>  0.0001  0.0000  0.0015  0.0024  0.0000  0.0000  0.0000  0.0000  0.0000 </r>
        <r>  0.0277  0.0023  0.0001  0.0001  0.0000  0.0000  0.0000  0.0000  0.0000 </r>
        <r>  0.0000  0.0000  0.0070  0.0065  0.0000  0.0000  0.0000  0.0000  0.0000 </r>
       </set>
       <set comment="band 39">
        <r>  0.0002  0.0121  0.0119  0.0118  0.0059  0.0061  0.0000  0.0062  0.0000 </r>
        <r>  0.0100  0.0095  0.0091  0.0089  0.0040  0.0039  0.0000  0.0039  0.0000 </r>
        <r>  0.0178  0.0001  0.0023  0.0001  0.0002  0.0034  0.0011  0.0036  0.0000 </r>
        <r>  0.0167  0.0023  0.0001  0.0001  0.0034  0.0034  0.0003  0.0003  0.0008 </r>
        <r>  0.0095  0.0013  0.0014  0.0004  0.0000  0.0008  0.0001  0.0000  0.0002 </r>
        <r>  0.0171  0.0001  0.0001  0.0024  0.0035  0.0002  0.0003  0.0036  0.0008 </r>
        <r>  0.0097  0.0004  0.0013  0.0014  0.0000  0.0000  0.0001  0.0008  0.0002 </r>
        <r>  0.0090  0.0012  0.0004  0.0014  0.0009  0.0000  0.0002  0.0000  0.0000 </r>
        <r>  0.1068  0.0019  0.0019  0.0021  0.0009  0.0010  0.0000  0.0009  0.0000 </r>
        <r>  0.0045  0.0003  0.0022  0.0003  0.0000  0.0000  0.0000  0.0000  0.0000 </r>
        <r>  0.0048  0.0022  0.0003  0.0003  0.0000  0.0000  0.0000  0.0000  0.0000 </r>
        <r>  0.0036  0.0142  0.0144  0.0113  0.0000  0.0000  0.0000  0.0000  0.0000 </r>
        <r>  0.0046  0.0003  0.0002  0.0024  0.0000  0.0000  0.0000  0.0000  0.0000 </r>
        <r>  0.0038  0.0109  0.0147  0.0146  0.0000  0.0000  0.0000  0.0000  0.0000 </r>
        <r>  0.0039  0.0143  0.0114  0.0144  0.0000  0.0000  0.0000  0.0000  0.0000 </r>
        <r>  0.0229  0.0009  0.0009  0.0009  0.0000  0.0000  0.0000  0.0000  0.0000 </r>
       </set>
       <set comment="band 40">
        <r>  0.0136  0.0014  0.0016  0.0010  0.0046  0.0040  0.0000  0.0044  0.0000 </r>
        <r>  0.1400  0.0088  0.0088  0.0082  0.0004  0.0007  0.0000  0.0006  0.0000 </r>
        <r>  0.0003  0.0042  0.0015  0.0041  0.0056  0.0050  0.0003  0.0047  0.0000 </r>
        <r>  0.0005  0.0013  0.0045  0.0044  0.0043  0.0049  0.0001  0.0059  0.0003 </r>
        <r>  0.0008  0.0012  0.0011  0.0001  0.0002  0.0021  0.0001  0.0001  0.0004 </r>
        <r>  0.0009  0.0047  0.0048  0.0016  0.0043  0.0060  0.0001  0.0045  0.0003 </r>
        <r>  0.0013  0.0001  0.0013  0.0011  0.0002  0.0001  0.0001  0.0020  0.0004 </r>
        <r>  0.0015  0.0014  0.0001  0.0012  0.0018  0.0001  0.0005  0.0001  0.0000 </r>
        <r>  0.0003  0.0016  0.0014  0.0016  0.0004  0.0006  0.0000  0.0005  0.0000 </r>
        <r>  0.0012  0.0001  0.0631  0.0000  0.0000  0.0000  0.0000  0.0000  0.0000 </r>
        <r>  0.0013  0.0621  0.0000  0.0000  0.0000  0.0000  0.0000  0.0000  0.0000 </r>
        <r>  0.0045  0.0023  0.0024  0.0013  0.0000  0.0000  0.0000  0.0000  0.0000 </r>
        <r>  0.0012  0.0001  0.0000  0.0608  0.0000  0.0000  0.0000  0.0000  0.0000 </r>
        <r>  0.0045  0.0012  0.0024  0.0020  0.0000  0.0000  0.0000  0.0000  0.0000 </r>
        <r>  0.0044  0.0025  0.0012  0.0022  0.0000  0.0000  0.0000  0.0000  0.0000 </r>
        <r>  0.0019  0.0008  0.0011  0.0005  0.0000  0.0000  0.0000  0.0000  0.0000 </r>
       </set>
       <set comment="band 41">
        <r>  0.0000  0.0003  0.0133  0.0178  0.0069  0.0097  0.0008  0.0001  0.0003 </r>
        <r>  0.0002  0.0000  0.0029  0.0048  0.0051  0.0062  0.0001  0.0001  0.0000 </r>
        <r>  0.0347  0.0033  0.0028  0.0059  0.0006  0.0044  0.0000  0.0004  0.0000 </r>
        <r>  0.0008  0.0001  0.0000  0.0006  0.0010  0.0017  0.0000  0.0000  0.0000 </r>
        <r>  0.0252  0.0017  0.0002  0.0041  0.0019  0.0028  0.0002  0.0002  0.0000 </r>
        <r>  0.0445  0.0042  0.0062  0.0036  0.0044  0.0006  0.0000  0.0016  0.0000 </r>
        <r>  0.0004  0.0001  0.0045  0.0041  0.0053  0.0058  0.0002  0.0001  0.0001 </r>
        <r>  0.0180  0.0024  0.0034  0.0008  0.0026  0.0032  0.0001  0.0011  0.0001 </r>
        <r>  0.0000  0.0000  0.0004  0.0005  0.0012  0.0015  0.0000  0.0000  0.0000 </r>
        <r>  0.0000  0.0627  0.0027  0.0017  0.0000  0.0000  0.0000  0.0000  0.0000 </r>
        <r>  0.0000  0.0000  0.0374  0.0225  0.0000  0.0000  0.0000  0.0000  0.0000 </r>
        <r>  0.0000  0.0000  0.0024  0.0022  0.0000  0.0000  0.0000  0.0000  0.0000 </r>
        <r>  0.0001  0.0551  0.0101  0.0064  0.0000  0.0000  0.0000  0.0000  0.0000 </r>
        <r>  0.0000  0.0001  0.0034  0.0043  0.0000  0.0000  0.0000  0.0000  0.0000 </r>
        <r>  0.0000  0.0002  0.0022  0.0035  0.0000  0.0000  0.0000  0.0000  0.0000 </r>
        <r>  0.0000  0.0003  0.0111  0.0154  0.0000  0.0000  0.0000  0.0000  0.0000 </r>
       </set>
       <set comment="band 42">
        <r>  0.0000  0.0202  0.0074  0.0033  0.0039  0.0018  0.0003  0.0110  0.0008 </r>
        <r>  0.0000  0.0051  0.0017  0.0008  0.0028  0.0012  0.0000  0.0074  0.0001 </r>
        <r>  0.0192  0.0035  0.0015  0.0013  0.0003  0.0000  0.0000  0.0039  0.0000 </r>
        <r>  0.0531  0.0043  0.0063  0.0058  0.0036  0.0025  0.0000  0.0007  0.0000 </r>
        <r>  0.0046  0.0031  0.0042  0.0009  0.0040  0.0006  0.0001  0.0057  0.0002 </r>
        <r>  0.0084  0.0021  0.0004  0.0007  0.0002  0.0001  0.0000  0.0033  0.0000 </r>
        <r>  0.0288  0.0051  0.0000  0.0004  0.0006  0.0000  0.0001  0.0035  0.0001 </r>
        <r>  0.0113  0.0019  0.0018  0.0038  0.0013  0.0026  0.0000  0.0049  0.0002 </r>
        <r>  0.0000  0.0006  0.0002  0.0001  0.0007  0.0003  0.0000  0.0018  0.0000 </r>
        <r>  0.0000  0.0008  0.0019  0.0608  0.0000  0.0000  0.0000  0.0000  0.0000 </r>
        <r>  0.0001  0.0061  0.0255  0.0415  0.0000  0.0000  0.0000  0.0000  0.0000 </r>
        <r>  0.0000  0.0047  0.0021  0.0005  0.0000  0.0000  0.0000  0.0000  0.0000 </r>
        <r>  0.0000  0.0078  0.0534  0.0009  0.0000  0.0000  0.0000  0.0000  0.0000 </r>
        <r>  0.0000  0.0029  0.0010  0.0003  0.0000  0.0000  0.0000  0.0000  0.0000 </r>
        <r>  0.0000  0.0044  0.0009  0.0012  0.0000  0.0000  0.0000  0.0000  0.0000 </r>
        <r>  0.0000  0.0175  0.0068  0.0027  0.0000  0.0000  0.0000  0.0000  0.0000 </r>
       </set>
       <set comment="band 43">
        <r>  0.0016  0.0040  0.0037  0.0040  0.0022  0.0024  0.0000  0.0026  0.0000 </r>
        <r>  0.0003  0.0001  0.0000  0.0001  0.0050  0.0052  0.0000  0.0049  0.0000 </r>
        <r>  0.0006  0.0032  0.0055  0.0031  0.0003  0.0023  0.0008  0.0026  0.0000 </r>
        <r>  0.0009  0.0048  0.0031  0.0032  0.0027  0.0026  0.0002  0.0003  0.0006 </r>
        <r>  0.0002  0.0018  0.0017  0.0005  0.0024  0.0179  0.0000  0.0023  0.0000 </r>
        <r>  0.0009  0.0031  0.0029  0.0052  0.0025  0.0004  0.0002  0.0026  0.0006 </r>
        <r>  0.0001  0.0006  0.0015  0.0016  0.0024  0.0025  0.0000  0.0177  0.0000 </r>
        <r>  0.0001  0.0018  0.0005  0.0016  0.0176  0.0025  0.0000  0.0022  0.0000 </r>
        <r>  0.0001  0.0148  0.0150  0.0149  0.0001  0.0001  0.0000  0.0001  0.0000 </r>
        <r>  0.0000  0.0000  0.0095  0.0000  0.0000  0.0000  0.0000  0.0000  0.0000 </r>
        <r>  0.0000  0.0095  0.0000  0.0000  0.0000  0.0000  0.0000  0.0000  0.0000 </r>
        <r>  0.0002  0.0062  0.0060  0.0303  0.0000  0.0000  0.0000  0.0000  0.0000 </r>
        <r>  0.0000  0.0000  0.0000  0.0095  0.0000  0.0000  0.0000  0.0000  0.0000 </r>
        <r>  0.0002  0.0312  0.0057  0.0058  0.0000  0.0000  0.0000  0.0000  0.0000 </r>
        <r>  0.0002  0.0062  0.0300  0.0062  0.0000  0.0000  0.0000  0.0000  0.0000 </r>
        <r>  0.0022  0.0002  0.0002  0.0003  0.0000  0.0000  0.0000  0.0000  0.0000 </r>
       </set>
       <set comment="band 44">
        <r>  0.0000  0.0071  0.0017  0.0023  0.0024  0.0032  0.0030  0.0102  0.0107 </r>
        <r>  0.0000  0.0142  0.0032  0.0043  0.0008  0.0009  0.0001  0.0036  0.0005 </r>
        <r>  0.0019  0.0000  0.0034  0.0002  0.0003  0.0068  0.0008  0.0019  0.0020 </r>
        <r>  0.0093  0.0162  0.0004  0.0004  0.0018  0.0015  0.0010  0.0008  0.0026 </r>
        <r>  0.0021  0.0218  0.0056  0.0029  0.0013  0.0002  0.0000  0.0024  0.0010 </r>
        <r>  0.0027  0.0000  0.0003  0.0044  0.0070  0.0003  0.0029  0.0014  0.0000 </r>
        <r>  0.0087  0.0104  0.0040  0.0054  0.0001  0.0002  0.0005  0.0012  0.0017 </r>
        <r>  0.0018  0.0221  0.0023  0.0070  0.0002  0.0014  0.0005  0.0025  0.0004 </r>
        <r>  0.0000  0.0000  0.0000  0.0000  0.0010  0.0012  0.0000  0.0041  0.0002 </r>
        <r>  0.0007  0.0142  0.0015  0.0104  0.0000  0.0000  0.0000  0.0000  0.0000 </r>
        <r>  0.0033  0.0067  0.0002  0.0004  0.0000  0.0000  0.0000  0.0000  0.0000 </r>
        <r>  0.0011  0.0070  0.0000  0.0050  0.0000  0.0000  0.0000  0.0000  0.0000 </r>
        <r>  0.0010  0.0140  0.0092  0.0020  0.0000  0.0000  0.0000  0.0000  0.0000 </r>
        <r>  0.0039  0.0149  0.0066  0.0074  0.0000  0.0000  0.0000  0.0000  0.0000 </r>
        <r>  0.0008  0.0062  0.0038  0.0000  0.0000  0.0000  0.0000  0.0000  0.0000 </r>
        <r>  0.0000  0.0431  0.0094  0.0117  0.0000  0.0000  0.0000  0.0000  0.0000 </r>
       </set>
       <set comment="band 45">
        <r>  0.0000  0.0000  0.0058  0.0052  0.0083  0.0073  0.0106  0.0000  0.0029 </r>
        <r>  0.0000  0.0000  0.0116  0.0101  0.0027  0.0026  0.0005  0.0000  0.0001 </r>
        <r>  0.0074  0.0005  0.0119  0.0002  0.0008  0.0000  0.0027  0.0050  0.0006 </r>
        <r>  0.0000  0.0000  0.0000  0.0001  0.0049  0.0053  0.0019  0.0000  0.0007 </r>
        <r>  0.0065  0.0001  0.0162  0.0077  0.0013  0.0008  0.0009  0.0002  0.0008 </r>
        <r>  0.0064  0.0004  0.0002  0.0112  0.0000  0.0006  0.0000  0.0051  0.0033 </r>
        <r>  0.0000  0.0000  0.0179  0.0169  0.0025  0.0024  0.0004  0.0000  0.0001 </r>
        <r>  0.0070  0.0000  0.0082  0.0146  0.0008  0.0012  0.0018  0.0002  0.0001 </r>
        <r>  0.0000  0.0000  0.0000  0.0000  0.0033  0.0030  0.0002  0.0000  0.0000 </r>
        <r>  0.0026  0.0020  0.0057  0.0059  0.0000  0.0000  0.0000  0.0000  0.0000 </r>
        <r>  0.0000  0.0000  0.0163  0.0153  0.0000  0.0000  0.0000  0.0000  0.0000 </r>
        <r>  0.0029  0.0021  0.0090  0.0111  0.0000  0.0000  0.0000  0.0000  0.0000 </r>
        <r>  0.0023  0.0026  0.0064  0.0045  0.0000  0.0000  0.0000  0.0000  0.0000 </r>
        <r>  0.0000  0.0000  0.0025  0.0017  0.0000  0.0000  0.0000  0.0000  0.0000 </r>
        <r>  0.0030  0.0030  0.0126  0.0093  0.0000  0.0000  0.0000  0.0000  0.0000 </r>
        <r>  0.0000  0.0000  0.0330  0.0314  0.0000  0.0000  0.0000  0.0000  0.0000 </r>
       </set>
       <set comment="band 46">
        <r>  0.0015  0.0006  0.0007  0.0006  0.0006  0.0006  0.0000  0.0006  0.0000 </r>
        <r>  0.0355  0.0041  0.0038  0.0039  0.0005  0.0005  0.0000  0.0005  0.0000 </r>
        <r>  0.0067  0.0001  0.0011  0.0000  0.0190  0.0041  0.0002  0.0040  0.0000 </r>
        <r>  0.0060  0.0005  0.0000  0.0000  0.0038  0.0038  0.0000  0.0187  0.0001 </r>
        <r>  0.0101  0.0008  0.0007  0.0048  0.0008  0.0001  0.0001  0.0007  0.0003 </r>
        <r>  0.0062  0.0000  0.0000  0.0007  0.0039  0.0189  0.0000  0.0039  0.0001 </r>
        <r>  0.0115  0.0048  0.0008  0.0007  0.0008  0.0009  0.0001  0.0001  0.0003 </r>
        <r>  0.0069  0.0006  0.0049  0.0007  0.0001  0.0007  0.0003  0.0007  0.0000 </r>
        <r>  0.0097  0.0003  0.0005  0.0004  0.0050  0.0048  0.0000  0.0049  0.0000 </r>
        <r>  0.0001  0.0057  0.0065  0.0058  0.0000  0.0000  0.0000  0.0000  0.0000 </r>
        <r>  0.0002  0.0055  0.0046  0.0050  0.0000  0.0000  0.0000  0.0000  0.0000 </r>
        <r>  0.0001  0.0000  0.0000  0.0336  0.0000  0.0000  0.0000  0.0000  0.0000 </r>
        <r>  0.0002  0.0053  0.0050  0.0058  0.0000  0.0000  0.0000  0.0000  0.0000 </r>
        <r>  0.0001  0.0345  0.0000  0.0000  0.0000  0.0000  0.0000  0.0000  0.0000 </r>
        <r>  0.0001  0.0000  0.0317  0.0000  0.0000  0.0000  0.0000  0.0000  0.0000 </r>
        <r>  0.0034  0.0148  0.0149  0.0145  0.0000  0.0000  0.0000  0.0000  0.0000 </r>
       </set>
       <set comment="band 47">
        <r>  0.0003  0.0000  0.0002  0.0001  0.0003  0.0003  0.0206  0.0000  0.0077 </r>
        <r>  0.0000  0.0000  0.0000  0.0001  0.0004  0.0010  0.0000  0.0000  0.0000 </r>
        <r>  0.0041  0.0006  0.0194  0.0252  0.0000  0.0020  0.0027  0.0002  0.0000 </r>
        <r>  0.0001  0.0000  0.0168  0.0161  0.0011  0.0009  0.0001  0.0000  0.0000 </r>
        <r>  0.0934  0.0002  0.0001  0.0005  0.0002  0.0000  0.0001  0.0010  0.0002 </r>
        <r>  0.0063  0.0014  0.0270  0.0205  0.0026  0.0001  0.0013  0.0004  0.0023 </r>
        <r>  0.0003  0.0000  0.0000  0.0000  0.0006  0.0001  0.0000  0.0000  0.0000 </r>
        <r>  0.1011  0.0001  0.0001  0.0000  0.0000  0.0007  0.0003  0.0019  0.0000 </r>
        <r>  0.0004  0.0000  0.0023  0.0029  0.0006  0.0004  0.0000  0.0000  0.0000 </r>
        <r>  0.0008  0.0008  0.0091  0.0100  0.0000  0.0000  0.0000  0.0000  0.0000 </r>
        <r>  0.0000  0.0001  0.0055  0.0045  0.0000  0.0000  0.0000  0.0000  0.0000 </r>
        <r>  0.0000  0.0116  0.0128  0.0072  0.0000  0.0000  0.0000  0.0000  0.0000 </r>
        <r>  0.0007  0.0021  0.0124  0.0075  0.0000  0.0000  0.0000  0.0000  0.0000 </r>
        <r>  0.0000  0.0000  0.0002  0.0000  0.0000  0.0000  0.0000  0.0000  0.0000 </r>
        <r>  0.0000  0.0084  0.0061  0.0096  0.0000  0.0000  0.0000  0.0000  0.0000 </r>
        <r>  0.0000  0.0001  0.0013  0.0037  0.0000  0.0000  0.0000  0.0000  0.0000 </r>
       </set>
       <set comment="band 48">
        <r>  0.0001  0.0003  0.0000  0.0000  0.0001  0.0000  0.0079  0.0003  0.0216 </r>
        <r>  0.0000  0.0000  0.0000  0.0000  0.0004  0.0004  0.0000  0.0008  0.0001 </r>
        <r>  0.0022  0.0297  0.0071  0.0026  0.0000  0.0001  0.0012  0.0019  0.0001 </r>
        <r>  0.0067  0.0262  0.0123  0.0108  0.0017  0.0015  0.0009  0.0001  0.0026 </r>
        <r>  0.0288  0.0001  0.0001  0.0001  0.0008  0.0000  0.0000  0.0000  0.0001 </r>
        <r>  0.0021  0.0294  0.0033  0.0057  0.0001  0.0000  0.0001  0.0020  0.0010 </r>
        <r>  0.1326  0.0003  0.0000  0.0001  0.0012  0.0014  0.0001  0.0000  0.0004 </r>
        <r>  0.0332  0.0001  0.0002  0.0001  0.0000  0.0008  0.0001  0.0000  0.0000 </r>
        <r>  0.0007  0.0031  0.0010  0.0009  0.0000  0.0000  0.0000  0.0009  0.0000 </r>
        <r>  0.0003  0.0110  0.0022  0.0002  0.0000  0.0000  0.0000  0.0000  0.0000 </r>
        <r>  0.0009  0.0131  0.0069  0.0062  0.0000  0.0000  0.0000  0.0000  0.0000 </r>
        <r>  0.0000  0.0048  0.0034  0.0035  0.0000  0.0000  0.0000  0.0000  0.0000 </r>
        <r>  0.0002  0.0106  0.0005  0.0017  0.0000  0.0000  0.0000  0.0000  0.0000 </r>
        <r>  0.0000  0.0066  0.0124  0.0125  0.0000  0.0000  0.0000  0.0000  0.0000 </r>
        <r>  0.0000  0.0055  0.0037  0.0038  0.0000  0.0000  0.0000  0.0000  0.0000 </r>
        <r>  0.0000  0.0025  0.0013  0.0009  0.0000  0.0000  0.0000  0.0000  0.0000 </r>
       </set>
      </set>
     </set>
    </set>
   </array>
  </projected>
 </calculation>
 <structure name="finalpos" >
  <crystal>
   <varray name="basis" >
    <v>       0.00000000       4.24689300       4.24689300 </v>
    <v>       4.24689300       0.00000000       4.24689300 </v>
    <v>       4.24689300       4.24689300       0.00000000 </v>
   </varray>
   <i name="volume">    153.19477498 </i>
   <varray name="rec_basis" >
    <v>      -0.11773313       0.11773313       0.11773313 </v>
    <v>       0.11773313      -0.11773313       0.11773313 </v>
    <v>       0.11773313       0.11773313      -0.11773313 </v>
   </varray>
  </crystal>
  <varray name="positions" >
   <v>       0.16127941       0.15930671       0.15886703 </v>
   <v>       0.99878088       0.99877541       0.99707987 </v>
   <v>       0.97000667       0.96978076       0.57049324 </v>
   <v>       0.97004882       0.57059208       0.96763495 </v>
   <v>       0.99658910       0.51210955       0.50832658 </v>
   <v>       0.57265506       0.96994508       0.96704075 </v>
   <v>       0.51176186       0.99621765       0.50997740 </v>
   <v>       0.51211322       0.51125686       0.99436786 </v>
   <v>       0.50726157       0.50796711       0.50563426 </v>
   <v>       0.25724953       0.25532777       0.77120100 </v>
   <v>       0.25656653       0.77144952       0.25542896 </v>
   <v>       0.25022582       0.75740687       0.75644760 </v>
   <v>       0.77292221       0.25633643       0.25465817 </v>
   <v>       0.75791935       0.25089901       0.75548543 </v>
   <v>       0.75801761       0.75779259       0.24763853 </v>
   <v>       0.74787035       0.74716358       0.74493338 </v>
  </varray>
 </structure>
</modeling>
