<?xml version="1.0" encoding="ISO-8859-1"?>
<modeling>
 <generator>
  <i name="program" type="string">vasp </i>
  <i name="version" type="string">5.4.1  </i>
  <i name="subversion" type="string">05Feb16 (build Mar 31 2016 13:39:20) complex                          parallel </i>
  <i name="platform" type="string">IFC91_ompi </i>
  <i name="date" type="string">2018 04 12 </i>
  <i name="time" type="string">14:21:53 </i>
 </generator>
 <incar>
  <i type="string" name="PREC">n</i>
  <i type="string" name="ALGO"> N</i>
  <i type="int" name="ISPIN">     2</i>
  <i type="int" name="NELM">   100</i>
  <i type="int" name="NELMIN">     4</i>
  <i type="int" name="IBRION">     2</i>
  <i name="EDIFF">      0.00000100</i>
  <i name="EDIFFG">     -0.05000000</i>
  <i type="int" name="NSW">    20</i>
  <i type="int" name="ISIF">     2</i>
  <i name="ENCUT">    400.00000000</i>
  <i name="NELECT">     57.00000000</i>
  <i type="string" name="LREAL"> A</i>
  <i type="int" name="ISMEAR">     0</i>
  <i name="SIGMA">      0.05000000</i>
  <i type="logical" name="LWAVE"> F  </i>
  <i type="logical" name="LCHARG"> F  </i>
  <i type="logical" name="LORBIT"> F  </i>
  <i type="logical" name="LASPH"> T  </i>
  <v type="int" name="KPOINT_BSE">    -1     0     0     0</v>
  <i type="int" name="NELM">   100</i>
  <i type="logical" name="LASPH"> T  </i>
 </incar>
 <kpoints>
  <generation param="Monkhorst-Pack">
   <v type="int" name="divisions">       2        2        2 </v>
   <v name="usershift">      0.00000000       0.00000000       0.00000000 </v>
   <v name="genvec1">      0.50000000       0.00000000       0.00000000 </v>
   <v name="genvec2">      0.00000000       0.50000000       0.00000000 </v>
   <v name="genvec3">      0.00000000       0.00000000       0.50000000 </v>
   <v name="shift">      0.50000000       0.50000000       0.50000000 </v>
  </generation>
  <varray name="kpointlist" >
   <v>       0.25000000       0.25000000       0.25000000 </v>
   <v>       0.25000000       0.00000000       0.00000000 </v>
   <v>       0.00000000       0.00000000      -0.25000000 </v>
   <v>       0.00000000       0.25000000       0.00000000 </v>
   <v>      -0.25000000       0.25000000       0.25000000 </v>
   <v>       0.25000000      -0.25000000       0.25000000 </v>
   <v>       0.25000000       0.25000000      -0.25000000 </v>
   <v>       0.25000000       0.00000000       0.50000000 </v>
   <v>      -0.25000000       0.50000000       0.50000000 </v>
   <v>       0.25000000       0.50000000       0.00000000 </v>
   <v>       0.00000000       0.50000000      -0.25000000 </v>
   <v>       0.50000000       0.00000000      -0.25000000 </v>
   <v>       0.50000000       0.50000000       0.25000000 </v>
   <v>       0.50000000      -0.25000000       0.50000000 </v>
   <v>       0.00000000       0.25000000       0.50000000 </v>
   <v>       0.50000000       0.25000000       0.00000000 </v>
  </varray>
  <varray name="weights" >
   <v>       0.06250000 </v>
   <v>       0.06250000 </v>
   <v>       0.06250000 </v>
   <v>       0.06250000 </v>
   <v>       0.06250000 </v>
   <v>       0.06250000 </v>
   <v>       0.06250000 </v>
   <v>       0.06250000 </v>
   <v>       0.06250000 </v>
   <v>       0.06250000 </v>
   <v>       0.06250000 </v>
   <v>       0.06250000 </v>
   <v>       0.06250000 </v>
   <v>       0.06250000 </v>
   <v>       0.06250000 </v>
   <v>       0.06250000 </v>
  </varray>
 </kpoints>
 <parameters>
  <separator name="general" >
   <i type="string" name="SYSTEM">unknown system</i>
   <i type="logical" name="LCOMPAT"> F  </i>
  </separator>
  <separator name="electronic" >
   <i type="string" name="PREC">n</i>
   <i name="ENMAX">    400.00000000</i>
   <i name="ENAUG">    605.39200000</i>
   <i name="EDIFF">      0.00000100</i>
   <i type="int" name="IALGO">    38</i>
   <i type="int" name="IWAVPR">    11</i>
   <i type="int" name="NBANDS">    48</i>
   <i name="NELECT">     57.00000000</i>
   <i type="int" name="TURBO">     0</i>
   <i type="int" name="IRESTART">     0</i>
   <i type="int" name="NREBOOT">     0</i>
   <i type="int" name="NMIN">     0</i>
   <i name="EREF">      0.00000000</i>
   <separator name="electronic smearing" >
    <i type="int" name="ISMEAR">     0</i>
    <i name="SIGMA">      0.05000000</i>
    <i name="KSPACING">      0.50000000</i>
    <i type="logical" name="KGAMMA"> T  </i>
   </separator>
   <separator name="electronic projectors" >
    <i type="logical" name="LREAL"> T  </i>
    <v name="ROPT">     -0.00050000     -0.00050000</v>
    <i type="int" name="LMAXPAW">  -100</i>
    <i type="int" name="LMAXMIX">     2</i>
    <i type="logical" name="NLSPLINE"> F  </i>
   </separator>
   <separator name="electronic startup" >
    <i type="int" name="ISTART">     0</i>
    <i type="int" name="ICHARG">     2</i>
    <i type="int" name="INIWAV">     1</i>
   </separator>
   <separator name="electronic spin" >
    <i type="int" name="ISPIN">     2</i>
    <i type="logical" name="LNONCOLLINEAR"> F  </i>
    <v name="MAGMOM">      1.00000000      1.00000000      1.00000000      1.00000000      1.00000000      1.00000000      1.00000000      1.00000000      1.00000000      1.00000000      1.00000000      1.00000000      1.00000000      1.00000000      1.00000000      1.00000000</v>
    <i name="NUPDOWN">     -1.00000000</i>
    <i type="logical" name="LSORBIT"> F  </i>
    <v name="SAXIS">      0.00000000      0.00000000      1.00000000</v>
    <i type="logical" name="LSPIRAL"> F  </i>
    <v name="QSPIRAL">      0.00000000      0.00000000      0.00000000</v>
    <i type="logical" name="LZEROZ"> F  </i>
   </separator>
   <separator name="electronic exchange-correlation" >
    <i type="logical" name="LASPH"> T  </i>
    <i type="logical" name="LMETAGGA"> F  </i>
   </separator>
   <separator name="electronic convergence" >
    <i type="int" name="NELM">   100</i>
    <i type="int" name="NELMDL">     0</i>
    <i type="int" name="NELMIN">     4</i>
    <i name="ENINI">    400.00000000</i>
    <separator name="electronic convergence detail" >
     <i type="logical" name="LDIAG"> T  </i>
     <i type="logical" name="LSUBROT"> F  </i>
     <i name="WEIMIN">      0.00100000</i>
     <i name="EBREAK">      0.00000001</i>
     <i name="DEPER">      0.30000000</i>
     <i type="int" name="NRMM">     4</i>
     <i name="TIME">      0.40000000</i>
    </separator>
   </separator>
   <separator name="electronic mixer" >
    <i name="AMIX">      0.40000000</i>
    <i name="BMIX">      1.00000000</i>
    <i name="AMIN">      0.10000000</i>
    <i name="AMIX_MAG">      1.60000000</i>
    <i name="BMIX_MAG">      1.00000000</i>
    <separator name="electronic mixer details" >
     <i type="int" name="IMIX">     4</i>
     <i type="logical" name="MIXFIRST"> F  </i>
     <i type="int" name="MAXMIX">   -45</i>
     <i name="WC">    100.00000000</i>
     <i type="int" name="INIMIX">     1</i>
     <i type="int" name="MIXPRE">     1</i>
     <i type="int" name="MREMOVE">     5</i>
    </separator>
   </separator>
   <separator name="electronic dipolcorrection" >
    <i type="logical" name="LDIPOL"> F  </i>
    <i type="logical" name="LMONO"> F  </i>
    <i type="int" name="IDIPOL">     0</i>
    <i name="EPSILON">      1.00000000</i>
    <v name="DIPOL">   -100.00000000   -100.00000000   -100.00000000</v>
    <i name="EFIELD">      0.00000000</i>
   </separator>
  </separator>
  <separator name="grids" >
   <i type="int" name="NGX">    30</i>
   <i type="int" name="NGY">    30</i>
   <i type="int" name="NGZ">    30</i>
   <i type="int" name="NGXF">    60</i>
   <i type="int" name="NGYF">    60</i>
   <i type="int" name="NGZF">    60</i>
   <i type="logical" name="ADDGRID"> F  </i>
  </separator>
  <separator name="ionic" >
   <i type="int" name="NSW">    20</i>
   <i type="int" name="IBRION">     2</i>
   <i type="int" name="ISIF">     2</i>
   <i name="PSTRESS">      0.00000000</i>
   <i name="EDIFFG">     -0.05000000</i>
   <i type="int" name="NFREE">     1</i>
   <i name="POTIM">      0.50000000</i>
   <i name="SMASS">     -3.00000000</i>
   <i name="SCALEE">      1.00000000</i>
  </separator>
  <separator name="ionic md" >
   <i name="TEBEG">      0.00010000</i>
   <i name="TEEND">      0.00010000</i>
   <i type="int" name="NBLOCK">     1</i>
   <i type="int" name="KBLOCK">    20</i>
   <i type="int" name="NPACO">   256</i>
   <i name="APACO">     16.00000000</i>
  </separator>
  <separator name="symmetry" >
   <i type="int" name="ISYM">     2</i>
   <i name="SYMPREC">      0.00001000</i>
  </separator>
  <separator name="dos" >
   <i type="logical" name="LORBIT"> F  </i>
   <v name="RWIGS">     -1.00000000     -1.00000000</v>
   <i type="int" name="NEDOS">   301</i>
   <i name="EMIN">     10.00000000</i>
   <i name="EMAX">    -10.00000000</i>
   <i name="EFERMI">      0.00000000</i>
  </separator>
  <separator name="writing" >
   <i type="int" name="NWRITE">     2</i>
   <i type="logical" name="LWAVE"> F  </i>
   <i type="logical" name="LCHARG"> F  </i>
   <i type="logical" name="LPARD"> F  </i>
   <i type="logical" name="LVTOT"> F  </i>
   <i type="logical" name="LVHAR"> F  </i>
   <i type="logical" name="LELF"> F  </i>
   <i type="logical" name="LOPTICS"> F  </i>
   <v name="STM">      0.00000000      0.00000000      0.00000000      0.00000000      0.00000000      0.00000000      0.00000000</v>
  </separator>
  <separator name="performance" >
   <i type="int" name="NPAR">     4</i>
   <i type="int" name="NSIM">     4</i>
   <i type="int" name="NBLK">    -1</i>
   <i type="logical" name="LPLANE"> T  </i>
   <i type="logical" name="LSCALAPACK"> T  </i>
   <i type="logical" name="LSCAAWARE"> F  </i>
   <i type="logical" name="LSCALU"> F  </i>
   <i type="logical" name="LASYNC"> F  </i>
   <i type="logical" name="LORBITALREAL"> F  </i>
  </separator>
  <separator name="miscellaneous" >
   <i type="int" name="IDIOT">     3</i>
   <i type="logical" name="LMUSIC"> F  </i>
   <v name="POMASS">     24.30500000     16.00000000</v>
   <v name="DARWINR">      0.00000000      0.00000000</v>
   <v name="DARWINV">      1.00000000      1.00000000</v>
   <i type="logical" name="LCORR"> T  </i>
  </separator>
  <i type="logical" name="GGA_COMPAT"> T  </i>
  <i type="logical" name="LBERRY"> F  </i>
  <i type="int" name="ICORELEVEL">     0</i>
  <i type="logical" name="LDAU"> F  </i>
  <i type="int" name="I_CONSTRAINED_M">     0</i>
  <separator name="electronic exchange-correlation" >
   <i type="string" name="GGA">--</i>
   <i type="int" name="VOSKOWN">     0</i>
   <i type="logical" name="LHFCALC"> F  </i>
   <i type="string" name="PRECFOCK"></i>
   <i type="logical" name="LSYMGRAD"> F  </i>
   <i type="logical" name="LHFONE"> F  </i>
   <i type="logical" name="LRHFCALC"> F  </i>
   <i type="logical" name="LTHOMAS"> F  </i>
   <i type="logical" name="LMODELHF"> F  </i>
   <i name="ENCUT4O">     -1.00000000</i>
   <i type="int" name="EXXOEP">     0</i>
   <i type="int" name="FOURORBIT">     0</i>
   <i name="AEXX">      0.00000000</i>
   <i name="HFALPHA">      0.00000000</i>
   <i name="MCALPHA">      0.00000000</i>
   <i name="ALDAX">      1.00000000</i>
   <i name="AGGAX">      1.00000000</i>
   <i name="ALDAC">      1.00000000</i>
   <i name="AGGAC">      1.00000000</i>
   <i type="int" name="NKREDX">     1</i>
   <i type="int" name="NKREDY">     1</i>
   <i type="int" name="NKREDZ">     1</i>
   <i type="logical" name="SHIFTRED"> F  </i>
   <i type="logical" name="ODDONLY"> F  </i>
   <i type="logical" name="EVENONLY"> F  </i>
   <i type="int" name="LMAXFOCK">     0</i>
   <i type="int" name="NMAXFOCKAE">     0</i>
   <i type="logical" name="LFOCKAEDFT"> F  </i>
   <i name="HFSCREEN">      0.00000000</i>
   <i name="HFSCREENC">      0.00000000</i>
   <i type="int" name="NBANDSGWLOW">     0</i>
  </separator>
  <separator name="vdW DFT" >
   <i type="logical" name="LUSE_VDW"> F  </i>
   <i name="Zab_VDW">     -0.84910000</i>
   <i name="PARAM1">      0.12340000</i>
   <i name="PARAM2">      1.00000000</i>
   <i name="PARAM3">      0.00000000</i>
  </separator>
  <separator name="model GW" >
   <i type="int" name="MODEL_GW">     0</i>
   <i name="MODEL_EPS0">      5.74480406</i>
   <i name="MODEL_ALPHA">      1.00000000</i>
  </separator>
  <separator name="linear response parameters" >
   <i type="logical" name="LEPSILON"> F  </i>
   <i type="logical" name="LRPA"> F  </i>
   <i type="logical" name="LNABLA"> F  </i>
   <i type="logical" name="LVEL"> F  </i>
   <i type="int" name="KINTER">     0</i>
   <i name="CSHIFT">      0.10000000</i>
   <i name="OMEGAMAX">     -1.00000000</i>
   <i name="DEG_THRESHOLD">      0.00200000</i>
  </separator>
  <separator name="orbital magnetization" >
   <i type="logical" name="NUCIND"> F  </i>
   <v name="MAGPOS">      0.00000000      0.00000000      0.00000000</v>
   <i type="logical" name="LNICSALL"> T  </i>
   <i type="logical" name="ORBITALMAG"> F  </i>
   <i type="logical" name="LMAGBLOCH"> F  </i>
   <i type="logical" name="LCHIMAG"> F  </i>
   <i type="logical" name="LGAUGE"> T  </i>
   <i type="int" name="MAGATOM">     0</i>
   <v name="MAGDIPOL">      0.00000000      0.00000000      0.00000000</v>
   <v name="AVECCONST">      0.00000000      0.00000000      0.00000000</v>
  </separator>
  <separator name="response functions" >
   <i type="logical" name="LADDER"> F  </i>
   <i type="logical" name="LFXC"> F  </i>
   <i type="logical" name="LHARTREE"> T  </i>
   <i type="int" name="IBSE">     0</i>
   <v type="int" name="KPOINT">    -1     0     0     0</v>
   <i type="logical" name="LTCTE"> F  </i>
   <i type="logical" name="LTETE"> F  </i>
   <i type="logical" name="LTRIPLET"> F  </i>
   <i type="logical" name="LFXCEPS"> F  </i>
   <i type="logical" name="LFXHEG"> F  </i>
   <i type="int" name="NATURALO">     0</i>
   <i type="logical" name="L2ORDER"> F  </i>
   <i type="logical" name="LUSEW"> F  </i>
   <i name="ENCUTGW">     -2.00000000</i>
   <i name="ENCUTGWSOFT">     -2.00000000</i>
   <i name="ENCUTLF">     -1.00000000</i>
   <i type="int" name="LMAXMP2">    -1</i>
   <i name="SCISSOR">      0.00000000</i>
   <i type="int" name="NOMEGA">     0</i>
   <i type="int" name="NOMEGAR">     0</i>
   <i type="int" name="NBANDSGW">    -1</i>
   <i type="int" name="NBANDSO">    -1</i>
   <i type="int" name="NBANDSV">    -1</i>
   <i type="int" name="NELM">   100</i>
   <i type="int" name="NELMHF">     1</i>
   <i type="int" name="DIM">     3</i>
   <i type="int" name="ANTIRES">     0</i>
   <i name="OMEGAMAX">    -30.00000000</i>
   <i name="OMEGAMIN">    -30.00000000</i>
   <i name="OMEGATL">   -200.00000000</i>
   <i type="int" name="OMEGAGRID">     0</i>
   <i name="CSHIFT">     -0.10000000</i>
   <i type="logical" name="SELFENERGY"> F  </i>
   <i type="logical" name="LSPECTRAL"> F  </i>
   <i type="logical" name="LSPECTRALGW"> F  </i>
   <i type="logical" name="LSINGLES"> F  </i>
   <i type="logical" name="LFERMIGW"> F  </i>
   <i type="logical" name="ODDONLYGW"> F  </i>
   <i type="logical" name="EVENONLYGW"> F  </i>
   <i type="int" name="NKREDLFX">     1</i>
   <i type="int" name="NKREDLFY">     1</i>
   <i type="int" name="NKREDLFZ">     1</i>
   <i type="int" name="MAXMEM">  1800</i>
   <i type="int" name="TELESCOPE">     0</i>
   <i type="int" name="TAUPAR">     1</i>
   <i type="int" name="OMEGAPAR">    -1</i>
   <i name="LAMBDA">      1.00000000</i>
  </separator>
  <separator name="External order field" >
   <i name="OFIELD_KAPPA">      0.00000000</i>
   <v name="OFIELD_K">      0.00000000      0.00000000      0.00000000</v>
   <i name="OFIELD_Q6_NEAR">      0.00000000</i>
   <i name="OFIELD_Q6_FAR">      0.00000000</i>
   <i name="OFIELD_A">      0.00000000</i>
  </separator>
 </parameters>
 <atominfo>
  <atoms>      16 </atoms>
  <types>       2 </types>
  <array name="atoms" >
   <dimension dim="1">ion</dimension>
   <field type="string">element</field>
   <field type="int">atomtype</field>
   <set>
    <rc><c>Mg</c><c>   1</c></rc>
    <rc><c>Mg</c><c>   1</c></rc>
    <rc><c>Mg</c><c>   1</c></rc>
    <rc><c>Mg</c><c>   1</c></rc>
    <rc><c>Mg</c><c>   1</c></rc>
    <rc><c>Mg</c><c>   1</c></rc>
    <rc><c>Mg</c><c>   1</c></rc>
    <rc><c>Mg</c><c>   1</c></rc>
    <rc><c>Mg</c><c>   1</c></rc>
    <rc><c>O </c><c>   2</c></rc>
    <rc><c>O </c><c>   2</c></rc>
    <rc><c>O </c><c>   2</c></rc>
    <rc><c>O </c><c>   2</c></rc>
    <rc><c>O </c><c>   2</c></rc>
    <rc><c>O </c><c>   2</c></rc>
    <rc><c>O </c><c>   2</c></rc>
   </set>
  </array>
  <array name="atomtypes" >
   <dimension dim="1">type</dimension>
   <field type="int">atomspertype</field>
   <field type="string">element</field>
   <field>mass</field>
   <field>valence</field>
   <field type="string">pseudopotential</field>
   <set>
    <rc><c>   9</c><c>Mg</c><c>     24.30500000</c><c>      2.00000000</c><c>  PAW_PBE Mg 13Apr2007                  </c></rc>
    <rc><c>   7</c><c>O </c><c>     16.00000000</c><c>      6.00000000</c><c>  PAW_PBE O 08Apr2002                   </c></rc>
   </set>
  </array>
 </atominfo>
 <structure name="initialpos" >
  <crystal>
   <varray name="basis" >
    <v>       0.00000000       4.24689300       4.24689300 </v>
    <v>       4.24689300       0.00000000       4.24689300 </v>
    <v>       4.24689300       4.24689300       0.00000000 </v>
   </varray>
   <i name="volume">    153.19477498 </i>
   <varray name="rec_basis" >
    <v>      -0.11773313       0.11773313       0.11773313 </v>
    <v>       0.11773313      -0.11773313       0.11773313 </v>
    <v>       0.11773313       0.11773313      -0.11773313 </v>
   </varray>
  </crystal>
  <varray name="positions" >
   <v>       0.16365879       0.16234429       0.16149484 </v>
   <v>       0.99978887       0.99941905       0.99759762 </v>
   <v>       0.96878780       0.96833795       0.56956562 </v>
   <v>       0.96877184       0.57064615       0.96669808 </v>
   <v>       0.99610129       0.51109843       0.50849468 </v>
   <v>       0.57157043       0.96856692       0.96617934 </v>
   <v>       0.51110793       0.99575241       0.50908326 </v>
   <v>       0.51113229       0.51077870       0.99384787 </v>
   <v>       0.50788052       0.50744760       0.50565873 </v>
   <v>       0.25747215       0.25628216       0.77305455 </v>
   <v>       0.25722164       0.77377062       0.25507997 </v>
   <v>       0.24944688       0.75774997       0.75624330 </v>
   <v>       0.77540421       0.25657905       0.25494324 </v>
   <v>       0.75834264       0.24937592       0.75590186 </v>
   <v>       0.75799104       0.75808716       0.24715058 </v>
   <v>       0.74658969       0.74609064       0.74422145 </v>
  </varray>
 </structure>
 <calculation>
  <scstep>
   <time name="dav">    0.71    0.72</time>
   <time name="total">    1.08    1.09</time>
   <energy>
    <i name="alphaZ">    142.81396753 </i>
    <i name="ewald">  -2433.82020609 </i>
    <i name="hartreedc">   -976.92420340 </i>
    <i name="XCdc">   -235.96705468 </i>
    <i name="pawpsdc">   3011.45132117 </i>
    <i name="pawaedc">  -2557.24446474 </i>
    <i name="eentropy">     -0.00286057 </i>
    <i name="bandstr">     22.13406353 </i>
    <i name="atom">   3233.17333345 </i>
    <i name="e_fr_energy">    205.61389620 </i>
    <i name="e_wo_entrp">    205.61675677 </i>
    <i name="e_0_energy">    205.61532648 </i>
   </energy>
  </scstep>
  <scstep>
   <time name="dav">    0.72    0.72</time>
   <time name="total">    0.72    0.73</time>
   <energy>
    <i name="e_fr_energy">    -83.24673224 </i>
    <i name="e_wo_entrp">    -83.24673224 </i>
    <i name="e_0_energy">    -83.24673224 </i>
   </energy>
  </scstep>
  <scstep>
   <time name="dav">    0.74    0.74</time>
   <time name="total">    0.74    0.75</time>
   <energy>
    <i name="e_fr_energy">    -99.85724087 </i>
    <i name="e_wo_entrp">    -99.85724087 </i>
    <i name="e_0_energy">    -99.85724087 </i>
   </energy>
  </scstep>
  <scstep>
   <time name="dav">    0.69    0.69</time>
   <time name="total">    0.69    0.70</time>
   <energy>
    <i name="e_fr_energy">    -99.95645112 </i>
    <i name="e_wo_entrp">    -99.95645112 </i>
    <i name="e_0_energy">    -99.95645112 </i>
   </energy>
  </scstep>
  <scstep>
   <time name="dav">    0.72    0.72</time>
   <time name="total">    0.74    0.74</time>
   <energy>
    <i name="e_fr_energy">    -99.95695595 </i>
    <i name="e_wo_entrp">    -99.95695595 </i>
    <i name="e_0_energy">    -99.95695595 </i>
   </energy>
  </scstep>
  <scstep>
   <time name="dav">    0.67    0.67</time>
   <time name="total">    1.07    1.07</time>
   <energy>
    <i name="e_fr_energy">    -96.04827915 </i>
    <i name="e_wo_entrp">    -96.03904896 </i>
    <i name="e_0_energy">    -96.04366406 </i>
   </energy>
  </scstep>
  <scstep>
   <time name="dav">    0.70    0.70</time>
   <time name="total">    1.09    1.09</time>
   <energy>
    <i name="e_fr_energy">    -96.06778075 </i>
    <i name="e_wo_entrp">    -96.06324728 </i>
    <i name="e_0_energy">    -96.06551402 </i>
   </energy>
  </scstep>
  <scstep>
   <time name="dav">    0.72    0.72</time>
   <time name="total">    1.10    1.11</time>
   <energy>
    <i name="e_fr_energy">    -95.93460317 </i>
    <i name="e_wo_entrp">    -95.93460177 </i>
    <i name="e_0_energy">    -95.93460247 </i>
   </energy>
  </scstep>
  <scstep>
   <time name="dav">    0.73    0.73</time>
   <time name="total">    1.13    1.13</time>
   <energy>
    <i name="e_fr_energy">    -95.91935707 </i>
    <i name="e_wo_entrp">    -95.91935706 </i>
    <i name="e_0_energy">    -95.91935706 </i>
   </energy>
  </scstep>
  <scstep>
   <time name="dav">    0.70    0.70</time>
   <time name="total">    1.09    1.09</time>
   <energy>
    <i name="e_fr_energy">    -95.91927535 </i>
    <i name="e_wo_entrp">    -95.91927530 </i>
    <i name="e_0_energy">    -95.91927533 </i>
   </energy>
  </scstep>
  <scstep>
   <time name="dav">    0.70    0.70</time>
   <time name="total">    1.09    1.09</time>
   <energy>
    <i name="e_fr_energy">    -95.91967646 </i>
    <i name="e_wo_entrp">    -95.91967632 </i>
    <i name="e_0_energy">    -95.91967639 </i>
   </energy>
  </scstep>
  <scstep>
   <time name="dav">    0.69    0.69</time>
   <time name="total">    1.08    1.08</time>
   <energy>
    <i name="e_fr_energy">    -95.91984913 </i>
    <i name="e_wo_entrp">    -95.91984898 </i>
    <i name="e_0_energy">    -95.91984906 </i>
   </energy>
  </scstep>
  <scstep>
   <time name="dav">    0.78    0.78</time>
   <time name="total">    1.17    1.17</time>
   <energy>
    <i name="e_fr_energy">    -95.91985614 </i>
    <i name="e_wo_entrp">    -95.91985597 </i>
    <i name="e_0_energy">    -95.91985606 </i>
   </energy>
  </scstep>
  <scstep>
   <time name="dav">    0.71    0.71</time>
   <time name="total">    1.10    1.11</time>
   <energy>
    <i name="e_fr_energy">    -95.91985812 </i>
    <i name="e_wo_entrp">    -95.91985793 </i>
    <i name="e_0_energy">    -95.91985803 </i>
   </energy>
  </scstep>
  <scstep>
   <time name="dav">    0.58    0.57</time>
   <time name="total">    0.95    0.95</time>
   <energy>
    <i name="alphaZ">    142.81396753 </i>
    <i name="ewald">  -2433.82020609 </i>
    <i name="hartreedc">  -1127.55700114 </i>
    <i name="XCdc">   -236.82718560 </i>
    <i name="pawpsdc">   3986.51245969 </i>
    <i name="pawaedc">  -3534.04744411 </i>
    <i name="eentropy">     -0.00000018 </i>
    <i name="bandstr">   -126.16778185 </i>
    <i name="atom">   3233.17333345 </i>
    <i name="e_fr_energy">    -95.91985829 </i>
    <i name="e_wo_entrp">    -95.91985812 </i>
    <i name="e_0_energy">    -95.91985821 </i>
   </energy>
  </scstep>
  <structure>
   <crystal>
    <varray name="basis" >
     <v>       0.00000000       4.24689300       4.24689300 </v>
     <v>       4.24689300       0.00000000       4.24689300 </v>
     <v>       4.24689300       4.24689300       0.00000000 </v>
    </varray>
    <i name="volume">    153.19477498 </i>
    <varray name="rec_basis" >
     <v>      -0.11773313       0.11773313       0.11773313 </v>
     <v>       0.11773313      -0.11773313       0.11773313 </v>
     <v>       0.11773313       0.11773313      -0.11773313 </v>
    </varray>
   </crystal>
   <varray name="positions" >
    <v>       0.16365879       0.16234429       0.16149484 </v>
    <v>       0.99978887       0.99941905       0.99759762 </v>
    <v>       0.96878780       0.96833795       0.56956562 </v>
    <v>       0.96877184       0.57064615       0.96669808 </v>
    <v>       0.99610129       0.51109843       0.50849468 </v>
    <v>       0.57157043       0.96856692       0.96617934 </v>
    <v>       0.51110793       0.99575241       0.50908326 </v>
    <v>       0.51113229       0.51077870       0.99384787 </v>
    <v>       0.50788052       0.50744760       0.50565873 </v>
    <v>       0.25747215       0.25628216       0.77305455 </v>
    <v>       0.25722164       0.77377062       0.25507997 </v>
    <v>       0.24944688       0.75774997       0.75624330 </v>
    <v>       0.77540421       0.25657905       0.25494324 </v>
    <v>       0.75834264       0.24937592       0.75590186 </v>
    <v>       0.75799104       0.75808716       0.24715058 </v>
    <v>       0.74658969       0.74609064       0.74422145 </v>
   </varray>
  </structure>
  <varray name="forces" >
   <v>      -0.02094641      -0.01738249      -0.01613035 </v>
   <v>      -0.00731087      -0.00934680      -0.00983797 </v>
   <v>       0.00909088       0.01399078      -0.00687805 </v>
   <v>       0.01554323      -0.00547990       0.01446071 </v>
   <v>       0.00850326       0.01588383       0.00354429 </v>
   <v>      -0.01105602       0.01998408       0.01549266 </v>
   <v>       0.00212872       0.00195918       0.00731400 </v>
   <v>       0.00982997       0.00944234       0.00742988 </v>
   <v>      -0.00142697      -0.00270105      -0.00148040 </v>
   <v>      -0.02070263      -0.02806190      -0.00497071 </v>
   <v>      -0.00862692      -0.01475937      -0.01085511 </v>
   <v>      -0.00419581       0.00811140       0.01149031 </v>
   <v>      -0.00292018      -0.02809726      -0.03316556 </v>
   <v>       0.00851650       0.00624375       0.00676386 </v>
   <v>       0.01211184       0.01123910       0.00364353 </v>
   <v>       0.01146139       0.01897431       0.01317892 </v>
  </varray>
  <varray name="stress" >
   <v>     -92.02162185     -42.92057559     -43.78386567 </v>
   <v>     -42.92057429     -92.28308892     -42.85616100 </v>
   <v>     -43.78386669     -42.85616191     -92.23420260 </v>
  </varray>
  <energy>
   <i name="e_fr_energy">    -95.91985829 </i>
   <i name="e_wo_entrp">    -95.91985821 </i>
   <i name="e_0_energy">     -0.00000018 </i>
  </energy>
  <time name="totalsc">   16.10   16.17</time>
  <eigenvalues>
   <array>
    <dimension dim="1">band</dimension>
    <dimension dim="2">kpoint</dimension>
    <dimension dim="3">spin</dimension>
    <field>eigene</field>
    <field>occ</field>
    <set>
     <set comment="spin 1">
      <set comment="kpoint 1">
       <r>  -13.9688    1.0000 </r>
       <r>  -13.1867    1.0000 </r>
       <r>  -12.8106    1.0000 </r>
       <r>  -12.6369    1.0000 </r>
       <r>  -12.6354    1.0000 </r>
       <r>  -12.4341    1.0000 </r>
       <r>  -12.4330    1.0000 </r>
       <r>   -1.1674    1.0000 </r>
       <r>   -1.0047    1.0000 </r>
       <r>   -1.0030    1.0000 </r>
       <r>   -0.7938    1.0000 </r>
       <r>   -0.5050    1.0000 </r>
       <r>    0.0502    1.0000 </r>
       <r>    0.0510    1.0000 </r>
       <r>    1.0809    1.0000 </r>
       <r>    1.4610    1.0000 </r>
       <r>    1.4620    1.0000 </r>
       <r>    1.7366    1.0000 </r>
       <r>    1.7381    1.0000 </r>
       <r>    1.8910    1.0000 </r>
       <r>    2.1289    1.0000 </r>
       <r>    2.2204    1.0000 </r>
       <r>    2.2216    1.0000 </r>
       <r>    2.6451    1.0000 </r>
       <r>    2.6459    1.0000 </r>
       <r>    2.6737    1.0000 </r>
       <r>    2.8671    1.0000 </r>
       <r>    2.8688    1.0000 </r>
       <r>    3.5749    1.0000 </r>
       <r>    8.9405    0.0000 </r>
       <r>    9.6265    0.0000 </r>
       <r>    9.6293    0.0000 </r>
       <r>   10.2493    0.0000 </r>
       <r>   11.3907    0.0000 </r>
       <r>   11.9626    0.0000 </r>
       <r>   11.9647    0.0000 </r>
       <r>   12.6109    0.0000 </r>
       <r>   12.6133    0.0000 </r>
       <r>   13.0705    0.0000 </r>
       <r>   13.4024    0.0000 </r>
       <r>   13.4064    0.0000 </r>
       <r>   13.8151    0.0000 </r>
       <r>   15.3541    0.0000 </r>
       <r>   15.5841    0.0000 </r>
       <r>   15.5908    0.0000 </r>
       <r>   16.0430    0.0000 </r>
       <r>   17.0347    0.0000 </r>
       <r>   17.0466    0.0000 </r>
      </set>
      <set comment="kpoint 2">
       <r>  -13.9649    1.0000 </r>
       <r>  -13.1961    1.0000 </r>
       <r>  -12.7971    1.0000 </r>
       <r>  -12.6494    1.0000 </r>
       <r>  -12.6379    1.0000 </r>
       <r>  -12.4309    1.0000 </r>
       <r>  -12.4300    1.0000 </r>
       <r>   -1.2318    1.0000 </r>
       <r>   -0.9945    1.0000 </r>
       <r>   -0.9120    1.0000 </r>
       <r>   -0.6486    1.0000 </r>
       <r>   -0.4986    1.0000 </r>
       <r>   -0.1655    1.0000 </r>
       <r>    0.0340    1.0000 </r>
       <r>    1.1944    1.0000 </r>
       <r>    1.4016    1.0000 </r>
       <r>    1.4922    1.0000 </r>
       <r>    1.6755    1.0000 </r>
       <r>    1.8760    1.0000 </r>
       <r>    1.9262    1.0000 </r>
       <r>    1.9358    1.0000 </r>
       <r>    2.0775    1.0000 </r>
       <r>    2.3464    1.0000 </r>
       <r>    2.3642    1.0000 </r>
       <r>    2.7714    1.0000 </r>
       <r>    2.7930    1.0000 </r>
       <r>    2.8775    1.0000 </r>
       <r>    2.9301    1.0000 </r>
       <r>    3.6242    1.0000 </r>
       <r>    8.6697    0.0000 </r>
       <r>    9.6844    0.0000 </r>
       <r>    9.8056    0.0000 </r>
       <r>   10.3620    0.0000 </r>
       <r>   11.2728    0.0000 </r>
       <r>   11.8050    0.0000 </r>
       <r>   11.8104    0.0000 </r>
       <r>   12.5124    0.0000 </r>
       <r>   12.6704    0.0000 </r>
       <r>   13.2535    0.0000 </r>
       <r>   13.4262    0.0000 </r>
       <r>   13.6841    0.0000 </r>
       <r>   13.9190    0.0000 </r>
       <r>   15.4516    0.0000 </r>
       <r>   15.5760    0.0000 </r>
       <r>   15.5941    0.0000 </r>
       <r>   15.9691    0.0000 </r>
       <r>   16.8189    0.0000 </r>
       <r>   17.2255    0.0000 </r>
      </set>
      <set comment="kpoint 3">
       <r>  -13.9650    1.0000 </r>
       <r>  -13.1960    1.0000 </r>
       <r>  -12.7973    1.0000 </r>
       <r>  -12.6489    1.0000 </r>
       <r>  -12.6381    1.0000 </r>
       <r>  -12.4318    1.0000 </r>
       <r>  -12.4294    1.0000 </r>
       <r>   -1.2319    1.0000 </r>
       <r>   -0.9948    1.0000 </r>
       <r>   -0.9118    1.0000 </r>
       <r>   -0.6488    1.0000 </r>
       <r>   -0.4990    1.0000 </r>
       <r>   -0.1650    1.0000 </r>
       <r>    0.0345    1.0000 </r>
       <r>    1.1952    1.0000 </r>
       <r>    1.4020    1.0000 </r>
       <r>    1.4918    1.0000 </r>
       <r>    1.6751    1.0000 </r>
       <r>    1.8758    1.0000 </r>
       <r>    1.9260    1.0000 </r>
       <r>    1.9358    1.0000 </r>
       <r>    2.0781    1.0000 </r>
       <r>    2.3459    1.0000 </r>
       <r>    2.3637    1.0000 </r>
       <r>    2.7722    1.0000 </r>
       <r>    2.7930    1.0000 </r>
       <r>    2.8777    1.0000 </r>
       <r>    2.9294    1.0000 </r>
       <r>    3.6241    1.0000 </r>
       <r>    8.6688    0.0000 </r>
       <r>    9.6867    0.0000 </r>
       <r>    9.8050    0.0000 </r>
       <r>   10.3613    0.0000 </r>
       <r>   11.2730    0.0000 </r>
       <r>   11.8047    0.0000 </r>
       <r>   11.8114    0.0000 </r>
       <r>   12.5122    0.0000 </r>
       <r>   12.6686    0.0000 </r>
       <r>   13.2537    0.0000 </r>
       <r>   13.4261    0.0000 </r>
       <r>   13.6841    0.0000 </r>
       <r>   13.9195    0.0000 </r>
       <r>   15.4520    0.0000 </r>
       <r>   15.5747    0.0000 </r>
       <r>   15.5946    0.0000 </r>
       <r>   15.9694    0.0000 </r>
       <r>   16.8187    0.0000 </r>
       <r>   17.2246    0.0000 </r>
      </set>
      <set comment="kpoint 4">
       <r>  -13.9649    1.0000 </r>
       <r>  -13.1964    1.0000 </r>
       <r>  -12.7969    1.0000 </r>
       <r>  -12.6482    1.0000 </r>
       <r>  -12.6392    1.0000 </r>
       <r>  -12.4313    1.0000 </r>
       <r>  -12.4295    1.0000 </r>
       <r>   -1.2320    1.0000 </r>
       <r>   -0.9937    1.0000 </r>
       <r>   -0.9132    1.0000 </r>
       <r>   -0.6486    1.0000 </r>
       <r>   -0.5006    1.0000 </r>
       <r>   -0.1637    1.0000 </r>
       <r>    0.0342    1.0000 </r>
       <r>    1.1928    1.0000 </r>
       <r>    1.4019    1.0000 </r>
       <r>    1.4921    1.0000 </r>
       <r>    1.6760    1.0000 </r>
       <r>    1.8770    1.0000 </r>
       <r>    1.9245    1.0000 </r>
       <r>    1.9360    1.0000 </r>
       <r>    2.0783    1.0000 </r>
       <r>    2.3465    1.0000 </r>
       <r>    2.3644    1.0000 </r>
       <r>    2.7719    1.0000 </r>
       <r>    2.7927    1.0000 </r>
       <r>    2.8786    1.0000 </r>
       <r>    2.9314    1.0000 </r>
       <r>    3.6237    1.0000 </r>
       <r>    8.6679    0.0000 </r>
       <r>    9.6861    0.0000 </r>
       <r>    9.8040    0.0000 </r>
       <r>   10.3628    0.0000 </r>
       <r>   11.2731    0.0000 </r>
       <r>   11.8061    0.0000 </r>
       <r>   11.8079    0.0000 </r>
       <r>   12.5163    0.0000 </r>
       <r>   12.6655    0.0000 </r>
       <r>   13.2506    0.0000 </r>
       <r>   13.4274    0.0000 </r>
       <r>   13.6844    0.0000 </r>
       <r>   13.9202    0.0000 </r>
       <r>   15.4531    0.0000 </r>
       <r>   15.5730    0.0000 </r>
       <r>   15.5987    0.0000 </r>
       <r>   15.9663    0.0000 </r>
       <r>   16.8171    0.0000 </r>
       <r>   17.2151    0.0000 </r>
      </set>
      <set comment="kpoint 5">
       <r>  -13.8272    1.0000 </r>
       <r>  -13.1616    1.0000 </r>
       <r>  -12.9285    1.0000 </r>
       <r>  -12.6817    1.0000 </r>
       <r>  -12.6746    1.0000 </r>
       <r>  -12.5012    1.0000 </r>
       <r>  -12.4021    1.0000 </r>
       <r>   -0.8891    1.0000 </r>
       <r>   -0.7042    1.0000 </r>
       <r>   -0.5158    1.0000 </r>
       <r>   -0.1659    1.0000 </r>
       <r>    0.0374    1.0000 </r>
       <r>    0.1159    1.0000 </r>
       <r>    0.4579    1.0000 </r>
       <r>    0.6628    1.0000 </r>
       <r>    0.7757    1.0000 </r>
       <r>    1.0056    1.0000 </r>
       <r>    1.1619    1.0000 </r>
       <r>    1.5729    1.0000 </r>
       <r>    1.5981    1.0000 </r>
       <r>    1.7591    1.0000 </r>
       <r>    1.8254    1.0000 </r>
       <r>    2.1479    1.0000 </r>
       <r>    2.3115    1.0000 </r>
       <r>    2.4090    1.0000 </r>
       <r>    2.6662    1.0000 </r>
       <r>    2.6676    1.0000 </r>
       <r>    2.8271    1.0000 </r>
       <r>    4.5673    1.0000 </r>
       <r>    7.9528    0.0000 </r>
       <r>    9.1581    0.0000 </r>
       <r>    9.4167    0.0000 </r>
       <r>   11.0584    0.0000 </r>
       <r>   12.0995    0.0000 </r>
       <r>   12.3793    0.0000 </r>
       <r>   12.9494    0.0000 </r>
       <r>   13.0539    0.0000 </r>
       <r>   13.4612    0.0000 </r>
       <r>   13.7909    0.0000 </r>
       <r>   14.3400    0.0000 </r>
       <r>   14.4773    0.0000 </r>
       <r>   14.7628    0.0000 </r>
       <r>   14.9501    0.0000 </r>
       <r>   15.0455    0.0000 </r>
       <r>   15.2459    0.0000 </r>
       <r>   15.7448    0.0000 </r>
       <r>   16.1078    0.0000 </r>
       <r>   16.1811    0.0000 </r>
      </set>
      <set comment="kpoint 6">
       <r>  -13.8271    1.0000 </r>
       <r>  -13.1626    1.0000 </r>
       <r>  -12.9274    1.0000 </r>
       <r>  -12.6801    1.0000 </r>
       <r>  -12.6758    1.0000 </r>
       <r>  -12.5012    1.0000 </r>
       <r>  -12.4025    1.0000 </r>
       <r>   -0.8894    1.0000 </r>
       <r>   -0.7049    1.0000 </r>
       <r>   -0.5152    1.0000 </r>
       <r>   -0.1677    1.0000 </r>
       <r>    0.0365    1.0000 </r>
       <r>    0.1164    1.0000 </r>
       <r>    0.4582    1.0000 </r>
       <r>    0.6625    1.0000 </r>
       <r>    0.7766    1.0000 </r>
       <r>    1.0057    1.0000 </r>
       <r>    1.1634    1.0000 </r>
       <r>    1.5730    1.0000 </r>
       <r>    1.5971    1.0000 </r>
       <r>    1.7606    1.0000 </r>
       <r>    1.8258    1.0000 </r>
       <r>    2.1494    1.0000 </r>
       <r>    2.3109    1.0000 </r>
       <r>    2.4077    1.0000 </r>
       <r>    2.6665    1.0000 </r>
       <r>    2.6669    1.0000 </r>
       <r>    2.8278    1.0000 </r>
       <r>    4.5675    1.0000 </r>
       <r>    7.9510    0.0000 </r>
       <r>    9.1592    0.0000 </r>
       <r>    9.4177    0.0000 </r>
       <r>   11.0579    0.0000 </r>
       <r>   12.0976    0.0000 </r>
       <r>   12.3795    0.0000 </r>
       <r>   12.9512    0.0000 </r>
       <r>   13.0539    0.0000 </r>
       <r>   13.4559    0.0000 </r>
       <r>   13.7859    0.0000 </r>
       <r>   14.3386    0.0000 </r>
       <r>   14.4752    0.0000 </r>
       <r>   14.7623    0.0000 </r>
       <r>   14.9524    0.0000 </r>
       <r>   15.0558    0.0000 </r>
       <r>   15.2445    0.0000 </r>
       <r>   15.7419    0.0000 </r>
       <r>   16.1078    0.0000 </r>
       <r>   16.1780    0.0000 </r>
      </set>
      <set comment="kpoint 7">
       <r>  -13.8272    1.0000 </r>
       <r>  -13.1615    1.0000 </r>
       <r>  -12.9287    1.0000 </r>
       <r>  -12.6811    1.0000 </r>
       <r>  -12.6749    1.0000 </r>
       <r>  -12.5004    1.0000 </r>
       <r>  -12.4029    1.0000 </r>
       <r>   -0.8896    1.0000 </r>
       <r>   -0.7042    1.0000 </r>
       <r>   -0.5162    1.0000 </r>
       <r>   -0.1657    1.0000 </r>
       <r>    0.0377    1.0000 </r>
       <r>    0.1159    1.0000 </r>
       <r>    0.4586    1.0000 </r>
       <r>    0.6630    1.0000 </r>
       <r>    0.7755    1.0000 </r>
       <r>    1.0054    1.0000 </r>
       <r>    1.1625    1.0000 </r>
       <r>    1.5729    1.0000 </r>
       <r>    1.5982    1.0000 </r>
       <r>    1.7593    1.0000 </r>
       <r>    1.8262    1.0000 </r>
       <r>    2.1473    1.0000 </r>
       <r>    2.3121    1.0000 </r>
       <r>    2.4084    1.0000 </r>
       <r>    2.6660    1.0000 </r>
       <r>    2.6673    1.0000 </r>
       <r>    2.8262    1.0000 </r>
       <r>    4.5674    1.0000 </r>
       <r>    7.9515    0.0000 </r>
       <r>    9.1598    0.0000 </r>
       <r>    9.4167    0.0000 </r>
       <r>   11.0584    0.0000 </r>
       <r>   12.1004    0.0000 </r>
       <r>   12.3792    0.0000 </r>
       <r>   12.9489    0.0000 </r>
       <r>   13.0542    0.0000 </r>
       <r>   13.4599    0.0000 </r>
       <r>   13.7900    0.0000 </r>
       <r>   14.3399    0.0000 </r>
       <r>   14.4759    0.0000 </r>
       <r>   14.7626    0.0000 </r>
       <r>   14.9504    0.0000 </r>
       <r>   15.0467    0.0000 </r>
       <r>   15.2456    0.0000 </r>
       <r>   15.7449    0.0000 </r>
       <r>   16.1085    0.0000 </r>
       <r>   16.1804    0.0000 </r>
      </set>
      <set comment="kpoint 8">
       <r>  -13.8276    1.0000 </r>
       <r>  -13.1583    1.0000 </r>
       <r>  -12.9238    1.0000 </r>
       <r>  -12.7517    1.0000 </r>
       <r>  -12.5774    1.0000 </r>
       <r>  -12.5357    1.0000 </r>
       <r>  -12.4025    1.0000 </r>
       <r>   -0.8794    1.0000 </r>
       <r>   -0.7339    1.0000 </r>
       <r>   -0.4706    1.0000 </r>
       <r>   -0.1768    1.0000 </r>
       <r>   -0.0152    1.0000 </r>
       <r>    0.2275    1.0000 </r>
       <r>    0.3164    1.0000 </r>
       <r>    0.6746    1.0000 </r>
       <r>    0.7649    1.0000 </r>
       <r>    0.9895    1.0000 </r>
       <r>    1.3612    1.0000 </r>
       <r>    1.4748    1.0000 </r>
       <r>    1.6233    1.0000 </r>
       <r>    1.7504    1.0000 </r>
       <r>    1.9200    1.0000 </r>
       <r>    2.0662    1.0000 </r>
       <r>    2.1871    1.0000 </r>
       <r>    2.4319    1.0000 </r>
       <r>    2.6190    1.0000 </r>
       <r>    2.7422    1.0000 </r>
       <r>    2.8561    1.0000 </r>
       <r>    4.5607    1.0000 </r>
       <r>    8.0341    0.0000 </r>
       <r>    8.8165    0.0000 </r>
       <r>    9.7418    0.0000 </r>
       <r>   11.0617    0.0000 </r>
       <r>   11.9373    0.0000 </r>
       <r>   12.5264    0.0000 </r>
       <r>   12.7790    0.0000 </r>
       <r>   13.2295    0.0000 </r>
       <r>   13.3545    0.0000 </r>
       <r>   13.9538    0.0000 </r>
       <r>   14.1926    0.0000 </r>
       <r>   14.4813    0.0000 </r>
       <r>   14.7189    0.0000 </r>
       <r>   14.9286    0.0000 </r>
       <r>   15.1283    0.0000 </r>
       <r>   15.3085    0.0000 </r>
       <r>   15.5887    0.0000 </r>
       <r>   16.1135    0.0000 </r>
       <r>   16.2769    0.0000 </r>
      </set>
      <set comment="kpoint 9">
       <r>  -13.8329    1.0000 </r>
       <r>  -13.1402    1.0000 </r>
       <r>  -12.9482    1.0000 </r>
       <r>  -12.6742    1.0000 </r>
       <r>  -12.6724    1.0000 </r>
       <r>  -12.5040    1.0000 </r>
       <r>  -12.4040    1.0000 </r>
       <r>   -0.9780    1.0000 </r>
       <r>   -0.5411    1.0000 </r>
       <r>   -0.5369    1.0000 </r>
       <r>   -0.3213    1.0000 </r>
       <r>   -0.0631    1.0000 </r>
       <r>    0.0986    1.0000 </r>
       <r>    0.5300    1.0000 </r>
       <r>    0.7572    1.0000 </r>
       <r>    0.9485    1.0000 </r>
       <r>    0.9690    1.0000 </r>
       <r>    1.2774    1.0000 </r>
       <r>    1.4247    1.0000 </r>
       <r>    1.5071    1.0000 </r>
       <r>    1.8395    1.0000 </r>
       <r>    1.8964    1.0000 </r>
       <r>    2.1812    1.0000 </r>
       <r>    2.2563    1.0000 </r>
       <r>    2.4848    1.0000 </r>
       <r>    2.6010    1.0000 </r>
       <r>    2.6423    1.0000 </r>
       <r>    2.7658    1.0000 </r>
       <r>    4.4921    1.0000 </r>
       <r>    8.3923    0.0000 </r>
       <r>    8.9814    0.0000 </r>
       <r>    9.1378    0.0000 </r>
       <r>   11.2383    0.0000 </r>
       <r>   11.8876    0.0000 </r>
       <r>   12.7669    0.0000 </r>
       <r>   12.9796    0.0000 </r>
       <r>   13.1643    0.0000 </r>
       <r>   13.4776    0.0000 </r>
       <r>   13.7590    0.0000 </r>
       <r>   14.1907    0.0000 </r>
       <r>   14.3317    0.0000 </r>
       <r>   14.3570    0.0000 </r>
       <r>   14.7270    0.0000 </r>
       <r>   14.9156    0.0000 </r>
       <r>   15.0540    0.0000 </r>
       <r>   15.8314    0.0000 </r>
       <r>   16.2105    0.0000 </r>
       <r>   16.4844    0.0000 </r>
      </set>
      <set comment="kpoint 10">
       <r>  -13.8274    1.0000 </r>
       <r>  -13.1585    1.0000 </r>
       <r>  -12.9240    1.0000 </r>
       <r>  -12.7522    1.0000 </r>
       <r>  -12.5781    1.0000 </r>
       <r>  -12.5338    1.0000 </r>
       <r>  -12.4028    1.0000 </r>
       <r>   -0.8801    1.0000 </r>
       <r>   -0.7327    1.0000 </r>
       <r>   -0.4701    1.0000 </r>
       <r>   -0.1786    1.0000 </r>
       <r>   -0.0159    1.0000 </r>
       <r>    0.2257    1.0000 </r>
       <r>    0.3186    1.0000 </r>
       <r>    0.6716    1.0000 </r>
       <r>    0.7655    1.0000 </r>
       <r>    0.9888    1.0000 </r>
       <r>    1.3628    1.0000 </r>
       <r>    1.4753    1.0000 </r>
       <r>    1.6233    1.0000 </r>
       <r>    1.7517    1.0000 </r>
       <r>    1.9202    1.0000 </r>
       <r>    2.0677    1.0000 </r>
       <r>    2.1866    1.0000 </r>
       <r>    2.4324    1.0000 </r>
       <r>    2.6185    1.0000 </r>
       <r>    2.7425    1.0000 </r>
       <r>    2.8568    1.0000 </r>
       <r>    4.5605    1.0000 </r>
       <r>    8.0325    0.0000 </r>
       <r>    8.8159    0.0000 </r>
       <r>    9.7440    0.0000 </r>
       <r>   11.0612    0.0000 </r>
       <r>   11.9371    0.0000 </r>
       <r>   12.5238    0.0000 </r>
       <r>   12.7758    0.0000 </r>
       <r>   13.2333    0.0000 </r>
       <r>   13.3595    0.0000 </r>
       <r>   13.9561    0.0000 </r>
       <r>   14.1858    0.0000 </r>
       <r>   14.4815    0.0000 </r>
       <r>   14.7179    0.0000 </r>
       <r>   14.9261    0.0000 </r>
       <r>   15.1288    0.0000 </r>
       <r>   15.3128    0.0000 </r>
       <r>   15.5884    0.0000 </r>
       <r>   16.1087    0.0000 </r>
       <r>   16.2750    0.0000 </r>
      </set>
      <set comment="kpoint 11">
       <r>  -13.8274    1.0000 </r>
       <r>  -13.1585    1.0000 </r>
       <r>  -12.9239    1.0000 </r>
       <r>  -12.7520    1.0000 </r>
       <r>  -12.5779    1.0000 </r>
       <r>  -12.5351    1.0000 </r>
       <r>  -12.4019    1.0000 </r>
       <r>   -0.8796    1.0000 </r>
       <r>   -0.7333    1.0000 </r>
       <r>   -0.4700    1.0000 </r>
       <r>   -0.1786    1.0000 </r>
       <r>   -0.0156    1.0000 </r>
       <r>    0.2257    1.0000 </r>
       <r>    0.3186    1.0000 </r>
       <r>    0.6716    1.0000 </r>
       <r>    0.7652    1.0000 </r>
       <r>    0.9889    1.0000 </r>
       <r>    1.3626    1.0000 </r>
       <r>    1.4757    1.0000 </r>
       <r>    1.6230    1.0000 </r>
       <r>    1.7513    1.0000 </r>
       <r>    1.9196    1.0000 </r>
       <r>    2.0675    1.0000 </r>
       <r>    2.1870    1.0000 </r>
       <r>    2.4324    1.0000 </r>
       <r>    2.6188    1.0000 </r>
       <r>    2.7428    1.0000 </r>
       <r>    2.8574    1.0000 </r>
       <r>    4.5605    1.0000 </r>
       <r>    8.0335    0.0000 </r>
       <r>    8.8148    0.0000 </r>
       <r>    9.7438    0.0000 </r>
       <r>   11.0608    0.0000 </r>
       <r>   11.9368    0.0000 </r>
       <r>   12.5233    0.0000 </r>
       <r>   12.7764    0.0000 </r>
       <r>   13.2341    0.0000 </r>
       <r>   13.3587    0.0000 </r>
       <r>   13.9573    0.0000 </r>
       <r>   14.1876    0.0000 </r>
       <r>   14.4813    0.0000 </r>
       <r>   14.7183    0.0000 </r>
       <r>   14.9263    0.0000 </r>
       <r>   15.1317    0.0000 </r>
       <r>   15.3091    0.0000 </r>
       <r>   15.5862    0.0000 </r>
       <r>   16.1110    0.0000 </r>
       <r>   16.2720    0.0000 </r>
      </set>
      <set comment="kpoint 12">
       <r>  -13.8275    1.0000 </r>
       <r>  -13.1585    1.0000 </r>
       <r>  -12.9236    1.0000 </r>
       <r>  -12.7518    1.0000 </r>
       <r>  -12.5777    1.0000 </r>
       <r>  -12.5354    1.0000 </r>
       <r>  -12.4024    1.0000 </r>
       <r>   -0.8792    1.0000 </r>
       <r>   -0.7336    1.0000 </r>
       <r>   -0.4703    1.0000 </r>
       <r>   -0.1772    1.0000 </r>
       <r>   -0.0151    1.0000 </r>
       <r>    0.2272    1.0000 </r>
       <r>    0.3159    1.0000 </r>
       <r>    0.6743    1.0000 </r>
       <r>    0.7649    1.0000 </r>
       <r>    0.9895    1.0000 </r>
       <r>    1.3611    1.0000 </r>
       <r>    1.4747    1.0000 </r>
       <r>    1.6232    1.0000 </r>
       <r>    1.7503    1.0000 </r>
       <r>    1.9201    1.0000 </r>
       <r>    2.0670    1.0000 </r>
       <r>    2.1876    1.0000 </r>
       <r>    2.4320    1.0000 </r>
       <r>    2.6189    1.0000 </r>
       <r>    2.7417    1.0000 </r>
       <r>    2.8566    1.0000 </r>
       <r>    4.5606    1.0000 </r>
       <r>    8.0355    0.0000 </r>
       <r>    8.8148    0.0000 </r>
       <r>    9.7421    0.0000 </r>
       <r>   11.0618    0.0000 </r>
       <r>   11.9373    0.0000 </r>
       <r>   12.5257    0.0000 </r>
       <r>   12.7796    0.0000 </r>
       <r>   13.2303    0.0000 </r>
       <r>   13.3540    0.0000 </r>
       <r>   13.9544    0.0000 </r>
       <r>   14.1939    0.0000 </r>
       <r>   14.4799    0.0000 </r>
       <r>   14.7174    0.0000 </r>
       <r>   14.9284    0.0000 </r>
       <r>   15.1286    0.0000 </r>
       <r>   15.3117    0.0000 </r>
       <r>   15.5882    0.0000 </r>
       <r>   16.1122    0.0000 </r>
       <r>   16.2771    0.0000 </r>
      </set>
      <set comment="kpoint 13">
       <r>  -13.8329    1.0000 </r>
       <r>  -13.1403    1.0000 </r>
       <r>  -12.9482    1.0000 </r>
       <r>  -12.6740    1.0000 </r>
       <r>  -12.6726    1.0000 </r>
       <r>  -12.5030    1.0000 </r>
       <r>  -12.4049    1.0000 </r>
       <r>   -0.9781    1.0000 </r>
       <r>   -0.5411    1.0000 </r>
       <r>   -0.5369    1.0000 </r>
       <r>   -0.3212    1.0000 </r>
       <r>   -0.0627    1.0000 </r>
       <r>    0.0978    1.0000 </r>
       <r>    0.5303    1.0000 </r>
       <r>    0.7567    1.0000 </r>
       <r>    0.9487    1.0000 </r>
       <r>    0.9688    1.0000 </r>
       <r>    1.2779    1.0000 </r>
       <r>    1.4246    1.0000 </r>
       <r>    1.5068    1.0000 </r>
       <r>    1.8396    1.0000 </r>
       <r>    1.8979    1.0000 </r>
       <r>    2.1820    1.0000 </r>
       <r>    2.2563    1.0000 </r>
       <r>    2.4840    1.0000 </r>
       <r>    2.6001    1.0000 </r>
       <r>    2.6422    1.0000 </r>
       <r>    2.7654    1.0000 </r>
       <r>    4.4921    1.0000 </r>
       <r>    8.3913    0.0000 </r>
       <r>    8.9811    0.0000 </r>
       <r>    9.1396    0.0000 </r>
       <r>   11.2386    0.0000 </r>
       <r>   11.8874    0.0000 </r>
       <r>   12.7680    0.0000 </r>
       <r>   12.9788    0.0000 </r>
       <r>   13.1632    0.0000 </r>
       <r>   13.4774    0.0000 </r>
       <r>   13.7597    0.0000 </r>
       <r>   14.1903    0.0000 </r>
       <r>   14.3305    0.0000 </r>
       <r>   14.3581    0.0000 </r>
       <r>   14.7268    0.0000 </r>
       <r>   14.9160    0.0000 </r>
       <r>   15.0526    0.0000 </r>
       <r>   15.8341    0.0000 </r>
       <r>   16.2110    0.0000 </r>
       <r>   16.4838    0.0000 </r>
      </set>
      <set comment="kpoint 14">
       <r>  -13.8329    1.0000 </r>
       <r>  -13.1406    1.0000 </r>
       <r>  -12.9477    1.0000 </r>
       <r>  -12.6739    1.0000 </r>
       <r>  -12.6721    1.0000 </r>
       <r>  -12.5041    1.0000 </r>
       <r>  -12.4046    1.0000 </r>
       <r>   -0.9783    1.0000 </r>
       <r>   -0.5423    1.0000 </r>
       <r>   -0.5360    1.0000 </r>
       <r>   -0.3209    1.0000 </r>
       <r>   -0.0628    1.0000 </r>
       <r>    0.0986    1.0000 </r>
       <r>    0.5295    1.0000 </r>
       <r>    0.7570    1.0000 </r>
       <r>    0.9482    1.0000 </r>
       <r>    0.9696    1.0000 </r>
       <r>    1.2793    1.0000 </r>
       <r>    1.4252    1.0000 </r>
       <r>    1.5049    1.0000 </r>
       <r>    1.8409    1.0000 </r>
       <r>    1.8965    1.0000 </r>
       <r>    2.1800    1.0000 </r>
       <r>    2.2574    1.0000 </r>
       <r>    2.4837    1.0000 </r>
       <r>    2.6012    1.0000 </r>
       <r>    2.6415    1.0000 </r>
       <r>    2.7659    1.0000 </r>
       <r>    4.4921    1.0000 </r>
       <r>    8.3932    0.0000 </r>
       <r>    8.9802    0.0000 </r>
       <r>    9.1386    0.0000 </r>
       <r>   11.2384    0.0000 </r>
       <r>   11.8867    0.0000 </r>
       <r>   12.7641    0.0000 </r>
       <r>   12.9818    0.0000 </r>
       <r>   13.1681    0.0000 </r>
       <r>   13.4728    0.0000 </r>
       <r>   13.7592    0.0000 </r>
       <r>   14.1894    0.0000 </r>
       <r>   14.3314    0.0000 </r>
       <r>   14.3526    0.0000 </r>
       <r>   14.7317    0.0000 </r>
       <r>   14.9178    0.0000 </r>
       <r>   15.0535    0.0000 </r>
       <r>   15.8303    0.0000 </r>
       <r>   16.2140    0.0000 </r>
       <r>   16.4868    0.0000 </r>
      </set>
      <set comment="kpoint 15">
       <r>  -13.8275    1.0000 </r>
       <r>  -13.1576    1.0000 </r>
       <r>  -12.9249    1.0000 </r>
       <r>  -12.7515    1.0000 </r>
       <r>  -12.5776    1.0000 </r>
       <r>  -12.5357    1.0000 </r>
       <r>  -12.4019    1.0000 </r>
       <r>   -0.8790    1.0000 </r>
       <r>   -0.7338    1.0000 </r>
       <r>   -0.4710    1.0000 </r>
       <r>   -0.1766    1.0000 </r>
       <r>   -0.0150    1.0000 </r>
       <r>    0.2264    1.0000 </r>
       <r>    0.3174    1.0000 </r>
       <r>    0.6743    1.0000 </r>
       <r>    0.7656    1.0000 </r>
       <r>    0.9893    1.0000 </r>
       <r>    1.3607    1.0000 </r>
       <r>    1.4730    1.0000 </r>
       <r>    1.6228    1.0000 </r>
       <r>    1.7509    1.0000 </r>
       <r>    1.9208    1.0000 </r>
       <r>    2.0664    1.0000 </r>
       <r>    2.1865    1.0000 </r>
       <r>    2.4327    1.0000 </r>
       <r>    2.6183    1.0000 </r>
       <r>    2.7435    1.0000 </r>
       <r>    2.8564    1.0000 </r>
       <r>    4.5606    1.0000 </r>
       <r>    8.0344    0.0000 </r>
       <r>    8.8147    0.0000 </r>
       <r>    9.7432    0.0000 </r>
       <r>   11.0619    0.0000 </r>
       <r>   11.9370    0.0000 </r>
       <r>   12.5239    0.0000 </r>
       <r>   12.7794    0.0000 </r>
       <r>   13.2319    0.0000 </r>
       <r>   13.3574    0.0000 </r>
       <r>   13.9574    0.0000 </r>
       <r>   14.1929    0.0000 </r>
       <r>   14.4816    0.0000 </r>
       <r>   14.7151    0.0000 </r>
       <r>   14.9236    0.0000 </r>
       <r>   15.1272    0.0000 </r>
       <r>   15.3100    0.0000 </r>
       <r>   15.5901    0.0000 </r>
       <r>   16.1142    0.0000 </r>
       <r>   16.2769    0.0000 </r>
      </set>
      <set comment="kpoint 16">
       <r>  -13.8275    1.0000 </r>
       <r>  -13.1579    1.0000 </r>
       <r>  -12.9248    1.0000 </r>
       <r>  -12.7518    1.0000 </r>
       <r>  -12.5780    1.0000 </r>
       <r>  -12.5340    1.0000 </r>
       <r>  -12.4028    1.0000 </r>
       <r>   -0.8793    1.0000 </r>
       <r>   -0.7331    1.0000 </r>
       <r>   -0.4705    1.0000 </r>
       <r>   -0.1768    1.0000 </r>
       <r>   -0.0145    1.0000 </r>
       <r>    0.2257    1.0000 </r>
       <r>    0.3162    1.0000 </r>
       <r>    0.6735    1.0000 </r>
       <r>    0.7654    1.0000 </r>
       <r>    0.9895    1.0000 </r>
       <r>    1.3615    1.0000 </r>
       <r>    1.4734    1.0000 </r>
       <r>    1.6233    1.0000 </r>
       <r>    1.7514    1.0000 </r>
       <r>    1.9205    1.0000 </r>
       <r>    2.0677    1.0000 </r>
       <r>    2.1862    1.0000 </r>
       <r>    2.4322    1.0000 </r>
       <r>    2.6183    1.0000 </r>
       <r>    2.7427    1.0000 </r>
       <r>    2.8564    1.0000 </r>
       <r>    4.5605    1.0000 </r>
       <r>    8.0349    0.0000 </r>
       <r>    8.8139    0.0000 </r>
       <r>    9.7438    0.0000 </r>
       <r>   11.0621    0.0000 </r>
       <r>   11.9371    0.0000 </r>
       <r>   12.5237    0.0000 </r>
       <r>   12.7794    0.0000 </r>
       <r>   13.2324    0.0000 </r>
       <r>   13.3565    0.0000 </r>
       <r>   13.9569    0.0000 </r>
       <r>   14.1907    0.0000 </r>
       <r>   14.4850    0.0000 </r>
       <r>   14.7155    0.0000 </r>
       <r>   14.9234    0.0000 </r>
       <r>   15.1290    0.0000 </r>
       <r>   15.3080    0.0000 </r>
       <r>   15.5904    0.0000 </r>
       <r>   16.1143    0.0000 </r>
       <r>   16.2768    0.0000 </r>
      </set>
     </set>
     <set comment="spin 2">
      <set comment="kpoint 1">
       <r>  -13.9520    1.0000 </r>
       <r>  -13.1460    1.0000 </r>
       <r>  -12.7516    1.0000 </r>
       <r>  -12.5788    1.0000 </r>
       <r>  -12.5774    1.0000 </r>
       <r>  -12.3709    1.0000 </r>
       <r>  -12.3698    1.0000 </r>
       <r>   -1.1164    1.0000 </r>
       <r>   -0.9849    1.0000 </r>
       <r>   -0.9833    1.0000 </r>
       <r>   -0.7437    1.0000 </r>
       <r>   -0.4026    1.0000 </r>
       <r>    0.1642    1.0000 </r>
       <r>    0.1651    1.0000 </r>
       <r>    1.1109    1.0000 </r>
       <r>    1.5145    1.0000 </r>
       <r>    1.5157    1.0000 </r>
       <r>    1.7663    1.0000 </r>
       <r>    1.7677    1.0000 </r>
       <r>    2.0861    1.0000 </r>
       <r>    2.1892    1.0000 </r>
       <r>    2.2780    1.0000 </r>
       <r>    2.2791    1.0000 </r>
       <r>    2.6793    1.0000 </r>
       <r>    2.6801    1.0000 </r>
       <r>    2.7480    1.0000 </r>
       <r>    2.9115    1.0000 </r>
       <r>    2.9133    1.0000 </r>
       <r>    4.8868    0.0000 </r>
       <r>    9.2917    0.0000 </r>
       <r>   10.3685    0.0000 </r>
       <r>   10.3710    0.0000 </r>
       <r>   10.4917    0.0000 </r>
       <r>   11.6313    0.0000 </r>
       <r>   12.0654    0.0000 </r>
       <r>   12.0673    0.0000 </r>
       <r>   12.8171    0.0000 </r>
       <r>   12.8198    0.0000 </r>
       <r>   13.1039    0.0000 </r>
       <r>   13.6188    0.0000 </r>
       <r>   13.6236    0.0000 </r>
       <r>   13.9569    0.0000 </r>
       <r>   15.3868    0.0000 </r>
       <r>   15.6258    0.0000 </r>
       <r>   15.6321    0.0000 </r>
       <r>   16.0901    0.0000 </r>
       <r>   17.1690    0.0000 </r>
       <r>   17.1784    0.0000 </r>
      </set>
      <set comment="kpoint 2">
       <r>  -13.9482    1.0000 </r>
       <r>  -13.1548    1.0000 </r>
       <r>  -12.7399    1.0000 </r>
       <r>  -12.5893    1.0000 </r>
       <r>  -12.5799    1.0000 </r>
       <r>  -12.3681    1.0000 </r>
       <r>  -12.3673    1.0000 </r>
       <r>   -1.2148    1.0000 </r>
       <r>   -0.9743    1.0000 </r>
       <r>   -0.8569    1.0000 </r>
       <r>   -0.6274    1.0000 </r>
       <r>   -0.3576    1.0000 </r>
       <r>   -0.0517    1.0000 </r>
       <r>    0.1479    1.0000 </r>
       <r>    1.2245    1.0000 </r>
       <r>    1.4406    1.0000 </r>
       <r>    1.5299    1.0000 </r>
       <r>    1.7199    1.0000 </r>
       <r>    1.9341    1.0000 </r>
       <r>    1.9793    1.0000 </r>
       <r>    2.0556    1.0000 </r>
       <r>    2.1701    1.0000 </r>
       <r>    2.4017    1.0000 </r>
       <r>    2.4194    1.0000 </r>
       <r>    2.8196    1.0000 </r>
       <r>    2.8470    1.0000 </r>
       <r>    2.9443    1.0000 </r>
       <r>    2.9785    1.0000 </r>
       <r>    4.9027    0.0000 </r>
       <r>    9.2630    0.0000 </r>
       <r>   10.1130    0.0000 </r>
       <r>   10.4717    0.0000 </r>
       <r>   10.8696    0.0000 </r>
       <r>   11.3938    0.0000 </r>
       <r>   11.9053    0.0000 </r>
       <r>   11.9732    0.0000 </r>
       <r>   12.6722    0.0000 </r>
       <r>   12.8036    0.0000 </r>
       <r>   13.3022    0.0000 </r>
       <r>   13.6850    0.0000 </r>
       <r>   13.9219    0.0000 </r>
       <r>   14.0643    0.0000 </r>
       <r>   15.4923    0.0000 </r>
       <r>   15.6122    0.0000 </r>
       <r>   15.6331    0.0000 </r>
       <r>   15.9910    0.0000 </r>
       <r>   17.2939    0.0000 </r>
       <r>   17.3231    0.0000 </r>
      </set>
      <set comment="kpoint 3">
       <r>  -13.9482    1.0000 </r>
       <r>  -13.1548    1.0000 </r>
       <r>  -12.7401    1.0000 </r>
       <r>  -12.5888    1.0000 </r>
       <r>  -12.5801    1.0000 </r>
       <r>  -12.3686    1.0000 </r>
       <r>  -12.3670    1.0000 </r>
       <r>   -1.2149    1.0000 </r>
       <r>   -0.9746    1.0000 </r>
       <r>   -0.8566    1.0000 </r>
       <r>   -0.6275    1.0000 </r>
       <r>   -0.3581    1.0000 </r>
       <r>   -0.0514    1.0000 </r>
       <r>    0.1484    1.0000 </r>
       <r>    1.2253    1.0000 </r>
       <r>    1.4410    1.0000 </r>
       <r>    1.5295    1.0000 </r>
       <r>    1.7196    1.0000 </r>
       <r>    1.9338    1.0000 </r>
       <r>    1.9793    1.0000 </r>
       <r>    2.0557    1.0000 </r>
       <r>    2.1704    1.0000 </r>
       <r>    2.4014    1.0000 </r>
       <r>    2.4188    1.0000 </r>
       <r>    2.8204    1.0000 </r>
       <r>    2.8470    1.0000 </r>
       <r>    2.9444    1.0000 </r>
       <r>    2.9778    1.0000 </r>
       <r>    4.9027    0.0000 </r>
       <r>    9.2627    0.0000 </r>
       <r>   10.1123    0.0000 </r>
       <r>   10.4739    0.0000 </r>
       <r>   10.8690    0.0000 </r>
       <r>   11.3938    0.0000 </r>
       <r>   11.9051    0.0000 </r>
       <r>   11.9741    0.0000 </r>
       <r>   12.6719    0.0000 </r>
       <r>   12.8019    0.0000 </r>
       <r>   13.3023    0.0000 </r>
       <r>   13.6848    0.0000 </r>
       <r>   13.9222    0.0000 </r>
       <r>   14.0646    0.0000 </r>
       <r>   15.4927    0.0000 </r>
       <r>   15.6109    0.0000 </r>
       <r>   15.6335    0.0000 </r>
       <r>   15.9913    0.0000 </r>
       <r>   17.2943    0.0000 </r>
       <r>   17.3224    0.0000 </r>
      </set>
      <set comment="kpoint 4">
       <r>  -13.9481    1.0000 </r>
       <r>  -13.1551    1.0000 </r>
       <r>  -12.7396    1.0000 </r>
       <r>  -12.5881    1.0000 </r>
       <r>  -12.5812    1.0000 </r>
       <r>  -12.3683    1.0000 </r>
       <r>  -12.3670    1.0000 </r>
       <r>   -1.2149    1.0000 </r>
       <r>   -0.9735    1.0000 </r>
       <r>   -0.8582    1.0000 </r>
       <r>   -0.6274    1.0000 </r>
       <r>   -0.3592    1.0000 </r>
       <r>   -0.0502    1.0000 </r>
       <r>    0.1482    1.0000 </r>
       <r>    1.2228    1.0000 </r>
       <r>    1.4407    1.0000 </r>
       <r>    1.5300    1.0000 </r>
       <r>    1.7205    1.0000 </r>
       <r>    1.9349    1.0000 </r>
       <r>    1.9798    1.0000 </r>
       <r>    2.0544    1.0000 </r>
       <r>    2.1710    1.0000 </r>
       <r>    2.4021    1.0000 </r>
       <r>    2.4192    1.0000 </r>
       <r>    2.8195    1.0000 </r>
       <r>    2.8468    1.0000 </r>
       <r>    2.9452    1.0000 </r>
       <r>    2.9799    1.0000 </r>
       <r>    4.9026    0.0000 </r>
       <r>    9.2621    0.0000 </r>
       <r>   10.1105    0.0000 </r>
       <r>   10.4730    0.0000 </r>
       <r>   10.8702    0.0000 </r>
       <r>   11.3945    0.0000 </r>
       <r>   11.9050    0.0000 </r>
       <r>   11.9722    0.0000 </r>
       <r>   12.6762    0.0000 </r>
       <r>   12.7994    0.0000 </r>
       <r>   13.2988    0.0000 </r>
       <r>   13.6856    0.0000 </r>
       <r>   13.9226    0.0000 </r>
       <r>   14.0654    0.0000 </r>
       <r>   15.4939    0.0000 </r>
       <r>   15.6095    0.0000 </r>
       <r>   15.6376    0.0000 </r>
       <r>   15.9883    0.0000 </r>
       <r>   17.2903    0.0000 </r>
       <r>   17.3136    0.0000 </r>
      </set>
      <set comment="kpoint 5">
       <r>  -13.8207    1.0000 </r>
       <r>  -13.1084    1.0000 </r>
       <r>  -12.8723    1.0000 </r>
       <r>  -12.6220    1.0000 </r>
       <r>  -12.6162    1.0000 </r>
       <r>  -12.4401    1.0000 </r>
       <r>  -12.3392    1.0000 </r>
       <r>   -0.7626    1.0000 </r>
       <r>   -0.5393    1.0000 </r>
       <r>   -0.5043    1.0000 </r>
       <r>   -0.1081    1.0000 </r>
       <r>    0.0748    1.0000 </r>
       <r>    0.1645    1.0000 </r>
       <r>    0.5742    1.0000 </r>
       <r>    0.6909    1.0000 </r>
       <r>    0.8340    1.0000 </r>
       <r>    1.0454    1.0000 </r>
       <r>    1.2129    1.0000 </r>
       <r>    1.6451    1.0000 </r>
       <r>    1.6473    1.0000 </r>
       <r>    1.8137    1.0000 </r>
       <r>    1.8865    1.0000 </r>
       <r>    2.1838    1.0000 </r>
       <r>    2.3580    1.0000 </r>
       <r>    2.4628    1.0000 </r>
       <r>    2.7101    1.0000 </r>
       <r>    2.7204    1.0000 </r>
       <r>    2.8687    1.0000 </r>
       <r>    6.0013    0.0000 </r>
       <r>    8.6827    0.0000 </r>
       <r>    9.9294    0.0000 </r>
       <r>    9.9375    0.0000 </r>
       <r>   11.1789    0.0000 </r>
       <r>   12.1893    0.0000 </r>
       <r>   12.5248    0.0000 </r>
       <r>   13.0633    0.0000 </r>
       <r>   13.1861    0.0000 </r>
       <r>   13.5566    0.0000 </r>
       <r>   13.8686    0.0000 </r>
       <r>   14.4979    0.0000 </r>
       <r>   14.7030    0.0000 </r>
       <r>   14.8213    0.0000 </r>
       <r>   15.0384    0.0000 </r>
       <r>   15.1576    0.0000 </r>
       <r>   15.3401    0.0000 </r>
       <r>   15.8450    0.0000 </r>
       <r>   16.2551    0.0000 </r>
       <r>   16.2725    0.0000 </r>
      </set>
      <set comment="kpoint 6">
       <r>  -13.8207    1.0000 </r>
       <r>  -13.1094    1.0000 </r>
       <r>  -12.8712    1.0000 </r>
       <r>  -12.6205    1.0000 </r>
       <r>  -12.6174    1.0000 </r>
       <r>  -12.4402    1.0000 </r>
       <r>  -12.3396    1.0000 </r>
       <r>   -0.7628    1.0000 </r>
       <r>   -0.5405    1.0000 </r>
       <r>   -0.5038    1.0000 </r>
       <r>   -0.1094    1.0000 </r>
       <r>    0.0741    1.0000 </r>
       <r>    0.1649    1.0000 </r>
       <r>    0.5746    1.0000 </r>
       <r>    0.6904    1.0000 </r>
       <r>    0.8350    1.0000 </r>
       <r>    1.0455    1.0000 </r>
       <r>    1.2144    1.0000 </r>
       <r>    1.6441    1.0000 </r>
       <r>    1.6474    1.0000 </r>
       <r>    1.8155    1.0000 </r>
       <r>    1.8869    1.0000 </r>
       <r>    2.1851    1.0000 </r>
       <r>    2.3574    1.0000 </r>
       <r>    2.4613    1.0000 </r>
       <r>    2.7097    1.0000 </r>
       <r>    2.7205    1.0000 </r>
       <r>    2.8695    1.0000 </r>
       <r>    6.0016    0.0000 </r>
       <r>    8.6813    0.0000 </r>
       <r>    9.9305    0.0000 </r>
       <r>    9.9384    0.0000 </r>
       <r>   11.1783    0.0000 </r>
       <r>   12.1871    0.0000 </r>
       <r>   12.5245    0.0000 </r>
       <r>   13.0654    0.0000 </r>
       <r>   13.1879    0.0000 </r>
       <r>   13.5506    0.0000 </r>
       <r>   13.8631    0.0000 </r>
       <r>   14.4970    0.0000 </r>
       <r>   14.6998    0.0000 </r>
       <r>   14.8207    0.0000 </r>
       <r>   15.0412    0.0000 </r>
       <r>   15.1683    0.0000 </r>
       <r>   15.3386    0.0000 </r>
       <r>   15.8413    0.0000 </r>
       <r>   16.2555    0.0000 </r>
       <r>   16.2704    0.0000 </r>
      </set>
      <set comment="kpoint 7">
       <r>  -13.8208    1.0000 </r>
       <r>  -13.1083    1.0000 </r>
       <r>  -12.8726    1.0000 </r>
       <r>  -12.6215    1.0000 </r>
       <r>  -12.6166    1.0000 </r>
       <r>  -12.4393    1.0000 </r>
       <r>  -12.3401    1.0000 </r>
       <r>   -0.7630    1.0000 </r>
       <r>   -0.5393    1.0000 </r>
       <r>   -0.5048    1.0000 </r>
       <r>   -0.1080    1.0000 </r>
       <r>    0.0751    1.0000 </r>
       <r>    0.1646    1.0000 </r>
       <r>    0.5748    1.0000 </r>
       <r>    0.6909    1.0000 </r>
       <r>    0.8338    1.0000 </r>
       <r>    1.0452    1.0000 </r>
       <r>    1.2135    1.0000 </r>
       <r>    1.6447    1.0000 </r>
       <r>    1.6480    1.0000 </r>
       <r>    1.8140    1.0000 </r>
       <r>    1.8871    1.0000 </r>
       <r>    2.1833    1.0000 </r>
       <r>    2.3585    1.0000 </r>
       <r>    2.4623    1.0000 </r>
       <r>    2.7100    1.0000 </r>
       <r>    2.7200    1.0000 </r>
       <r>    2.8677    1.0000 </r>
       <r>    6.0014    0.0000 </r>
       <r>    8.6818    0.0000 </r>
       <r>    9.9310    0.0000 </r>
       <r>    9.9376    0.0000 </r>
       <r>   11.1788    0.0000 </r>
       <r>   12.1903    0.0000 </r>
       <r>   12.5248    0.0000 </r>
       <r>   13.0626    0.0000 </r>
       <r>   13.1861    0.0000 </r>
       <r>   13.5556    0.0000 </r>
       <r>   13.8677    0.0000 </r>
       <r>   14.4978    0.0000 </r>
       <r>   14.7019    0.0000 </r>
       <r>   14.8214    0.0000 </r>
       <r>   15.0384    0.0000 </r>
       <r>   15.1582    0.0000 </r>
       <r>   15.3409    0.0000 </r>
       <r>   15.8448    0.0000 </r>
       <r>   16.2553    0.0000 </r>
       <r>   16.2724    0.0000 </r>
      </set>
      <set comment="kpoint 8">
       <r>  -13.8210    1.0000 </r>
       <r>  -13.1052    1.0000 </r>
       <r>  -12.8678    1.0000 </r>
       <r>  -12.6923    1.0000 </r>
       <r>  -12.5199    1.0000 </r>
       <r>  -12.4732    1.0000 </r>
       <r>  -12.3395    1.0000 </r>
       <r>   -0.7740    1.0000 </r>
       <r>   -0.5784    1.0000 </r>
       <r>   -0.3989    1.0000 </r>
       <r>   -0.1469    1.0000 </r>
       <r>    0.0096    1.0000 </r>
       <r>    0.2782    1.0000 </r>
       <r>    0.4064    1.0000 </r>
       <r>    0.7187    1.0000 </r>
       <r>    0.8154    1.0000 </r>
       <r>    1.0640    1.0000 </r>
       <r>    1.4308    1.0000 </r>
       <r>    1.5261    1.0000 </r>
       <r>    1.6967    1.0000 </r>
       <r>    1.7974    1.0000 </r>
       <r>    1.9550    1.0000 </r>
       <r>    2.1009    1.0000 </r>
       <r>    2.2298    1.0000 </r>
       <r>    2.4905    1.0000 </r>
       <r>    2.6647    1.0000 </r>
       <r>    2.7919    1.0000 </r>
       <r>    2.9019    1.0000 </r>
       <r>    5.9975    0.0000 </r>
       <r>    8.7280    0.0000 </r>
       <r>    9.5513    0.0000 </r>
       <r>   10.3533    0.0000 </r>
       <r>   11.1728    0.0000 </r>
       <r>   12.0614    0.0000 </r>
       <r>   12.6191    0.0000 </r>
       <r>   12.9159    0.0000 </r>
       <r>   13.3163    0.0000 </r>
       <r>   13.4610    0.0000 </r>
       <r>   14.0867    0.0000 </r>
       <r>   14.3248    0.0000 </r>
       <r>   14.6338    0.0000 </r>
       <r>   14.8196    0.0000 </r>
       <r>   15.0373    0.0000 </r>
       <r>   15.2422    0.0000 </r>
       <r>   15.4100    0.0000 </r>
       <r>   15.6735    0.0000 </r>
       <r>   16.1683    0.0000 </r>
       <r>   16.4247    0.0000 </r>
      </set>
      <set comment="kpoint 9">
       <r>  -13.8260    1.0000 </r>
       <r>  -13.0888    1.0000 </r>
       <r>  -12.8897    1.0000 </r>
       <r>  -12.6166    1.0000 </r>
       <r>  -12.6142    1.0000 </r>
       <r>  -12.4418    1.0000 </r>
       <r>  -12.3412    1.0000 </r>
       <r>   -0.7466    1.0000 </r>
       <r>   -0.5256    1.0000 </r>
       <r>   -0.5181    1.0000 </r>
       <r>   -0.2939    1.0000 </r>
       <r>   -0.0117    1.0000 </r>
       <r>    0.1720    1.0000 </r>
       <r>    0.6451    1.0000 </r>
       <r>    0.8133    1.0000 </r>
       <r>    1.0240    1.0000 </r>
       <r>    1.0251    1.0000 </r>
       <r>    1.3490    1.0000 </r>
       <r>    1.4786    1.0000 </r>
       <r>    1.5485    1.0000 </r>
       <r>    1.8931    1.0000 </r>
       <r>    1.9225    1.0000 </r>
       <r>    2.2219    1.0000 </r>
       <r>    2.2969    1.0000 </r>
       <r>    2.5517    1.0000 </r>
       <r>    2.6503    1.0000 </r>
       <r>    2.6863    1.0000 </r>
       <r>    2.8022    1.0000 </r>
       <r>    5.9526    0.0000 </r>
       <r>    8.9887    0.0000 </r>
       <r>    9.6065    0.0000 </r>
       <r>    9.8960    0.0000 </r>
       <r>   11.3499    0.0000 </r>
       <r>   12.0526    0.0000 </r>
       <r>   12.8459    0.0000 </r>
       <r>   13.0888    0.0000 </r>
       <r>   13.2348    0.0000 </r>
       <r>   13.6634    0.0000 </r>
       <r>   13.8818    0.0000 </r>
       <r>   14.3070    0.0000 </r>
       <r>   14.4629    0.0000 </r>
       <r>   14.5643    0.0000 </r>
       <r>   14.7836    0.0000 </r>
       <r>   14.9891    0.0000 </r>
       <r>   15.1860    0.0000 </r>
       <r>   15.8840    0.0000 </r>
       <r>   16.2723    0.0000 </r>
       <r>   16.6754    0.0000 </r>
      </set>
      <set comment="kpoint 10">
       <r>  -13.8209    1.0000 </r>
       <r>  -13.1055    1.0000 </r>
       <r>  -12.8680    1.0000 </r>
       <r>  -12.6928    1.0000 </r>
       <r>  -12.5206    1.0000 </r>
       <r>  -12.4712    1.0000 </r>
       <r>  -12.3400    1.0000 </r>
       <r>   -0.7738    1.0000 </r>
       <r>   -0.5776    1.0000 </r>
       <r>   -0.3992    1.0000 </r>
       <r>   -0.1487    1.0000 </r>
       <r>    0.0092    1.0000 </r>
       <r>    0.2764    1.0000 </r>
       <r>    0.4084    1.0000 </r>
       <r>    0.7156    1.0000 </r>
       <r>    0.8161    1.0000 </r>
       <r>    1.0633    1.0000 </r>
       <r>    1.4321    1.0000 </r>
       <r>    1.5265    1.0000 </r>
       <r>    1.6969    1.0000 </r>
       <r>    1.7986    1.0000 </r>
       <r>    1.9554    1.0000 </r>
       <r>    2.1024    1.0000 </r>
       <r>    2.2293    1.0000 </r>
       <r>    2.4913    1.0000 </r>
       <r>    2.6639    1.0000 </r>
       <r>    2.7921    1.0000 </r>
       <r>    2.9025    1.0000 </r>
       <r>    5.9974    0.0000 </r>
       <r>    8.7262    0.0000 </r>
       <r>    9.5505    0.0000 </r>
       <r>   10.3560    0.0000 </r>
       <r>   11.1721    0.0000 </r>
       <r>   12.0612    0.0000 </r>
       <r>   12.6157    0.0000 </r>
       <r>   12.9132    0.0000 </r>
       <r>   13.3176    0.0000 </r>
       <r>   13.4685    0.0000 </r>
       <r>   14.0883    0.0000 </r>
       <r>   14.3185    0.0000 </r>
       <r>   14.6348    0.0000 </r>
       <r>   14.8199    0.0000 </r>
       <r>   15.0342    0.0000 </r>
       <r>   15.2422    0.0000 </r>
       <r>   15.4137    0.0000 </r>
       <r>   15.6743    0.0000 </r>
       <r>   16.1616    0.0000 </r>
       <r>   16.4242    0.0000 </r>
      </set>
      <set comment="kpoint 11">
       <r>  -13.8209    1.0000 </r>
       <r>  -13.1054    1.0000 </r>
       <r>  -12.8679    1.0000 </r>
       <r>  -12.6927    1.0000 </r>
       <r>  -12.5204    1.0000 </r>
       <r>  -12.4725    1.0000 </r>
       <r>  -12.3391    1.0000 </r>
       <r>   -0.7735    1.0000 </r>
       <r>   -0.5780    1.0000 </r>
       <r>   -0.3990    1.0000 </r>
       <r>   -0.1486    1.0000 </r>
       <r>    0.0094    1.0000 </r>
       <r>    0.2764    1.0000 </r>
       <r>    0.4085    1.0000 </r>
       <r>    0.7157    1.0000 </r>
       <r>    0.8157    1.0000 </r>
       <r>    1.0635    1.0000 </r>
       <r>    1.4319    1.0000 </r>
       <r>    1.5267    1.0000 </r>
       <r>    1.6966    1.0000 </r>
       <r>    1.7984    1.0000 </r>
       <r>    1.9545    1.0000 </r>
       <r>    2.1024    1.0000 </r>
       <r>    2.2297    1.0000 </r>
       <r>    2.4911    1.0000 </r>
       <r>    2.6643    1.0000 </r>
       <r>    2.7923    1.0000 </r>
       <r>    2.9031    1.0000 </r>
       <r>    5.9974    0.0000 </r>
       <r>    8.7269    0.0000 </r>
       <r>    9.5496    0.0000 </r>
       <r>   10.3560    0.0000 </r>
       <r>   11.1717    0.0000 </r>
       <r>   12.0607    0.0000 </r>
       <r>   12.6155    0.0000 </r>
       <r>   12.9136    0.0000 </r>
       <r>   13.3185    0.0000 </r>
       <r>   13.4677    0.0000 </r>
       <r>   14.0896    0.0000 </r>
       <r>   14.3200    0.0000 </r>
       <r>   14.6343    0.0000 </r>
       <r>   14.8201    0.0000 </r>
       <r>   15.0353    0.0000 </r>
       <r>   15.2434    0.0000 </r>
       <r>   15.4112    0.0000 </r>
       <r>   15.6720    0.0000 </r>
       <r>   16.1641    0.0000 </r>
       <r>   16.4219    0.0000 </r>
      </set>
      <set comment="kpoint 12">
       <r>  -13.8210    1.0000 </r>
       <r>  -13.1055    1.0000 </r>
       <r>  -12.8675    1.0000 </r>
       <r>  -12.6924    1.0000 </r>
       <r>  -12.5202    1.0000 </r>
       <r>  -12.4729    1.0000 </r>
       <r>  -12.3395    1.0000 </r>
       <r>   -0.7738    1.0000 </r>
       <r>   -0.5779    1.0000 </r>
       <r>   -0.3988    1.0000 </r>
       <r>   -0.1473    1.0000 </r>
       <r>    0.0098    1.0000 </r>
       <r>    0.2776    1.0000 </r>
       <r>    0.4061    1.0000 </r>
       <r>    0.7184    1.0000 </r>
       <r>    0.8154    1.0000 </r>
       <r>    1.0639    1.0000 </r>
       <r>    1.4308    1.0000 </r>
       <r>    1.5258    1.0000 </r>
       <r>    1.6966    1.0000 </r>
       <r>    1.7972    1.0000 </r>
       <r>    1.9550    1.0000 </r>
       <r>    2.1018    1.0000 </r>
       <r>    2.2303    1.0000 </r>
       <r>    2.4906    1.0000 </r>
       <r>    2.6646    1.0000 </r>
       <r>    2.7913    1.0000 </r>
       <r>    2.9024    1.0000 </r>
       <r>    5.9974    0.0000 </r>
       <r>    8.7291    0.0000 </r>
       <r>    9.5499    0.0000 </r>
       <r>   10.3534    0.0000 </r>
       <r>   11.1729    0.0000 </r>
       <r>   12.0612    0.0000 </r>
       <r>   12.6186    0.0000 </r>
       <r>   12.9166    0.0000 </r>
       <r>   13.3168    0.0000 </r>
       <r>   13.4606    0.0000 </r>
       <r>   14.0872    0.0000 </r>
       <r>   14.3263    0.0000 </r>
       <r>   14.6330    0.0000 </r>
       <r>   14.8181    0.0000 </r>
       <r>   15.0366    0.0000 </r>
       <r>   15.2425    0.0000 </r>
       <r>   15.4130    0.0000 </r>
       <r>   15.6733    0.0000 </r>
       <r>   16.1664    0.0000 </r>
       <r>   16.4246    0.0000 </r>
      </set>
      <set comment="kpoint 13">
       <r>  -13.8259    1.0000 </r>
       <r>  -13.0890    1.0000 </r>
       <r>  -12.8897    1.0000 </r>
       <r>  -12.6163    1.0000 </r>
       <r>  -12.6144    1.0000 </r>
       <r>  -12.4408    1.0000 </r>
       <r>  -12.3421    1.0000 </r>
       <r>   -0.7467    1.0000 </r>
       <r>   -0.5259    1.0000 </r>
       <r>   -0.5176    1.0000 </r>
       <r>   -0.2938    1.0000 </r>
       <r>   -0.0115    1.0000 </r>
       <r>    0.1715    1.0000 </r>
       <r>    0.6454    1.0000 </r>
       <r>    0.8129    1.0000 </r>
       <r>    1.0238    1.0000 </r>
       <r>    1.0253    1.0000 </r>
       <r>    1.3495    1.0000 </r>
       <r>    1.4786    1.0000 </r>
       <r>    1.5482    1.0000 </r>
       <r>    1.8932    1.0000 </r>
       <r>    1.9240    1.0000 </r>
       <r>    2.2227    1.0000 </r>
       <r>    2.2970    1.0000 </r>
       <r>    2.5512    1.0000 </r>
       <r>    2.6491    1.0000 </r>
       <r>    2.6862    1.0000 </r>
       <r>    2.8018    1.0000 </r>
       <r>    5.9526    0.0000 </r>
       <r>    8.9883    0.0000 </r>
       <r>    9.6059    0.0000 </r>
       <r>    9.8974    0.0000 </r>
       <r>   11.3503    0.0000 </r>
       <r>   12.0523    0.0000 </r>
       <r>   12.8470    0.0000 </r>
       <r>   13.0882    0.0000 </r>
       <r>   13.2337    0.0000 </r>
       <r>   13.6634    0.0000 </r>
       <r>   13.8822    0.0000 </r>
       <r>   14.3067    0.0000 </r>
       <r>   14.4616    0.0000 </r>
       <r>   14.5653    0.0000 </r>
       <r>   14.7836    0.0000 </r>
       <r>   14.9894    0.0000 </r>
       <r>   15.1849    0.0000 </r>
       <r>   15.8864    0.0000 </r>
       <r>   16.2727    0.0000 </r>
       <r>   16.6693    0.0000 </r>
      </set>
      <set comment="kpoint 14">
       <r>  -13.8260    1.0000 </r>
       <r>  -13.0893    1.0000 </r>
       <r>  -12.8891    1.0000 </r>
       <r>  -12.6155    1.0000 </r>
       <r>  -12.6147    1.0000 </r>
       <r>  -12.4419    1.0000 </r>
       <r>  -12.3417    1.0000 </r>
       <r>   -0.7475    1.0000 </r>
       <r>   -0.5246    1.0000 </r>
       <r>   -0.5187    1.0000 </r>
       <r>   -0.2934    1.0000 </r>
       <r>   -0.0116    1.0000 </r>
       <r>    0.1724    1.0000 </r>
       <r>    0.6445    1.0000 </r>
       <r>    0.8131    1.0000 </r>
       <r>    1.0239    1.0000 </r>
       <r>    1.0252    1.0000 </r>
       <r>    1.3513    1.0000 </r>
       <r>    1.4793    1.0000 </r>
       <r>    1.5460    1.0000 </r>
       <r>    1.8946    1.0000 </r>
       <r>    1.9226    1.0000 </r>
       <r>    2.2206    1.0000 </r>
       <r>    2.2977    1.0000 </r>
       <r>    2.5504    1.0000 </r>
       <r>    2.6509    1.0000 </r>
       <r>    2.6855    1.0000 </r>
       <r>    2.8024    1.0000 </r>
       <r>    5.9527    0.0000 </r>
       <r>    8.9904    0.0000 </r>
       <r>    9.6049    0.0000 </r>
       <r>    9.8963    0.0000 </r>
       <r>   11.3502    0.0000 </r>
       <r>   12.0514    0.0000 </r>
       <r>   12.8433    0.0000 </r>
       <r>   13.0911    0.0000 </r>
       <r>   13.2387    0.0000 </r>
       <r>   13.6597    0.0000 </r>
       <r>   13.8813    0.0000 </r>
       <r>   14.3049    0.0000 </r>
       <r>   14.4633    0.0000 </r>
[...]
        <r>  0.0125  0.0005  0.0080  0.0073  0.0000  0.0000  0.0000  0.0000  0.0000 </r>
        <r>  0.0186  0.0209  0.0114  0.0038  0.0000  0.0000  0.0000  0.0000  0.0000 </r>
        <r>  0.0034  0.0105  0.0049  0.0085  0.0000  0.0000  0.0000  0.0000  0.0000 </r>
        <r>  0.0038  0.0113  0.0097  0.0014  0.0000  0.0000  0.0000  0.0000  0.0000 </r>
        <r>  0.0005  0.0047  0.0076  0.0049  0.0000  0.0000  0.0000  0.0000  0.0000 </r>
        <r>  0.0077  0.0057  0.0130  0.0016  0.0000  0.0000  0.0000  0.0000  0.0000 </r>
        <r>  0.0018  0.0047  0.0269  0.0025  0.0000  0.0000  0.0000  0.0000  0.0000 </r>
       </set>
       <set comment="band 37">
        <r>  0.0011  0.0078  0.0039  0.0007  0.0025  0.0007  0.0016  0.0018  0.0013 </r>
        <r>  0.0074  0.0050  0.0052  0.0021  0.0003  0.0021  0.0001  0.0003  0.0002 </r>
        <r>  0.0024  0.0052  0.0036  0.0147  0.0013  0.0038  0.0016  0.0018  0.0005 </r>
        <r>  0.0050  0.0019  0.0005  0.0065  0.0004  0.0015  0.0010  0.0036  0.0001 </r>
        <r>  0.0093  0.0071  0.0049  0.0003  0.0001  0.0009  0.0006  0.0016  0.0004 </r>
        <r>  0.0189  0.0092  0.0070  0.0011  0.0025  0.0016  0.0010  0.0057  0.0000 </r>
        <r>  0.0042  0.0026  0.0031  0.0041  0.0033  0.0018  0.0003  0.0018  0.0004 </r>
        <r>  0.0032  0.0024  0.0017  0.0021  0.0035  0.0010  0.0007  0.0030  0.0001 </r>
        <r>  0.0062  0.0031  0.0024  0.0023  0.0031  0.0002  0.0004  0.0022  0.0000 </r>
        <r>  0.0004  0.0178  0.0212  0.0164  0.0000  0.0000  0.0000  0.0000  0.0000 </r>
        <r>  0.0030  0.0044  0.0268  0.0136  0.0000  0.0000  0.0000  0.0000  0.0000 </r>
        <r>  0.0041  0.0052  0.0083  0.0002  0.0000  0.0000  0.0000  0.0000  0.0000 </r>
        <r>  0.0045  0.0018  0.0026  0.0087  0.0000  0.0000  0.0000  0.0000  0.0000 </r>
        <r>  0.0124  0.0051  0.0004  0.0030  0.0000  0.0000  0.0000  0.0000  0.0000 </r>
        <r>  0.0148  0.0085  0.0011  0.0008  0.0000  0.0000  0.0000  0.0000  0.0000 </r>
        <r>  0.0017  0.0059  0.0038  0.0176  0.0000  0.0000  0.0000  0.0000  0.0000 </r>
       </set>
       <set comment="band 38">
        <r>  0.0018  0.0062  0.0024  0.0189  0.0016  0.0117  0.0019  0.0030  0.0056 </r>
        <r>  0.0125  0.0034  0.0014  0.0030  0.0006  0.0003  0.0008  0.0008  0.0001 </r>
        <r>  0.0063  0.0005  0.0011  0.0053  0.0007  0.0002  0.0015  0.0031  0.0002 </r>
        <r>  0.0428  0.0014  0.0027  0.0041  0.0028  0.0007  0.0000  0.0014  0.0001 </r>
        <r>  0.0185  0.0007  0.0059  0.0044  0.0005  0.0019  0.0003  0.0022  0.0000 </r>
        <r>  0.0351  0.0032  0.0112  0.0077  0.0050  0.0017  0.0007  0.0045  0.0014 </r>
        <r>  0.0231  0.0026  0.0056  0.0003  0.0010  0.0007  0.0004  0.0014  0.0001 </r>
        <r>  0.0011  0.0029  0.0002  0.0058  0.0016  0.0012  0.0002  0.0006  0.0001 </r>
        <r>  0.0192  0.0044  0.0007  0.0018  0.0017  0.0009  0.0003  0.0002  0.0001 </r>
        <r>  0.0017  0.0067  0.0056  0.0037  0.0000  0.0000  0.0000  0.0000  0.0000 </r>
        <r>  0.0030  0.0044  0.0058  0.0149  0.0000  0.0000  0.0000  0.0000  0.0000 </r>
        <r>  0.0115  0.0051  0.0048  0.0130  0.0000  0.0000  0.0000  0.0000  0.0000 </r>
        <r>  0.0006  0.0022  0.0181  0.0023  0.0000  0.0000  0.0000  0.0000  0.0000 </r>
        <r>  0.0117  0.0056  0.0118  0.0039  0.0000  0.0000  0.0000  0.0000  0.0000 </r>
        <r>  0.0030  0.0047  0.0091  0.0023  0.0000  0.0000  0.0000  0.0000  0.0000 </r>
        <r>  0.0029  0.0083  0.0011  0.0005  0.0000  0.0000  0.0000  0.0000  0.0000 </r>
       </set>
       <set comment="band 39">
        <r>  0.0060  0.0007  0.0017  0.0068  0.0007  0.0062  0.0051  0.0022  0.0051 </r>
        <r>  0.0117  0.0032  0.0008  0.0029  0.0098  0.0009  0.0003  0.0007  0.0004 </r>
        <r>  0.0066  0.0017  0.0002  0.0025  0.0098  0.0026  0.0001  0.0019  0.0004 </r>
        <r>  0.0119  0.0012  0.0001  0.0047  0.0063  0.0027  0.0010  0.0003  0.0001 </r>
        <r>  0.0001  0.0031  0.0001  0.0042  0.0068  0.0010  0.0002  0.0015  0.0001 </r>
        <r>  0.0064  0.0046  0.0000  0.0026  0.0067  0.0015  0.0002  0.0013  0.0001 </r>
        <r>  0.0052  0.0013  0.0020  0.0044  0.0062  0.0003  0.0000  0.0003  0.0001 </r>
        <r>  0.0021  0.0070  0.0012  0.0068  0.0090  0.0001  0.0001  0.0005  0.0001 </r>
        <r>  0.0102  0.0008  0.0009  0.0053  0.0075  0.0006  0.0001  0.0021  0.0000 </r>
        <r>  0.0030  0.0079  0.0108  0.0089  0.0000  0.0000  0.0000  0.0000  0.0000 </r>
        <r>  0.0003  0.0031  0.0029  0.0011  0.0000  0.0000  0.0000  0.0000  0.0000 </r>
        <r>  0.0036  0.0040  0.0121  0.0006  0.0000  0.0000  0.0000  0.0000  0.0000 </r>
        <r>  0.0031  0.0113  0.0017  0.0023  0.0000  0.0000  0.0000  0.0000  0.0000 </r>
        <r>  0.0018  0.0149  0.0032  0.0121  0.0000  0.0000  0.0000  0.0000  0.0000 </r>
        <r>  0.0005  0.0066  0.0031  0.0132  0.0000  0.0000  0.0000  0.0000  0.0000 </r>
        <r>  0.0066  0.0013  0.0016  0.0022  0.0000  0.0000  0.0000  0.0000  0.0000 </r>
       </set>
       <set comment="band 40">
        <r>  0.0024  0.0059  0.0212  0.0024  0.0085  0.0005  0.0054  0.0035  0.0034 </r>
        <r>  0.0429  0.0032  0.0008  0.0053  0.0010  0.0008  0.0000  0.0010  0.0000 </r>
        <r>  0.0281  0.0075  0.0075  0.0045  0.0048  0.0037  0.0000  0.0043  0.0001 </r>
        <r>  0.0014  0.0084  0.0017  0.0004  0.0028  0.0007  0.0003  0.0013  0.0003 </r>
        <r>  0.0337  0.0018  0.0053  0.0001  0.0036  0.0019  0.0000  0.0012  0.0003 </r>
        <r>  0.0010  0.0009  0.0006  0.0058  0.0009  0.0004  0.0006  0.0043  0.0009 </r>
        <r>  0.0121  0.0034  0.0045  0.0045  0.0011  0.0027  0.0004  0.0003  0.0001 </r>
        <r>  0.0222  0.0006  0.0077  0.0027  0.0006  0.0003  0.0010  0.0017  0.0003 </r>
        <r>  0.0065  0.0017  0.0001  0.0005  0.0013  0.0014  0.0005  0.0001  0.0002 </r>
        <r>  0.0002  0.0048  0.0209  0.0017  0.0000  0.0000  0.0000  0.0000  0.0000 </r>
        <r>  0.0018  0.0172  0.0087  0.0009  0.0000  0.0000  0.0000  0.0000  0.0000 </r>
        <r>  0.0018  0.0034  0.0084  0.0047  0.0000  0.0000  0.0000  0.0000  0.0000 </r>
        <r>  0.0041  0.0219  0.0006  0.0221  0.0000  0.0000  0.0000  0.0000  0.0000 </r>
        <r>  0.0030  0.0024  0.0021  0.0021  0.0000  0.0000  0.0000  0.0000  0.0000 </r>
        <r>  0.0034  0.0052  0.0060  0.0074  0.0000  0.0000  0.0000  0.0000  0.0000 </r>
        <r>  0.0042  0.0060  0.0097  0.0026  0.0000  0.0000  0.0000  0.0000  0.0000 </r>
       </set>
       <set comment="band 41">
        <r>  0.0128  0.0102  0.0038  0.0008  0.0020  0.0028  0.0061  0.0093  0.0017 </r>
        <r>  0.0010  0.0013  0.0032  0.0055  0.0025  0.0009  0.0008  0.0029  0.0001 </r>
        <r>  0.0064  0.0007  0.0020  0.0001  0.0023  0.0004  0.0006  0.0001  0.0003 </r>
        <r>  0.0254  0.0068  0.0072  0.0032  0.0009  0.0041  0.0001  0.0016  0.0008 </r>
        <r>  0.0046  0.0001  0.0035  0.0007  0.0009  0.0052  0.0002  0.0011  0.0000 </r>
        <r>  0.0012  0.0021  0.0004  0.0016  0.0029  0.0010  0.0005  0.0015  0.0002 </r>
        <r>  0.0098  0.0039  0.0035  0.0003  0.0011  0.0010  0.0004  0.0094  0.0002 </r>
        <r>  0.0065  0.0103  0.0012  0.0024  0.0032  0.0027  0.0000  0.0006  0.0000 </r>
        <r>  0.0182  0.0052  0.0028  0.0082  0.0013  0.0003  0.0001  0.0024  0.0002 </r>
        <r>  0.0001  0.0033  0.0092  0.0072  0.0000  0.0000  0.0000  0.0000  0.0000 </r>
        <r>  0.0040  0.0058  0.0018  0.0037  0.0000  0.0000  0.0000  0.0000  0.0000 </r>
        <r>  0.0062  0.0060  0.0033  0.0124  0.0000  0.0000  0.0000  0.0000  0.0000 </r>
        <r>  0.0008  0.0068  0.0379  0.0224  0.0000  0.0000  0.0000  0.0000  0.0000 </r>
        <r>  0.0003  0.0146  0.0052  0.0161  0.0000  0.0000  0.0000  0.0000  0.0000 </r>
        <r>  0.0027  0.0028  0.0172  0.0049  0.0000  0.0000  0.0000  0.0000  0.0000 </r>
        <r>  0.0012  0.0053  0.0033  0.0007  0.0000  0.0000  0.0000  0.0000  0.0000 </r>
       </set>
       <set comment="band 42">
        <r>  0.0004  0.0026  0.0007  0.0011  0.0002  0.0003  0.0042  0.0006  0.0019 </r>
        <r>  0.0029  0.0016  0.0027  0.0050  0.0059  0.0009  0.0001  0.0026  0.0004 </r>
        <r>  0.0025  0.0002  0.0027  0.0014  0.0058  0.0039  0.0005  0.0041  0.0001 </r>
        <r>  0.0070  0.0001  0.0047  0.0014  0.0000  0.0042  0.0012  0.0083  0.0003 </r>
        <r>  0.0082  0.0005  0.0018  0.0003  0.0016  0.0016  0.0000  0.0046  0.0000 </r>
        <r>  0.0027  0.0009  0.0015  0.0001  0.0012  0.0032  0.0004  0.0004  0.0001 </r>
        <r>  0.0072  0.0019  0.0025  0.0007  0.0013  0.0002  0.0003  0.0088  0.0002 </r>
        <r>  0.0012  0.0068  0.0001  0.0022  0.0077  0.0030  0.0001  0.0027  0.0001 </r>
        <r>  0.0190  0.0009  0.0021  0.0011  0.0044  0.0000  0.0000  0.0082  0.0000 </r>
        <r>  0.0006  0.0016  0.0109  0.0015  0.0000  0.0000  0.0000  0.0000  0.0000 </r>
        <r>  0.0002  0.0021  0.0128  0.0021  0.0000  0.0000  0.0000  0.0000  0.0000 </r>
        <r>  0.0013  0.0045  0.0054  0.0011  0.0000  0.0000  0.0000  0.0000  0.0000 </r>
        <r>  0.0018  0.0094  0.0237  0.0180  0.0000  0.0000  0.0000  0.0000  0.0000 </r>
        <r>  0.0003  0.0246  0.0047  0.0057  0.0000  0.0000  0.0000  0.0000  0.0000 </r>
        <r>  0.0005  0.0053  0.0229  0.0120  0.0000  0.0000  0.0000  0.0000  0.0000 </r>
        <r>  0.0008  0.0152  0.0108  0.0072  0.0000  0.0000  0.0000  0.0000  0.0000 </r>
       </set>
       <set comment="band 43">
        <r>  0.0009  0.0005  0.0025  0.0017  0.0026  0.0059  0.0116  0.0027  0.0017 </r>
        <r>  0.0053  0.0046  0.0023  0.0013  0.0007  0.0001  0.0005  0.0003  0.0003 </r>
        <r>  0.0377  0.0008  0.0058  0.0121  0.0002  0.0046  0.0012  0.0017  0.0009 </r>
        <r>  0.0022  0.0002  0.0005  0.0033  0.0028  0.0068  0.0022  0.0050  0.0002 </r>
        <r>  0.0013  0.0018  0.0022  0.0067  0.0020  0.0008  0.0004  0.0082  0.0008 </r>
        <r>  0.0001  0.0001  0.0092  0.0035  0.0012  0.0006  0.0015  0.0000  0.0007 </r>
        <r>  0.0107  0.0029  0.0025  0.0035  0.0016  0.0018  0.0002  0.0044  0.0008 </r>
        <r>  0.0006  0.0009  0.0065  0.0107  0.0011  0.0015  0.0009  0.0038  0.0003 </r>
        <r>  0.0066  0.0009  0.0035  0.0072  0.0014  0.0036  0.0001  0.0012  0.0000 </r>
        <r>  0.0017  0.0032  0.0091  0.0012  0.0000  0.0000  0.0000  0.0000  0.0000 </r>
        <r>  0.0021  0.0015  0.0152  0.0276  0.0000  0.0000  0.0000  0.0000  0.0000 </r>
        <r>  0.0013  0.0030  0.0021  0.0146  0.0000  0.0000  0.0000  0.0000  0.0000 </r>
        <r>  0.0015  0.0007  0.0009  0.0103  0.0000  0.0000  0.0000  0.0000  0.0000 </r>
        <r>  0.0011  0.0003  0.0138  0.0141  0.0000  0.0000  0.0000  0.0000  0.0000 </r>
        <r>  0.0006  0.0058  0.0175  0.0166  0.0000  0.0000  0.0000  0.0000  0.0000 </r>
        <r>  0.0016  0.0096  0.0154  0.0100  0.0000  0.0000  0.0000  0.0000  0.0000 </r>
       </set>
       <set comment="band 44">
        <r>  0.0034  0.0002  0.0035  0.0007  0.0022  0.0007  0.0004  0.0041  0.0103 </r>
        <r>  0.0123  0.0030  0.0021  0.0055  0.0021  0.0050  0.0000  0.0009  0.0001 </r>
        <r>  0.0047  0.0093  0.0008  0.0044  0.0013  0.0019  0.0002  0.0028  0.0008 </r>
        <r>  0.0013  0.0005  0.0074  0.0023  0.0017  0.0011  0.0010  0.0025  0.0001 </r>
        <r>  0.0081  0.0033  0.0013  0.0033  0.0006  0.0045  0.0003  0.0006  0.0000 </r>
        <r>  0.0116  0.0029  0.0015  0.0011  0.0009  0.0120  0.0000  0.0026  0.0001 </r>
        <r>  0.0059  0.0023  0.0014  0.0008  0.0011  0.0112  0.0002  0.0012  0.0005 </r>
        <r>  0.0006  0.0092  0.0010  0.0015  0.0010  0.0073  0.0001  0.0005  0.0001 </r>
        <r>  0.0011  0.0078  0.0010  0.0007  0.0010  0.0008  0.0001  0.0014  0.0000 </r>
        <r>  0.0001  0.0159  0.0040  0.0106  0.0000  0.0000  0.0000  0.0000  0.0000 </r>
        <r>  0.0003  0.0103  0.0043  0.0088  0.0000  0.0000  0.0000  0.0000  0.0000 </r>
        <r>  0.0006  0.0164  0.0172  0.0032  0.0000  0.0000  0.0000  0.0000  0.0000 </r>
        <r>  0.0000  0.0271  0.0108  0.0163  0.0000  0.0000  0.0000  0.0000  0.0000 </r>
        <r>  0.0001  0.0254  0.0052  0.0065  0.0000  0.0000  0.0000  0.0000  0.0000 </r>
        <r>  0.0001  0.0043  0.0113  0.0031  0.0000  0.0000  0.0000  0.0000  0.0000 </r>
        <r>  0.0015  0.0117  0.0019  0.0057  0.0000  0.0000  0.0000  0.0000  0.0000 </r>
       </set>
       <set comment="band 45">
        <r>  0.0023  0.0005  0.0176  0.0026  0.0102  0.0017  0.0028  0.0002  0.0014 </r>
        <r>  0.0216  0.0043  0.0099  0.0013  0.0009  0.0028  0.0002  0.0119  0.0001 </r>
        <r>  0.0012  0.0022  0.0040  0.0003  0.0026  0.0042  0.0012  0.0005  0.0000 </r>
        <r>  0.0104  0.0017  0.0009  0.0014  0.0039  0.0006  0.0000  0.0063  0.0006 </r>
        <r>  0.0061  0.0011  0.0036  0.0022  0.0043  0.0061  0.0002  0.0017  0.0000 </r>
        <r>  0.0011  0.0008  0.0101  0.0019  0.0023  0.0057  0.0009  0.0016  0.0006 </r>
        <r>  0.0043  0.0027  0.0145  0.0019  0.0017  0.0002  0.0007  0.0033  0.0000 </r>
        <r>  0.0083  0.0001  0.0015  0.0023  0.0000  0.0001  0.0005  0.0044  0.0001 </r>
        <r>  0.0010  0.0017  0.0033  0.0041  0.0002  0.0065  0.0001  0.0017  0.0001 </r>
        <r>  0.0012  0.0001  0.0123  0.0008  0.0000  0.0000  0.0000  0.0000  0.0000 </r>
        <r>  0.0001  0.0198  0.0122  0.0013  0.0000  0.0000  0.0000  0.0000  0.0000 </r>
        <r>  0.0012  0.0011  0.0050  0.0079  0.0000  0.0000  0.0000  0.0000  0.0000 </r>
        <r>  0.0001  0.0070  0.0113  0.0028  0.0000  0.0000  0.0000  0.0000  0.0000 </r>
        <r>  0.0001  0.0005  0.0308  0.0035  0.0000  0.0000  0.0000  0.0000  0.0000 </r>
        <r>  0.0006  0.0031  0.0104  0.0033  0.0000  0.0000  0.0000  0.0000  0.0000 </r>
        <r>  0.0001  0.0031  0.0094  0.0071  0.0000  0.0000  0.0000  0.0000  0.0000 </r>
       </set>
       <set comment="band 46">
        <r>  0.0027  0.0015  0.0022  0.0002  0.0065  0.0018  0.0055  0.0008  0.0003 </r>
        <r>  0.0258  0.0003  0.0015  0.0039  0.0055  0.0044  0.0001  0.0027  0.0001 </r>
        <r>  0.0027  0.0021  0.0029  0.0001  0.0118  0.0037  0.0032  0.0017  0.0001 </r>
        <r>  0.0036  0.0078  0.0050  0.0019  0.0008  0.0012  0.0009  0.0056  0.0002 </r>
        <r>  0.0067  0.0013  0.0019  0.0011  0.0000  0.0076  0.0003  0.0018  0.0000 </r>
        <r>  0.0100  0.0018  0.0052  0.0006  0.0053  0.0023  0.0008  0.0014  0.0003 </r>
        <r>  0.0029  0.0008  0.0087  0.0033  0.0025  0.0037  0.0004  0.0002  0.0002 </r>
        <r>  0.0183  0.0027  0.0021  0.0007  0.0029  0.0050  0.0007  0.0012  0.0000 </r>
        <r>  0.0058  0.0018  0.0144  0.0049  0.0035  0.0004  0.0005  0.0005  0.0000 </r>
        <r>  0.0005  0.0001  0.0159  0.0034  0.0000  0.0000  0.0000  0.0000  0.0000 </r>
        <r>  0.0007  0.0003  0.0008  0.0012  0.0000  0.0000  0.0000  0.0000  0.0000 </r>
        <r>  0.0002  0.0022  0.0174  0.0068  0.0000  0.0000  0.0000  0.0000  0.0000 </r>
        <r>  0.0007  0.0014  0.0146  0.0002  0.0000  0.0000  0.0000  0.0000  0.0000 </r>
        <r>  0.0001  0.0002  0.0019  0.0008  0.0000  0.0000  0.0000  0.0000  0.0000 </r>
        <r>  0.0004  0.0105  0.0185  0.0001  0.0000  0.0000  0.0000  0.0000  0.0000 </r>
        <r>  0.0001  0.0016  0.0201  0.0127  0.0000  0.0000  0.0000  0.0000  0.0000 </r>
       </set>
       <set comment="band 47">
        <r>  0.0436  0.0086  0.0016  0.0040  0.0009  0.0037  0.0026  0.0029  0.0011 </r>
        <r>  0.0239  0.0050  0.0089  0.0021  0.0097  0.0009  0.0007  0.0049  0.0002 </r>
        <r>  0.0000  0.0097  0.0007  0.0002  0.0027  0.0004  0.0007  0.0034  0.0004 </r>
        <r>  0.0009  0.0018  0.0044  0.0012  0.0127  0.0010  0.0001  0.0002  0.0009 </r>
        <r>  0.0137  0.0025  0.0007  0.0014  0.0105  0.0002  0.0004  0.0001  0.0003 </r>
        <r>  0.0095  0.0048  0.0004  0.0005  0.0030  0.0016  0.0004  0.0005  0.0007 </r>
        <r>  0.0262  0.0001  0.0007  0.0057  0.0082  0.0005  0.0000  0.0011  0.0001 </r>
        <r>  0.0003  0.0067  0.0012  0.0017  0.0082  0.0002  0.0004  0.0012  0.0000 </r>
        <r>  0.0191  0.0004  0.0011  0.0022  0.0066  0.0027  0.0009  0.0000  0.0002 </r>
        <r>  0.0014  0.0002  0.0168  0.0078  0.0000  0.0000  0.0000  0.0000  0.0000 </r>
        <r>  0.0007  0.0140  0.0053  0.0027  0.0000  0.0000  0.0000  0.0000  0.0000 </r>
        <r>  0.0014  0.0059  0.0062  0.0096  0.0000  0.0000  0.0000  0.0000  0.0000 </r>
        <r>  0.0004  0.0004  0.0052  0.0093  0.0000  0.0000  0.0000  0.0000  0.0000 </r>
        <r>  0.0005  0.0014  0.0012  0.0023  0.0000  0.0000  0.0000  0.0000  0.0000 </r>
        <r>  0.0005  0.0075  0.0043  0.0028  0.0000  0.0000  0.0000  0.0000  0.0000 </r>
        <r>  0.0001  0.0019  0.0010  0.0174  0.0000  0.0000  0.0000  0.0000  0.0000 </r>
       </set>
       <set comment="band 48">
        <r>  0.0139  0.0016  0.0009  0.0052  0.0040  0.0034  0.0048  0.0046  0.0051 </r>
        <r>  0.0020  0.0040  0.0013  0.0092  0.0008  0.0069  0.0000  0.0005  0.0000 </r>
        <r>  0.0174  0.0081  0.0053  0.0027  0.0002  0.0016  0.0011  0.0013  0.0001 </r>
        <r>  0.0120  0.0046  0.0186  0.0021  0.0001  0.0001  0.0009  0.0003  0.0020 </r>
        <r>  0.0113  0.0025  0.0180  0.0022  0.0005  0.0001  0.0007  0.0001  0.0004 </r>
        <r>  0.0172  0.0001  0.0044  0.0015  0.0026  0.0014  0.0001  0.0001  0.0002 </r>
        <r>  0.0562  0.0003  0.0045  0.0008  0.0012  0.0006  0.0002  0.0000  0.0002 </r>
        <r>  0.0776  0.0021  0.0009  0.0044  0.0002  0.0021  0.0004  0.0012  0.0000 </r>
        <r>  0.0045  0.0009  0.0009  0.0001  0.0001  0.0012  0.0004  0.0004  0.0003 </r>
        <r>  0.0001  0.0095  0.0002  0.0054  0.0000  0.0000  0.0000  0.0000  0.0000 </r>
        <r>  0.0001  0.0185  0.0008  0.0094  0.0000  0.0000  0.0000  0.0000  0.0000 </r>
        <r>  0.0011  0.0055  0.0032  0.0044  0.0000  0.0000  0.0000  0.0000  0.0000 </r>
        <r>  0.0002  0.0067  0.0005  0.0034  0.0000  0.0000  0.0000  0.0000  0.0000 </r>
        <r>  0.0003  0.0018  0.0255  0.0112  0.0000  0.0000  0.0000  0.0000  0.0000 </r>
        <r>  0.0007  0.0027  0.0074  0.0011  0.0000  0.0000  0.0000  0.0000  0.0000 </r>
        <r>  0.0001  0.0067  0.0016  0.0011  0.0000  0.0000  0.0000  0.0000  0.0000 </r>
       </set>
      </set>
     </set>
    </set>
   </array>
  </projected>
 </calculation>
 <structure name="finalpos" >
  <crystal>
   <varray name="basis" >
    <v>       0.00000000       4.24689300       4.24689300 </v>
    <v>       4.24689300       0.00000000       4.24689300 </v>
    <v>       4.24689300       4.24689300       0.00000000 </v>
   </varray>
   <i name="volume">    153.19477498 </i>
   <varray name="rec_basis" >
    <v>      -0.11773313       0.11773313       0.11773313 </v>
    <v>       0.11773313      -0.11773313       0.11773313 </v>
    <v>       0.11773313       0.11773313      -0.11773313 </v>
   </varray>
  </crystal>
  <varray name="positions" >
   <v>       0.16365879       0.16234429       0.16149484 </v>
   <v>       0.99978887       0.99941905       0.99759762 </v>
   <v>       0.96878780       0.96833795       0.56956562 </v>
   <v>       0.96877184       0.57064615       0.96669808 </v>
   <v>       0.99610129       0.51109843       0.50849468 </v>
   <v>       0.57157043       0.96856692       0.96617934 </v>
   <v>       0.51110793       0.99575241       0.50908326 </v>
   <v>       0.51113229       0.51077870       0.99384787 </v>
   <v>       0.50788052       0.50744760       0.50565873 </v>
   <v>       0.25747215       0.25628216       0.77305455 </v>
   <v>       0.25722164       0.77377062       0.25507997 </v>
   <v>       0.24944688       0.75774997       0.75624330 </v>
   <v>       0.77540421       0.25657905       0.25494324 </v>
   <v>       0.75834264       0.24937592       0.75590186 </v>
   <v>       0.75799104       0.75808716       0.24715058 </v>
   <v>       0.74658969       0.74609064       0.74422145 </v>
  </varray>
 </structure>
</modeling>
