 running on   16 total cores
 distrk:  each k-point on   16 cores,    1 groups
 distr:  one band on    1 cores,   16 groups
 using from now: INCAR     
 vasp.5.3.3 18Dez12 (build Mar 11 2013 19:18:40) complex                        
  
 POSCAR found type information on POSCAR  Li Ti O 
 POSCAR found :  3 types and     191 ions

 ----------------------------------------------------------------------------- 
|                                                                             |
|           W    W    AA    RRRRR   N    N  II  N    N   GGGG   !!!           |
|           W    W   A  A   R    R  NN   N  II  NN   N  G    G  !!!           |
|           W    W  A    A  R    R  N N  N  II  N N  N  G       !!!           |
|           W WW W  AAAAAA  RRRRR   N  N N  II  N  N N  G  GGG   !            |
|           WW  WW  A    A  R   R   N   NN  II  N   NN  G    G                |
|           W    W  A    A  R    R  N    N  II  N    N   GGGG   !!!           |
|                                                                             |
|      For optimal performance we recommend that you set                      |
|        NPAR = 4 - approx SQRT( number of cores)                             |
|      (number of cores/NPAR must be integer)                                 |
|      This setting will greatly improve the performance of VASP for DFT.     |
|      The default NPAR=number of cores might be grossly inefficient          |
|      on modern multi-core architectures or massively parallel machines.     |
|      Do your own testing.                                                   |
|      Unfortunately you need to use the default for hybrid, GW and RPA       |
|      calculations.                                                          |
|                                                                             |
 ----------------------------------------------------------------------------- 


 ----------------------------------------------------------------------------- 
|                                                                             |
|  ADVICE TO THIS USER RUNNING 'VASP/VAMP'   (HEAR YOUR MASTER'S VOICE ...):  |
|                                                                             |
|      You have a (more or less) 'large supercell' and for larger cells       |
|      it might be more efficient to use real space projection opertators     |
|      So try LREAL= Auto  in the INCAR   file.                               |
|      Mind: At the moment your POTCAR file does not contain real space       |
|       projectors, and has to be modified,  BUT if you                       |
|      want to do an extremely  accurate calculation you might also keep the  |
|      reciprocal projection scheme          (i.e. LREAL=.FALSE.)             |
|                                                                             |
 ----------------------------------------------------------------------------- 

 LDA part: xc-table for Pade appr. of Perdew
 POSCAR, INCAR and KPOINTS ok, starting setup
 WARNING: small aliasing (wrap around) errors must be expected
 FFT: planning ...
 WAVECAR not read
 WARNING: random wavefunctions but no delay for mixing, default for NELMDL
 entering main loop
       N       E                     dE             d eps       ncg     rms          rms(c)
DAV:   1     0.861012058612E+04    0.86101E+04   -0.26882E+05  3840   0.123E+03
DAV:   2     0.893468362239E+03   -0.77167E+04   -0.71859E+04  3904   0.355E+02
DAV:   3    -0.148064082526E+04   -0.23741E+04   -0.23140E+04  4352   0.196E+02
DAV:   4    -0.167878157300E+04   -0.19814E+03   -0.19697E+03  5856   0.629E+01
DAV:   5    -0.168418300098E+04   -0.54014E+01   -0.53918E+01  5392   0.111E+01BRMIX: very serious problems
 the old and the new charge density differ
 old charge density:   762.00000 new  760.00001
    0.168E+02
DAV:   6    -0.135290676482E+04    0.33128E+03   -0.18552E+03  5520   0.628E+01    0.546E+01
DAV:   7    -0.135876224698E+04   -0.58555E+01   -0.39855E+02  5584   0.385E+01    0.555E+01
DAV:   8    -0.135406406554E+04    0.46982E+01   -0.15469E+02  4720   0.252E+01    0.342E+01
DAV:   9    -0.134556440574E+04    0.84997E+01   -0.45159E+01  4528   0.164E+01    0.328E+00
DAV:  10    -0.134569162187E+04   -0.12722E+00   -0.25938E+00  4144   0.257E+00    0.314E+00
DAV:  11    -0.134555516685E+04    0.13646E+00   -0.13019E+00  5488   0.180E+00    0.192E+00
DAV:  12    -0.134554159438E+04    0.13572E-01   -0.42203E-01  3968   0.108E+00    0.120E+00
DAV:  13    -0.134552803562E+04    0.13559E-01   -0.33235E-02  5232   0.356E-01    0.768E-01
DAV:  14    -0.134552160295E+04    0.64327E-02   -0.32581E-02  4352   0.251E-01    0.322E-01
DAV:  15    -0.134552086459E+04    0.73836E-03   -0.57575E-03  5488   0.132E-01    0.201E-01
DAV:  16    -0.134552112937E+04   -0.26478E-03   -0.24093E-03  5552   0.100E-01    0.107E-01
DAV:  17    -0.134552109640E+04    0.32971E-04   -0.45195E-04  4608   0.471E-02    0.889E-02
DAV:  18    -0.134552104609E+04    0.50313E-04   -0.33991E-04  4512   0.328E-02    0.498E-02
DAV:  19    -0.134552102838E+04    0.17707E-04   -0.95248E-05  5168   0.173E-02    0.280E-02
DAV:  20    -0.134552102187E+04    0.65153E-05   -0.50839E-05  5248   0.150E-02    0.756E-03
DAV:  21    -0.134552102680E+04   -0.49309E-05   -0.25287E-05  4256   0.865E-03    0.105E-02
DAV:  22    -0.134552102750E+04   -0.70628E-06   -0.36205E-06  3808   0.389E-03
   1 F= -.13455210E+04 E0= -.13455210E+04  d E =-.134552E+04
 curvature:   0.00 expect dE= 0.000E+00 dE for cont linesearch  0.000E+00
 trial: gam= 0.00000 g(F)=  0.809E-02 g(S)=  0.000E+00 ort = 0.000E+00 (trialstep = 0.100E+01)
 search vector abs. value=  0.809E-02
 bond charge predicted
       N       E                     dE             d eps       ncg     rms          rms(c)
DAV:   1    -0.134552236562E+04   -0.13388E-02   -0.11638E+00  3904   0.180E+00    0.296E-01
DAV:   2    -0.134552396643E+04   -0.16008E-02   -0.43553E-02  4672   0.475E-01    0.360E-01
DAV:   3    -0.134552416664E+04   -0.20021E-03   -0.92636E-03  4672   0.162E-01    0.263E-01
DAV:   4    -0.134552375107E+04    0.41557E-03   -0.24718E-03  5216   0.997E-02    0.220E-01
DAV:   5    -0.134552361961E+04    0.13146E-03   -0.30248E-03  4352   0.921E-02    0.155E-01
DAV:   6    -0.134552337264E+04    0.24697E-03   -0.52906E-04  5024   0.796E-02    0.124E-01
DAV:   7    -0.134552329013E+04    0.82506E-04   -0.14153E-03  4352   0.628E-02    0.484E-02
DAV:   8    -0.134552328888E+04    0.12519E-05   -0.18874E-04  4736   0.239E-02    0.249E-02
DAV:   9    -0.134552328810E+04    0.77819E-06   -0.19315E-05  5440   0.119E-02    0.183E-02
DAV:  10    -0.134552328520E+04    0.29036E-05   -0.10940E-05  4144   0.659E-03    0.135E-02
DAV:  11    -0.134552328329E+04    0.19079E-05   -0.17232E-05  4336   0.730E-03    0.419E-03
DAV:  12    -0.134552328342E+04   -0.12988E-06   -0.28007E-06  2672   0.325E-03
   2 F= -.13455233E+04 E0= -.13455233E+04  d E =-.225592E-02
 trial-energy change:   -0.002256  1 .order   -0.002284   -0.008086    0.003518
 step:   0.6938(harm=  0.6968)  dis= 0.00270  next Energy= -1345.523823 (dE=-0.280E-02)
 bond charge predicted
       N       E                     dE             d eps       ncg     rms          rms(c)
DAV:   1    -0.134552373107E+04   -0.44778E-03   -0.10916E-01  3968   0.551E-01    0.916E-02
DAV:   2    -0.134552388577E+04   -0.15470E-03   -0.41202E-03  4656   0.146E-01    0.110E-01
DAV:   3    -0.134552390504E+04   -0.19261E-04   -0.87935E-04  4608   0.501E-02    0.799E-02
DAV:   4    -0.134552386660E+04    0.38431E-04   -0.23877E-04  5232   0.311E-02    0.669E-02
DAV:   5    -0.134552385675E+04    0.98579E-05   -0.28271E-04  4352   0.282E-02    0.472E-02
DAV:   6    -0.134552383401E+04    0.22734E-04   -0.50799E-05  5056   0.244E-02    0.375E-02
DAV:   7    -0.134552382691E+04    0.71071E-05   -0.12926E-04  4352   0.189E-02    0.148E-02
DAV:   8    -0.134552382673E+04    0.17131E-06   -0.17185E-05  4752   0.726E-03    0.769E-03
DAV:   9    -0.134552382673E+04    0.51659E-09   -0.13290E-06  2128   0.367E-03
   3 F= -.13455238E+04 E0= -.13455238E+04  d E =-.279923E-02
 curvature:  -0.35 expect dE=-0.133E-02 dE for cont linesearch -0.622E-07
 trial: gam= 0.46612 g(F)=  0.381E-02 g(S)=  0.000E+00 ort = 0.380E-04 (trialstep = 0.939E+00)
 search vector abs. value=  0.560E-02
 bond charge predicted
       N       E                     dE             d eps       ncg     rms          rms(c)
DAV:   1    -0.134552499206E+04   -0.11653E-02   -0.61459E-01  3872   0.132E+00    0.165E-01
DAV:   2    -0.134552644883E+04   -0.14568E-02   -0.18730E-02  4256   0.250E-01    0.166E-01
DAV:   3    -0.134552638677E+04    0.62054E-04   -0.89970E-04  4816   0.548E-02    0.114E-01
DAV:   4    -0.134552628852E+04    0.98251E-04   -0.52036E-04  5264   0.480E-02    0.877E-02
DAV:   5    -0.134552625756E+04    0.30965E-04   -0.41191E-04  4384   0.362E-02    0.501E-02
DAV:   6    -0.134552623014E+04    0.27414E-04   -0.79256E-05  5408   0.216E-02    0.360E-02
DAV:   7    -0.134552622380E+04    0.63429E-05   -0.91584E-05  4528   0.162E-02    0.130E-02
DAV:   8    -0.134552622304E+04    0.75857E-06   -0.14315E-05  4640   0.742E-03    0.933E-03
DAV:   9    -0.134552622257E+04    0.47587E-06   -0.18234E-06  2176   0.323E-03
   4 F= -.13455262E+04 E0= -.13455262E+04  d E =-.239583E-02
 trial-energy change:   -0.002396  1 .order   -0.002409   -0.003590   -0.001227
 step:   1.4521(harm=  1.4262)  dis= 0.00418  next Energy= -1345.526556 (dE=-0.273E-02)
 bond charge predicted
       N       E                     dE             d eps       ncg     rms          rms(c)
DAV:   1    -0.134552616757E+04    0.55472E-04   -0.18421E-01  3840   0.721E-01    0.902E-02
DAV:   2    -0.134552660858E+04   -0.44101E-03   -0.56954E-03  4224   0.138E-01    0.910E-02
DAV:   3    -0.134552658990E+04    0.18675E-04   -0.27728E-04  4816   0.304E-02    0.625E-02
DAV:   4    -0.134552655945E+04    0.30455E-04   -0.15781E-04  5280   0.265E-02    0.483E-02
DAV:   5    -0.134552655016E+04    0.92855E-05   -0.12880E-04  4384   0.202E-02    0.279E-02
DAV:   6    -0.134552654136E+04    0.88003E-05   -0.24281E-05  5408   0.121E-02    0.202E-02
DAV:   7    -0.134552653923E+04    0.21332E-05   -0.29320E-05  4496   0.916E-03    0.724E-03
DAV:   8    -0.134552653895E+04    0.28187E-06   -0.45368E-06  3664   0.427E-03
   5 F= -.13455265E+04 E0= -.13455265E+04  d E =-.271222E-02
 curvature:  -1.04 expect dE=-0.370E-02 dE for cont linesearch -0.564E-06
 trial: gam= 0.95417 g(F)=  0.355E-02 g(S)=  0.000E+00 ort =-0.551E-04 (trialstep = 0.682E+00)
 search vector abs. value=  0.855E-02
 bond charge predicted
       N       E                     dE             d eps       ncg     rms          rms(c)
DAV:   1    -0.134552746130E+04   -0.92207E-03   -0.32809E-01  3840   0.960E-01    0.131E-01
DAV:   2    -0.134552825615E+04   -0.79484E-03   -0.10658E-02  4352   0.193E-01    0.143E-01
DAV:   3    -0.134552821926E+04    0.36885E-04   -0.64268E-04  4768   0.465E-02    0.962E-02
DAV:   4    -0.134552816301E+04    0.56249E-04   -0.37066E-04  5392   0.403E-02    0.794E-02
DAV:   5    -0.134552814277E+04    0.20246E-04   -0.28218E-04  4352   0.296E-02    0.444E-02
DAV:   6    -0.134552812031E+04    0.22456E-04   -0.64965E-05  5376   0.197E-02    0.297E-02
DAV:   7    -0.134552811725E+04    0.30606E-05   -0.84634E-05  4528   0.148E-02    0.100E-02
DAV:   8    -0.134552811698E+04    0.26902E-06   -0.77528E-06  4304   0.595E-03
   6 F= -.13455281E+04 E0= -.13455281E+04  d E =-.157803E-02
 trial-energy change:   -0.001578  1 .order   -0.001570   -0.002389   -0.000750
 step:   0.9809(harm=  0.9943)  dis= 0.00404  next Energy= -1345.528282 (dE=-0.174E-02)
 bond charge predicted
       N       E                     dE             d eps       ncg     rms          rms(c)
DAV:   1    -0.134552816449E+04   -0.47239E-04   -0.63016E-02  3840   0.421E-01    0.595E-02
DAV:   2    -0.134552831942E+04   -0.15493E-03   -0.20913E-03  4400   0.854E-02    0.633E-02
DAV:   3    -0.134552831287E+04    0.65501E-05   -0.13426E-04  4768   0.213E-02    0.420E-02
DAV:   4    -0.134552830272E+04    0.10147E-04   -0.74028E-05  5440   0.182E-02    0.351E-02
DAV:   5    -0.134552829964E+04    0.30846E-05   -0.56528E-05  4368   0.131E-02    0.199E-02
DAV:   6    -0.134552829507E+04    0.45678E-05   -0.12202E-05  5024   0.876E-03    0.134E-02
DAV:   7    -0.134552829446E+04    0.60696E-06   -0.17704E-05  4528   0.677E-03    0.437E-03
DAV:   8    -0.134552829439E+04    0.68205E-07   -0.13229E-06  2112   0.272E-03
   7 F= -.13455283E+04 E0= -.13455283E+04  d E =-.175545E-02
 curvature:  -1.21 expect dE=-0.350E-02 dE for cont linesearch -0.356E-06
 trial: gam= 0.77104 g(F)=  0.289E-02 g(S)=  0.000E+00 ort = 0.502E-04 (trialstep = 0.742E+00)
 search vector abs. value=  0.804E-02
 bond charge predicted
       N       E                     dE             d eps       ncg     rms          rms(c)
DAV:   1    -0.134552923358E+04   -0.93912E-03   -0.31061E-01  3840   0.932E-01    0.129E-01
DAV:   2    -0.134552992019E+04   -0.68660E-03   -0.98299E-03  4320   0.191E-01    0.149E-01
DAV:   3    -0.134552989953E+04    0.20660E-04   -0.73423E-04  4880   0.484E-02    0.103E-01
DAV:   4    -0.134552984484E+04    0.54690E-04   -0.34859E-04  5408   0.399E-02    0.852E-02
DAV:   5    -0.134552982095E+04    0.23883E-04   -0.31673E-04  4352   0.348E-02    0.510E-02
DAV:   6    -0.134552979900E+04    0.21955E-04   -0.97165E-05  5248   0.224E-02    0.373E-02
DAV:   7    -0.134552979305E+04    0.59547E-05   -0.80013E-05  4496   0.144E-02    0.167E-02
DAV:   8    -0.134552979198E+04    0.10643E-05   -0.10258E-05  4464   0.674E-03    0.112E-02
DAV:   9    -0.134552979120E+04    0.78519E-06   -0.22481E-06  2464   0.304E-03
   8 F= -.13455298E+04 E0= -.13455298E+04  d E =-.149680E-02
 trial-energy change:   -0.001497  1 .order   -0.001486   -0.002170   -0.000801
 step:   1.1453(harm=  1.1760)  dis= 0.00474  next Energy= -1345.530011 (dE=-0.172E-02)
 bond charge predicted
       N       E                     dE             d eps       ncg     rms          rms(c)
DAV:   1    -0.134552986068E+04   -0.68703E-04   -0.91949E-02  3840   0.508E-01    0.706E-02
DAV:   2    -0.134553006715E+04   -0.20647E-03   -0.29658E-03  4320   0.105E-01    0.813E-02
DAV:   3    -0.134553006210E+04    0.50572E-05   -0.23287E-04  4832   0.272E-02    0.567E-02
DAV:   4    -0.134553004568E+04    0.16417E-04   -0.10792E-04  5360   0.223E-02    0.472E-02
DAV:   5    -0.134553004054E+04    0.51335E-05   -0.10556E-04  4352   0.196E-02    0.293E-02
DAV:   6    -0.134553003294E+04    0.76095E-05   -0.29479E-05  5280   0.127E-02    0.218E-02
DAV:   7    -0.134553003074E+04    0.21995E-05   -0.27132E-05  4448   0.840E-03    0.968E-03
DAV:   8    -0.134553003032E+04    0.41241E-06   -0.31352E-06  3104   0.391E-03
   9 F= -.13455300E+04 E0= -.13455300E+04  d E =-.173593E-02
 curvature:  -1.61 expect dE=-0.333E-02 dE for cont linesearch -0.110E-05
 trial: gam= 0.73278 g(F)=  0.207E-02 g(S)=  0.000E+00 ort = 0.743E-04 (trialstep = 0.823E+00)
 search vector abs. value=  0.650E-02
 bond charge predicted
       N       E                     dE             d eps       ncg     rms          rms(c)
DAV:   1    -0.134553076522E+04   -0.73449E-03   -0.25014E-01  3840   0.835E-01    0.110E-01
DAV:   2    -0.134553129554E+04   -0.53032E-03   -0.77853E-03  4464   0.171E-01    0.115E-01
DAV:   3    -0.134553128060E+04    0.14940E-04   -0.66993E-04  4864   0.457E-02    0.748E-02
DAV:   4    -0.134553123745E+04    0.43146E-04   -0.24795E-04  5472   0.322E-02    0.639E-02
DAV:   5    -0.134553121591E+04    0.21546E-04   -0.19194E-04  4352   0.241E-02    0.353E-02
DAV:   6    -0.134553120115E+04    0.14754E-04   -0.35445E-05  5296   0.168E-02    0.241E-02
DAV:   7    -0.134553119946E+04    0.16901E-05   -0.72300E-05  4368   0.139E-02    0.843E-03
DAV:   8    -0.134553119937E+04    0.95599E-07   -0.63507E-06  4096   0.513E-03
  10 F= -.13455312E+04 E0= -.13455312E+04  d E =-.116904E-02
 trial-energy change:   -0.001169  1 .order   -0.001161   -0.001745   -0.000578
 step:   1.2078(harm=  1.2302)  dis= 0.00454  next Energy= -1345.531336 (dE=-0.131E-02)
 bond charge predicted
       N       E                     dE             d eps       ncg     rms          rms(c)
DAV:   1    -0.134553125057E+04   -0.51110E-04   -0.54937E-02  3840   0.391E-01    0.527E-02
DAV:   2    -0.134553136896E+04   -0.11839E-03   -0.17322E-03  4464   0.807E-02    0.542E-02
DAV:   3    -0.134553136607E+04    0.28978E-05   -0.15460E-04  4880   0.220E-02    0.348E-02
DAV:   4    -0.134553135697E+04    0.90964E-05   -0.56176E-05  5456   0.154E-02    0.298E-02
DAV:   5    -0.134553135284E+04    0.41304E-05   -0.41895E-05  4352   0.113E-02    0.166E-02
DAV:   6    -0.134553134958E+04    0.32577E-05   -0.72664E-06  4464   0.791E-03    0.113E-02
DAV:   7    -0.134553134930E+04    0.27797E-06   -0.16856E-05  4368   0.674E-03    0.390E-03
DAV:   8    -0.134553134925E+04    0.49316E-07   -0.11814E-06  2112   0.242E-03
  11 F= -.13455313E+04 E0= -.13455313E+04  d E =-.131893E-02
 curvature:  -1.88 expect dE=-0.294E-02 dE for cont linesearch -0.577E-06
 trial: gam= 0.77185 g(F)=  0.156E-02 g(S)=  0.000E+00 ort = 0.447E-04 (trialstep = 0.900E+00)
 search vector abs. value=  0.550E-02
 bond charge predicted
       N       E                     dE             d eps       ncg     rms          rms(c)
DAV:   1    -0.134553168699E+04   -0.33769E-03   -0.30664E-01  3840   0.929E-01    0.117E-01
DAV:   2    -0.134553244095E+04   -0.75396E-03   -0.97070E-03  4352   0.184E-01    0.143E-01
DAV:   3    -0.134553239492E+04    0.46026E-04   -0.45238E-04  4832   0.401E-02    0.983E-02
DAV:   4    -0.134553234427E+04    0.50653E-04   -0.27087E-04  5616   0.380E-02    0.774E-02
DAV:   5    -0.134553232065E+04    0.23620E-04   -0.23970E-04  4400   0.295E-02    0.404E-02
DAV:   6    -0.134553230865E+04    0.12004E-04   -0.83523E-05  5312   0.187E-02    0.263E-02
DAV:   7    -0.134553230616E+04    0.24890E-05   -0.50483E-05  4848   0.117E-02    0.964E-03
DAV:   8    -0.134553230603E+04    0.12187E-06   -0.61229E-06  4192   0.589E-03
  12 F= -.13455323E+04 E0= -.13455323E+04  d E =-.956780E-03
 trial-energy change:   -0.000957  1 .order   -0.000963   -0.001439   -0.000486
 step:   1.3872(harm=  1.3591)  dis= 0.00479  next Energy= -1345.532437 (dE=-0.109E-02)
 bond charge predicted
       N       E                     dE             d eps       ncg     rms          rms(c)
DAV:   1    -0.134553224485E+04    0.61305E-04   -0.90188E-02  3840   0.504E-01    0.658E-02
DAV:   2    -0.134553246670E+04   -0.22185E-03   -0.29340E-03  4352   0.102E-01    0.786E-02
DAV:   3    -0.134553245328E+04    0.13430E-04   -0.15367E-04  4784   0.233E-02    0.531E-02
DAV:   4    -0.134553243835E+04    0.14928E-04   -0.85394E-05  5584   0.214E-02    0.424E-02
DAV:   5    -0.134553243227E+04    0.60789E-05   -0.77411E-05  4384   0.165E-02    0.232E-02
DAV:   6    -0.134553242764E+04    0.46309E-05   -0.25141E-05  5376   0.106E-02    0.155E-02
DAV:   7    -0.134553242657E+04    0.10714E-05   -0.18102E-05  4560   0.695E-03    0.544E-03
DAV:   8    -0.134553242645E+04    0.11849E-06   -0.16284E-06  2432   0.339E-03
  13 F= -.13455324E+04 E0= -.13455324E+04  d E =-.107719E-02
 curvature:  -2.33 expect dE=-0.270E-02 dE for cont linesearch -0.618E-06
 trial: gam= 0.78374 g(F)=  0.116E-02 g(S)=  0.000E+00 ort =-0.382E-04 (trialstep = 0.997E+00)
 search vector abs. value=  0.448E-02
 bond charge predicted
       N       E                     dE             d eps       ncg     rms          rms(c)
DAV:   1    -0.134553255779E+04   -0.13123E-03   -0.26178E-01  3840   0.856E-01    0.112E-01
DAV:   2    -0.134553319817E+04   -0.64038E-03   -0.84227E-03  4384   0.171E-01    0.134E-01
DAV:   3    -0.134553316724E+04    0.30934E-04   -0.42027E-04  4832   0.381E-02    0.923E-02
DAV:   4    -0.134553312463E+04    0.42603E-04   -0.26596E-04  5248   0.352E-02    0.740E-02
DAV:   5    -0.134553310912E+04    0.15517E-04   -0.20860E-04  4448   0.259E-02    0.398E-02
DAV:   6    -0.134553309416E+04    0.14953E-04   -0.48463E-05  5440   0.163E-02    0.281E-02
DAV:   7    -0.134553308966E+04    0.45022E-05   -0.66812E-05  4448   0.135E-02    0.859E-03
DAV:   8    -0.134553308989E+04   -0.22978E-06   -0.70423E-06  4144   0.603E-03
  14 F= -.13455331E+04 E0= -.13455331E+04  d E =-.663445E-03
 trial-energy change:   -0.000663  1 .order   -0.000660   -0.001127   -0.000193
 step:   1.2037(harm=  1.2037)  dis= 0.00374  next Energy= -1345.533107 (dE=-0.680E-03)
 bond charge predicted
       N       E                     dE             d eps       ncg     rms          rms(c)
DAV:   1    -0.134553308622E+04    0.34430E-05   -0.11274E-02  3840   0.178E-01    0.254E-02
DAV:   2    -0.134553311400E+04   -0.27779E-04   -0.38854E-04  4432   0.369E-02    0.284E-02
DAV:   3    -0.134553311297E+04    0.10280E-05   -0.25463E-05  4704   0.929E-03    0.187E-02
DAV:   4    -0.134553311118E+04    0.17890E-05   -0.12702E-05  5072   0.792E-03    0.157E-02
DAV:   5    -0.134553311101E+04    0.17106E-06   -0.11767E-05  4352   0.590E-03    0.923E-03
DAV:   6    -0.134553311000E+04    0.10151E-05   -0.14518E-06  2112   0.370E-03    0.706E-03
DAV:   7    -0.134553310978E+04    0.21676E-06   -0.51535E-06  3264   0.374E-03
  15 F= -.13455331E+04 E0= -.13455331E+04  d E =-.683331E-03
 curvature:  -2.39 expect dE=-0.280E-02 dE for cont linesearch -0.657E-11
 trial: gam= 0.96554 g(F)=  0.117E-02 g(S)=  0.000E+00 ort =-0.111E-06 (trialstep = 0.870E+00)
 search vector abs. value=  0.535E-02
 bond charge predicted
       N       E                     dE             d eps       ncg     rms          rms(c)
DAV:   1    -0.134553327548E+04   -0.16548E-03   -0.23193E-01  3840   0.805E-01    0.105E-01
DAV:   2    -0.134553382769E+04   -0.55221E-03   -0.69697E-03  4368   0.152E-01    0.110E-01
DAV:   3    -0.134553380439E+04    0.23294E-04   -0.32609E-04  4688   0.334E-02    0.730E-02
DAV:   4    -0.134553377322E+04    0.31177E-04   -0.19879E-04  5360   0.299E-02    0.576E-02
DAV:   5    -0.134553376061E+04    0.12606E-04   -0.12701E-04  4352   0.207E-02    0.291E-02
DAV:   6    -0.134553375308E+04    0.75293E-05   -0.26971E-05  5408   0.122E-02    0.199E-02
DAV:   7    -0.134553375155E+04    0.15285E-05   -0.32105E-05  4480   0.939E-03    0.691E-03
DAV:   8    -0.134553375146E+04    0.92041E-07   -0.26094E-06  2864   0.378E-03
  16 F= -.13455338E+04 E0= -.13455338E+04  d E =-.641682E-03
 trial-energy change:   -0.000642  1 .order   -0.000630   -0.001021   -0.000240
 step:   1.1100(harm=  1.1369)  dis= 0.00354  next Energy= -1345.533785 (dE=-0.675E-03)
 bond charge predicted
       N       E                     dE             d eps       ncg     rms          rms(c)
DAV:   1    -0.134553375282E+04   -0.12653E-05   -0.17774E-02  3840   0.223E-01    0.305E-02
DAV:   2    -0.134553379668E+04   -0.43860E-04   -0.55370E-04  4384   0.430E-02    0.309E-02
DAV:   3    -0.134553379526E+04    0.14157E-05   -0.29140E-05  4688   0.996E-03    0.200E-02
DAV:   4    -0.134553379329E+04    0.19757E-05   -0.16231E-05  5296   0.868E-03    0.163E-02
DAV:   5    -0.134553379284E+04    0.44996E-06   -0.11015E-05  4352   0.590E-03    0.862E-03
DAV:   6    -0.134553379205E+04    0.79073E-06   -0.14089E-06  2128   0.356E-03
  17 F= -.13455338E+04 E0= -.13455338E+04  d E =-.682267E-03
 curvature:  -2.57 expect dE=-0.224E-02 dE for cont linesearch -0.586E-06
 trial: gam= 0.73499 g(F)=  0.874E-03 g(S)=  0.000E+00 ort = 0.350E-04 (trialstep = 0.918E+00)
 search vector abs. value=  0.382E-02
 bond charge predicted
       N       E                     dE             d eps       ncg     rms          rms(c)
DAV:   1    -0.134553379727E+04   -0.44290E-05   -0.21491E-01  3840   0.776E-01    0.100E-01
DAV:   2    -0.134553431979E+04   -0.52252E-03   -0.67750E-03  4384   0.154E-01    0.111E-01
DAV:   3    -0.134553429742E+04    0.22364E-04   -0.35513E-04  4832   0.355E-02    0.746E-02
DAV:   4    -0.134553426490E+04    0.32526E-04   -0.19414E-04  5392   0.306E-02    0.594E-02
DAV:   5    -0.134553425139E+04    0.13511E-04   -0.14468E-04  4368   0.235E-02    0.320E-02
DAV:   6    -0.134553424261E+04    0.87797E-05   -0.45705E-05  5312   0.149E-02    0.215E-02
DAV:   7    -0.134553424123E+04    0.13801E-05   -0.37049E-05  4560   0.983E-03    0.853E-03
DAV:   8    -0.134553424103E+04    0.19801E-06   -0.38299E-06  3344   0.440E-03
  18 F= -.13455342E+04 E0= -.13455342E+04  d E =-.448983E-03
 trial-energy change:   -0.000449  1 .order   -0.000440   -0.000826   -0.000054
 step:   0.9770(harm=  0.9815)  dis= 0.00228  next Energy= -1345.534243 (dE=-0.451E-03)
 bond charge predicted
       N       E                     dE             d eps       ncg     rms          rms(c)
DAV:   1    -0.134553424049E+04    0.73701E-06   -0.91260E-04  3872   0.508E-02    0.886E-03
DAV:   2    -0.134553424286E+04   -0.23694E-05   -0.35224E-05  4576   0.113E-02    0.791E-03
DAV:   3    -0.134553424285E+04    0.13250E-07   -0.29322E-06  2736   0.344E-03    0.424E-03
DAV:   4    -0.134553424277E+04    0.80581E-07   -0.72684E-07  2112   0.251E-03
  19 F= -.13455342E+04 E0= -.13455342E+04  d E =-.450720E-03
 curvature:  -2.07 expect dE=-0.764E-03 dE for cont linesearch -0.330E-06
 trial: gam= 0.45309 g(F)=  0.369E-03 g(S)=  0.000E+00 ort = 0.247E-04 (trialstep = 0.930E+00)
 search vector abs. value=  0.117E-02
 bond charge predicted
       N       E                     dE             d eps       ncg     rms          rms(c)
DAV:   1    -0.134553434432E+04   -0.10148E-03   -0.68955E-02  3840   0.440E-01    0.524E-02
DAV:   2    -0.134553450573E+04   -0.16141E-03   -0.21459E-03  4352   0.860E-02    0.558E-02
DAV:   3    -0.134553449893E+04    0.67964E-05   -0.12097E-04  4928   0.200E-02    0.358E-02
DAV:   4    -0.134553448809E+04    0.10846E-04   -0.49016E-05  5376   0.148E-02    0.288E-02
DAV:   5    -0.134553448357E+04    0.45155E-05   -0.44160E-05  4352   0.117E-02    0.158E-02
DAV:   6    -0.134553448071E+04    0.28613E-05   -0.98478E-06  4720   0.753E-03    0.106E-02
DAV:   7    -0.134553448035E+04    0.35772E-06   -0.11870E-05  4464   0.561E-03    0.380E-03
DAV:   8    -0.134553448028E+04    0.73167E-07   -0.82307E-07  2112   0.219E-03
  20 F= -.13455345E+04 E0= -.13455345E+04  d E =-.237516E-03
 trial-energy change:   -0.000238  1 .order   -0.000238   -0.000354   -0.000122
 step:   1.4213(harm=  1.4213)  dis= 0.00184  next Energy= -1345.534513 (dE=-0.270E-03)
 reached required accuracy - stopping structural energy minimisation
