 vasp.5.4.1 05Feb16 (build Mar 31 2016 13:39:20) complex                        
  
 executed on           IFC91_ompi date 2016.05.23  14:29:36
 running on   16 total cores
 distrk:  each k-point on   16 cores,    1 groups
 distr:  one band on NCORES_PER_BAND=   4 cores,    4 groups


--------------------------------------------------------------------------------------------------------


 INCAR:
 POTCAR:    PAW_PBE Mg 13Apr2007                  
 POTCAR:    PAW_PBE O 08Apr2002                   
 POTCAR:    PAW_PBE Mg 13Apr2007                  
   VRHFIN =Mg: s2p0                                                             
   LEXCH  = PE                                                                  
   EATOM  =    23.0369 eV,    1.6932 Ry                                         
                                                                                
   TITEL  = PAW_PBE Mg 13Apr2007                                                
   LULTRA =        F    use ultrasoft PP ?                                      
   IUNSCR =        1    unscreen: 0-lin 1-nonlin 2-no                           
   RPACOR =    1.500    partial core radius                                     
   POMASS =   24.305; ZVAL   =    2.000    mass and valenz                      
   RCORE  =    2.000    outmost cutoff radius                                   
   RWIGS  =    2.880; RWIGS  =    1.524    wigner-seitz radius (au A)           
   ENMAX  =  126.143; ENMIN  =   94.607 eV                                      
   RCLOC  =    1.506    cutoff for local pot                                    
   LCOR   =        T    correct aug charges                                     
   LPAW   =        T    paw PP                                                  
   EAUG   =  454.734                                                            
   DEXC   =    0.000                                                            
   RMAX   =    2.045    core radius for proj-oper                               
   RAUG   =    1.300    factor for augmentation sphere                          
   RDEP   =    2.025    radius for radial grids                                 
   RDEPT  =    1.942    core radius for aug-charge                              
                                                                                
   Atomic configuration                                                         
    6 entries                                                                   
     n  l   j            E        occ.                                          
     1  0  0.50     -1259.6230   2.0000                                         
     2  0  0.50       -79.8442   2.0000                                         
     2  1  1.50       -46.6121   6.0000                                         
     3  0  0.50        -4.7055   2.0000                                         
     3  1  0.50        -1.3660   0.0000                                         
     3  2  1.50        -1.3606   0.0000                                         
   Description                                                                  
     l       E           TYP  RCUT    TYP  RCUT                                 
     0     -4.7054661     23  2.000                                             
     0     27.2116520     23  2.000                                             
     1      1.3605826     23  2.000                                             
     1     27.2116520     23  2.000                                             
     2     -1.3605826     23  2.000                                             
  local pseudopotential read in
  partial core-charges read in
  partial kinetic energy density read in
  atomic valenz-charges read in
  non local Contribution for L=           0  read in
    real space projection operators read in
  non local Contribution for L=           0  read in
    real space projection operators read in
  non local Contribution for L=           1  read in
    real space projection operators read in
  non local Contribution for L=           1  read in
    real space projection operators read in
  non local Contribution for L=           2  read in
    real space projection operators read in
    PAW grid and wavefunctions read in
 
   number of l-projection  operators is LMAX  =           5
   number of lm-projection operators is LMMAX =          13
 
 POTCAR:    PAW_PBE O 08Apr2002                   
   VRHFIN =O: s2p4                                                              
   LEXCH  = PE                                                                  
   EATOM  =   432.3788 eV,   31.7789 Ry                                         
                                                                                
   TITEL  = PAW_PBE O 08Apr2002                                                 
   LULTRA =        F    use ultrasoft PP ?                                      
   IUNSCR =        1    unscreen: 0-lin 1-nonlin 2-no                           
   RPACOR =    1.200    partial core radius                                     
   POMASS =   16.000; ZVAL   =    6.000    mass and valenz                      
   RCORE  =    1.520    outmost cutoff radius                                   
   RWIGS  =    1.550; RWIGS  =    0.820    wigner-seitz radius (au A)           
   ENMAX  =  400.000; ENMIN  =  300.000 eV                                      
   ICORE  =        2    local potential                                         
   LCOR   =        T    correct aug charges                                     
   LPAW   =        T    paw PP                                                  
   EAUG   =  605.392                                                            
   DEXC   =    0.000                                                            
   RMAX   =    1.553    core radius for proj-oper                               
   RAUG   =    1.300    factor for augmentation sphere                          
   RDEP   =    1.550    radius for radial grids                                 
   RDEPT  =    1.329    core radius for aug-charge                              
                                                                                
   Atomic configuration                                                         
    4 entries                                                                   
     n  l   j            E        occ.                                          
     1  0  0.50      -514.6923   2.0000                                         
     2  0  0.50       -23.9615   2.0000                                         
     2  1  0.50        -9.0305   4.0000                                         
     3  2  1.50        -9.5241   0.0000                                         
   Description                                                                  
     l       E           TYP  RCUT    TYP  RCUT                                 
     0    -23.9615318     23  1.200                                             
     0     -9.5240782     23  1.200                                             
     1     -9.0304911     23  1.520                                             
     1      8.1634956     23  1.520                                             
     2     -9.5240782      7  1.500                                             
  local pseudopotential read in
  partial core-charges read in
  partial kinetic energy density read in
  kinetic energy density of atom read in
  atomic valenz-charges read in
  non local Contribution for L=           0  read in
    real space projection operators read in
  non local Contribution for L=           0  read in
    real space projection operators read in
  non local Contribution for L=           1  read in
    real space projection operators read in
  non local Contribution for L=           1  read in
    real space projection operators read in
    PAW grid and wavefunctions read in
 
   number of l-projection  operators is LMAX  =           4
   number of lm-projection operators is LMMAX =           8
 
 Optimization of the real space projectors (new method)

 maximal supplied QI-value         = 18.90
 optimisation between [QCUT,QGAM] = [ 10.20, 20.41] = [ 29.16,116.64] Ry 
 Optimized for a Real-space Cutoff    1.30 Angstroem

   l    n(q)    QCUT    max X(q) W(low)/X(q) W(high)/X(q)  e(spline) 
   0      8    10.205    28.265    0.22E-03    0.17E-03    0.53E-07
   0      8    10.205    10.429    0.17E-03    0.15E-03    0.43E-07
   1      7    10.205    13.073    0.71E-04    0.41E-03    0.76E-07
   1      7    10.205     9.625    0.71E-04    0.33E-03    0.63E-07
   2      7    10.205     4.652    0.24E-03    0.41E-03    0.55E-07
 Optimization of the real space projectors (new method)

 maximal supplied QI-value         = 24.76
 optimisation between [QCUT,QGAM] = [ 10.15, 20.30] = [ 28.85,115.39] Ry 
 Optimized for a Real-space Cutoff    1.38 Angstroem

   l    n(q)    QCUT    max X(q) W(low)/X(q) W(high)/X(q)  e(spline) 
   0      8    10.150    20.381    0.22E-03    0.32E-03    0.29E-06
   0      8    10.150    15.268    0.23E-03    0.35E-03    0.30E-06
   1      8    10.150     5.964    0.46E-03    0.53E-03    0.21E-06
   1      8    10.150     5.382    0.38E-03    0.45E-03    0.19E-06
  PAW_PBE Mg 13Apr2007                  :
 energy of atom  1       EATOM=  -23.0369
 kinetic energy error for atom=    0.0001 (will be added to EATOM!!)
  PAW_PBE O 08Apr2002                   :
 energy of atom  2       EATOM= -432.3788
 kinetic energy error for atom=    0.1156 (will be added to EATOM!!)
 
 
 POSCAR: Mg O                                    
  positions in direct lattice
  velocities in cartesian coordinates
 exchange correlation table for  LEXCH =        8
   RHO(1)=    0.500       N(1)  =     2000
   RHO(2)=  100.500       N(2)  =     4000
 


--------------------------------------------------------------------------------------------------------


 ion  position               nearest neighbor table
   1  1.000  1.000  1.000-  44 2.12  50 2.12  57 2.12  40 2.13  56 2.13  48 2.13  12 3.00  22 3.00
                            31 3.00  11 3.00  10 3.00  18 3.00  21 3.00  29 3.00  27 3.00  17 3.01
   2  1.000  1.000  0.500-  57 2.12  51 2.12  45 2.12  41 2.13  56 2.13  49 2.13  12 3.00  22 3.00
                            32 3.00  10 3.00  18 3.00  11 3.00  21 3.00  30 3.00  28 3.00  17 3.01
   3  1.000  0.500  1.000-  50 2.12  46 2.12  59 2.12  42 2.13  58 2.13  48 2.13  31 3.00  12 3.00
                            24 3.00  27 3.00  11 3.00  10 3.00  20 3.00  23 3.00  29 3.00  19 3.01
   4  1.000  0.500  0.500-  51 2.12  59 2.12  47 2.12  43 2.13  58 2.13  49 2.13  12 3.00  32 3.00
                            24 3.00  28 3.00  10 3.00  20 3.00  11 3.00  23 3.00  30 3.00  19 3.01
   5  0.500  1.000  1.000-  44 2.12  54 2.12  61 2.12  40 2.13  60 2.13  52 2.13  31 3.00  22 3.00
                            16 3.00  29 3.00  21 3.00  14 3.00  18 3.00  15 3.00  27 3.00  17 3.01
   6  0.500  1.000  0.500-  45 2.12  61 2.12  55 2.12  41 2.13  60 2.13  53 2.13  22 3.00  32 3.00
                            16 3.00  30 3.00  18 3.00  21 3.00  14 3.00  15 3.00  28 3.00  17 3.01
   7  0.500  0.500  1.000-  46 2.12  54 2.12  63 2.12  42 2.13  62 2.13  52 2.13  31 3.00  24 3.00
                            16 3.00  29 3.00  23 3.00  15 3.00  27 3.00  20 3.00  14 3.00  19 3.01
   8  0.500  0.500  0.500-  47 2.12  55 2.12  63 2.12  43 2.13  62 2.13  53 2.13  16 3.00  24 3.00
                            32 3.00  20 3.00  23 3.00  15 3.00  28 3.00  30 3.00  14 3.00  19 3.01
   9  0.980  0.250  0.250-  36 1.95  48 2.08  49 2.08  56 2.08  58 2.08  23 2.90  29 2.90  30 2.90
                            21 2.90   2 3.01   3 3.01   4 3.01   1 3.01  26 3.24  17 3.24  19 3.24
  10  0.998  0.250  0.750-  37 2.10  57 2.11  59 2.11  33 2.14  49 2.18  48 2.18  26 2.90  25 2.90
                            30 2.98  29 2.98  22 2.99  24 2.99   2 3.00   4 3.00   3 3.00   1 3.00
  11  0.998  0.750  0.250-  38 2.10  50 2.11  51 2.11  34 2.14  58 2.18  56 2.18  19 2.90  17 2.90
                            23 2.98  21 2.98  31 2.99  32 2.99   3 3.00   4 3.00   1 3.00   2 3.00
  12  0.999  0.750  0.750-  39 2.12  35 2.13  51 2.14  59 2.14  57 2.14  50 2.14  24 2.99  32 2.99
                            31 2.99  22 2.99  20 2.99  28 2.99  27 2.99  18 2.99   4 3.00   3 3.00
  13  0.520  0.250  0.250-  36 1.95  52 2.08  53 2.08  60 2.08  62 2.08  23 2.90  29 2.90  30 2.90
                            21 2.90   6 3.01   7 3.01   8 3.01   5 3.01  26 3.24  17 3.24  19 3.24
  14  0.502  0.250  0.750-  37 2.10  61 2.11  63 2.11  33 2.14  53 2.18  52 2.18  26 2.90  25 2.90
                            30 2.98  29 2.98  22 2.99  24 2.99   6 3.00   8 3.00   7 3.00   5 3.00
  15  0.502  0.750  0.250-  38 2.10  54 2.11  55 2.11  34 2.14  62 2.18  60 2.18  19 2.90  17 2.90
                            23 2.98  21 2.98  31 2.99  32 2.99   7 3.00   8 3.00   5 3.00   6 3.00
  16  0.501  0.750  0.750-  39 2.12  35 2.13  55 2.14  63 2.14  61 2.14  54 2.14  24 2.99  32 2.99
                            31 2.99  22 2.99  20 2.99  28 2.99  27 2.99  18 2.99   8 3.00   7 3.00
  17  0.250  0.980  0.250-  34 1.95  40 2.08  41 2.08  56 2.08  60 2.08  15 2.90  27 2.90  28 2.90
                            11 2.90   2 3.01   5 3.01   6 3.01   1 3.01  26 3.24  13 3.24   9 3.24
  18  0.250  0.998  0.750-  35 2.10  57 2.11  61 2.11  33 2.14  41 2.18  40 2.18  26 2.90  25 2.90
                            28 2.98  27 2.98  12 2.99  16 2.99   2 3.00   6 3.00   5 3.00   1 3.00
  19  0.250  0.520  0.250-  34 1.95  42 2.08  43 2.08  58 2.08  62 2.08  15 2.90  27 2.90  28 2.90
                            11 2.90   4 3.01   7 3.01   8 3.01   3 3.01  26 3.24  13 3.24   9 3.24
  20  0.250  0.502  0.750-  35 2.10  59 2.11  63 2.11  33 2.14  43 2.18  42 2.18  26 2.90  25 2.90
                            28 2.98  27 2.98  12 2.99  16 2.99   4 3.00   8 3.00   7 3.00   3 3.00
  21  0.750  0.998  0.250-  38 2.10  44 2.11  45 2.11  36 2.14  60 2.18  56 2.18  13 2.90   9 2.90
                            15 2.98  11 2.98  31 2.99  32 2.99   5 3.00   6 3.00   1 3.00   2 3.00
  22  0.750  0.999  0.750-  39 2.12  37 2.13  45 2.14  61 2.14  57 2.14  44 2.14  16 2.99  32 2.99
                            31 2.99  12 2.99  14 2.99  30 2.99  29 2.99  10 2.99   6 3.00   5 3.00
  23  0.750  0.502  0.250-  38 2.10  46 2.11  47 2.11  36 2.14  62 2.18  58 2.18  13 2.90   9 2.90
                            15 2.98  11 2.98  31 2.99  32 2.99   7 3.00   8 3.00   3 3.00   4 3.00
  24  0.750  0.501  0.750-  39 2.12  37 2.13  47 2.14  63 2.14  59 2.14  46 2.14  16 2.99  32 2.99
                            31 2.99  12 2.99  14 2.99  30 2.99  29 2.99  10 2.99   8 3.00   7 3.00
  25  0.250  0.250  0.980-  33 1.95  40 2.08  42 2.08  48 2.08  52 2.08  14 2.90  18 2.90  20 2.90
                            10 2.90   3 3.01   5 3.01   7 3.01   1 3.01  13 3.24  19 3.24   9 3.24
  26  0.250  0.250  0.520-  33 1.95  41 2.08  43 2.08  49 2.08  53 2.08  14 2.90  18 2.90  20 2.90
                            10 2.90   4 3.01   6 3.01   8 3.01   2 3.01  13 3.24  19 3.24   9 3.24
  27  0.250  0.750  0.998-  35 2.10  50 2.11  54 2.11  34 2.14  42 2.18  40 2.18  19 2.90  17 2.90
                            20 2.98  18 2.98  12 2.99  16 2.99   3 3.00   7 3.00   5 3.00   1 3.00
  28  0.250  0.750  0.502-  35 2.10  51 2.11  55 2.11  34 2.14  43 2.18  41 2.18  19 2.90  17 2.90
                            20 2.98  18 2.98  12 2.99  16 2.99   4 3.00   8 3.00   6 3.00   2 3.00
  29  0.750  0.250  0.998-  37 2.10  44 2.11  46 2.11  36 2.14  52 2.18  48 2.18  13 2.90   9 2.90
                            14 2.98  10 2.98  22 2.99  24 2.99   5 3.00   7 3.00   1 3.00   3 3.00
  30  0.750  0.250  0.502-  37 2.10  45 2.11  47 2.11  36 2.14  53 2.18  49 2.18  13 2.90   9 2.90
                            14 2.98  10 2.98  22 2.99  24 2.99   6 3.00   8 3.00   2 3.00   4 3.00
  31  0.750  0.750  0.999-  39 2.12  38 2.13  46 2.14  54 2.14  50 2.14  44 2.14  16 2.99  24 2.99
                            22 2.99  12 2.99  23 2.99  15 2.99  21 2.99  11 2.99   7 3.00   5 3.00
  32  0.750  0.750  0.501-  39 2.12  38 2.13  47 2.14  55 2.14  51 2.14  45 2.14  16 2.99  24 2.99
                            22 2.99  12 2.99  23 2.99  15 2.99  21 2.99  11 2.99   8 3.00   6 3.00
  33  0.250  0.250  0.750-  26 1.95  25 1.95  18 2.14  20 2.14  10 2.14  14 2.14
  34  0.250  0.750  0.250-  19 1.95  17 1.95  11 2.14  15 2.14  27 2.14  28 2.14
  35  0.250  0.750  0.750-  20 2.10  28 2.10  27 2.10  18 2.10  12 2.13  16 2.13
  36  0.750  0.250  0.250-  13 1.95   9 1.95  21 2.14  23 2.14  29 2.14  30 2.14
  37  0.750  0.250  0.750-  14 2.10  30 2.10  29 2.10  10 2.10  22 2.13  24 2.13
  38  0.750  0.750  0.250-  15 2.10  23 2.10  21 2.10  11 2.10  31 2.13  32 2.13
  39  0.750  0.750  0.750-  16 2.12  24 2.12  32 2.12  12 2.12  31 2.12  22 2.12
  40  0.250  0.006  0.006-  17 2.08  25 2.08   1 2.13   5 2.13  18 2.18  27 2.18
  41  0.250  0.006  0.494-  17 2.08  26 2.08   2 2.13   6 2.13  18 2.18  28 2.18
  42  0.250  0.494  0.006-  19 2.08  25 2.08   3 2.13   7 2.13  27 2.18  20 2.18
  43  0.250  0.494  0.494-  19 2.08  26 2.08   4 2.13   8 2.13  20 2.18  28 2.18
  44  0.750  0.001  0.001-  21 2.11  29 2.11   5 2.12   1 2.12  22 2.14  31 2.14
  45  0.750  0.001  0.499-  21 2.11  30 2.11   6 2.12   2 2.12  22 2.14  32 2.14
  46  0.750  0.499  0.001-  23 2.11  29 2.11   7 2.12   3 2.12  31 2.14  24 2.14
  47  0.750  0.499  0.499-  23 2.11  30 2.11   8 2.12   4 2.12  24 2.14  32 2.14
  48  0.006  0.250  0.006-   9 2.08  25 2.08   1 2.13   3 2.13  10 2.18  29 2.18
  49  0.006  0.250  0.494-   9 2.08  26 2.08   2 2.13   4 2.13  10 2.18  30 2.18
  50  0.001  0.750  0.001-  11 2.11  27 2.11   3 2.12   1 2.12  12 2.14  31 2.14
  51  0.001  0.750  0.499-  11 2.11  28 2.11   4 2.12   2 2.12  12 2.14  32 2.14
  52  0.494  0.250  0.006-  13 2.08  25 2.08   5 2.13   7 2.13  29 2.18  14 2.18
  53  0.494  0.250  0.494-  13 2.08  26 2.08   6 2.13   8 2.13  14 2.18  30 2.18
  54  0.499  0.750  0.001-  15 2.11  27 2.11   7 2.12   5 2.12  31 2.14  16 2.14
  55  0.499  0.750  0.499-  15 2.11  28 2.11   8 2.12   6 2.12  16 2.14  32 2.14
  56  0.006  0.006  0.250-   9 2.08  17 2.08   1 2.13   2 2.13  11 2.18  21 2.18
  57  0.001  0.001  0.750-  10 2.11  18 2.11   2 2.12   1 2.12  12 2.14  22 2.14
  58  0.006  0.494  0.250-   9 2.08  19 2.08   3 2.13   4 2.13  11 2.18  23 2.18
  59  0.001  0.499  0.750-  10 2.11  20 2.11   4 2.12   3 2.12  12 2.14  24 2.14
  60  0.494  0.006  0.250-  13 2.08  17 2.08   5 2.13   6 2.13  21 2.18  15 2.18
  61  0.499  0.001  0.750-  14 2.11  18 2.11   6 2.12   5 2.12  22 2.14  16 2.14
  62  0.494  0.494  0.250-  13 2.08  19 2.08   7 2.13   8 2.13  15 2.18  23 2.18
  63  0.499  0.499  0.750-  14 2.11  20 2.11   8 2.12   7 2.12  16 2.14  24 2.14
 
  LATTYP: Found a simple cubic cell.
 ALAT       =     8.4937860393
  
  Lattice vectors:
  
 A1 = (   8.4937860393,   0.0000000000,   0.0000000000)
 A2 = (   0.0000000000,   8.4937860393,   0.0000000000)
 A3 = (   0.0000000000,   0.0000000000,   8.4937860393)


Analysis of symmetry for initial positions (statically):
=====================================================================
 Subroutine PRICEL returns:
 Original cell was already a primitive cell.
 

 Routine SETGRP: Setting up the symmetry group for a 
 simple cubic supercell.


 Subroutine GETGRP returns: Found 48 space group operations
 (whereof  6 operations were pure point group operations)
 out of a pool of 48 trial point group operations.


The static configuration has the point symmetry C_3v.
 The point group associated with its full space group is O_h .


Analysis of symmetry for dynamics (positions and initial velocities):
=====================================================================
 Subroutine PRICEL returns:
 Original cell was already a primitive cell.
 

 Routine SETGRP: Setting up the symmetry group for a 
 simple cubic supercell.


 Subroutine GETGRP returns: Found 48 space group operations
 (whereof  6 operations were pure point group operations)
 out of a pool of 48 trial point group operations.


The dynamic configuration has the point symmetry C_3v.
 The point group associated with its full space group is O_h .


 Subroutine INISYM returns: Found 48 space group operations
 (whereof  6 operations are pure point group operations),
 and found     1 'primitive' translations

 
 
 KPOINTS: k-point mesh generated by kpt_generator.

Automatic generation of k-mesh.
Space group operators:
 irot       det(A)        alpha          n_x          n_y          n_z        tau_x        tau_y        tau_z
    1     1.000000     0.000000     1.000000     0.000000     0.000000     0.000000     0.000000     0.000000
    2     1.000000   120.000000    -0.577350    -0.577350    -0.577350     0.000000     0.000000     0.000000
    3     1.000000   120.000000     0.577350     0.577350     0.577350     0.000000     0.000000     0.000000
    4    -1.000000   180.000000     0.000000    -0.707107     0.707107     0.000000     0.000000     0.000000
    5    -1.000000   180.000000     0.707107    -0.707107     0.000000     0.000000     0.000000     0.000000
    6    -1.000000   180.000000     0.707107     0.000000    -0.707107     0.000000     0.000000     0.000000
    7    -1.000000     0.000000     1.000000     0.000000     0.000000     0.500000     0.500000     0.500000
    8    -1.000000   120.000000    -0.577350    -0.577350    -0.577350     0.500000     0.500000     0.500000
    9    -1.000000   120.000000     0.577350     0.577350     0.577350     0.500000     0.500000     0.500000
   10     1.000000    90.000000     0.000000     0.000000    -1.000000     0.500000     0.000000     0.000000
   11    -1.000000    90.000000     0.000000     0.000000    -1.000000     0.000000     0.500000     0.500000
   12     1.000000   180.000000     0.000000     0.707107     0.707107     0.500000     0.000000     0.000000
   13    -1.000000   180.000000     0.000000     0.707107     0.707107     0.000000     0.500000     0.500000
   14     1.000000    90.000000     0.000000     1.000000     0.000000     0.500000     0.000000     0.000000
   15    -1.000000    90.000000     0.000000     1.000000     0.000000     0.000000     0.500000     0.500000
   16     1.000000   180.000000     0.000000     0.000000     1.000000     0.500000     0.500000     0.000000
   17    -1.000000   180.000000     0.000000     0.000000     1.000000     0.000000     0.000000     0.500000
   18     1.000000   120.000000    -0.577350     0.577350     0.577350     0.500000     0.500000     0.000000
   19    -1.000000   120.000000    -0.577350     0.577350     0.577350     0.000000     0.000000     0.500000
   20     1.000000   120.000000    -0.577350     0.577350    -0.577350     0.500000     0.500000     0.000000
   21    -1.000000   120.000000    -0.577350     0.577350    -0.577350     0.000000     0.000000     0.500000
   22     1.000000    90.000000     0.000000     0.000000     1.000000     0.000000     0.500000     0.000000
   23    -1.000000    90.000000     0.000000     0.000000     1.000000     0.500000     0.000000     0.500000
   24     1.000000    90.000000    -1.000000     0.000000     0.000000     0.000000     0.500000     0.000000
   25    -1.000000    90.000000    -1.000000     0.000000     0.000000     0.500000     0.000000     0.500000
   26     1.000000   180.000000     0.707107     0.000000     0.707107     0.000000     0.500000     0.000000
   27    -1.000000   180.000000     0.707107     0.000000     0.707107     0.500000     0.000000     0.500000
   28     1.000000   120.000000     0.577350    -0.577350     0.577350     0.000000     0.500000     0.500000
   29    -1.000000   120.000000     0.577350    -0.577350     0.577350     0.500000     0.000000     0.000000
   30     1.000000   120.000000    -0.577350    -0.577350     0.577350     0.000000     0.500000     0.500000
   31    -1.000000   120.000000    -0.577350    -0.577350     0.577350     0.500000     0.000000     0.000000
   32     1.000000   180.000000     1.000000     0.000000     0.000000     0.000000     0.500000     0.500000
   33    -1.000000   180.000000     1.000000     0.000000     0.000000     0.500000     0.000000     0.000000
   34     1.000000    90.000000     0.000000    -1.000000     0.000000     0.000000     0.000000     0.500000
   35    -1.000000    90.000000     0.000000    -1.000000     0.000000     0.500000     0.500000     0.000000
   36     1.000000   180.000000     0.707107     0.707107     0.000000     0.000000     0.000000     0.500000
   37    -1.000000   180.000000     0.707107     0.707107     0.000000     0.500000     0.500000     0.000000
   38     1.000000    90.000000     1.000000     0.000000     0.000000     0.000000     0.000000     0.500000
   39    -1.000000    90.000000     1.000000     0.000000     0.000000     0.500000     0.500000     0.000000
   40     1.000000   120.000000     0.577350    -0.577350    -0.577350     0.500000     0.000000     0.500000
   41    -1.000000   120.000000     0.577350    -0.577350    -0.577350     0.000000     0.500000     0.000000
   42     1.000000   180.000000     0.000000     1.000000     0.000000     0.500000     0.000000     0.500000
   43    -1.000000   180.000000     0.000000     1.000000     0.000000     0.000000     0.500000     0.000000
   44     1.000000   120.000000     0.577350     0.577350    -0.577350     0.500000     0.000000     0.500000
   45    -1.000000   120.000000     0.577350     0.577350    -0.577350     0.000000     0.500000     0.000000
   46     1.000000   180.000000     0.000000    -0.707107     0.707107     0.500000     0.500000     0.500000
   47     1.000000   180.000000     0.707107    -0.707107     0.000000     0.500000     0.500000     0.500000
   48     1.000000   180.000000     0.707107     0.000000    -0.707107     0.500000     0.500000     0.500000
 
 Subroutine IBZKPT returns following result:
 ===========================================
 
 Found      1 irreducible k-points:
 
 Following reciprocal coordinates:
            Coordinates               Weight
  0.250000  0.250000  0.250000      8.000000
 
 Following cartesian coordinates:
            Coordinates               Weight
  0.029433  0.029433  0.029433      8.000000
 


--------------------------------------------------------------------------------------------------------




 Dimension of arrays:
   k-points           NKPTS =      1   k-points in BZ     NKDIM =      1   number of bands    NBANDS=    156
   number of dos      NEDOS =    301   number of ions     NIONS =     63
   non local maximal  LDIM  =      5   non local SUM 2l+1 LMDIM =     13
   total plane-waves  NPLWV =  74088
   max r-space proj   IRMAX =   1382   max aug-charges    IRDMAX=   5335
   dimension x,y,z NGX =    42 NGY =   42 NGZ =   42
   dimension x,y,z NGXF=    84 NGYF=   84 NGZF=   84
   support grid    NGXF=    84 NGYF=   84 NGZF=   84
   ions per type =              32  31
 NGX,Y,Z   is equivalent  to a cutoff of   8.22,  8.22,  8.22 a.u.
 NGXF,Y,Z  is equivalent  to a cutoff of  16.44, 16.44, 16.44 a.u.


 I would recommend the setting:
   dimension x,y,z NGX =    42 NGY =   42 NGZ =   42
 SYSTEM =  unknown system                          
 POSCAR =  Mg O                                    

 Startparameter for this run:
   NWRITE =      2    write-flag & timer
   PREC   = n         normal or accurate (medium, high low for compatibility)
   ISTART =      0    job   : 0-new  1-cont  2-samecut
   ICHARG =      2    charge: 1-file 2-atom 10-const
   ISPIN  =      1    spin polarized calculation?
   LNONCOLLINEAR =      F non collinear calculations
   LSORBIT =      F    spin-orbit coupling
   INIWAV =      1    electr: 0-lowe 1-rand  2-diag
   LASPH  =      T    aspherical Exc in radial PAW
   METAGGA=      F    non-selfconsistent MetaGGA calc.

 Electronic Relaxation 1
   ENCUT  =  400.0 eV  29.40 Ry    5.42 a.u.  13.85 13.85 13.85*2*pi/ulx,y,z
   ENINI  =  400.0     initial cutoff
   ENAUG  =  605.4 eV  augmentation charge cutoff
   NELM   =    100;   NELMIN=  4; NELMDL=  0     # of ELM steps 
   EDIFF  = 0.1E-05   stopping-criterion for ELM
   LREAL  =      T    real-space projection
   NLSPLINE    = F    spline interpolate recip. space projectors
   LCOMPAT=      F    compatible to vasp.4.4
   GGA_COMPAT  = T    GGA compatible to vasp.4.4-vasp.4.6
   LMAXPAW     = -100 max onsite density
   LMAXMIX     =    2 max onsite mixed and CHGCAR
   VOSKOWN=      0    Vosko Wilk Nusair interpolation
   ROPT   =   -0.00050  -0.00050
 Ionic relaxation
   EDIFFG = -.5E-01   stopping-criterion for IOM
   NSW    =     20    number of steps for IOM
   NBLOCK =      1;   KBLOCK =     20    inner block; outer block 
   IBRION =      2    ionic relax: 0-MD 1-quasi-New 2-CG
   NFREE  =      1    steps in history (QN), initial steepest desc. (CG)
   ISIF   =      2    stress and relaxation
   IWAVPR =     11    prediction:  0-non 1-charg 2-wave 3-comb
   ISYM   =      2    0-nonsym 1-usesym 2-fastsym
   LCORR  =      T    Harris-Foulkes like correction to forces

   POTIM  = 0.5000    time-step for ionic-motion
   TEIN   =    0.0    initial temperature
   TEBEG  =    0.0;   TEEND  =   0.0 temperature during run
   SMASS  =  -3.00    Nose mass-parameter (am)
   estimated Nose-frequenzy (Omega)   =  0.10E-29 period in steps =****** mass=  -0.165E-26a.u.
   SCALEE = 1.0000    scale energy and forces
   NPACO  =    256;   APACO  = 16.0  distance and # of slots for P.C.
   PSTRESS=    0.0 pullay stress

  Mass of Ions in am
   POMASS =  24.30 16.00
  Ionic Valenz
   ZVAL   =   2.00  6.00
  Atomic Wigner-Seitz radii
   RWIGS  =  -1.00 -1.00
  virtual crystal weights 
   VCA    =   1.00  1.00
   NELECT =     248.0000    total number of electrons
   NUPDOWN=      -1.0000    fix difference up-down

 DOS related values:
   EMIN   =  10.00;   EMAX   =-10.00  energy-range for DOS
   EFERMI =   0.00
   ISMEAR =     0;   SIGMA  =   0.05  broadening in eV -4-tet -1-fermi 0-gaus

 Electronic relaxation 2 (details)
   IALGO  =     38    algorithm
   LDIAG  =      T    sub-space diagonalisation (order eigenvalues)
   LSUBROT=      F    optimize rotation matrix (better conditioning)
   TURBO    =      0    0=normal 1=particle mesh
   IRESTART =      0    0=no restart 2=restart with 2 vectors
   NREBOOT  =      0    no. of reboots
   NMIN     =      0    reboot dimension
   EREF     =   0.00    reference energy to select bands
   IMIX   =      4    mixing-type and parameters
     AMIX     =   0.40;   BMIX     =  1.00
     AMIX_MAG =   1.60;   BMIX_MAG =  1.00
     AMIN     =   0.10
     WC   =   100.;   INIMIX=   1;  MIXPRE=   1;  MAXMIX= -45

 Intra band minimization:
   WEIMIN = 0.0010     energy-eigenvalue tresh-hold
   EBREAK =  0.16E-08  absolut break condition
   DEPER  =   0.30     relativ break condition  

   TIME   =   0.40     timestep for ELM

  volume/ion in A,a.u.               =       9.73        65.64
  Fermi-wavevector in a.u.,A,eV,Ry     =   1.210944  2.288352 19.951386  1.466385
  Thomas-Fermi vector in A             =   2.346475
 
 Write flags
   LWAVE  =      F    write WAVECAR
   LCHARG =      F    write CHGCAR
   LVTOT  =      F    write LOCPOT, total local potential
   LVHAR  =      F    write LOCPOT, Hartree potential only
   LELF   =      F    write electronic localiz. function (ELF)
   LORBIT =      0    0 simple, 1 ext, 2 COOP (PROOUT)


 Dipole corrections
   LMONO  =      F    monopole corrections only (constant potential shift)
   LDIPOL =      F    correct potential (dipole corrections)
   IDIPOL =      0    1-x, 2-y, 3-z, 4-all directions 
   EPSILON=  1.0000000 bulk dielectric constant

 Exchange correlation treatment:
   GGA     =    --    GGA type
   LEXCH   =     8    internal setting for exchange type
   VOSKOWN=      0    Vosko Wilk Nusair interpolation
   LHFCALC =     F    Hartree Fock is set to
   LHFONE  =     F    Hartree Fock one center treatment
   AEXX    =    0.0000 exact exchange contribution

 Linear response parameters
   LEPSILON=     F    determine dielectric tensor
   LRPA    =     F    only Hartree local field effects (RPA)
   LNABLA  =     F    use nabla operator in PAW spheres
   LVEL    =     F    velocity operator in full k-point grid
   LINTERFAST=   F  fast interpolation
   KINTER  =     0    interpolate to denser k-point grid
   CSHIFT  =0.1000    complex shift for real part using Kramers Kronig
   OMEGAMAX=  -1.0    maximum frequency
   DEG_THRESHOLD= 0.2000000E-02 threshold for treating states as degnerate
   RTIME   =    0.100 relaxation time in fs

 Orbital magnetization related:
   ORBITALMAG=     F  switch on orbital magnetization
   LCHIMAG   =     F  perturbation theory with respect to B field
   DQ        =  0.001000  dq finite difference perturbation B field



--------------------------------------------------------------------------------------------------------


 conjugate gradient relaxation of ions
 charge density and potential will be updated during run
 non-spin polarized calculation
 Variant of blocked Davidson
 Davidson routine will perform the subspace rotation
 perform sub-space diagonalisation
    after iterative eigenvector-optimisation
 modified Broyden-mixing scheme, WC =      100.0
 initial mixing is a Kerker type mixing with AMIX =  0.4000 and BMIX =      1.0000
 Hartree-type preconditioning will be used
 using additional bands           32
 real space projection scheme for non local part
 use partial core corrections
 calculate Harris-corrections to forces 
   (improved forces if not selfconsistent)
 use gradient corrections 
 use of overlap-Matrix (Vanderbilt PP)
 Gauss-broadening in eV      SIGMA  =   0.05


--------------------------------------------------------------------------------------------------------


  energy-cutoff  :      400.00
  volume of cell :      612.78
      direct lattice vectors                 reciprocal lattice vectors
     8.493786039  0.000000000  0.000000000     0.117733128  0.000000000  0.000000000
     0.000000000  8.493786039  0.000000000     0.000000000  0.117733128  0.000000000
     0.000000000  0.000000000  8.493786039     0.000000000  0.000000000  0.117733128

  length of vectors
     8.493786039  8.493786039  8.493786039     0.117733128  0.117733128  0.117733128


 
 k-points in units of 2pi/SCALE and weight: k-point mesh generated by kpt_generator.
   0.02943328  0.02943328  0.02943328       1.000
 
 k-points in reciprocal lattice and weights: k-point mesh generated by kpt_generator.
   0.25000000  0.25000000  0.25000000       1.000
 
 position of ions in fractional coordinates (direct lattice) 
   0.99979458  0.99979458  0.99979458
   0.99979458  0.99979458  0.50020542
   0.99979458  0.50020542  0.99979458
   0.99979458  0.50020542  0.50020542
   0.50020542  0.99979458  0.99979458
   0.50020542  0.99979458  0.50020542
   0.50020542  0.50020542  0.99979458
   0.50020542  0.50020542  0.50020542
   0.98001156  0.25000000  0.25000000
   0.99769274  0.25000000  0.75000000
   0.99769274  0.75000000  0.25000000
   0.99906100  0.75000000  0.75000000
   0.51998844  0.25000000  0.25000000
   0.50230726  0.25000000  0.75000000
   0.50230726  0.75000000  0.25000000
   0.50093900  0.75000000  0.75000000
   0.25000000  0.98001156  0.25000000
   0.25000000  0.99769274  0.75000000
   0.25000000  0.51998844  0.25000000
   0.25000000  0.50230726  0.75000000
   0.75000000  0.99769274  0.25000000
   0.75000000  0.99906100  0.75000000
   0.75000000  0.50230726  0.25000000
   0.75000000  0.50093900  0.75000000
   0.25000000  0.25000000  0.98001156
   0.25000000  0.25000000  0.51998844
   0.25000000  0.75000000  0.99769274
   0.25000000  0.75000000  0.50230726
   0.75000000  0.25000000  0.99769274
   0.75000000  0.25000000  0.50230726
   0.75000000  0.75000000  0.99906100
   0.75000000  0.75000000  0.50093900
   0.25000000  0.25000000  0.75000000
   0.25000000  0.75000000  0.25000000
   0.25000000  0.75000000  0.75000000
   0.75000000  0.25000000  0.25000000
   0.75000000  0.25000000  0.75000000
   0.75000000  0.75000000  0.25000000
   0.75000000  0.75000000  0.75000000
   0.25000000  0.00597677  0.00597677
   0.25000000  0.00597677  0.49402323
   0.25000000  0.49402323  0.00597677
   0.25000000  0.49402323  0.49402323
   0.75000000  0.00143877  0.00143877
   0.75000000  0.00143877  0.49856123
   0.75000000  0.49856123  0.00143877
   0.75000000  0.49856123  0.49856123
   0.00597677  0.25000000  0.00597677
   0.00597677  0.25000000  0.49402323
   0.00143877  0.75000000  0.00143877
   0.00143877  0.75000000  0.49856123
   0.49402323  0.25000000  0.00597677
   0.49402323  0.25000000  0.49402323
   0.49856123  0.75000000  0.00143877
   0.49856123  0.75000000  0.49856123
   0.00597677  0.00597677  0.25000000
   0.00143877  0.00143877  0.75000000
   0.00597677  0.49402323  0.25000000
   0.00143877  0.49856123  0.75000000
   0.49402323  0.00597677  0.25000000
   0.49856123  0.00143877  0.75000000
   0.49402323  0.49402323  0.25000000
   0.49856123  0.49856123  0.75000000
 
 position of ions in cartesian coordinates  (Angst):
   8.49204129  8.49204129  8.49204129
   8.49204129  8.49204129  4.24863777
   8.49204129  4.24863777  8.49204129
   8.49204129  4.24863777  4.24863777
   4.24863777  8.49204129  8.49204129
   4.24863777  8.49204129  4.24863777
   4.24863777  4.24863777  8.49204129
   4.24863777  4.24863777  4.24863777
   8.32400849  2.12344651  2.12344651
   8.47418871  2.12344651  6.37033953
   8.47418871  6.37033953  2.12344651
   8.48581042  6.37033953  6.37033953
   4.41667057  2.12344651  2.12344651
   4.26649035  2.12344651  6.37033953
   4.26649035  6.37033953  2.12344651
   4.25486864  6.37033953  6.37033953
   2.12344651  8.32400849  2.12344651
   2.12344651  8.47418871  6.37033953
   2.12344651  4.41667057  2.12344651
   2.12344651  4.26649035  6.37033953
   6.37033953  8.47418871  2.12344651
   6.37033953  8.48581042  6.37033953
   6.37033953  4.26649035  2.12344651
   6.37033953  4.25486864  6.37033953
   2.12344651  2.12344651  8.32400849
   2.12344651  2.12344651  4.41667057
   2.12344651  6.37033953  8.47418871
   2.12344651  6.37033953  4.26649035
   6.37033953  2.12344651  8.47418871
   6.37033953  2.12344651  4.26649035
   6.37033953  6.37033953  8.48581042
   6.37033953  6.37033953  4.25486864
   2.12344651  2.12344651  6.37033953
   2.12344651  6.37033953  2.12344651
   2.12344651  6.37033953  6.37033953
   6.37033953  2.12344651  2.12344651
   6.37033953  2.12344651  6.37033953
   6.37033953  6.37033953  2.12344651
   6.37033953  6.37033953  6.37033953
   2.12344651  0.05076539  0.05076539
   2.12344651  0.05076539  4.19612763
   2.12344651  4.19612763  0.05076539
   2.12344651  4.19612763  4.19612763
   6.37033953  0.01222058  0.01222058
   6.37033953  0.01222058  4.23467244
   6.37033953  4.23467244  0.01222058
   6.37033953  4.23467244  4.23467244
   0.05076539  2.12344651  0.05076539
   0.05076539  2.12344651  4.19612763
   0.01222058  6.37033953  0.01222058
   0.01222058  6.37033953  4.23467244
   4.19612763  2.12344651  0.05076539
   4.19612763  2.12344651  4.19612763
   4.23467244  6.37033953  0.01222058
   4.23467244  6.37033953  4.23467244
   0.05076539  0.05076539  2.12344651
   0.01222058  0.01222058  6.37033953
   0.05076539  4.19612763  2.12344651
   0.01222058  4.23467244  6.37033953
   4.19612763  0.05076539  2.12344651
   4.23467244  0.01222058  6.37033953
   4.19612763  4.19612763  2.12344651
   4.23467244  4.23467244  6.37033953
 


--------------------------------------------------------------------------------------------------------


 k-point  1 :   0.2500 0.2500 0.2500  plane waves:   11146

 maximum and minimum number of plane-waves per node :      2788     2784

 maximum number of plane-waves:     11146
 maximum index in each direction: 
   IXMAX=   13   IYMAX=   13   IZMAX=   13
   IXMIN=  -14   IYMIN=  -14   IZMIN=  -14

 WARNING: aliasing errors must be expected set NGX to  56 to avoid them
 WARNING: aliasing errors must be expected set NGY to  56 to avoid them
 WARNING: aliasing errors must be expected set NGZ to  56 to avoid them
 aliasing errors are usually negligible using standard VASP settings
 and one can safely disregard these warnings

 real space projection operators:
  total allocation   :       5979.19 KBytes
  max/ min on nodes  :       1584.62       1404.97


 parallel 3D FFT for wavefunctions:
    minimum data exchange during FFTs selected (reduces bandwidth)
 parallel 3D FFT for charge:
    minimum data exchange during FFTs selected (reduces bandwidth)


 total amount of memory used by VASP on root node    40584. kBytes
========================================================================

   base      :      30000. kBytes
   nonlr-proj:       3417. kBytes
   fftplans  :       2002. kBytes
   grid      :       3194. kBytes
   one-center:        129. kBytes
   wavefun   :       1842. kBytes
 
     INWAV:  cpu time    0.0000: real time    0.0004
 Broyden mixing: mesh for mixing (old mesh)
   NGX = 27   NGY = 27   NGZ = 27
  (NGX  = 84   NGY  = 84   NGZ  = 84)
  gives a total of  19683 points

 initial charge density was supplied:
 charge density of overlapping atoms calculated
 number of electron     250.0000000 magnetization 
 keeping initial charge density in first step


--------------------------------------------------------------------------------------------------------


 Maximum index for non-local projection operator          392
 Maximum index for augmentation-charges          690 (set IRDMAX)


--------------------------------------------------------------------------------------------------------


 First call to EWALD:  gamma=   0.209
 Maximum number of real-space cells 3x 3x 3
 Maximum number of reciprocal cells 3x 3x 3

 FEWALD executed in parallel
    FEWALD:  cpu time    0.0040: real time    0.0030


----------------------------------------- Iteration    1(   1)  ---------------------------------------


    POTLOK:  cpu time    0.0320: real time    0.0350
    SETDIJ:  cpu time    0.4120: real time    0.4116
     EDDAV:  cpu time    0.2760: real time    0.2773
       DOS:  cpu time    0.0000: real time    0.0001
    --------------------------------------------
      LOOP:  cpu time    0.7240: real time    0.8238

 eigenvalue-minimisations  :   320
 total energy-change (2. order) : 0.1246424E+04  (-0.1062472E+05)
 number of electron     250.0000000 magnetization 
 augmentation part      250.0000000 magnetization 

 Free energy of the ion-electron system (eV)
  ---------------------------------------------------
  alpha Z        PSCENC =       586.68070446
  Ewald energy   TEWEN  =    -10852.81338216
  -Hartree energ DENC   =     -3944.59881197
  -exchange      EXHF   =         0.00000000
  -V(xc)+E(xc)   XCENC  =      -684.22307514
  PAW double counting   =     12832.84803218   -11228.99925380
  entropy T*S    EENTRO =        -0.00000017
  eigenvalues    EBANDS =       400.19396923
  atomic energy  EATOM  =     14137.33582803
  Solvation  Ediel_sol  =         0.00000000
  ---------------------------------------------------
  free energy    TOTEN  =      1246.42401067 eV

  energy without entropy =     1246.42401085  energy(sigma->0) =     1246.42401076


--------------------------------------------------------------------------------------------------------




----------------------------------------- Iteration    1(   2)  ---------------------------------------


     EDDAV:  cpu time    0.3640: real time    0.3630
       DOS:  cpu time    0.0000: real time    0.0001
    --------------------------------------------
      LOOP:  cpu time    0.3640: real time    0.5645

 eigenvalue-minimisations  :   384
 total energy-change (2. order) :-0.1568422E+04  (-0.1535130E+04)
 number of electron     250.0000000 magnetization 
 augmentation part      250.0000000 magnetization 

 Free energy of the ion-electron system (eV)
  ---------------------------------------------------
  alpha Z        PSCENC =       586.68070446
  Ewald energy   TEWEN  =    -10852.81338216
  -Hartree energ DENC   =     -3944.59881197
  -exchange      EXHF   =         0.00000000
  -V(xc)+E(xc)   XCENC  =      -684.22307514
  PAW double counting   =     12832.84803218   -11228.99925380
  entropy T*S    EENTRO =        -0.00000000
  eigenvalues    EBANDS =     -1168.22755514
  atomic energy  EATOM  =     14137.33582803
  Solvation  Ediel_sol  =         0.00000000
  ---------------------------------------------------
  free energy    TOTEN  =      -321.99751352 eV

  energy without entropy =     -321.99751352  energy(sigma->0) =     -321.99751352


--------------------------------------------------------------------------------------------------------




----------------------------------------- Iteration    1(   3)  ---------------------------------------


     EDDAV:  cpu time    0.5320: real time    0.5349
       DOS:  cpu time    0.0000: real time    0.0001
    --------------------------------------------
      LOOP:  cpu time    0.5320: real time    0.6900

 eigenvalue-minimisations  :   360
 total energy-change (2. order) :-0.1061150E+03  (-0.1056634E+03)
 number of electron     250.0000000 magnetization 
 augmentation part      250.0000000 magnetization 

 Free energy of the ion-electron system (eV)
  ---------------------------------------------------
  alpha Z        PSCENC =       586.68070446
  Ewald energy   TEWEN  =    -10852.81338216
  -Hartree energ DENC   =     -3944.59881197
  -exchange      EXHF   =         0.00000000
  -V(xc)+E(xc)   XCENC  =      -684.22307514
  PAW double counting   =     12832.84803218   -11228.99925380
  entropy T*S    EENTRO =        -0.00000000
  eigenvalues    EBANDS =     -1274.34254731
  atomic energy  EATOM  =     14137.33582803
  Solvation  Ediel_sol  =         0.00000000
  ---------------------------------------------------
  free energy    TOTEN  =      -428.11250570 eV

  energy without entropy =     -428.11250570  energy(sigma->0) =     -428.11250570


--------------------------------------------------------------------------------------------------------




----------------------------------------- Iteration    1(   4)  ---------------------------------------


     EDDAV:  cpu time    0.3360: real time    0.3419
       DOS:  cpu time    0.0000: real time    0.0001
    --------------------------------------------
      LOOP:  cpu time    0.3400: real time    0.5657

 eigenvalue-minimisations  :   368
 total energy-change (2. order) :-0.1180649E+01  (-0.1177625E+01)
 number of electron     250.0000000 magnetization 
 augmentation part      250.0000000 magnetization 

 Free energy of the ion-electron system (eV)
  ---------------------------------------------------
  alpha Z        PSCENC =       586.68070446
  Ewald energy   TEWEN  =    -10852.81338216
  -Hartree energ DENC   =     -3944.59881197
  -exchange      EXHF   =         0.00000000
  -V(xc)+E(xc)   XCENC  =      -684.22307514
  PAW double counting   =     12832.84803218   -11228.99925380
  entropy T*S    EENTRO =        -0.00000000
  eigenvalues    EBANDS =     -1275.52319590
  atomic energy  EATOM  =     14137.33582803
  Solvation  Ediel_sol  =         0.00000000
  ---------------------------------------------------
  free energy    TOTEN  =      -429.29315429 eV

  energy without entropy =     -429.29315429  energy(sigma->0) =     -429.29315429


--------------------------------------------------------------------------------------------------------




----------------------------------------- Iteration    1(   5)  ---------------------------------------


     EDDAV:  cpu time    0.3000: real time    0.3013
       DOS:  cpu time    0.0000: real time    0.0001
    CHARGE:  cpu time    0.0240: real time    0.0237
    MIXING:  cpu time    0.0000: real time    0.0008
    --------------------------------------------
      LOOP:  cpu time    0.3280: real time    0.4843

 eigenvalue-minimisations  :   360
 total energy-change (2. order) :-0.1783292E-01  (-0.1782433E-01)
 number of electron     248.0001454 magnetization 
 augmentation part       24.6429745 magnetization 

 Broyden mixing:
  rms(total) = 0.39285E+01    rms(broyden)= 0.39258E+01
  rms(prec ) = 0.58647E+01
  weight for this iteration     100.00

 Free energy of the ion-electron system (eV)
  ---------------------------------------------------
  alpha Z        PSCENC =       586.68070446
  Ewald energy   TEWEN  =    -10852.81338216
  -Hartree energ DENC   =     -3944.59881197
  -exchange      EXHF   =         0.00000000
  -V(xc)+E(xc)   XCENC  =      -684.22307514
  PAW double counting   =     12832.84803218   -11228.99925380
  entropy T*S    EENTRO =        -0.00000000
  eigenvalues    EBANDS =     -1275.54102882
  atomic energy  EATOM  =     14137.33582803
  Solvation  Ediel_sol  =         0.00000000
  ---------------------------------------------------
  free energy    TOTEN  =      -429.31098720 eV

  energy without entropy =     -429.31098720  energy(sigma->0) =     -429.31098720


--------------------------------------------------------------------------------------------------------




----------------------------------------- Iteration    1(   6)  ---------------------------------------


    POTLOK:  cpu time    0.0400: real time    0.0402
    SETDIJ:  cpu time    0.4280: real time    0.4299
     EDDAV:  cpu time    0.2960: real time    0.2966
       DOS:  cpu time    0.0000: real time    0.0001
    CHARGE:  cpu time    0.0240: real time    0.0230
    MIXING:  cpu time    0.0000: real time    0.0007
    --------------------------------------------
      LOOP:  cpu time    0.7880: real time    0.9732

 eigenvalue-minimisations  :   352
 total energy-change (2. order) : 0.4732442E+02  (-0.2305232E+02)
 number of electron     248.0001203 magnetization 
 augmentation part       20.3872237 magnetization 

 Broyden mixing:
  rms(total) = 0.12919E+01    rms(broyden)= 0.12881E+01
  rms(prec ) = 0.15865E+01
  weight for this iteration     100.00

 eigenvalues of (default mixing * dielectric matrix)
  average eigenvalue GAMMA=   0.8592
  0.8592

 Free energy of the ion-electron system (eV)
  ---------------------------------------------------
  alpha Z        PSCENC =       586.68070446
  Ewald energy   TEWEN  =    -10852.81338216
  -Hartree energ DENC   =     -4525.54553809
  -exchange      EXHF   =         0.00000000
  -V(xc)+E(xc)   XCENC  =      -649.96851638
  PAW double counting   =     15189.84746860   -13595.93607491
  entropy T*S    EENTRO =        -0.00000000
  eigenvalues    EBANDS =      -671.58705261
  atomic energy  EATOM  =     14137.33582803
  Solvation  Ediel_sol  =         0.00000000
  ---------------------------------------------------
  free energy    TOTEN  =      -381.98656305 eV

  energy without entropy =     -381.98656305  energy(sigma->0) =     -381.98656305


--------------------------------------------------------------------------------------------------------




----------------------------------------- Iteration    1(   7)  ---------------------------------------


    POTLOK:  cpu time    0.0240: real time    0.0253
    SETDIJ:  cpu time    0.3840: real time    0.3871
     EDDAV:  cpu time    0.3040: real time    0.3040
       DOS:  cpu time    0.0000: real time    0.0001
    CHARGE:  cpu time    0.0240: real time    0.0230
    MIXING:  cpu time    0.0000: real time    0.0007
    --------------------------------------------
      LOOP:  cpu time    0.7400: real time    0.9002

 eigenvalue-minimisations  :   352
 total energy-change (2. order) : 0.6119620E+00  (-0.3283367E+00)
 number of electron     248.0001208 magnetization 
 augmentation part       20.4204249 magnetization 

 Broyden mixing:
  rms(total) = 0.79155E+00    rms(broyden)= 0.79145E+00
  rms(prec ) = 0.98708E+00
  weight for this iteration     100.00

 eigenvalues of (default mixing * dielectric matrix)
  average eigenvalue GAMMA=   1.7244
  0.9936  2.4551

 Free energy of the ion-electron system (eV)
  ---------------------------------------------------
  alpha Z        PSCENC =       586.68070446
  Ewald energy   TEWEN  =    -10852.81338216
  -Hartree energ DENC   =     -4538.57640926
  -exchange      EXHF   =         0.00000000
  -V(xc)+E(xc)   XCENC  =      -648.11406322
  PAW double counting   =     16001.88046312   -14406.69975998
  entropy T*S    EENTRO =        -0.00000000
  eigenvalues    EBANDS =      -661.06798201
  atomic energy  EATOM  =     14137.33582803
  Solvation  Ediel_sol  =         0.00000000
  ---------------------------------------------------
  free energy    TOTEN  =      -381.37460101 eV

  energy without entropy =     -381.37460101  energy(sigma->0) =     -381.37460101


--------------------------------------------------------------------------------------------------------




----------------------------------------- Iteration    1(   8)  ---------------------------------------


    POTLOK:  cpu time    0.0280: real time    0.0268
    SETDIJ:  cpu time    0.3880: real time    0.3901
     EDDAV:  cpu time    0.3040: real time    0.3031
       DOS:  cpu time    0.0000: real time    0.0001
    CHARGE:  cpu time    0.0240: real time    0.0232
    MIXING:  cpu time    0.0000: real time    0.0008
    --------------------------------------------
      LOOP:  cpu time    0.7440: real time    0.9042

 eigenvalue-minimisations  :   352
 total energy-change (2. order) : 0.4327247E+00  (-0.1141194E+00)
 number of electron     248.0001216 magnetization 
 augmentation part       20.5279872 magnetization 

 Broyden mixing:
  rms(total) = 0.10539E+00    rms(broyden)= 0.10519E+00
  rms(prec ) = 0.13926E+00
  weight for this iteration     100.00

 eigenvalues of (default mixing * dielectric matrix)
  average eigenvalue GAMMA=   1.5037
  2.4900  1.0106  1.0106

 Free energy of the ion-electron system (eV)
  ---------------------------------------------------
  alpha Z        PSCENC =       586.68070446
  Ewald energy   TEWEN  =    -10852.81338216
  -Hartree energ DENC   =     -4572.36282221
  -exchange      EXHF   =         0.00000000
  -V(xc)+E(xc)   XCENC  =      -643.52683922
  PAW double counting   =     17386.15326228   -15789.76413648
  entropy T*S    EENTRO =        -0.00000000
  eigenvalues    EBANDS =      -632.64449098
  atomic energy  EATOM  =     14137.33582803
  Solvation  Ediel_sol  =         0.00000000
  ---------------------------------------------------
  free energy    TOTEN  =      -380.94187627 eV

  energy without entropy =     -380.94187627  energy(sigma->0) =     -380.94187627


--------------------------------------------------------------------------------------------------------




----------------------------------------- Iteration    1(   9)  ---------------------------------------


    POTLOK:  cpu time    0.0200: real time    0.0193
    SETDIJ:  cpu time    0.3520: real time    0.3530
     EDDAV:  cpu time    0.3040: real time    0.3040
       DOS:  cpu time    0.0000: real time    0.0001
    CHARGE:  cpu time    0.0240: real time    0.0227
    MIXING:  cpu time    0.0000: real time    0.0008
    --------------------------------------------
      LOOP:  cpu time    0.7000: real time    0.8562

 eigenvalue-minimisations  :   360
 total energy-change (2. order) : 0.5786513E-02  (-0.1653952E-01)
 number of electron     248.0001208 magnetization 
 augmentation part       20.4397083 magnetization 

 Broyden mixing:
  rms(total) = 0.54733E-01    rms(broyden)= 0.54680E-01
  rms(prec ) = 0.67839E-01
  weight for this iteration     100.00

 eigenvalues of (default mixing * dielectric matrix)
  average eigenvalue GAMMA=   1.4176
  2.4764  1.0514  1.0514  1.0913

 Free energy of the ion-electron system (eV)
  ---------------------------------------------------
  alpha Z        PSCENC =       586.68070446
  Ewald energy   TEWEN  =    -10852.81338216
  -Hartree energ DENC   =     -4585.22126476
  -exchange      EXHF   =         0.00000000
  -V(xc)+E(xc)   XCENC  =      -642.55056167
  PAW double counting   =     17346.21738214   -15750.10087539
  entropy T*S    EENTRO =        -0.00000000
  eigenvalues    EBANDS =      -620.48392041
  atomic energy  EATOM  =     14137.33582803
  Solvation  Ediel_sol  =         0.00000000
  ---------------------------------------------------
  free energy    TOTEN  =      -380.93608975 eV

  energy without entropy =     -380.93608975  energy(sigma->0) =     -380.93608975


--------------------------------------------------------------------------------------------------------




----------------------------------------- Iteration    1(  10)  ---------------------------------------


    POTLOK:  cpu time    0.0240: real time    0.0244
    SETDIJ:  cpu time    0.3680: real time    0.3672
     EDDAV:  cpu time    0.3040: real time    0.3061
       DOS:  cpu time    0.0000: real time    0.0001
    CHARGE:  cpu time    0.0240: real time    0.0225
    MIXING:  cpu time    0.0000: real time    0.0008
    --------------------------------------------
      LOOP:  cpu time    0.7200: real time    0.8812

 eigenvalue-minimisations  :   368
 total energy-change (2. order) :-0.4527118E-03  (-0.2112156E-02)
 number of electron     248.0001211 magnetization 
 augmentation part       20.4421969 magnetization 

 Broyden mixing:
  rms(total) = 0.23548E-01    rms(broyden)= 0.23521E-01
  rms(prec ) = 0.29972E-01
  weight for this iteration     100.00

 eigenvalues of (default mixing * dielectric matrix)
  average eigenvalue GAMMA=   1.4735
  2.5142  2.2321  1.0056  1.0056  0.6101

 Free energy of the ion-electron system (eV)
  ---------------------------------------------------
  alpha Z        PSCENC =       586.68070446
  Ewald energy   TEWEN  =    -10852.81338216
  -Hartree energ DENC   =     -4584.53846882
  -exchange      EXHF   =         0.00000000
  -V(xc)+E(xc)   XCENC  =      -642.55929521
  PAW double counting   =     17298.63208679   -15702.51356970
  entropy T*S    EENTRO =        -0.00000000
  eigenvalues    EBANDS =      -621.16044587
  atomic energy  EATOM  =     14137.33582803
  Solvation  Ediel_sol  =         0.00000000
  ---------------------------------------------------
  free energy    TOTEN  =      -380.93654247 eV

  energy without entropy =     -380.93654247  energy(sigma->0) =     -380.93654247


--------------------------------------------------------------------------------------------------------




----------------------------------------- Iteration    1(  11)  ---------------------------------------


    POTLOK:  cpu time    0.0240: real time    0.0246
    SETDIJ:  cpu time    0.3680: real time    0.3662
     EDDAV:  cpu time    0.2880: real time    0.2874
       DOS:  cpu time    0.0000: real time    0.0001
    CHARGE:  cpu time    0.0200: real time    0.0225
    MIXING:  cpu time    0.0040: real time    0.0009
    --------------------------------------------
      LOOP:  cpu time    0.7040: real time    0.8473

 eigenvalue-minimisations  :   336
 total energy-change (2. order) :-0.2084868E-02  (-0.5089914E-03)
 number of electron     248.0001212 magnetization 
 augmentation part       20.4471443 magnetization 

 Broyden mixing:
  rms(total) = 0.17137E-01    rms(broyden)= 0.17132E-01
  rms(prec ) = 0.23872E-01
  weight for this iteration     100.00

 eigenvalues of (default mixing * dielectric matrix)
  average eigenvalue GAMMA=   1.4571
  2.7122  2.4168  0.9994  0.9994  0.8074  0.8074

 Free energy of the ion-electron system (eV)
  ---------------------------------------------------
  alpha Z        PSCENC =       586.68070446
  Ewald energy   TEWEN  =    -10852.81338216
  -Hartree energ DENC   =     -4584.35671921
  -exchange      EXHF   =         0.00000000
  -V(xc)+E(xc)   XCENC  =      -642.51755175
  PAW double counting   =     17249.39029066   -15653.28389210
  entropy T*S    EENTRO =        -0.00000000
  eigenvalues    EBANDS =      -621.37390527
  atomic energy  EATOM  =     14137.33582803
  Solvation  Ediel_sol  =         0.00000000
  ---------------------------------------------------
  free energy    TOTEN  =      -380.93862733 eV

  energy without entropy =     -380.93862733  energy(sigma->0) =     -380.93862733


--------------------------------------------------------------------------------------------------------




----------------------------------------- Iteration    1(  12)  ---------------------------------------


    POTLOK:  cpu time    0.0160: real time    0.0189
    SETDIJ:  cpu time    0.3520: real time    0.3519
     EDDAV:  cpu time    0.3760: real time    0.3745
       DOS:  cpu time    0.0000: real time    0.0001
    CHARGE:  cpu time    0.0240: real time    0.0224
    MIXING:  cpu time    0.0000: real time    0.0009
    --------------------------------------------
      LOOP:  cpu time    0.7680: real time    0.9008

 eigenvalue-minimisations  :   480
 total energy-change (2. order) : 0.2587799E-03  (-0.8798883E-04)
 number of electron     248.0001212 magnetization 
 augmentation part       20.4448865 magnetization 

 Broyden mixing:
  rms(total) = 0.95392E-02    rms(broyden)= 0.95385E-02
  rms(prec ) = 0.12908E-01
  weight for this iteration     100.00

 eigenvalues of (default mixing * dielectric matrix)
  average eigenvalue GAMMA=   1.4108
  2.7776  2.4283  1.0186  1.0186  0.9716  0.9716  0.6892

 Free energy of the ion-electron system (eV)
  ---------------------------------------------------
  alpha Z        PSCENC =       586.68070446
  Ewald energy   TEWEN  =    -10852.81338216
  -Hartree energ DENC   =     -4584.82056136
  -exchange      EXHF   =         0.00000000
  -V(xc)+E(xc)   XCENC  =      -642.46978321
  PAW double counting   =     17235.48634555   -15639.39220657
  entropy T*S    EENTRO =        -0.00000000
  eigenvalues    EBANDS =      -620.94531330
  atomic energy  EATOM  =     14137.33582803
  Solvation  Ediel_sol  =         0.00000000
  ---------------------------------------------------
  free energy    TOTEN  =      -380.93836855 eV

  energy without entropy =     -380.93836855  energy(sigma->0) =     -380.93836855


--------------------------------------------------------------------------------------------------------




----------------------------------------- Iteration    1(  13)  ---------------------------------------


    POTLOK:  cpu time    0.0240: real time    0.0232
    SETDIJ:  cpu time    0.3640: real time    0.3631
     EDDAV:  cpu time    0.3040: real time    0.3049
       DOS:  cpu time    0.0000: real time    0.0001
    CHARGE:  cpu time    0.0240: real time    0.0231
    MIXING:  cpu time    0.0000: real time    0.0010
    --------------------------------------------
      LOOP:  cpu time    0.7160: real time    0.8552

 eigenvalue-minimisations  :   368
 total energy-change (2. order) : 0.7230075E-04  (-0.1272956E-03)
 number of electron     248.0001211 magnetization 
 augmentation part       20.4463578 magnetization 

 Broyden mixing:
  rms(total) = 0.26134E-02    rms(broyden)= 0.25954E-02
  rms(prec ) = 0.36359E-02
  weight for this iteration     100.00

 eigenvalues of (default mixing * dielectric matrix)
  average eigenvalue GAMMA=   1.3657
  2.7895  2.4191  1.0269  1.0269  0.9613  0.9613  0.8703  0.8703

 Free energy of the ion-electron system (eV)
  ---------------------------------------------------
  alpha Z        PSCENC =       586.68070446
  Ewald energy   TEWEN  =    -10852.81338216
  -Hartree energ DENC   =     -4584.83114669
  -exchange      EXHF   =         0.00000000
  -V(xc)+E(xc)   XCENC  =      -642.47035667
  PAW double counting   =     17234.75864844   -15638.66573258
  entropy T*S    EENTRO =        -0.00000000
  eigenvalues    EBANDS =      -620.93285909
  atomic energy  EATOM  =     14137.33582803
  Solvation  Ediel_sol  =         0.00000000
  ---------------------------------------------------
  free energy    TOTEN  =      -380.93829625 eV

  energy without entropy =     -380.93829625  energy(sigma->0) =     -380.93829625


--------------------------------------------------------------------------------------------------------




----------------------------------------- Iteration    1(  14)  ---------------------------------------


    POTLOK:  cpu time    0.0280: real time    0.0274
    SETDIJ:  cpu time    0.3880: real time    0.3882
     EDDAV:  cpu time    0.2960: real time    0.2958
       DOS:  cpu time    0.0000: real time    0.0001
    CHARGE:  cpu time    0.0240: real time    0.0230
    MIXING:  cpu time    0.0000: real time    0.0011
    --------------------------------------------
      LOOP:  cpu time    0.7360: real time    1.0455

 eigenvalue-minimisations  :   352
 total energy-change (2. order) :-0.4468047E-05  (-0.1601473E-04)
 number of electron     248.0001211 magnetization 
 augmentation part       20.4463696 magnetization 

 Broyden mixing:
  rms(total) = 0.11822E-02    rms(broyden)= 0.11802E-02
  rms(prec ) = 0.17946E-02
  weight for this iteration     100.00

 eigenvalues of (default mixing * dielectric matrix)
  average eigenvalue GAMMA=   1.3886
  2.9215  2.4588  1.7128  1.0297  1.0297  0.9726  0.9726  0.7000  0.7000

 Free energy of the ion-electron system (eV)
  ---------------------------------------------------
  alpha Z        PSCENC =       586.68070446
  Ewald energy   TEWEN  =    -10852.81338216
  -Hartree energ DENC   =     -4584.78596152
  -exchange      EXHF   =         0.00000000
  -V(xc)+E(xc)   XCENC  =      -642.47505927
  PAW double counting   =     17234.83994250   -15638.74979107
  entropy T*S    EENTRO =        -0.00000000
  eigenvalues    EBANDS =      -620.97058169
  atomic energy  EATOM  =     14137.33582803
  Solvation  Ediel_sol  =         0.00000000
  ---------------------------------------------------
  free energy    TOTEN  =      -380.93830072 eV

  energy without entropy =     -380.93830072  energy(sigma->0) =     -380.93830072


--------------------------------------------------------------------------------------------------------




----------------------------------------- Iteration    1(  15)  ---------------------------------------


    POTLOK:  cpu time    0.0240: real time    0.0241
    SETDIJ:  cpu time    0.3640: real time    0.3652
     EDDAV:  cpu time    0.4720: real time    0.4726
       DOS:  cpu time    0.0000: real time    0.0001
    CHARGE:  cpu time    0.0240: real time    0.0228
    MIXING:  cpu time    0.0000: real time    0.0011
    --------------------------------------------
      LOOP:  cpu time    0.8840: real time    1.0674

 eigenvalue-minimisations  :   352
 total energy-change (2. order) :-0.3146104E-05  (-0.2590825E-05)
 number of electron     248.0001211 magnetization 
 augmentation part       20.4473389 magnetization 

 Broyden mixing:
  rms(total) = 0.12190E-02    rms(broyden)= 0.12184E-02
  rms(prec ) = 0.16318E-02
  weight for this iteration     100.00

 eigenvalues of (default mixing * dielectric matrix)
  average eigenvalue GAMMA=   1.4328
  3.0006  2.3850  2.3850  0.8928  0.8928  1.0736  1.0736  0.8309  0.8969  0.8969

 Free energy of the ion-electron system (eV)
  ---------------------------------------------------
  alpha Z        PSCENC =       586.68070446
  Ewald energy   TEWEN  =    -10852.81338216
  -Hartree energ DENC   =     -4584.67401626
  -exchange      EXHF   =         0.00000000
  -V(xc)+E(xc)   XCENC  =      -642.48542315
  PAW double counting   =     17234.17445236   -15638.08484912
  entropy T*S    EENTRO =        -0.00000000
  eigenvalues    EBANDS =      -621.07161802
  atomic energy  EATOM  =     14137.33582803
  Solvation  Ediel_sol  =         0.00000000
  ---------------------------------------------------
  free energy    TOTEN  =      -380.93830387 eV

  energy without entropy =     -380.93830387  energy(sigma->0) =     -380.93830387


--------------------------------------------------------------------------------------------------------




----------------------------------------- Iteration    1(  16)  ---------------------------------------


    POTLOK:  cpu time    0.0240: real time    0.0232
    SETDIJ:  cpu time    0.3640: real time    0.3629
     EDDAV:  cpu time    0.3080: real time    0.3100
       DOS:  cpu time    0.0000: real time    0.0001
    CHARGE:  cpu time    0.0240: real time    0.0226
    MIXING:  cpu time    0.0000: real time    0.0012
    --------------------------------------------
      LOOP:  cpu time    0.7200: real time    0.8927

 eigenvalue-minimisations  :   376
 total energy-change (2. order) : 0.2486093E-05  (-0.7382421E-06)
 number of electron     248.0001211 magnetization 
 augmentation part       20.4471886 magnetization 

 Broyden mixing:
  rms(total) = 0.80751E-03    rms(broyden)= 0.80734E-03
  rms(prec ) = 0.10269E-02
  weight for this iteration     100.00

 eigenvalues of (default mixing * dielectric matrix)
  average eigenvalue GAMMA=   1.4558
  3.0212  2.5177  2.3985  1.3817  1.3817  0.8926  0.8926  0.9750  0.9750  0.7892
  0.7892

 Free energy of the ion-electron system (eV)
  ---------------------------------------------------
  alpha Z        PSCENC =       586.68070446
  Ewald energy   TEWEN  =    -10852.81338216
  -Hartree energ DENC   =     -4584.69201277
  -exchange      EXHF   =         0.00000000
  -V(xc)+E(xc)   XCENC  =      -642.48580284
  PAW double counting   =     17234.89697508   -15638.80768735
  entropy T*S    EENTRO =        -0.00000000
  eigenvalues    EBANDS =      -621.05292384
  atomic energy  EATOM  =     14137.33582803
  Solvation  Ediel_sol  =         0.00000000
  ---------------------------------------------------
  free energy    TOTEN  =      -380.93830138 eV

  energy without entropy =     -380.93830138  energy(sigma->0) =     -380.93830138


--------------------------------------------------------------------------------------------------------




----------------------------------------- Iteration    1(  17)  ---------------------------------------


    POTLOK:  cpu time    0.0240: real time    0.0241
    SETDIJ:  cpu time    0.3680: real time    0.3677
     EDDAV:  cpu time    0.2760: real time    0.2780
       DOS:  cpu time    0.0000: real time    0.0001
    --------------------------------------------
      LOOP:  cpu time    0.6680: real time    0.8420

 eigenvalue-minimisations  :   320
 total energy-change (2. order) : 0.2349843E-06  (-0.4410995E-06)
 number of electron     248.0001211 magnetization 
 augmentation part       20.4471886 magnetization 

 Free energy of the ion-electron system (eV)
  ---------------------------------------------------
  alpha Z        PSCENC =       586.68070446
  Ewald energy   TEWEN  =    -10852.81338216
  -Hartree energ DENC   =     -4584.68388670
  -exchange      EXHF   =         0.00000000
  -V(xc)+E(xc)   XCENC  =      -642.48700712
  PAW double counting   =     17235.02715383   -15638.93710136
  entropy T*S    EENTRO =        -0.00000000
  eigenvalues    EBANDS =      -621.06061013
  atomic energy  EATOM  =     14137.33582803
  Solvation  Ediel_sol  =         0.00000000
  ---------------------------------------------------
  free energy    TOTEN  =      -380.93830115 eV

  energy without entropy =     -380.93830115  energy(sigma->0) =     -380.93830115


--------------------------------------------------------------------------------------------------------




 average (electrostatic) potential at core
  the test charge radii are     1.0714  0.7215
  (the norm of the test charge is              1.0000)
       1 -35.1248       2 -35.1248       3 -35.1248       4 -35.1248       5 -35.1248
       6 -35.1248       7 -35.1248       8 -35.1248       9 -35.4682      10 -35.3610
      11 -35.3610      12 -35.1409      13 -35.4682      14 -35.3610      15 -35.3610
      16 -35.1409      17 -35.4682      18 -35.3610      19 -35.4682      20 -35.3610
      21 -35.3610      22 -35.1409      23 -35.3610      24 -35.1409      25 -35.4682
      26 -35.4682      27 -35.3610      28 -35.3610      29 -35.3610      30 -35.3610
      31 -35.1409      32 -35.1409      33 -70.0908      34 -70.0908      35 -69.9361
      36 -70.0908      37 -69.9361      38 -69.9361      39 -69.7132      40 -70.0003
      41 -70.0003      42 -70.0003      43 -70.0003      44 -69.7660      45 -69.7660
      46 -69.7660      47 -69.7660      48 -70.0003      49 -70.0003      50 -69.7660
      51 -69.7660      52 -70.0003      53 -70.0003      54 -69.7660      55 -69.7660
      56 -70.0003      57 -69.7660      58 -70.0003      59 -69.7660      60 -70.0003
      61 -69.7660      62 -70.0003      63 -69.7660
 
 
 
 E-fermi :   3.1120     XC(G=0): -10.8222     alpha+bet :-12.6984


 k-point     1 :       0.2500    0.2500    0.2500
  band No.  band energies     occupation 
      1     -14.0345      2.00000
      2     -13.7392      2.00000
      3     -13.7392      2.00000
      4     -13.5976      2.00000
      5     -13.4041      2.00000
      6     -13.4041      2.00000
      7     -13.3775      2.00000
      8     -13.2340      2.00000
      9     -13.2340      2.00000
     10     -13.1856      2.00000
     11     -13.1097      2.00000
     12     -13.0655      2.00000
     13     -13.0655      2.00000
     14     -13.0577      2.00000
     15     -12.9504      2.00000
     16     -12.9348      2.00000
     17     -12.9348      2.00000
     18     -12.8999      2.00000
     19     -12.8999      2.00000
     20     -12.8760      2.00000
     21     -12.8269      2.00000
     22     -12.8269      2.00000
     23     -12.7931      2.00000
     24     -12.7820      2.00000
     25     -12.7820      2.00000
     26     -12.6693      2.00000
     27     -12.6693      2.00000
     28     -12.6616      2.00000
     29     -12.6535      2.00000
     30     -12.6535      2.00000
     31     -12.6408      2.00000
     32      -1.2754      2.00000
     33      -1.2754      2.00000
     34      -1.2525      2.00000
     35      -1.0583      2.00000
     36      -0.9619      2.00000
     37      -0.8351      2.00000
     38      -0.8351      2.00000
     39      -0.7554      2.00000
     40      -0.7554      2.00000
     41      -0.7453      2.00000
     42      -0.7033      2.00000
     43      -0.6392      2.00000
     44      -0.6392      2.00000
     45      -0.5769      2.00000
     46      -0.5633      2.00000
     47      -0.5633      2.00000
     48      -0.4678      2.00000
     49      -0.4429      2.00000
     50      -0.4429      2.00000
     51      -0.4152      2.00000
     52      -0.3724      2.00000
     53      -0.3724      2.00000
     54      -0.2740      2.00000
     55      -0.2673      2.00000
     56      -0.2673      2.00000
     57      -0.0593      2.00000
     58      -0.0593      2.00000
     59      -0.0467      2.00000
     60       0.5250      2.00000
     61       0.5357      2.00000
     62       0.5357      2.00000
     63       0.5652      2.00000
     64       0.5652      2.00000
     65       0.5674      2.00000
     66       0.5767      2.00000
     67       0.6528      2.00000
     68       0.6822      2.00000
     69       0.6822      2.00000
     70       0.8899      2.00000
     71       0.8899      2.00000
     72       1.1663      2.00000
     73       1.2586      2.00000
     74       1.2586      2.00000
     75       1.2655      2.00000
     76       1.2655      2.00000
     77       1.2712      2.00000
     78       1.2995      2.00000
     79       1.4005      2.00000
     80       1.4005      2.00000
     81       1.5712      2.00000
     82       1.5712      2.00000
     83       1.6154      2.00000
     84       1.6215      2.00000
     85       1.6549      2.00000
     86       1.6549      2.00000
     87       1.7037      2.00000
     88       1.7037      2.00000
     89       1.7121      2.00000
     90       1.7148      2.00000
     91       1.8086      2.00000
     92       1.8086      2.00000
     93       1.8869      2.00000
     94       1.8869      2.00000
     95       1.9280      2.00000
     96       1.9562      2.00000
     97       1.9614      2.00000
     98       1.9614      2.00000
     99       2.0067      2.00000
    100       2.0067      2.00000
    101       2.0099      2.00000
    102       2.0388      2.00000
    103       2.0631      2.00000
    104       2.0881      2.00000
    105       2.0881      2.00000
    106       2.1337      2.00000
    107       2.1544      2.00000
    108       2.1544      2.00000
    109       2.2124      2.00000
    110       2.2124      2.00000
    111       2.2560      2.00000
    112       2.3760      2.00000
    113       2.3760      2.00000
    114       2.4254      2.00000
    115       2.4254      2.00000
    116       2.4319      2.00000
    117       2.4571      2.00000
    118       2.4571      2.00000
    119       2.4805      2.00000
    120       2.5447      2.00000
    121       2.5523      2.00000
    122       2.5523      2.00000
    123       2.8080      2.00000
    124       2.8080      2.00000
    125       5.5235      0.00000
    126       8.4524      0.00000
    127       9.4314      0.00000
    128       9.4314      0.00000
    129       9.9510      0.00000
    130      10.2100      0.00000
    131      10.4668      0.00000
    132      10.4668      0.00000
    133      10.6234      0.00000
    134      10.9406      0.00000
    135      10.9406      0.00000
    136      11.4291      0.00000
    137      11.4291      0.00000
    138      11.5404      0.00000
    139      11.7975      0.00000
    140      11.8851      0.00000
    141      11.8851      0.00000
    142      12.1432      0.00000
    143      12.1979      0.00000
    144      12.2077      0.00000
    145      12.2077      0.00000
    146      12.4150      0.00000
    147      12.4150      0.00000
    148      12.5479      0.00000
    149      12.5479      0.00000
    150      12.6128      0.00000
    151      12.7200      0.00000
    152      12.9258      0.00000
    153      12.9259      0.00000
    154      13.1827      0.00000
    155      13.2135      0.00000
    156      13.2344      0.00000


--------------------------------------------------------------------------------------------------------


 soft charge-density along one line, spin component           1
         0         1         2         3         4         5         6         7         8         9
 total charge-density along one line
 
 pseudopotential strength for first ion, spin component:           1
  2.971   9.439  -0.000  -0.000  -0.000  -0.000  -0.000  -0.000
  9.439  29.829  -0.000  -0.000  -0.000  -0.000  -0.000  -0.000
 -0.000  -0.000   7.299  -0.000  -0.000  10.570  -0.001  -0.001
 -0.000  -0.000  -0.000   7.299  -0.000  -0.001  10.570  -0.001
 -0.000  -0.000  -0.000  -0.000   7.299  -0.001  -0.001  10.570
 -0.000  -0.000  10.570  -0.001  -0.001  14.528  -0.001  -0.001
 -0.000  -0.000  -0.001  10.570  -0.001  -0.001  14.528  -0.001
 -0.000  -0.000  -0.001  -0.001  10.570  -0.001  -0.001  14.528
 -0.000  -0.001  -0.000  -0.000  -0.000  -0.000  -0.000  -0.000
 -0.000  -0.001  -0.000  -0.000  -0.000  -0.000  -0.000  -0.000
 -0.000  -0.000  -0.000   0.000  -0.000  -0.000   0.000  -0.000
 -0.000  -0.001  -0.000  -0.000  -0.000  -0.000  -0.000  -0.000
  0.000   0.000  -0.000   0.000   0.000  -0.000   0.000   0.000
 total augmentation occupancy for first ion, spin component:           1
  0.978  -0.045  -0.001  -0.001  -0.001  -0.000  -0.000  -0.000   0.001   0.001   0.000   0.001  -0.000
 -0.045   0.002  -0.000  -0.000  -0.000   0.000   0.000   0.000  -0.000  -0.000  -0.000  -0.000  -0.000
 -0.001  -0.000   0.113   0.000   0.000  -0.012  -0.000  -0.000   0.001   0.001   0.001  -0.000   0.001
 -0.001  -0.000   0.000   0.113   0.000  -0.000  -0.012  -0.000  -0.000   0.001  -0.001   0.001  -0.000
 -0.001  -0.000   0.000   0.000   0.113  -0.000  -0.000  -0.012   0.001  -0.000   0.001   0.001  -0.001
 -0.000   0.000  -0.012  -0.000  -0.000   0.001   0.000   0.000  -0.000  -0.000  -0.000   0.000  -0.000
 -0.000   0.000  -0.000  -0.012  -0.000   0.000   0.001   0.000   0.000  -0.000   0.000  -0.000   0.000
 -0.000   0.000  -0.000  -0.000  -0.012   0.000   0.000   0.001  -0.000   0.000  -0.000  -0.000   0.000
  0.001  -0.000   0.001  -0.000   0.001  -0.000   0.000  -0.000   0.012  -0.000  -0.000  -0.000   0.000
  0.001  -0.000   0.001   0.001  -0.000  -0.000  -0.000   0.000  -0.000   0.012   0.000  -0.000  -0.000
  0.000  -0.000   0.001  -0.001   0.001  -0.000   0.000  -0.000  -0.000   0.000   0.049   0.000   0.000
  0.001  -0.000  -0.000   0.001   0.001   0.000  -0.000  -0.000  -0.000  -0.000   0.000   0.012   0.000
 -0.000  -0.000   0.001  -0.000  -0.001  -0.000   0.000   0.000   0.000  -0.000   0.000   0.000   0.049


------------------------ aborting loop because EDIFF is reached ----------------------------------------


    CHARGE:  cpu time    0.0280: real time    0.0296
    FORLOC:  cpu time    0.0120: real time    0.0131
    FORNL :  cpu time    0.0880: real time    0.0853
    STRESS:  cpu time    0.2400: real time    0.2401
    FORCOR:  cpu time    0.0280: real time    0.0284
    FORHAR:  cpu time    0.0120: real time    0.0133
    MIXING:  cpu time    0.0040: real time    0.0013
    OFIELD:  cpu time    0.0000: real time    0.0000

  FORCE on cell =-STRESS in cart. coord.  units (eV):
  Direction    XX          YY          ZZ          XY          YZ          ZX
  --------------------------------------------------------------------------------------
  Alpha Z   586.68070   586.68070   586.68070
  Ewald   -3617.62426 -3617.62426 -3617.62426     0.00000    -0.00000     0.00000
  Hartree  1528.23616  1528.23616  1528.23616    -0.00000    -0.00000    -0.00000
  E(xc)   -1124.11860 -1124.11860 -1124.11860     0.00000     0.00000    -0.00000
  Local   -1415.82262 -1415.82262 -1415.82262     0.00000     0.00000     0.00000
  n-local  -579.36195  -579.36196  -579.36196     0.11205     0.11205     0.11205
  augment   210.57220   210.57220   210.57220    -0.00000     0.00000    -0.00000
  Kinetic  4381.96241  4381.96244  4381.96244    -2.05341    -2.05343    -2.05342
  Fock        0.00000     0.00000     0.00000     0.00000     0.00000     0.00000
  -------------------------------------------------------------------------------------
  Total     -29.47595   -29.47595   -29.47595    -0.00000     0.00000    -0.00000
  in kB     -77.06807   -77.06807   -77.06807    -0.00000     0.00000    -0.00000
  external pressure =      -77.07 kB  Pullay stress =        0.00 kB


 VOLUME and BASIS-vectors are now :
 -----------------------------------------------------------------------------
  energy-cutoff  :      400.00
  volume of cell :      612.78
      direct lattice vectors                 reciprocal lattice vectors
     8.493786039  0.000000000  0.000000000     0.117733128  0.000000000  0.000000000
     0.000000000  8.493786039  0.000000000     0.000000000  0.117733128  0.000000000
     0.000000000  0.000000000  8.493786039     0.000000000  0.000000000  0.117733128

  length of vectors
     8.493786039  8.493786039  8.493786039     0.117733128  0.117733128  0.117733128


 FORCES acting on ions
    electron-ion (+dipol)            ewald-force                    non-local-force                 convergence-correction
 -----------------------------------------------------------------------------------------------
   -.316E+01 -.316E+01 -.316E+01   0.317E+01 0.317E+01 0.317E+01   0.162E-01 0.162E-01 0.162E-01   -.135E-03 -.135E-03 -.135E-03
   -.316E+01 -.316E+01 0.316E+01   0.317E+01 0.317E+01 -.317E+01   0.162E-01 0.162E-01 -.162E-01   -.135E-03 -.135E-03 0.135E-03
   -.316E+01 0.316E+01 -.316E+01   0.317E+01 -.317E+01 0.317E+01   0.162E-01 -.162E-01 0.162E-01   -.135E-03 0.135E-03 -.135E-03
   -.316E+01 0.316E+01 0.316E+01   0.317E+01 -.317E+01 -.317E+01   0.162E-01 -.162E-01 -.162E-01   -.135E-03 0.135E-03 0.135E-03
   0.316E+01 -.316E+01 -.316E+01   -.317E+01 0.317E+01 0.317E+01   -.162E-01 0.162E-01 0.162E-01   0.135E-03 -.135E-03 -.135E-03
   0.316E+01 -.316E+01 0.316E+01   -.317E+01 0.317E+01 -.317E+01   -.162E-01 0.162E-01 -.162E-01   0.135E-03 -.135E-03 0.135E-03
   0.316E+01 0.316E+01 -.316E+01   -.317E+01 -.317E+01 0.317E+01   -.162E-01 -.162E-01 0.162E-01   0.135E-03 0.135E-03 -.135E-03
   0.316E+01 0.316E+01 0.316E+01   -.317E+01 -.317E+01 -.317E+01   -.162E-01 -.162E-01 -.162E-01   0.135E-03 0.135E-03 0.135E-03
   -.364E+02 -.791E-12 0.147E-05   0.338E+02 -.196E-12 -.195E-12   0.260E+01 0.325E-18 -.325E-18   -.787E-04 0.176E-12 0.193E-12
   -.129E+01 0.110E-11 -.260E-05   0.110E+01 -.207E-12 0.943E-12   0.187E+00 0.271E-19 -.203E-18   0.431E-04 0.174E-12 -.194E-12
   -.129E+01 -.476E-11 -.262E-05   0.110E+01 0.947E-12 -.201E-12   0.187E+00 0.136E-18 -.813E-19   0.431E-04 -.178E-12 0.195E-12
   -.121E+01 -.316E-11 -.116E-05   0.107E+01 0.981E-12 0.983E-12   0.966E-01 -.136E-19 0.339E-19   -.122E-03 -.176E-12 -.198E-12
   0.364E+02 0.369E-12 -.147E-05   -.338E+02 -.209E-12 -.195E-12   -.260E+01 0.108E-18 0.488E-18   0.787E-04 0.177E-12 0.200E-12
   0.129E+01 -.532E-12 0.260E-05   -.110E+01 -.206E-12 0.955E-12   -.187E+00 0.271E-19 -.108E-18   -.431E-04 0.174E-12 -.204E-12
   0.129E+01 -.346E-11 0.262E-05   -.110E+01 0.954E-12 -.194E-12   -.187E+00 -.813E-19 0.881E-19   -.431E-04 -.179E-12 0.205E-12
   0.121E+01 -.329E-11 0.116E-05   -.107E+01 0.973E-12 0.968E-12   -.966E-01 0.169E-19 -.678E-20   0.122E-03 -.174E-12 -.206E-12
   0.177E-12 -.364E+02 0.147E-05   -.206E-12 0.338E+02 -.193E-12   0.542E-19 0.260E+01 0.136E-18   0.171E-12 -.787E-04 0.200E-12
   0.179E-12 -.129E+01 -.260E-05   -.202E-12 0.110E+01 0.951E-12   -.949E-19 0.187E+00 -.813E-19   0.173E-12 0.431E-04 -.201E-12
   0.174E-12 0.364E+02 -.147E-05   -.196E-12 -.338E+02 -.191E-12   0.813E-19 -.260E+01 0.244E-18   0.172E-12 0.787E-04 0.193E-12
   0.174E-12 0.129E+01 0.260E-05   -.199E-12 -.110E+01 0.947E-12   0.108E-18 -.187E+00 -.136E-19   0.173E-12 -.431E-04 -.197E-12
   -.278E-11 -.129E+01 -.262E-05   0.962E-12 0.110E+01 -.194E-12   -.271E-18 0.187E+00 0.745E-19   -.174E-12 0.431E-04 0.201E-12
   -.333E-11 -.121E+01 -.116E-05   0.991E-12 0.107E+01 0.971E-12   0.203E-19 0.966E-01 0.237E-19   -.177E-12 -.122E-03 -.203E-12
   -.278E-11 0.129E+01 0.262E-05   0.953E-12 -.110E+01 -.195E-12   0.163E-18 -.187E+00 -.203E-19   -.175E-12 -.431E-04 0.201E-12
   -.334E-11 0.121E+01 0.116E-05   0.973E-12 -.107E+01 0.968E-12   -.102E-19 -.966E-01 0.000E+00   -.175E-12 0.122E-03 -.203E-12
   0.179E-12 0.204E-12 -.364E+02   -.196E-12 -.197E-12 0.338E+02   -.813E-19 0.325E-18 0.260E+01   0.169E-12 0.179E-12 -.787E-04
   0.174E-12 0.853E-13 0.364E+02   -.190E-12 -.194E-12 -.338E+02   0.136E-18 0.515E-18 -.260E+01   0.177E-12 0.174E-12 0.787E-04
   0.179E-12 -.267E-11 -.129E+01   -.203E-12 0.950E-12 0.110E+01   0.474E-19 -.203E-18 0.187E+00   0.168E-12 -.181E-12 0.431E-04
   0.168E-12 -.291E-11 0.129E+01   -.199E-12 0.946E-12 -.110E+01   0.678E-20 0.108E-18 -.187E+00   0.176E-12 -.176E-12 -.431E-04
   -.278E-11 -.768E-12 -.129E+01   0.949E-12 -.201E-12 0.110E+01   0.813E-19 -.542E-19 0.187E+00   -.172E-12 0.174E-12 0.431E-04
   -.277E-11 0.125E-11 0.129E+01   0.955E-12 -.193E-12 -.110E+01   -.678E-19 0.678E-20 -.187E+00   -.180E-12 0.175E-12 -.431E-04
   -.334E-11 -.325E-11 -.121E+01   0.977E-12 0.967E-12 0.107E+01   -.339E-20 -.474E-19 0.966E-01   -.170E-12 -.176E-12 -.122E-03
   -.333E-11 -.347E-11 0.121E+01   0.980E-12 0.968E-12 -.107E+01   0.305E-19 0.102E-19 -.966E-01   -.180E-12 -.176E-12 0.122E-03
   0.630E-12 0.324E-12 0.738E-10   -.611E-12 -.625E-12 0.165E-11   0.496E-23 -.993E-23 0.165E-23   0.640E-12 0.676E-12 -.762E-12
   0.633E-12 0.731E-10 0.199E-11   -.607E-12 0.165E-11 -.611E-12   0.662E-23 0.827E-24 -.993E-23   0.642E-12 -.738E-12 0.792E-12
   0.626E-12 0.756E-10 0.735E-10   -.696E-12 0.176E-11 0.171E-11   0.000E+00 0.331E-23 -.496E-23   0.638E-12 -.703E-12 -.740E-12
   0.739E-10 0.210E-13 -.334E-11   0.162E-11 -.592E-12 -.605E-12   0.827E-24 0.662E-23 0.414E-23   -.701E-12 0.690E-12 0.775E-12
   0.735E-10 0.108E-11 0.664E-10   0.181E-11 -.618E-12 0.172E-11   -.579E-23 -.827E-24 0.000E+00   -.684E-12 0.680E-12 -.744E-12
   0.735E-10 0.736E-10 -.767E-11   0.180E-11 0.175E-11 -.599E-12   -.165E-23 -.248E-23 0.000E+00   -.679E-12 -.718E-12 0.783E-12
   0.733E-10 0.733E-10 0.732E-10   0.180E-11 0.176E-11 0.174E-11   -.517E-24 0.000E+00 0.000E+00   -.680E-12 -.707E-12 -.759E-12
   0.630E-12 -.266E+02 -.266E+02   -.561E-12 0.262E+02 0.262E+02   0.108E-18 0.420E+00 0.420E+00   0.636E-12 -.394E-03 -.394E-03
   0.620E-12 -.266E+02 0.266E+02   -.586E-12 0.262E+02 -.262E+02   -.199E-18 0.420E+00 -.420E+00   0.672E-12 -.394E-03 0.394E-03
   0.626E-12 0.266E+02 -.266E+02   -.561E-12 -.262E+02 0.262E+02   0.904E-19 -.420E+00 0.420E+00   0.623E-12 0.394E-03 -.394E-03
   0.634E-12 0.266E+02 0.266E+02   -.597E-12 -.262E+02 -.262E+02   -.190E-18 -.420E+00 -.420E+00   0.649E-12 0.394E-03 0.394E-03
   0.735E-10 -.373E+01 -.373E+01   0.990E-11 0.342E+01 0.342E+01   0.136E-19 0.315E+00 0.315E+00   -.649E-12 0.319E-03 0.319E-03
   0.735E-10 -.373E+01 0.373E+01   0.991E-11 0.342E+01 -.342E+01   0.566E-21 0.315E+00 -.315E+00   -.693E-12 0.319E-03 -.319E-03
   0.735E-10 0.373E+01 -.373E+01   0.993E-11 -.342E+01 0.342E+01   -.508E-20 -.315E+00 0.315E+00   -.661E-12 -.319E-03 0.319E-03
   0.735E-10 0.373E+01 0.373E+01   0.995E-11 -.342E+01 -.342E+01   0.136E-19 -.315E+00 -.315E+00   -.712E-12 -.319E-03 -.319E-03
   -.266E+02 0.648E-12 -.266E+02   0.262E+02 -.587E-12 0.262E+02   0.420E+00 0.217E-18 0.420E+00   -.394E-03 0.697E-12 -.394E-03
   -.266E+02 0.541E-12 0.266E+02   0.262E+02 -.594E-12 -.262E+02   0.420E+00 0.542E-19 -.420E+00   -.394E-03 0.676E-12 0.394E-03
   -.373E+01 0.739E-10 -.373E+01   0.342E+01 0.133E-10 0.342E+01   0.315E+00 0.847E-20 0.315E+00   0.319E-03 -.715E-12 0.319E-03
   -.373E+01 0.741E-10 0.373E+01   0.342E+01 0.133E-10 -.342E+01   0.315E+00 -.572E-21 -.315E+00   0.319E-03 -.698E-12 -.319E-03
   0.266E+02 0.105E-11 -.266E+02   -.262E+02 -.583E-12 0.262E+02   -.420E+00 0.542E-19 0.420E+00   0.394E-03 0.698E-12 -.394E-03
   0.266E+02 0.695E-12 0.266E+02   -.262E+02 -.611E-12 -.262E+02   -.420E+00 0.542E-19 -.420E+00   0.394E-03 0.678E-12 0.394E-03
   0.373E+01 0.759E-10 -.373E+01   -.342E+01 0.134E-10 0.342E+01   -.315E+00 0.283E-20 0.315E+00   -.319E-03 -.711E-12 0.319E-03
   0.373E+01 0.735E-10 0.373E+01   -.342E+01 0.134E-10 -.342E+01   -.315E+00 0.237E-19 -.315E+00   -.319E-03 -.696E-12 -.319E-03
   -.266E+02 -.266E+02 -.220E-05   0.262E+02 0.262E+02 -.604E-12   0.420E+00 0.420E+00 -.379E-18   -.394E-03 -.394E-03 0.746E-12
   -.373E+01 -.373E+01 0.458E-04   0.342E+01 0.342E+01 0.168E-10   0.315E+00 0.315E+00 0.152E-19   0.319E-03 0.319E-03 -.753E-12
   -.266E+02 0.266E+02 0.523E-12   0.262E+02 -.262E+02 -.597E-12   0.420E+00 -.420E+00 -.904E-20   -.394E-03 0.394E-03 0.722E-12
   -.373E+01 0.373E+01 0.739E-10   0.342E+01 -.342E+01 0.168E-10   0.315E+00 -.315E+00 0.569E-21   0.319E-03 -.319E-03 -.734E-12
   0.266E+02 -.266E+02 -.751E-11   -.262E+02 0.262E+02 -.611E-12   -.420E+00 0.420E+00 0.904E-20   0.394E-03 -.394E-03 0.797E-12
   0.373E+01 -.373E+01 0.710E-10   -.342E+01 0.342E+01 0.168E-10   -.315E+00 0.315E+00 0.508E-20   -.319E-03 0.319E-03 -.787E-12
   0.266E+02 0.266E+02 0.220E-05   -.262E+02 -.262E+02 -.611E-12   -.420E+00 -.420E+00 0.136E-18   0.394E-03 0.394E-03 0.756E-12
   0.373E+01 0.373E+01 -.458E-04   -.342E+01 -.342E+01 0.168E-10   -.315E+00 -.315E+00 -.339E-20   -.319E-03 -.319E-03 -.775E-12
 -----------------------------------------------------------------------------------------------
   0.578E-09 0.590E-09 0.500E-09   -.475E-13 -.577E-14 0.490E-13   -.888E-15 -.278E-15 -.500E-15   -.740E-12 -.638E-12 0.926E-13
 
 
 POSITION                                       TOTAL-FORCE (eV/Angst)
 -----------------------------------------------------------------------------------
      8.49204      8.49204      8.49204         0.025343      0.025343      0.025343
      8.49204      8.49204      4.24864         0.025343      0.025343     -0.025343
      8.49204      4.24864      8.49204         0.025343     -0.025343      0.025343
      8.49204      4.24864      4.24864         0.025343     -0.025343     -0.025343
      4.24864      8.49204      8.49204        -0.025343      0.025343      0.025343
      4.24864      8.49204      4.24864        -0.025343      0.025343     -0.025343
      4.24864      4.24864      8.49204        -0.025343     -0.025343      0.025343
      4.24864      4.24864      4.24864        -0.025343     -0.025343     -0.025343
      8.32401      2.12345      2.12345        -0.014649      0.000000     -0.000000
      8.47419      2.12345      6.37034        -0.004028      0.000000     -0.000000
      8.47419      6.37034      2.12345        -0.004028      0.000000     -0.000000
      8.48581      6.37034      6.37034        -0.042920      0.000000     -0.000000
      4.41667      2.12345      2.12345         0.014649      0.000000     -0.000000
      4.26649      2.12345      6.37034         0.004028      0.000000     -0.000000
      4.26649      6.37034      2.12345         0.004028      0.000000     -0.000000
      4.25487      6.37034      6.37034         0.042920      0.000000     -0.000000
      2.12345      8.32401      2.12345        -0.000000     -0.014649     -0.000000
      2.12345      8.47419      6.37034        -0.000000     -0.004028     -0.000000
      2.12345      4.41667      2.12345        -0.000000      0.014649     -0.000000
      2.12345      4.26649      6.37034        -0.000000      0.004028     -0.000000
      6.37034      8.47419      2.12345        -0.000000     -0.004028     -0.000000
      6.37034      8.48581      6.37034        -0.000000     -0.042920     -0.000000
      6.37034      4.26649      2.12345        -0.000000      0.004028     -0.000000
      6.37034      4.25487      6.37034        -0.000000      0.042920     -0.000000
      2.12345      2.12345      8.32401        -0.000000      0.000000     -0.014649
      2.12345      2.12345      4.41667        -0.000000      0.000000      0.014649
      2.12345      6.37034      8.47419        -0.000000      0.000000     -0.004028
      2.12345      6.37034      4.26649        -0.000000      0.000000      0.004028
      6.37034      2.12345      8.47419        -0.000000      0.000000     -0.004028
      6.37034      2.12345      4.26649        -0.000000      0.000000      0.004028
      6.37034      6.37034      8.48581        -0.000000      0.000000     -0.042920
      6.37034      6.37034      4.25487        -0.000000      0.000000      0.042920
      2.12345      2.12345      6.37034        -0.000000      0.000000     -0.000000
      2.12345      6.37034      2.12345        -0.000000      0.000000     -0.000000
      2.12345      6.37034      6.37034        -0.000000      0.000000     -0.000000
      6.37034      2.12345      2.12345        -0.000000      0.000000     -0.000000
      6.37034      2.12345      6.37034        -0.000000      0.000000     -0.000000
      6.37034      6.37034      2.12345        -0.000000      0.000000     -0.000000
      6.37034      6.37034      6.37034        -0.000000      0.000000     -0.000000
      2.12345      0.05077      0.05077        -0.000000      0.002934      0.002934
      2.12345      0.05077      4.19613        -0.000000      0.002934     -0.002934
      2.12345      4.19613      0.05077        -0.000000     -0.002934      0.002934
      2.12345      4.19613      4.19613        -0.000000     -0.002934     -0.002934
      6.37034      0.01222      0.01222        -0.000000      0.013666      0.013666
      6.37034      0.01222      4.23467        -0.000000      0.013666     -0.013666
      6.37034      4.23467      0.01222        -0.000000     -0.013666      0.013666
      6.37034      4.23467      4.23467        -0.000000     -0.013666     -0.013666
      0.05077      2.12345      0.05077         0.002934      0.000000      0.002934
      0.05077      2.12345      4.19613         0.002934      0.000000     -0.002934
      0.01222      6.37034      0.01222         0.013666      0.000000      0.013666
      0.01222      6.37034      4.23467         0.013666      0.000000     -0.013666
      4.19613      2.12345      0.05077        -0.002934      0.000000      0.002934
      4.19613      2.12345      4.19613        -0.002934      0.000000     -0.002934
      4.23467      6.37034      0.01222        -0.013666      0.000000      0.013666
      4.23467      6.37034      4.23467        -0.013666      0.000000     -0.013666
      0.05077      0.05077      2.12345         0.002934      0.002934     -0.000000
      0.01222      0.01222      6.37034         0.013666      0.013666     -0.000000
      0.05077      4.19613      2.12345         0.002934     -0.002934     -0.000000
      0.01222      4.23467      6.37034         0.013666     -0.013666     -0.000000
      4.19613      0.05077      2.12345        -0.002934      0.002934     -0.000000
      4.23467      0.01222      6.37034        -0.013666      0.013666     -0.000000
      4.19613      4.19613      2.12345        -0.002934     -0.002934     -0.000000
      4.23467      4.23467      6.37034        -0.013666     -0.013666     -0.000000
 -----------------------------------------------------------------------------------
    total drift:                                0.000000      0.000000      0.000000


--------------------------------------------------------------------------------------------------------



  FREE ENERGIE OF THE ION-ELECTRON SYSTEM (eV)
  ---------------------------------------------------
  free  energy   TOTEN  =      -380.93830115 eV

  energy  without entropy=     -380.93830115  energy(sigma->0) =     -380.93830115
 


--------------------------------------------------------------------------------------------------------


    POTLOK:  cpu time    0.3720: real time    0.3729


--------------------------------------------------------------------------------------------------------




--------------------------------------------------------------------------------------------------------


  
 reached required accuracy - stopping structural energy minimisation
     LOOP+:  cpu time   12.3360: real time   15.6367
    4ORBIT:  cpu time    0.0000: real time    0.0000

 total amount of memory used by VASP on root node    40584. kBytes
========================================================================

   base      :      30000. kBytes
   nonlr-proj:       3417. kBytes
   fftplans  :       2002. kBytes
   grid      :       3194. kBytes
   one-center:        129. kBytes
   wavefun   :       1842. kBytes
 
  
  
 General timing and accounting informations for this job:
 ========================================================
  
                  Total CPU time used (sec):       13.104
                            User time (sec):       12.924
                          System time (sec):        0.180
                         Elapsed time (sec):       17.109
  
                   Maximum memory used (kb):       81380.
                   Average memory used (kb):           0.
  
                          Minor page faults:        30011
                          Major page faults:            6
                 Voluntary context switches:         1342
