<?xml version="1.0" encoding="ISO-8859-1"?>
<modeling>
 <generator>
  <i name="program" type="string">vasp </i>
  <i name="version" type="string">5.4.1  </i>
  <i name="subversion" type="string">05Feb16 (build Mar 31 2016 13:39:20) complex                          parallel </i>
  <i name="platform" type="string">IFC91_ompi </i>
  <i name="date" type="string">2016 05 23 </i>
  <i name="time" type="string">14:29:36 </i>
 </generator>
 <incar>
  <i type="string" name="PREC">n</i>
  <i type="string" name="ALGO"> N</i>
  <i type="int" name="NELM">   100</i>
  <i type="int" name="NELMIN">     4</i>
  <i type="int" name="IBRION">     2</i>
  <i name="EDIFF">      0.00000100</i>
  <i name="EDIFFG">     -0.05000000</i>
  <i type="int" name="NSW">    20</i>
  <i type="int" name="ISIF">     2</i>
  <i name="ENCUT">    400.00000000</i>
  <i name="NELECT">    248.00000000</i>
  <i type="string" name="LREAL"> A</i>
  <i type="int" name="ISMEAR">     0</i>
  <i name="SIGMA">      0.05000000</i>
  <i type="logical" name="LWAVE"> F  </i>
  <i type="logical" name="LCHARG"> F  </i>
  <i type="logical" name="LASPH"> T  </i>
  <v type="int" name="KPOINT_BSE">    -1     0     0     0</v>
  <i type="int" name="NELM">   100</i>
  <i type="logical" name="LASPH"> T  </i>
 </incar>
 <kpoints>
  <generation param="Monkhorst-Pack">
   <v type="int" name="divisions">       2        2        2 </v>
   <v name="usershift">      0.00000000       0.00000000       0.00000000 </v>
   <v name="genvec1">      0.50000000       0.00000000       0.00000000 </v>
   <v name="genvec2">      0.00000000       0.50000000       0.00000000 </v>
   <v name="genvec3">      0.00000000       0.00000000       0.50000000 </v>
   <v name="shift">      0.50000000       0.50000000       0.50000000 </v>
  </generation>
  <varray name="kpointlist" >
   <v>       0.25000000       0.25000000       0.25000000 </v>
  </varray>
  <varray name="weights" >
   <v>       1.00000000 </v>
  </varray>
 </kpoints>
 <parameters>
  <separator name="general" >
   <i type="string" name="SYSTEM">unknown system</i>
   <i type="logical" name="LCOMPAT"> F  </i>
  </separator>
  <separator name="electronic" >
   <i type="string" name="PREC">n</i>
   <i name="ENMAX">    400.00000000</i>
   <i name="ENAUG">    605.39200000</i>
   <i name="EDIFF">      0.00000100</i>
   <i type="int" name="IALGO">    38</i>
   <i type="int" name="IWAVPR">    11</i>
   <i type="int" name="NBANDS">   156</i>
   <i name="NELECT">    248.00000000</i>
   <i type="int" name="TURBO">     0</i>
   <i type="int" name="IRESTART">     0</i>
   <i type="int" name="NREBOOT">     0</i>
   <i type="int" name="NMIN">     0</i>
   <i name="EREF">      0.00000000</i>
   <separator name="electronic smearing" >
    <i type="int" name="ISMEAR">     0</i>
    <i name="SIGMA">      0.05000000</i>
    <i name="KSPACING">      0.50000000</i>
    <i type="logical" name="KGAMMA"> T  </i>
   </separator>
   <separator name="electronic projectors" >
    <i type="logical" name="LREAL"> T  </i>
    <v name="ROPT">     -0.00050000     -0.00050000</v>
    <i type="int" name="LMAXPAW">  -100</i>
    <i type="int" name="LMAXMIX">     2</i>
    <i type="logical" name="NLSPLINE"> F  </i>
   </separator>
   <separator name="electronic startup" >
    <i type="int" name="ISTART">     0</i>
    <i type="int" name="ICHARG">     2</i>
    <i type="int" name="INIWAV">     1</i>
   </separator>
   <separator name="electronic spin" >
    <i type="int" name="ISPIN">     1</i>
    <i type="logical" name="LNONCOLLINEAR"> F  </i>
    <v name="MAGMOM">      1.00000000      1.00000000      1.00000000      1.00000000      1.00000000      1.00000000      1.00000000      1.00000000      1.00000000      1.00000000      1.00000000      1.00000000      1.00000000      1.00000000      1.00000000      1.00000000      1.00000000      1.00000000      1.00000000      1.00000000
      1.00000000      1.00000000      1.00000000      1.00000000      1.00000000      1.00000000      1.00000000      1.00000000      1.00000000      1.00000000      1.00000000      1.00000000      1.00000000      1.00000000      1.00000000      1.00000000      1.00000000      1.00000000      1.00000000      1.00000000
      1.00000000      1.00000000      1.00000000      1.00000000      1.00000000      1.00000000      1.00000000      1.00000000      1.00000000      1.00000000      1.00000000      1.00000000      1.00000000      1.00000000      1.00000000      1.00000000      1.00000000      1.00000000      1.00000000      1.00000000
      1.00000000      1.00000000      1.00000000</v>
    <i name="NUPDOWN">     -1.00000000</i>
    <i type="logical" name="LSORBIT"> F  </i>
    <v name="SAXIS">      0.00000000      0.00000000      1.00000000</v>
    <i type="logical" name="LSPIRAL"> F  </i>
    <v name="QSPIRAL">      0.00000000      0.00000000      0.00000000</v>
    <i type="logical" name="LZEROZ"> F  </i>
   </separator>
   <separator name="electronic exchange-correlation" >
    <i type="logical" name="LASPH"> T  </i>
    <i type="logical" name="LMETAGGA"> F  </i>
   </separator>
   <separator name="electronic convergence" >
    <i type="int" name="NELM">   100</i>
    <i type="int" name="NELMDL">     0</i>
    <i type="int" name="NELMIN">     4</i>
    <i name="ENINI">    400.00000000</i>
    <separator name="electronic convergence detail" >
     <i type="logical" name="LDIAG"> T  </i>
     <i type="logical" name="LSUBROT"> F  </i>
     <i name="WEIMIN">      0.00100000</i>
     <i name="EBREAK">      0.00000000</i>
     <i name="DEPER">      0.30000000</i>
     <i type="int" name="NRMM">     4</i>
     <i name="TIME">      0.40000000</i>
    </separator>
   </separator>
   <separator name="electronic mixer" >
    <i name="AMIX">      0.40000000</i>
    <i name="BMIX">      1.00000000</i>
    <i name="AMIN">      0.10000000</i>
    <i name="AMIX_MAG">      1.60000000</i>
    <i name="BMIX_MAG">      1.00000000</i>
    <separator name="electronic mixer details" >
     <i type="int" name="IMIX">     4</i>
     <i type="logical" name="MIXFIRST"> F  </i>
     <i type="int" name="MAXMIX">   -45</i>
     <i name="WC">    100.00000000</i>
     <i type="int" name="INIMIX">     1</i>
     <i type="int" name="MIXPRE">     1</i>
     <i type="int" name="MREMOVE">     5</i>
    </separator>
   </separator>
   <separator name="electronic dipolcorrection" >
    <i type="logical" name="LDIPOL"> F  </i>
    <i type="logical" name="LMONO"> F  </i>
    <i type="int" name="IDIPOL">     0</i>
    <i name="EPSILON">      1.00000000</i>
    <v name="DIPOL">   -100.00000000   -100.00000000   -100.00000000</v>
    <i name="EFIELD">      0.00000000</i>
   </separator>
  </separator>
  <separator name="grids" >
   <i type="int" name="NGX">    42</i>
   <i type="int" name="NGY">    42</i>
   <i type="int" name="NGZ">    42</i>
   <i type="int" name="NGXF">    84</i>
   <i type="int" name="NGYF">    84</i>
   <i type="int" name="NGZF">    84</i>
   <i type="logical" name="ADDGRID"> F  </i>
  </separator>
  <separator name="ionic" >
   <i type="int" name="NSW">    20</i>
   <i type="int" name="IBRION">     2</i>
   <i type="int" name="ISIF">     2</i>
   <i name="PSTRESS">      0.00000000</i>
   <i name="EDIFFG">     -0.05000000</i>
   <i type="int" name="NFREE">     1</i>
   <i name="POTIM">      0.50000000</i>
   <i name="SMASS">     -3.00000000</i>
   <i name="SCALEE">      1.00000000</i>
  </separator>
  <separator name="ionic md" >
   <i name="TEBEG">      0.00010000</i>
   <i name="TEEND">      0.00010000</i>
   <i type="int" name="NBLOCK">     1</i>
   <i type="int" name="KBLOCK">    20</i>
   <i type="int" name="NPACO">   256</i>
   <i name="APACO">     16.00000000</i>
  </separator>
  <separator name="symmetry" >
   <i type="int" name="ISYM">     2</i>
   <i name="SYMPREC">      0.00001000</i>
  </separator>
  <separator name="dos" >
   <i type="logical" name="LORBIT"> F  </i>
   <v name="RWIGS">     -1.00000000     -1.00000000</v>
   <i type="int" name="NEDOS">   301</i>
   <i name="EMIN">     10.00000000</i>
   <i name="EMAX">    -10.00000000</i>
   <i name="EFERMI">      0.00000000</i>
  </separator>
  <separator name="writing" >
   <i type="int" name="NWRITE">     2</i>
   <i type="logical" name="LWAVE"> F  </i>
   <i type="logical" name="LCHARG"> F  </i>
   <i type="logical" name="LPARD"> F  </i>
   <i type="logical" name="LVTOT"> F  </i>
   <i type="logical" name="LVHAR"> F  </i>
   <i type="logical" name="LELF"> F  </i>
   <i type="logical" name="LOPTICS"> F  </i>
   <v name="STM">      0.00000000      0.00000000      0.00000000      0.00000000      0.00000000      0.00000000      0.00000000</v>
  </separator>
  <separator name="performance" >
   <i type="int" name="NPAR">     4</i>
   <i type="int" name="NSIM">     4</i>
   <i type="int" name="NBLK">    -1</i>
   <i type="logical" name="LPLANE"> T  </i>
   <i type="logical" name="LSCALAPACK"> T  </i>
   <i type="logical" name="LSCAAWARE"> F  </i>
   <i type="logical" name="LSCALU"> F  </i>
   <i type="logical" name="LASYNC"> F  </i>
   <i type="logical" name="LORBITALREAL"> F  </i>
  </separator>
  <separator name="miscellaneous" >
   <i type="int" name="IDIOT">     3</i>
   <i type="logical" name="LMUSIC"> F  </i>
   <v name="POMASS">     24.30500000     16.00000000</v>
   <v name="DARWINR">      0.00000000      0.00000000</v>
   <v name="DARWINV">      1.00000000      1.00000000</v>
   <i type="logical" name="LCORR"> T  </i>
  </separator>
  <i type="logical" name="GGA_COMPAT"> T  </i>
  <i type="logical" name="LBERRY"> F  </i>
  <i type="int" name="ICORELEVEL">     0</i>
  <i type="logical" name="LDAU"> F  </i>
  <i type="int" name="I_CONSTRAINED_M">     0</i>
  <separator name="electronic exchange-correlation" >
   <i type="string" name="GGA">--</i>
   <i type="int" name="VOSKOWN">     0</i>
   <i type="logical" name="LHFCALC"> F  </i>
   <i type="string" name="PRECFOCK"></i>
   <i type="logical" name="LSYMGRAD"> F  </i>
   <i type="logical" name="LHFONE"> F  </i>
   <i type="logical" name="LRHFCALC"> F  </i>
   <i type="logical" name="LTHOMAS"> F  </i>
   <i type="logical" name="LMODELHF"> F  </i>
   <i name="ENCUT4O">     -1.00000000</i>
   <i type="int" name="EXXOEP">     0</i>
   <i type="int" name="FOURORBIT">     0</i>
   <i name="AEXX">      0.00000000</i>
   <i name="HFALPHA">      0.00000000</i>
   <i name="MCALPHA">      0.00000000</i>
   <i name="ALDAX">      1.00000000</i>
   <i name="AGGAX">      1.00000000</i>
   <i name="ALDAC">      1.00000000</i>
   <i name="AGGAC">      1.00000000</i>
   <i type="int" name="NKREDX">     1</i>
   <i type="int" name="NKREDY">     1</i>
   <i type="int" name="NKREDZ">     1</i>
   <i type="logical" name="SHIFTRED"> F  </i>
   <i type="logical" name="ODDONLY"> F  </i>
   <i type="logical" name="EVENONLY"> F  </i>
   <i type="int" name="LMAXFOCK">     0</i>
   <i type="int" name="NMAXFOCKAE">     0</i>
   <i type="logical" name="LFOCKAEDFT"> F  </i>
   <i name="HFSCREEN">      0.00000000</i>
   <i name="HFSCREENC">      0.00000000</i>
   <i type="int" name="NBANDSGWLOW">     0</i>
  </separator>
  <separator name="vdW DFT" >
   <i type="logical" name="LUSE_VDW"> F  </i>
   <i name="Zab_VDW">     -0.84910000</i>
   <i name="PARAM1">      0.12340000</i>
   <i name="PARAM2">      1.00000000</i>
   <i name="PARAM3">      0.00000000</i>
  </separator>
  <separator name="model GW" >
   <i type="int" name="MODEL_GW">     0</i>
   <i name="MODEL_EPS0">      5.83599151</i>
   <i name="MODEL_ALPHA">      1.00000000</i>
  </separator>
  <separator name="linear response parameters" >
   <i type="logical" name="LEPSILON"> F  </i>
   <i type="logical" name="LRPA"> F  </i>
   <i type="logical" name="LNABLA"> F  </i>
   <i type="logical" name="LVEL"> F  </i>
   <i type="int" name="KINTER">     0</i>
   <i name="CSHIFT">      0.10000000</i>
   <i name="OMEGAMAX">     -1.00000000</i>
   <i name="DEG_THRESHOLD">      0.00200000</i>
  </separator>
  <separator name="orbital magnetization" >
   <i type="logical" name="NUCIND"> F  </i>
   <v name="MAGPOS">      0.00000000      0.00000000      0.00000000</v>
   <i type="logical" name="LNICSALL"> T  </i>
   <i type="logical" name="ORBITALMAG"> F  </i>
   <i type="logical" name="LMAGBLOCH"> F  </i>
   <i type="logical" name="LCHIMAG"> F  </i>
   <i type="logical" name="LGAUGE"> T  </i>
   <i type="int" name="MAGATOM">     0</i>
   <v name="MAGDIPOL">      0.00000000      0.00000000      0.00000000</v>
   <v name="AVECCONST">      0.00000000      0.00000000      0.00000000</v>
  </separator>
  <separator name="response functions" >
   <i type="logical" name="LADDER"> F  </i>
   <i type="logical" name="LFXC"> F  </i>
   <i type="logical" name="LHARTREE"> T  </i>
   <i type="int" name="IBSE">     0</i>
   <v type="int" name="KPOINT">    -1     0     0     0</v>
   <i type="logical" name="LTCTE"> F  </i>
   <i type="logical" name="LTETE"> F  </i>
   <i type="logical" name="LTRIPLET"> F  </i>
   <i type="logical" name="LFXCEPS"> F  </i>
   <i type="logical" name="LFXHEG"> F  </i>
   <i type="int" name="NATURALO">     0</i>
   <i type="logical" name="L2ORDER"> F  </i>
   <i type="logical" name="LUSEW"> F  </i>
   <i name="ENCUTGW">     -2.00000000</i>
   <i name="ENCUTGWSOFT">     -2.00000000</i>
   <i name="ENCUTLF">     -1.00000000</i>
   <i type="int" name="LMAXMP2">    -1</i>
   <i name="SCISSOR">      0.00000000</i>
   <i type="int" name="NOMEGA">     0</i>
   <i type="int" name="NOMEGAR">     0</i>
   <i type="int" name="NBANDSGW">    -1</i>
   <i type="int" name="NBANDSO">    -1</i>
   <i type="int" name="NBANDSV">    -1</i>
   <i type="int" name="NELM">   100</i>
   <i type="int" name="NELMHF">     1</i>
   <i type="int" name="DIM">     3</i>
   <i type="int" name="ANTIRES">     0</i>
   <i name="OMEGAMAX">    -30.00000000</i>
   <i name="OMEGAMIN">    -30.00000000</i>
   <i name="OMEGATL">   -200.00000000</i>
   <i type="int" name="OMEGAGRID">     0</i>
   <i name="CSHIFT">     -0.10000000</i>
   <i type="logical" name="SELFENERGY"> F  </i>
   <i type="logical" name="LSPECTRAL"> F  </i>
   <i type="logical" name="LSPECTRALGW"> F  </i>
   <i type="logical" name="LSINGLES"> F  </i>
   <i type="logical" name="LFERMIGW"> F  </i>
   <i type="logical" name="ODDONLYGW"> F  </i>
   <i type="logical" name="EVENONLYGW"> F  </i>
   <i type="int" name="NKREDLFX">     1</i>
   <i type="int" name="NKREDLFY">     1</i>
   <i type="int" name="NKREDLFZ">     1</i>
   <i type="int" name="MAXMEM">  1800</i>
   <i type="int" name="TELESCOPE">     0</i>
   <i type="int" name="TAUPAR">     1</i>
   <i type="int" name="OMEGAPAR">    -1</i>
   <i name="LAMBDA">      1.00000000</i>
  </separator>
  <separator name="External order field" >
   <i name="OFIELD_KAPPA">      0.00000000</i>
   <v name="OFIELD_K">      0.00000000      0.00000000      0.00000000</v>
   <i name="OFIELD_Q6_NEAR">      0.00000000</i>
   <i name="OFIELD_Q6_FAR">      0.00000000</i>
   <i name="OFIELD_A">      0.00000000</i>
  </separator>
 </parameters>
 <atominfo>
  <atoms>      63 </atoms>
  <types>       2 </types>
  <array name="atoms" >
   <dimension dim="1">ion</dimension>
   <field type="string">element</field>
   <field type="int">atomtype</field>
   <set>
    <rc><c>Mg</c><c>   1</c></rc>
    <rc><c>Mg</c><c>   1</c></rc>
    <rc><c>Mg</c><c>   1</c></rc>
    <rc><c>Mg</c><c>   1</c></rc>
    <rc><c>Mg</c><c>   1</c></rc>
    <rc><c>Mg</c><c>   1</c></rc>
    <rc><c>Mg</c><c>   1</c></rc>
    <rc><c>Mg</c><c>   1</c></rc>
    <rc><c>Mg</c><c>   1</c></rc>
    <rc><c>Mg</c><c>   1</c></rc>
    <rc><c>Mg</c><c>   1</c></rc>
    <rc><c>Mg</c><c>   1</c></rc>
    <rc><c>Mg</c><c>   1</c></rc>
    <rc><c>Mg</c><c>   1</c></rc>
    <rc><c>Mg</c><c>   1</c></rc>
    <rc><c>Mg</c><c>   1</c></rc>
    <rc><c>Mg</c><c>   1</c></rc>
    <rc><c>Mg</c><c>   1</c></rc>
    <rc><c>Mg</c><c>   1</c></rc>
    <rc><c>Mg</c><c>   1</c></rc>
    <rc><c>Mg</c><c>   1</c></rc>
    <rc><c>Mg</c><c>   1</c></rc>
    <rc><c>Mg</c><c>   1</c></rc>
    <rc><c>Mg</c><c>   1</c></rc>
    <rc><c>Mg</c><c>   1</c></rc>
    <rc><c>Mg</c><c>   1</c></rc>
    <rc><c>Mg</c><c>   1</c></rc>
    <rc><c>Mg</c><c>   1</c></rc>
    <rc><c>Mg</c><c>   1</c></rc>
    <rc><c>Mg</c><c>   1</c></rc>
    <rc><c>Mg</c><c>   1</c></rc>
    <rc><c>Mg</c><c>   1</c></rc>
    <rc><c>O </c><c>   2</c></rc>
    <rc><c>O </c><c>   2</c></rc>
    <rc><c>O </c><c>   2</c></rc>
    <rc><c>O </c><c>   2</c></rc>
    <rc><c>O </c><c>   2</c></rc>
    <rc><c>O </c><c>   2</c></rc>
    <rc><c>O </c><c>   2</c></rc>
    <rc><c>O </c><c>   2</c></rc>
    <rc><c>O </c><c>   2</c></rc>
    <rc><c>O </c><c>   2</c></rc>
    <rc><c>O </c><c>   2</c></rc>
    <rc><c>O </c><c>   2</c></rc>
    <rc><c>O </c><c>   2</c></rc>
    <rc><c>O </c><c>   2</c></rc>
    <rc><c>O </c><c>   2</c></rc>
    <rc><c>O </c><c>   2</c></rc>
    <rc><c>O </c><c>   2</c></rc>
    <rc><c>O </c><c>   2</c></rc>
    <rc><c>O </c><c>   2</c></rc>
    <rc><c>O </c><c>   2</c></rc>
    <rc><c>O </c><c>   2</c></rc>
    <rc><c>O </c><c>   2</c></rc>
    <rc><c>O </c><c>   2</c></rc>
    <rc><c>O </c><c>   2</c></rc>
    <rc><c>O </c><c>   2</c></rc>
    <rc><c>O </c><c>   2</c></rc>
    <rc><c>O </c><c>   2</c></rc>
    <rc><c>O </c><c>   2</c></rc>
    <rc><c>O </c><c>   2</c></rc>
    <rc><c>O </c><c>   2</c></rc>
    <rc><c>O </c><c>   2</c></rc>
   </set>
  </array>
  <array name="atomtypes" >
   <dimension dim="1">type</dimension>
   <field type="int">atomspertype</field>
   <field type="string">element</field>
   <field>mass</field>
   <field>valence</field>
   <field type="string">pseudopotential</field>
   <set>
    <rc><c>  32</c><c>Mg</c><c>     24.30500000</c><c>      2.00000000</c><c>  PAW_PBE Mg 13Apr2007                  </c></rc>
    <rc><c>  31</c><c>O </c><c>     16.00000000</c><c>      6.00000000</c><c>  PAW_PBE O 08Apr2002                   </c></rc>
   </set>
  </array>
 </atominfo>
 <structure name="initialpos" >
  <crystal>
   <varray name="basis" >
    <v>       8.49378604       0.00000000       0.00000000 </v>
    <v>       0.00000000       8.49378604       0.00000000 </v>
    <v>       0.00000000       0.00000000       8.49378604 </v>
   </varray>
   <i name="volume">    612.77910841 </i>
   <varray name="rec_basis" >
    <v>       0.11773313       0.00000000       0.00000000 </v>
    <v>       0.00000000       0.11773313       0.00000000 </v>
    <v>       0.00000000       0.00000000       0.11773313 </v>
   </varray>
  </crystal>
  <varray name="positions" >
   <v>       0.99979458       0.99979458       0.99979458 </v>
   <v>       0.99979458       0.99979458       0.50020542 </v>
   <v>       0.99979458       0.50020542       0.99979458 </v>
   <v>       0.99979458       0.50020542       0.50020542 </v>
   <v>       0.50020542       0.99979458       0.99979458 </v>
   <v>       0.50020542       0.99979458       0.50020542 </v>
   <v>       0.50020542       0.50020542       0.99979458 </v>
   <v>       0.50020542       0.50020542       0.50020542 </v>
   <v>       0.98001156       0.25000000       0.25000000 </v>
   <v>       0.99769274       0.25000000       0.75000000 </v>
   <v>       0.99769274       0.75000000       0.25000000 </v>
   <v>       0.99906100       0.75000000       0.75000000 </v>
   <v>       0.51998844       0.25000000       0.25000000 </v>
   <v>       0.50230726       0.25000000       0.75000000 </v>
   <v>       0.50230726       0.75000000       0.25000000 </v>
   <v>       0.50093900       0.75000000       0.75000000 </v>
   <v>       0.25000000       0.98001156       0.25000000 </v>
   <v>       0.25000000       0.99769274       0.75000000 </v>
   <v>       0.25000000       0.51998844       0.25000000 </v>
   <v>       0.25000000       0.50230726       0.75000000 </v>
   <v>       0.75000000       0.99769274       0.25000000 </v>
   <v>       0.75000000       0.99906100       0.75000000 </v>
   <v>       0.75000000       0.50230726       0.25000000 </v>
   <v>       0.75000000       0.50093900       0.75000000 </v>
   <v>       0.25000000       0.25000000       0.98001156 </v>
   <v>       0.25000000       0.25000000       0.51998844 </v>
   <v>       0.25000000       0.75000000       0.99769274 </v>
   <v>       0.25000000       0.75000000       0.50230726 </v>
   <v>       0.75000000       0.25000000       0.99769274 </v>
   <v>       0.75000000       0.25000000       0.50230726 </v>
   <v>       0.75000000       0.75000000       0.99906100 </v>
   <v>       0.75000000       0.75000000       0.50093900 </v>
   <v>       0.25000000       0.25000000       0.75000000 </v>
   <v>       0.25000000       0.75000000       0.25000000 </v>
   <v>       0.25000000       0.75000000       0.75000000 </v>
   <v>       0.75000000       0.25000000       0.25000000 </v>
   <v>       0.75000000       0.25000000       0.75000000 </v>
   <v>       0.75000000       0.75000000       0.25000000 </v>
   <v>       0.75000000       0.75000000       0.75000000 </v>
   <v>       0.25000000       0.00597677       0.00597677 </v>
   <v>       0.25000000       0.00597677       0.49402323 </v>
   <v>       0.25000000       0.49402323       0.00597677 </v>
   <v>       0.25000000       0.49402323       0.49402323 </v>
   <v>       0.75000000       0.00143877       0.00143877 </v>
   <v>       0.75000000       0.00143877       0.49856123 </v>
   <v>       0.75000000       0.49856123       0.00143877 </v>
   <v>       0.75000000       0.49856123       0.49856123 </v>
   <v>       0.00597677       0.25000000       0.00597677 </v>
   <v>       0.00597677       0.25000000       0.49402323 </v>
   <v>       0.00143877       0.75000000       0.00143877 </v>
   <v>       0.00143877       0.75000000       0.49856123 </v>
   <v>       0.49402323       0.25000000       0.00597677 </v>
   <v>       0.49402323       0.25000000       0.49402323 </v>
   <v>       0.49856123       0.75000000       0.00143877 </v>
   <v>       0.49856123       0.75000000       0.49856123 </v>
   <v>       0.00597677       0.00597677       0.25000000 </v>
   <v>       0.00143877       0.00143877       0.75000000 </v>
   <v>       0.00597677       0.49402323       0.25000000 </v>
   <v>       0.00143877       0.49856123       0.75000000 </v>
   <v>       0.49402323       0.00597677       0.25000000 </v>
   <v>       0.49856123       0.00143877       0.75000000 </v>
   <v>       0.49402323       0.49402323       0.25000000 </v>
   <v>       0.49856123       0.49856123       0.75000000 </v>
  </varray>
 </structure>
 <calculation>
  <scstep>
   <time name="dav">    0.28    0.28</time>
   <time name="total">    0.72    0.82</time>
   <energy>
    <i name="alphaZ">    586.68070446 </i>
    <i name="ewald"> -10852.81338216 </i>
    <i name="hartreedc">  -3944.59881197 </i>
    <i name="XCdc">   -684.22307514 </i>
    <i name="pawpsdc">  12832.84803218 </i>
    <i name="pawaedc"> -11228.99925380 </i>
    <i name="eentropy">     -0.00000017 </i>
    <i name="bandstr">    400.19396923 </i>
    <i name="atom">  14137.33582803 </i>
    <i name="e_fr_energy">   1246.42401067 </i>
    <i name="e_wo_entrp">   1246.42401085 </i>
    <i name="e_0_energy">   1246.42401076 </i>
   </energy>
  </scstep>
  <scstep>
   <time name="dav">    0.36    0.36</time>
   <time name="total">    0.36    0.56</time>
   <energy>
    <i name="e_fr_energy">   -321.99751352 </i>
    <i name="e_wo_entrp">   -321.99751352 </i>
    <i name="e_0_energy">   -321.99751352 </i>
   </energy>
  </scstep>
  <scstep>
   <time name="dav">    0.53    0.53</time>
   <time name="total">    0.53    0.69</time>
   <energy>
    <i name="e_fr_energy">   -428.11250570 </i>
    <i name="e_wo_entrp">   -428.11250570 </i>
    <i name="e_0_energy">   -428.11250570 </i>
   </energy>
  </scstep>
  <scstep>
   <time name="dav">    0.34    0.34</time>
   <time name="total">    0.34    0.57</time>
   <energy>
    <i name="e_fr_energy">   -429.29315429 </i>
    <i name="e_wo_entrp">   -429.29315429 </i>
    <i name="e_0_energy">   -429.29315429 </i>
   </energy>
  </scstep>
  <scstep>
   <time name="dav">    0.30    0.30</time>
   <time name="total">    0.33    0.48</time>
   <energy>
    <i name="e_fr_energy">   -429.31098720 </i>
    <i name="e_wo_entrp">   -429.31098720 </i>
    <i name="e_0_energy">   -429.31098720 </i>
   </energy>
  </scstep>
  <scstep>
   <time name="dav">    0.30    0.30</time>
   <time name="total">    0.79    0.97</time>
   <energy>
    <i name="e_fr_energy">   -381.98656305 </i>
    <i name="e_wo_entrp">   -381.98656305 </i>
    <i name="e_0_energy">   -381.98656305 </i>
   </energy>
  </scstep>
  <scstep>
   <time name="dav">    0.30    0.30</time>
   <time name="total">    0.74    0.90</time>
   <energy>
    <i name="e_fr_energy">   -381.37460101 </i>
    <i name="e_wo_entrp">   -381.37460101 </i>
    <i name="e_0_energy">   -381.37460101 </i>
   </energy>
  </scstep>
  <scstep>
   <time name="dav">    0.30    0.30</time>
   <time name="total">    0.74    0.90</time>
   <energy>
    <i name="e_fr_energy">   -380.94187627 </i>
    <i name="e_wo_entrp">   -380.94187627 </i>
    <i name="e_0_energy">   -380.94187627 </i>
   </energy>
  </scstep>
  <scstep>
   <time name="dav">    0.30    0.30</time>
   <time name="total">    0.70    0.86</time>
   <energy>
    <i name="e_fr_energy">   -380.93608975 </i>
    <i name="e_wo_entrp">   -380.93608975 </i>
    <i name="e_0_energy">   -380.93608975 </i>
   </energy>
  </scstep>
  <scstep>
   <time name="dav">    0.30    0.31</time>
   <time name="total">    0.72    0.88</time>
   <energy>
    <i name="e_fr_energy">   -380.93654247 </i>
    <i name="e_wo_entrp">   -380.93654247 </i>
    <i name="e_0_energy">   -380.93654247 </i>
   </energy>
  </scstep>
  <scstep>
   <time name="dav">    0.29    0.29</time>
   <time name="total">    0.70    0.85</time>
   <energy>
    <i name="e_fr_energy">   -380.93862733 </i>
    <i name="e_wo_entrp">   -380.93862733 </i>
    <i name="e_0_energy">   -380.93862733 </i>
   </energy>
  </scstep>
  <scstep>
   <time name="dav">    0.38    0.37</time>
   <time name="total">    0.77    0.90</time>
   <energy>
    <i name="e_fr_energy">   -380.93836855 </i>
    <i name="e_wo_entrp">   -380.93836855 </i>
    <i name="e_0_energy">   -380.93836855 </i>
   </energy>
  </scstep>
  <scstep>
   <time name="dav">    0.30    0.30</time>
   <time name="total">    0.72    0.86</time>
   <energy>
    <i name="e_fr_energy">   -380.93829625 </i>
    <i name="e_wo_entrp">   -380.93829625 </i>
    <i name="e_0_energy">   -380.93829625 </i>
   </energy>
  </scstep>
  <scstep>
   <time name="dav">    0.30    0.30</time>
   <time name="total">    0.74    1.05</time>
   <energy>
    <i name="e_fr_energy">   -380.93830072 </i>
    <i name="e_wo_entrp">   -380.93830072 </i>
    <i name="e_0_energy">   -380.93830072 </i>
   </energy>
  </scstep>
  <scstep>
   <time name="dav">    0.47    0.47</time>
   <time name="total">    0.88    1.07</time>
   <energy>
    <i name="e_fr_energy">   -380.93830387 </i>
    <i name="e_wo_entrp">   -380.93830387 </i>
    <i name="e_0_energy">   -380.93830387 </i>
   </energy>
  </scstep>
  <scstep>
   <time name="dav">    0.31    0.31</time>
   <time name="total">    0.72    0.89</time>
   <energy>
    <i name="e_fr_energy">   -380.93830138 </i>
    <i name="e_wo_entrp">   -380.93830138 </i>
    <i name="e_0_energy">   -380.93830138 </i>
   </energy>
  </scstep>
  <scstep>
   <time name="dav">    0.28    0.28</time>
   <time name="total">    0.67    0.84</time>
   <energy>
    <i name="alphaZ">    586.68070446 </i>
    <i name="ewald"> -10852.81338216 </i>
    <i name="hartreedc">  -4584.68388670 </i>
    <i name="XCdc">   -642.48700712 </i>
    <i name="pawpsdc">  17235.02715383 </i>
    <i name="pawaedc"> -15638.93710136 </i>
    <i name="eentropy">     -0.00000000 </i>
    <i name="bandstr">   -621.06061013 </i>
    <i name="atom">  14137.33582803 </i>
    <i name="e_fr_energy">   -380.93830115 </i>
    <i name="e_wo_entrp">   -380.93830115 </i>
    <i name="e_0_energy">   -380.93830115 </i>
   </energy>
  </scstep>
  <structure>
   <crystal>
    <varray name="basis" >
     <v>       8.49378604       0.00000000       0.00000000 </v>
     <v>       0.00000000       8.49378604       0.00000000 </v>
     <v>       0.00000000       0.00000000       8.49378604 </v>
    </varray>
    <i name="volume">    612.77910841 </i>
    <varray name="rec_basis" >
     <v>       0.11773313       0.00000000       0.00000000 </v>
     <v>       0.00000000       0.11773313       0.00000000 </v>
     <v>       0.00000000       0.00000000       0.11773313 </v>
    </varray>
   </crystal>
   <varray name="positions" >
    <v>       0.99979458       0.99979458       0.99979458 </v>
    <v>       0.99979458       0.99979458       0.50020542 </v>
    <v>       0.99979458       0.50020542       0.99979458 </v>
    <v>       0.99979458       0.50020542       0.50020542 </v>
    <v>       0.50020542       0.99979458       0.99979458 </v>
    <v>       0.50020542       0.99979458       0.50020542 </v>
    <v>       0.50020542       0.50020542       0.99979458 </v>
    <v>       0.50020542       0.50020542       0.50020542 </v>
    <v>       0.98001156       0.25000000       0.25000000 </v>
    <v>       0.99769274       0.25000000       0.75000000 </v>
    <v>       0.99769274       0.75000000       0.25000000 </v>
    <v>       0.99906100       0.75000000       0.75000000 </v>
    <v>       0.51998844       0.25000000       0.25000000 </v>
    <v>       0.50230726       0.25000000       0.75000000 </v>
    <v>       0.50230726       0.75000000       0.25000000 </v>
    <v>       0.50093900       0.75000000       0.75000000 </v>
    <v>       0.25000000       0.98001156       0.25000000 </v>
    <v>       0.25000000       0.99769274       0.75000000 </v>
    <v>       0.25000000       0.51998844       0.25000000 </v>
    <v>       0.25000000       0.50230726       0.75000000 </v>
    <v>       0.75000000       0.99769274       0.25000000 </v>
    <v>       0.75000000       0.99906100       0.75000000 </v>
    <v>       0.75000000       0.50230726       0.25000000 </v>
    <v>       0.75000000       0.50093900       0.75000000 </v>
    <v>       0.25000000       0.25000000       0.98001156 </v>
    <v>       0.25000000       0.25000000       0.51998844 </v>
    <v>       0.25000000       0.75000000       0.99769274 </v>
    <v>       0.25000000       0.75000000       0.50230726 </v>
    <v>       0.75000000       0.25000000       0.99769274 </v>
    <v>       0.75000000       0.25000000       0.50230726 </v>
    <v>       0.75000000       0.75000000       0.99906100 </v>
    <v>       0.75000000       0.75000000       0.50093900 </v>
    <v>       0.25000000       0.25000000       0.75000000 </v>
    <v>       0.25000000       0.75000000       0.25000000 </v>
    <v>       0.25000000       0.75000000       0.75000000 </v>
    <v>       0.75000000       0.25000000       0.25000000 </v>
    <v>       0.75000000       0.25000000       0.75000000 </v>
    <v>       0.75000000       0.75000000       0.25000000 </v>
    <v>       0.75000000       0.75000000       0.75000000 </v>
    <v>       0.25000000       0.00597677       0.00597677 </v>
    <v>       0.25000000       0.00597677       0.49402323 </v>
    <v>       0.25000000       0.49402323       0.00597677 </v>
    <v>       0.25000000       0.49402323       0.49402323 </v>
    <v>       0.75000000       0.00143877       0.00143877 </v>
    <v>       0.75000000       0.00143877       0.49856123 </v>
    <v>       0.75000000       0.49856123       0.00143877 </v>
    <v>       0.75000000       0.49856123       0.49856123 </v>
    <v>       0.00597677       0.25000000       0.00597677 </v>
    <v>       0.00597677       0.25000000       0.49402323 </v>
    <v>       0.00143877       0.75000000       0.00143877 </v>
    <v>       0.00143877       0.75000000       0.49856123 </v>
    <v>       0.49402323       0.25000000       0.00597677 </v>
    <v>       0.49402323       0.25000000       0.49402323 </v>
    <v>       0.49856123       0.75000000       0.00143877 </v>
    <v>       0.49856123       0.75000000       0.49856123 </v>
    <v>       0.00597677       0.00597677       0.25000000 </v>
    <v>       0.00143877       0.00143877       0.75000000 </v>
    <v>       0.00597677       0.49402323       0.25000000 </v>
    <v>       0.00143877       0.49856123       0.75000000 </v>
    <v>       0.49402323       0.00597677       0.25000000 </v>
    <v>       0.49856123       0.00143877       0.75000000 </v>
    <v>       0.49402323       0.49402323       0.25000000 </v>
    <v>       0.49856123       0.49856123       0.75000000 </v>
   </varray>
  </structure>
  <varray name="forces" >
   <v>       0.02534301       0.02534301       0.02534301 </v>
   <v>       0.02534301       0.02534301      -0.02534301 </v>
   <v>       0.02534301      -0.02534301       0.02534301 </v>
   <v>       0.02534301      -0.02534301      -0.02534301 </v>
   <v>      -0.02534301       0.02534301       0.02534301 </v>
   <v>      -0.02534301       0.02534301      -0.02534301 </v>
   <v>      -0.02534301      -0.02534301       0.02534301 </v>
   <v>      -0.02534301      -0.02534301      -0.02534301 </v>
   <v>      -0.01464878       0.00000000      -0.00000000 </v>
   <v>      -0.00402808       0.00000000      -0.00000000 </v>
   <v>      -0.00402808       0.00000000      -0.00000000 </v>
   <v>      -0.04292032       0.00000000      -0.00000000 </v>
   <v>       0.01464878       0.00000000      -0.00000000 </v>
   <v>       0.00402808       0.00000000      -0.00000000 </v>
   <v>       0.00402808       0.00000000      -0.00000000 </v>
   <v>       0.04292032       0.00000000      -0.00000000 </v>
   <v>      -0.00000000      -0.01464878      -0.00000000 </v>
   <v>      -0.00000000      -0.00402808      -0.00000000 </v>
   <v>      -0.00000000       0.01464878      -0.00000000 </v>
   <v>      -0.00000000       0.00402808      -0.00000000 </v>
   <v>      -0.00000000      -0.00402808      -0.00000000 </v>
   <v>      -0.00000000      -0.04292032      -0.00000000 </v>
   <v>      -0.00000000       0.00402808      -0.00000000 </v>
   <v>      -0.00000000       0.04292032      -0.00000000 </v>
   <v>      -0.00000000       0.00000000      -0.01464878 </v>
   <v>      -0.00000000       0.00000000       0.01464878 </v>
   <v>      -0.00000000       0.00000000      -0.00402808 </v>
   <v>      -0.00000000       0.00000000       0.00402808 </v>
   <v>      -0.00000000       0.00000000      -0.00402808 </v>
   <v>      -0.00000000       0.00000000       0.00402808 </v>
   <v>      -0.00000000       0.00000000      -0.04292032 </v>
   <v>      -0.00000000       0.00000000       0.04292032 </v>
   <v>      -0.00000000       0.00000000      -0.00000000 </v>
   <v>      -0.00000000       0.00000000      -0.00000000 </v>
   <v>      -0.00000000       0.00000000      -0.00000000 </v>
   <v>      -0.00000000       0.00000000      -0.00000000 </v>
   <v>      -0.00000000       0.00000000      -0.00000000 </v>
   <v>      -0.00000000       0.00000000      -0.00000000 </v>
   <v>      -0.00000000       0.00000000      -0.00000000 </v>
   <v>      -0.00000000       0.00293376       0.00293376 </v>
   <v>      -0.00000000       0.00293376      -0.00293376 </v>
   <v>      -0.00000000      -0.00293376       0.00293376 </v>
   <v>      -0.00000000      -0.00293376      -0.00293376 </v>
   <v>      -0.00000000       0.01366646       0.01366646 </v>
   <v>      -0.00000000       0.01366646      -0.01366646 </v>
   <v>      -0.00000000      -0.01366646       0.01366646 </v>
   <v>      -0.00000000      -0.01366646      -0.01366646 </v>
   <v>       0.00293376       0.00000000       0.00293376 </v>
   <v>       0.00293376       0.00000000      -0.00293376 </v>
   <v>       0.01366646       0.00000000       0.01366646 </v>
   <v>       0.01366646       0.00000000      -0.01366646 </v>
   <v>      -0.00293376       0.00000000       0.00293376 </v>
   <v>      -0.00293376       0.00000000      -0.00293376 </v>
   <v>      -0.01366646       0.00000000       0.01366646 </v>
   <v>      -0.01366646       0.00000000      -0.01366646 </v>
   <v>       0.00293376       0.00293376      -0.00000000 </v>
   <v>       0.01366646       0.01366646      -0.00000000 </v>
   <v>       0.00293376      -0.00293376      -0.00000000 </v>
   <v>       0.01366646      -0.01366646      -0.00000000 </v>
   <v>      -0.00293376       0.00293376      -0.00000000 </v>
   <v>      -0.01366646       0.01366646      -0.00000000 </v>
   <v>      -0.00293376      -0.00293376      -0.00000000 </v>
   <v>      -0.01366646      -0.01366646      -0.00000000 </v>
  </varray>
  <varray name="stress" >
   <v>     -77.06807416      -0.00000000      -0.00000000 </v>
   <v>      -0.00000000     -77.06807416      -0.00000000 </v>
   <v>      -0.00000000       0.00000000     -77.06807416 </v>
  </varray>
  <energy>
   <i name="e_fr_energy">   -380.93830115 </i>
   <i name="e_wo_entrp">   -380.93830115 </i>
   <i name="e_0_energy">     -0.00000000 </i>
  </energy>
  <time name="totalsc">   12.34   15.64</time>
  <eigenvalues>
   <array>
    <dimension dim="1">band</dimension>
    <dimension dim="2">kpoint</dimension>
    <dimension dim="3">spin</dimension>
    <field>eigene</field>
    <field>occ</field>
    <set>
     <set comment="spin 1">
      <set comment="kpoint 1">
       <r>  -14.0345    1.0000 </r>
       <r>  -13.7392    1.0000 </r>
       <r>  -13.7392    1.0000 </r>
       <r>  -13.5976    1.0000 </r>
       <r>  -13.4041    1.0000 </r>
       <r>  -13.4041    1.0000 </r>
       <r>  -13.3775    1.0000 </r>
       <r>  -13.2340    1.0000 </r>
       <r>  -13.2340    1.0000 </r>
       <r>  -13.1856    1.0000 </r>
       <r>  -13.1097    1.0000 </r>
       <r>  -13.0655    1.0000 </r>
       <r>  -13.0655    1.0000 </r>
       <r>  -13.0577    1.0000 </r>
       <r>  -12.9504    1.0000 </r>
       <r>  -12.9348    1.0000 </r>
       <r>  -12.9348    1.0000 </r>
       <r>  -12.8999    1.0000 </r>
       <r>  -12.8999    1.0000 </r>
       <r>  -12.8760    1.0000 </r>
       <r>  -12.8269    1.0000 </r>
       <r>  -12.8269    1.0000 </r>
       <r>  -12.7931    1.0000 </r>
       <r>  -12.7820    1.0000 </r>
       <r>  -12.7820    1.0000 </r>
       <r>  -12.6693    1.0000 </r>
       <r>  -12.6693    1.0000 </r>
       <r>  -12.6616    1.0000 </r>
       <r>  -12.6535    1.0000 </r>
       <r>  -12.6535    1.0000 </r>
       <r>  -12.6408    1.0000 </r>
       <r>   -1.2754    1.0000 </r>
       <r>   -1.2754    1.0000 </r>
       <r>   -1.2525    1.0000 </r>
       <r>   -1.0583    1.0000 </r>
       <r>   -0.9619    1.0000 </r>
       <r>   -0.8351    1.0000 </r>
       <r>   -0.8351    1.0000 </r>
       <r>   -0.7554    1.0000 </r>
       <r>   -0.7554    1.0000 </r>
       <r>   -0.7453    1.0000 </r>
       <r>   -0.7033    1.0000 </r>
       <r>   -0.6392    1.0000 </r>
       <r>   -0.6392    1.0000 </r>
       <r>   -0.5769    1.0000 </r>
       <r>   -0.5633    1.0000 </r>
       <r>   -0.5633    1.0000 </r>
       <r>   -0.4678    1.0000 </r>
       <r>   -0.4429    1.0000 </r>
       <r>   -0.4429    1.0000 </r>
       <r>   -0.4152    1.0000 </r>
       <r>   -0.3724    1.0000 </r>
       <r>   -0.3724    1.0000 </r>
       <r>   -0.2740    1.0000 </r>
       <r>   -0.2673    1.0000 </r>
       <r>   -0.2673    1.0000 </r>
       <r>   -0.0593    1.0000 </r>
       <r>   -0.0593    1.0000 </r>
       <r>   -0.0467    1.0000 </r>
       <r>    0.5250    1.0000 </r>
       <r>    0.5357    1.0000 </r>
       <r>    0.5357    1.0000 </r>
       <r>    0.5652    1.0000 </r>
       <r>    0.5652    1.0000 </r>
       <r>    0.5674    1.0000 </r>
       <r>    0.5767    1.0000 </r>
       <r>    0.6528    1.0000 </r>
       <r>    0.6822    1.0000 </r>
       <r>    0.6822    1.0000 </r>
       <r>    0.8899    1.0000 </r>
       <r>    0.8899    1.0000 </r>
       <r>    1.1663    1.0000 </r>
       <r>    1.2586    1.0000 </r>
       <r>    1.2586    1.0000 </r>
       <r>    1.2655    1.0000 </r>
       <r>    1.2655    1.0000 </r>
       <r>    1.2712    1.0000 </r>
       <r>    1.2995    1.0000 </r>
       <r>    1.4005    1.0000 </r>
       <r>    1.4005    1.0000 </r>
       <r>    1.5712    1.0000 </r>
       <r>    1.5712    1.0000 </r>
       <r>    1.6154    1.0000 </r>
       <r>    1.6215    1.0000 </r>
       <r>    1.6549    1.0000 </r>
       <r>    1.6549    1.0000 </r>
       <r>    1.7037    1.0000 </r>
       <r>    1.7037    1.0000 </r>
       <r>    1.7121    1.0000 </r>
       <r>    1.7148    1.0000 </r>
       <r>    1.8086    1.0000 </r>
       <r>    1.8086    1.0000 </r>
       <r>    1.8869    1.0000 </r>
       <r>    1.8869    1.0000 </r>
       <r>    1.9280    1.0000 </r>
       <r>    1.9562    1.0000 </r>
       <r>    1.9614    1.0000 </r>
       <r>    1.9614    1.0000 </r>
       <r>    2.0067    1.0000 </r>
       <r>    2.0067    1.0000 </r>
       <r>    2.0099    1.0000 </r>
       <r>    2.0388    1.0000 </r>
       <r>    2.0631    1.0000 </r>
       <r>    2.0881    1.0000 </r>
       <r>    2.0881    1.0000 </r>
       <r>    2.1337    1.0000 </r>
       <r>    2.1544    1.0000 </r>
       <r>    2.1544    1.0000 </r>
       <r>    2.2124    1.0000 </r>
       <r>    2.2124    1.0000 </r>
       <r>    2.2560    1.0000 </r>
       <r>    2.3760    1.0000 </r>
       <r>    2.3760    1.0000 </r>
       <r>    2.4254    1.0000 </r>
       <r>    2.4254    1.0000 </r>
       <r>    2.4319    1.0000 </r>
       <r>    2.4571    1.0000 </r>
       <r>    2.4571    1.0000 </r>
       <r>    2.4805    1.0000 </r>
       <r>    2.5447    1.0000 </r>
       <r>    2.5523    1.0000 </r>
       <r>    2.5523    1.0000 </r>
       <r>    2.8080    1.0000 </r>
       <r>    2.8080    1.0000 </r>
       <r>    5.5235    0.0000 </r>
       <r>    8.4524    0.0000 </r>
       <r>    9.4314    0.0000 </r>
       <r>    9.4314    0.0000 </r>
       <r>    9.9510    0.0000 </r>
       <r>   10.2100    0.0000 </r>
       <r>   10.4668    0.0000 </r>
       <r>   10.4668    0.0000 </r>
       <r>   10.6234    0.0000 </r>
       <r>   10.9406    0.0000 </r>
       <r>   10.9406    0.0000 </r>
       <r>   11.4291    0.0000 </r>
       <r>   11.4291    0.0000 </r>
       <r>   11.5404    0.0000 </r>
       <r>   11.7975    0.0000 </r>
       <r>   11.8851    0.0000 </r>
       <r>   11.8851    0.0000 </r>
       <r>   12.1432    0.0000 </r>
       <r>   12.1979    0.0000 </r>
       <r>   12.2077    0.0000 </r>
       <r>   12.2077    0.0000 </r>
       <r>   12.4150    0.0000 </r>
       <r>   12.4150    0.0000 </r>
       <r>   12.5479    0.0000 </r>
       <r>   12.5479    0.0000 </r>
       <r>   12.6128    0.0000 </r>
       <r>   12.7200    0.0000 </r>
       <r>   12.9258    0.0000 </r>
       <r>   12.9259    0.0000 </r>
       <r>   13.1827    0.0000 </r>
       <r>   13.2135    0.0000 </r>
       <r>   13.2344    0.0000 </r>
      </set>
     </set>
    </set>
   </array>
  </eigenvalues>
  <separator name="orbital magnetization" >
   <v name="MAGDIPOLOUT">      0.00000000      0.00000000      0.00000000</v>
  </separator>
  <dos>
   <i name="efermi">      3.11197308 </i>
   <total>
    <array>
     <dimension dim="1">gridpoints</dimension>
     <dimension dim="2">spin</dimension>
     <field>energy</field>
     <field>total</field>
     <field>integrated</field>
     <set>
      <set comment="spin 1">
       <r>   -15.3980     0.0000     0.0000 </r>
       <r>   -15.2980     0.0000     0.0000 </r>
       <r>   -15.1980     0.0000     0.0000 </r>
       <r>   -15.0980     0.0000     0.0000 </r>
       <r>   -14.9980     0.0000     0.0000 </r>
       <r>   -14.8980     0.0000     0.0000 </r>
       <r>   -14.7981     0.0000     0.0000 </r>
       <r>   -14.6981     0.0000     0.0000 </r>
       <r>   -14.5981     0.0000     0.0000 </r>
       <r>   -14.4981     0.0000     0.0000 </r>
       <r>   -14.3981     0.0000     0.0000 </r>
       <r>   -14.2981     0.0000     0.0000 </r>
       <r>   -14.1981     0.0000     0.0000 </r>
       <r>   -14.0982     0.7192     0.0719 </r>
       <r>   -13.9982    16.2454     1.6962 </r>
       <r>   -13.8982     3.0371     1.9999 </r>
       <r>   -13.7982     1.9060     2.1905 </r>
       <r>   -13.6982    33.2203     5.5120 </r>
       <r>   -13.5982    14.7403     6.9859 </r>
       <r>   -13.4982    10.2547     8.0112 </r>
       <r>   -13.3982    28.0979    10.8206 </r>
       <r>   -13.2983    32.8892    14.1091 </r>
       <r>   -13.1983    39.9993    18.1085 </r>
       <r>   -13.0983    40.8844    22.1963 </r>
       <r>   -12.9983    59.2689    28.1224 </r>
       <r>   -12.8983    78.2320    35.9445 </r>
       <r>   -12.7983    93.5137    45.2946 </r>
       <r>   -12.6983    62.9537    51.5891 </r>
       <r>   -12.5984    97.8055    61.3683 </r>
       <r>   -12.4984     6.3169    61.9999 </r>
       <r>   -12.3984     0.0009    62.0000 </r>
       <r>   -12.2984     0.0000    62.0000 </r>
       <r>   -12.1984     0.0000    62.0000 </r>
       <r>   -12.0984     0.0000    62.0000 </r>
       <r>   -11.9984     0.0000    62.0000 </r>
       <r>   -11.8985     0.0000    62.0000 </r>
       <r>   -11.7985     0.0000    62.0000 </r>
       <r>   -11.6985     0.0000    62.0000 </r>
       <r>   -11.5985     0.0000    62.0000 </r>
       <r>   -11.4985     0.0000    62.0000 </r>
       <r>   -11.3985     0.0000    62.0000 </r>
       <r>   -11.2985     0.0000    62.0000 </r>
       <r>   -11.1986     0.0000    62.0000 </r>
       <r>   -11.0986     0.0000    62.0000 </r>
       <r>   -10.9986     0.0000    62.0000 </r>
       <r>   -10.8986     0.0000    62.0000 </r>
       <r>   -10.7986     0.0000    62.0000 </r>
       <r>   -10.6986     0.0000    62.0000 </r>
       <r>   -10.5986     0.0000    62.0000 </r>
       <r>   -10.4986     0.0000    62.0000 </r>
       <r>   -10.3987     0.0000    62.0000 </r>
       <r>   -10.2987     0.0000    62.0000 </r>
       <r>   -10.1987     0.0000    62.0000 </r>
       <r>   -10.0987     0.0000    62.0000 </r>
       <r>    -9.9987     0.0000    62.0000 </r>
       <r>    -9.8987     0.0000    62.0000 </r>
       <r>    -9.7987     0.0000    62.0000 </r>
       <r>    -9.6988     0.0000    62.0000 </r>
       <r>    -9.5988     0.0000    62.0000 </r>
       <r>    -9.4988     0.0000    62.0000 </r>
       <r>    -9.3988     0.0000    62.0000 </r>
       <r>    -9.2988     0.0000    62.0000 </r>
       <r>    -9.1988     0.0000    62.0000 </r>
       <r>    -9.0988     0.0000    62.0000 </r>
       <r>    -8.9989     0.0000    62.0000 </r>
       <r>    -8.8989     0.0000    62.0000 </r>
       <r>    -8.7989     0.0000    62.0000 </r>
       <r>    -8.6989     0.0000    62.0000 </r>
       <r>    -8.5989     0.0000    62.0000 </r>
       <r>    -8.4989     0.0000    62.0000 </r>
       <r>    -8.3989     0.0000    62.0000 </r>
       <r>    -8.2990     0.0000    62.0000 </r>
       <r>    -8.1990     0.0000    62.0000 </r>
       <r>    -8.0990     0.0000    62.0000 </r>
       <r>    -7.9990     0.0000    62.0000 </r>
       <r>    -7.8990     0.0000    62.0000 </r>
       <r>    -7.7990     0.0000    62.0000 </r>
       <r>    -7.6990     0.0000    62.0000 </r>
       <r>    -7.5990     0.0000    62.0000 </r>
       <r>    -7.4991     0.0000    62.0000 </r>
       <r>    -7.3991     0.0000    62.0000 </r>
       <r>    -7.2991     0.0000    62.0000 </r>
       <r>    -7.1991     0.0000    62.0000 </r>
       <r>    -7.0991     0.0000    62.0000 </r>
       <r>    -6.9991     0.0000    62.0000 </r>
       <r>    -6.8991     0.0000    62.0000 </r>
       <r>    -6.7992     0.0000    62.0000 </r>
       <r>    -6.6992     0.0000    62.0000 </r>
       <r>    -6.5992     0.0000    62.0000 </r>
       <r>    -6.4992     0.0000    62.0000 </r>
       <r>    -6.3992     0.0000    62.0000 </r>
       <r>    -6.2992     0.0000    62.0000 </r>
       <r>    -6.1992     0.0000    62.0000 </r>
       <r>    -6.0993     0.0000    62.0000 </r>
       <r>    -5.9993     0.0000    62.0000 </r>
       <r>    -5.8993     0.0000    62.0000 </r>
       <r>    -5.7993     0.0000    62.0000 </r>
       <r>    -5.6993     0.0000    62.0000 </r>
       <r>    -5.5993     0.0000    62.0000 </r>
       <r>    -5.4993     0.0000    62.0000 </r>
       <r>    -5.3994     0.0000    62.0000 </r>
       <r>    -5.2994     0.0000    62.0000 </r>
       <r>    -5.1994     0.0000    62.0000 </r>
       <r>    -5.0994     0.0000    62.0000 </r>
       <r>    -4.9994     0.0000    62.0000 </r>
       <r>    -4.8994     0.0000    62.0000 </r>
       <r>    -4.7994     0.0000    62.0000 </r>
       <r>    -4.6994     0.0000    62.0000 </r>
       <r>    -4.5995     0.0000    62.0000 </r>
       <r>    -4.4995     0.0000    62.0000 </r>
       <r>    -4.3995     0.0000    62.0000 </r>
       <r>    -4.2995     0.0000    62.0000 </r>
       <r>    -4.1995     0.0000    62.0000 </r>
       <r>    -4.0995     0.0000    62.0000 </r>
       <r>    -3.9995     0.0000    62.0000 </r>
       <r>    -3.8996     0.0000    62.0000 </r>
       <r>    -3.7996     0.0000    62.0000 </r>
       <r>    -3.6996     0.0000    62.0000 </r>
       <r>    -3.5996     0.0000    62.0000 </r>
       <r>    -3.4996     0.0000    62.0000 </r>
       <r>    -3.3996     0.0000    62.0000 </r>
       <r>    -3.2996     0.0000    62.0000 </r>
       <r>    -3.1997     0.0000    62.0000 </r>
       <r>    -3.0997     0.0000    62.0000 </r>
       <r>    -2.9997     0.0000    62.0000 </r>
       <r>    -2.8997     0.0000    62.0000 </r>
       <r>    -2.7997     0.0000    62.0000 </r>
       <r>    -2.6997     0.0000    62.0000 </r>
       <r>    -2.5997     0.0000    62.0000 </r>
       <r>    -2.4998     0.0000    62.0000 </r>
       <r>    -2.3998     0.0000    62.0000 </r>
       <r>    -2.2998     0.0000    62.0000 </r>
       <r>    -2.1998     0.0000    62.0000 </r>
       <r>    -2.0998     0.0000    62.0000 </r>
       <r>    -1.9998     0.0000    62.0000 </r>
       <r>    -1.8998     0.0000    62.0000 </r>
       <r>    -1.7998     0.0000    62.0000 </r>
       <r>    -1.6999     0.0000    62.0000 </r>
       <r>    -1.5999     0.0000    62.0000 </r>
       <r>    -1.4999     0.0000    62.0000 </r>
       <r>    -1.3999     0.0089    62.0009 </r>
       <r>    -1.2999    11.5667    63.1574 </r>
       <r>    -1.1999    46.4094    67.7977 </r>
       <r>    -1.0999     4.4156    68.2392 </r>
       <r>    -1.0000    19.4429    70.1832 </r>
       <r>    -0.9000    18.7074    72.0537 </r>
       <r>    -0.8000    38.4862    75.9018 </r>
       <r>    -0.7000    69.1006    82.8109 </r>
       <r>    -0.6000    57.6247    88.5726 </r>
       <r>    -0.5000    58.4339    94.4152 </r>
       <r>    -0.4000    72.7988   101.6940 </r>
       <r>    -0.3001    53.9314   107.0864 </r>
       <r>    -0.2001    47.6330   111.8491 </r>
       <r>    -0.1001     7.7857   112.6276 </r>
       <r>    -0.0001    49.9726   117.6241 </r>
       <r>     0.0999     3.7588   118.0000 </r>
       <r>     0.1999     0.0005   118.0000 </r>
       <r>     0.2999     0.0000   118.0000 </r>
       <r>     0.3998     0.0066   118.0007 </r>
       <r>     0.4998    13.1303   119.3135 </r>
       <r>     0.5998   111.5989   130.4719 </r>
       <r>     0.6998    61.0643   136.5774 </r>
       <r>     0.7998    14.4254   138.0198 </r>
       <r>     0.8998    24.1951   140.4390 </r>
       <r>     0.9998    15.5747   141.9962 </r>
       <r>     1.0998     0.6347   142.0597 </r>
       <r>     1.1997    19.6210   144.0215 </r>
       <r>     1.2997    94.1984   153.4400 </r>
       <r>     1.3997    45.2104   157.9605 </r>
       <r>     1.4997    21.1773   160.0779 </r>
       <r>     1.5997    45.1996   164.5972 </r>
       <r>     1.6997   101.6354   174.7594 </r>
       <r>     1.7997    68.2689   181.5853 </r>
       <r>     1.8996    56.5668   187.2412 </r>
       <r>     1.9996   107.5471   197.9944 </r>
       <r>     2.0996   106.8319   208.6762 </r>
       <r>     2.1996    84.0384   217.0788 </r>
       <r>     2.2996    47.3950   221.8177 </r>
       <r>     2.3996    46.9285   226.5099 </r>
       <r>     2.4996   107.8613   237.2945 </r>
       <r>     2.5995    62.2141   243.5151 </r>
       <r>     2.6995     4.8924   244.0043 </r>
       <r>     2.7995    16.1848   245.6225 </r>
       <r>     2.8995    23.5858   247.9808 </r>
       <r>     2.9995     0.1924   248.0000 </r>
       <r>     3.0995     0.0000   248.0000 </r>
       <r>     3.1995     0.0000   248.0000 </r>
       <r>     3.2994     0.0000   248.0000 </r>
       <r>     3.3994     0.0000   248.0000 </r>
       <r>     3.4994     0.0000   248.0000 </r>
       <r>     3.5994     0.0000   248.0000 </r>
       <r>     3.6994     0.0000   248.0000 </r>
       <r>     3.7994     0.0000   248.0000 </r>
       <r>     3.8994     0.0000   248.0000 </r>
       <r>     3.9994     0.0000   248.0000 </r>
       <r>     4.0993     0.0000   248.0000 </r>
       <r>     4.1993     0.0000   248.0000 </r>
       <r>     4.2993     0.0000   248.0000 </r>
       <r>     4.3993     0.0000   248.0000 </r>
       <r>     4.4993     0.0000   248.0000 </r>
       <r>     4.5993     0.0000   248.0000 </r>
       <r>     4.6993     0.0000   248.0000 </r>
       <r>     4.7992     0.0000   248.0000 </r>
       <r>     4.8992     0.0000   248.0000 </r>
       <r>     4.9992     0.0000   248.0000 </r>
       <r>     5.0992     0.0000   248.0000 </r>
       <r>     5.1992     0.0000   248.0000 </r>
       <r>     5.2992     0.0000   248.0000 </r>
       <r>     5.3992     0.0044   248.0004 </r>
       <r>     5.4991     4.9117   248.4915 </r>
       <r>     5.5991    14.7632   249.9677 </r>
       <r>     5.6991     0.3234   250.0000 </r>
       <r>     5.7991     0.0000   250.0000 </r>
       <r>     5.8991     0.0000   250.0000 </r>
       <r>     5.9991     0.0000   250.0000 </r>
       <r>     6.0991     0.0000   250.0000 </r>
       <r>     6.1990     0.0000   250.0000 </r>
       <r>     6.2990     0.0000   250.0000 </r>
       <r>     6.3990     0.0000   250.0000 </r>
       <r>     6.4990     0.0000   250.0000 </r>
       <r>     6.5990     0.0000   250.0000 </r>
       <r>     6.6990     0.0000   250.0000 </r>
       <r>     6.7990     0.0000   250.0000 </r>
       <r>     6.8990     0.0000   250.0000 </r>
       <r>     6.9989     0.0000   250.0000 </r>
       <r>     7.0989     0.0000   250.0000 </r>
       <r>     7.1989     0.0000   250.0000 </r>
       <r>     7.2989     0.0000   250.0000 </r>
       <r>     7.3989     0.0000   250.0000 </r>
       <r>     7.4989     0.0000   250.0000 </r>
       <r>     7.5989     0.0000   250.0000 </r>
       <r>     7.6988     0.0000   250.0000 </r>
       <r>     7.7988     0.0000   250.0000 </r>
       <r>     7.8988     0.0000   250.0000 </r>
       <r>     7.9988     0.0000   250.0000 </r>
       <r>     8.0988     0.0000   250.0000 </r>
       <r>     8.1988     0.0000   250.0000 </r>
       <r>     8.2988     0.0001   250.0000 </r>
       <r>     8.3987     1.2880   250.1288 </r>
       <r>     8.4987    16.8096   251.8095 </r>
       <r>     8.5987     1.9047   252.0000 </r>
       <r>     8.6987     0.0004   252.0000 </r>
       <r>     8.7987     0.0000   252.0000 </r>
       <r>     8.8987     0.0000   252.0000 </r>
       <r>     8.9987     0.0000   252.0000 </r>
       <r>     9.0986     0.0000   252.0000 </r>
       <r>     9.1986     0.0000   252.0000 </r>
       <r>     9.2986     0.0035   252.0003 </r>
       <r>     9.3986     7.0656   252.7068 </r>
       <r>     9.4986    31.7877   255.8851 </r>
       <r>     9.5986     1.1487   256.0000 </r>
       <r>     9.6986     0.0000   256.0000 </r>
       <r>     9.7986     0.0002   256.0000 </r>
       <r>     9.8985     1.3765   256.1376 </r>
       <r>     9.9985    16.8345   257.8209 </r>
       <r>    10.0985     1.8074   258.0016 </r>
       <r>    10.1985     7.4304   258.7445 </r>
       <r>    10.2985    12.4331   259.9877 </r>
       <r>    10.3985     1.1914   260.1068 </r>
       <r>    10.4985    31.5388   263.2602 </r>
       <r>    10.5984    12.1945   264.4795 </r>
       <r>    10.6984    14.8683   265.9661 </r>
       <r>    10.7984     0.3399   266.0001 </r>
       <r>    10.8984     4.6629   266.4663 </r>
       <r>    10.9984    33.3036   269.7962 </r>
       <r>    11.0984     2.0377   270.0000 </r>
       <r>    11.1984     0.0002   270.0000 </r>
       <r>    11.2983     0.0043   270.0004 </r>
       <r>    11.3983     7.6705   270.7674 </r>
       <r>    11.4983    33.6656   274.1335 </r>
       <r>    11.5983    17.6543   275.8987 </r>
       <r>    11.6983     1.0636   276.0050 </r>
       <r>    11.7983    10.4111   277.0460 </r>
       <r>    11.8983    35.3153   280.5770 </r>
       <r>    11.9982    14.2047   281.9973 </r>
       <r>    12.0982     2.1497   282.2122 </r>
       <r>    12.1982    42.5459   286.4662 </r>
       <r>    12.2982    35.1068   289.9764 </r>
       <r>    12.3982    12.9276   291.2690 </r>
       <r>    12.4982    30.1494   294.2836 </r>
       <r>    12.5982    40.8617   298.3692 </r>
       <r>    12.6982    21.5239   300.5213 </r>
       <r>    12.7981    14.5251   301.9736 </r>
       <r>    12.8981     8.9314   302.8666 </r>
       <r>    12.9981    30.5203   305.9182 </r>
       <r>    13.0981     0.9980   306.0180 </r>
       <r>    13.1981    22.8645   308.3041 </r>
       <r>    13.2981    36.0663   311.9102 </r>
       <r>    13.3981     0.8976   312.0000 </r>
       <r>    13.4980     0.0000   312.0000 </r>
       <r>    13.5980     0.0000   312.0000 </r>
       <r>    13.6980     0.0000   312.0000 </r>
       <r>    13.7980     0.0000   312.0000 </r>
       <r>    13.8980     0.0000   312.0000 </r>
       <r>    13.9980     0.0000   312.0000 </r>
       <r>    14.0980     0.0000   312.0000 </r>
       <r>    14.1979     0.0000   312.0000 </r>
       <r>    14.2979     0.0000   312.0000 </r>
       <r>    14.3979     0.0000   312.0000 </r>
       <r>    14.4979     0.0000   312.0000 </r>
       <r>    14.5979     0.0000   312.0000 </r>
      </set>
     </set>
    </array>
   </total>
  </dos>
 </calculation>
 <structure name="finalpos" >
  <crystal>
   <varray name="basis" >
    <v>       8.49378604       0.00000000       0.00000000 </v>
    <v>       0.00000000       8.49378604       0.00000000 </v>
    <v>       0.00000000       0.00000000       8.49378604 </v>
   </varray>
   <i name="volume">    612.77910841 </i>
   <varray name="rec_basis" >
    <v>       0.11773313       0.00000000       0.00000000 </v>
    <v>       0.00000000       0.11773313       0.00000000 </v>
    <v>       0.00000000       0.00000000       0.11773313 </v>
   </varray>
  </crystal>
  <varray name="positions" >
   <v>       0.99979458       0.99979458       0.99979458 </v>
   <v>       0.99979458       0.99979458       0.50020542 </v>
   <v>       0.99979458       0.50020542       0.99979458 </v>
   <v>       0.99979458       0.50020542       0.50020542 </v>
   <v>       0.50020542       0.99979458       0.99979458 </v>
   <v>       0.50020542       0.99979458       0.50020542 </v>
   <v>       0.50020542       0.50020542       0.99979458 </v>
   <v>       0.50020542       0.50020542       0.50020542 </v>
   <v>       0.98001156       0.25000000       0.25000000 </v>
   <v>       0.99769274       0.25000000       0.75000000 </v>
   <v>       0.99769274       0.75000000       0.25000000 </v>
   <v>       0.99906100       0.75000000       0.75000000 </v>
   <v>       0.51998844       0.25000000       0.25000000 </v>
   <v>       0.50230726       0.25000000       0.75000000 </v>
   <v>       0.50230726       0.75000000       0.25000000 </v>
   <v>       0.50093900       0.75000000       0.75000000 </v>
   <v>       0.25000000       0.98001156       0.25000000 </v>
   <v>       0.25000000       0.99769274       0.75000000 </v>
   <v>       0.25000000       0.51998844       0.25000000 </v>
   <v>       0.25000000       0.50230726       0.75000000 </v>
   <v>       0.75000000       0.99769274       0.25000000 </v>
   <v>       0.75000000       0.99906100       0.75000000 </v>
   <v>       0.75000000       0.50230726       0.25000000 </v>
   <v>       0.75000000       0.50093900       0.75000000 </v>
   <v>       0.25000000       0.25000000       0.98001156 </v>
   <v>       0.25000000       0.25000000       0.51998844 </v>
   <v>       0.25000000       0.75000000       0.99769274 </v>
   <v>       0.25000000       0.75000000       0.50230726 </v>
   <v>       0.75000000       0.25000000       0.99769274 </v>
   <v>       0.75000000       0.25000000       0.50230726 </v>
   <v>       0.75000000       0.75000000       0.99906100 </v>
   <v>       0.75000000       0.75000000       0.50093900 </v>
   <v>       0.25000000       0.25000000       0.75000000 </v>
   <v>       0.25000000       0.75000000       0.25000000 </v>
   <v>       0.25000000       0.75000000       0.75000000 </v>
   <v>       0.75000000       0.25000000       0.25000000 </v>
   <v>       0.75000000       0.25000000       0.75000000 </v>
   <v>       0.75000000       0.75000000       0.25000000 </v>
   <v>       0.75000000       0.75000000       0.75000000 </v>
   <v>       0.25000000       0.00597677       0.00597677 </v>
   <v>       0.25000000       0.00597677       0.49402323 </v>
   <v>       0.25000000       0.49402323       0.00597677 </v>
   <v>       0.25000000       0.49402323       0.49402323 </v>
   <v>       0.75000000       0.00143877       0.00143877 </v>
   <v>       0.75000000       0.00143877       0.49856123 </v>
   <v>       0.75000000       0.49856123       0.00143877 </v>
   <v>       0.75000000       0.49856123       0.49856123 </v>
   <v>       0.00597677       0.25000000       0.00597677 </v>
   <v>       0.00597677       0.25000000       0.49402323 </v>
   <v>       0.00143877       0.75000000       0.00143877 </v>
   <v>       0.00143877       0.75000000       0.49856123 </v>
   <v>       0.49402323       0.25000000       0.00597677 </v>
   <v>       0.49402323       0.25000000       0.49402323 </v>
   <v>       0.49856123       0.75000000       0.00143877 </v>
   <v>       0.49856123       0.75000000       0.49856123 </v>
   <v>       0.00597677       0.00597677       0.25000000 </v>
   <v>       0.00143877       0.00143877       0.75000000 </v>
   <v>       0.00597677       0.49402323       0.25000000 </v>
   <v>       0.00143877       0.49856123       0.75000000 </v>
   <v>       0.49402323       0.00597677       0.25000000 </v>
   <v>       0.49856123       0.00143877       0.75000000 </v>
   <v>       0.49402323       0.49402323       0.25000000 </v>
   <v>       0.49856123       0.49856123       0.75000000 </v>
  </varray>
 </structure>
</modeling>
