   15   15   20    2
  0.1021298E+02  0.6006014E-09  0.6006014E-09  0.6006014E-09  0.5000000E-15
  1.000000000000000E-004
  CAR 
 unknown system                          
     58      8     48
 
  0.0000000E+00  0.0000000E+00  0.0000000E+00  0.1250000E+00
    1      -14.369964    -14.369941   1.000000   1.000000
    2      -13.279767    -13.279737   1.000000   1.000000
    3      -13.279519    -13.279489   1.000000   1.000000
    4      -13.278938    -13.278908   1.000000   1.000000
    5      -13.187671    -13.187654   1.000000   1.000000
    6      -13.030513    -13.030480   1.000000   1.000000
    7      -13.030030    -13.029998   1.000000   1.000000
    8       -1.868772     -1.868763   1.000000   1.000000
    9       -1.690603     -1.690599   1.000000   1.000000
   10       -1.689773     -1.689768   1.000000   1.000000
   11       -1.689203     -1.689199   1.000000   1.000000
   12       -0.917050     -0.917038   1.000000   1.000000
   13       -0.916631     -0.916619   1.000000   1.000000
   14       -0.915497     -0.915485   1.000000   1.000000
   15        1.322433      1.322467   1.000000   1.000000
   16        1.322491      1.322526   1.000000   1.000000
   17        1.322706      1.322739   1.000000   1.000000
   18        1.549992      1.550017   1.000000   1.000000
   19        1.551886      1.551912   1.000000   1.000000
   20        1.556702      1.556727   1.000000   1.000000
   21        2.008300      2.008335   1.000000   1.000000
   22        2.008843      2.008877   1.000000   1.000000
   23        2.009197      2.009230   1.000000   1.000000
   24        2.010955      2.010999   1.000000   1.000000
   25        2.011340      2.011383   1.000000   1.000000
   26        2.467532      2.467568   1.000000   1.000000
   27        2.468850      2.468887   1.000000   1.000000
   28        2.472245      2.472281   1.000000   1.000000
   29        3.438383      3.438330   1.000000   1.000000
   30        8.348545      8.348437   0.000000   0.000000
   31       10.433953     10.433843   0.000000   0.000000
   32       10.434094     10.433985   0.000000   0.000000
   33       10.434215     10.434107   0.000000   0.000000
   34       11.269451     11.269384   0.000000   0.000000
   35       11.272801     11.272733   0.000000   0.000000
   36       11.281407     11.281340   0.000000   0.000000
   37       11.836473     11.836364   0.000000   0.000000
   38       11.836625     11.836516   0.000000   0.000000
   39       11.836842     11.836733   0.000000   0.000000
   40       11.903050     11.903030   0.000000   0.000000
   41       12.476030     12.476066   0.000000   0.000000
   42       12.479148     12.479184   0.000000   0.000000
   43       14.989636     14.989555   0.000000   0.000000
   44       15.272215     15.272107   0.000000   0.000000
   45       15.277298     15.277189   0.000000   0.000000
   46       15.279588     15.279479   0.000000   0.000000
   47       18.394875     18.397781   0.000000   0.000000
   48       18.399546     18.400776   0.000000   0.000000
 
  0.5000000E+00  0.0000000E+00  0.0000000E+00  0.1250000E+00
    1      -13.954020    -13.953998   1.000000   1.000000
    2      -13.762466    -13.762437   1.000000   1.000000
    3      -13.208221    -13.208202   1.000000   1.000000
    4      -13.165141    -13.165109   1.000000   1.000000
    5      -13.164376    -13.164344   1.000000   1.000000
    6      -13.163986    -13.163955   1.000000   1.000000
    7      -13.163321    -13.163290   1.000000   1.000000
    8       -1.296817     -1.296806   1.000000   1.000000
    9       -1.118241     -1.118237   1.000000   1.000000
   10       -1.116015     -1.116010   1.000000   1.000000
   11       -1.091016     -1.091005   1.000000   1.000000
   12       -0.323665     -0.323647   1.000000   1.000000
   13       -0.320571     -0.320553   1.000000   1.000000
   14       -0.307458     -0.307453   1.000000   1.000000
   15        0.177118      0.177139   1.000000   1.000000
   16        0.668075      0.668078   1.000000   1.000000
   17        0.766468      0.766496   1.000000   1.000000
   18        0.767109      0.767137   1.000000   1.000000
   19        0.786051      0.786072   1.000000   1.000000
   20        0.787459      0.787481   1.000000   1.000000
   21        1.624054      1.624081   1.000000   1.000000
   22        1.627850      1.627879   1.000000   1.000000
   23        1.637377      1.637423   1.000000   1.000000
   24        1.656529      1.656552   1.000000   1.000000
   25        2.034906      2.034949   1.000000   1.000000
   26        2.035598      2.035637   1.000000   1.000000
   27        2.287000      2.287034   1.000000   1.000000
   28        2.289741      2.289779   1.000000   1.000000
   29        5.136835      5.136794   1.000000   1.000000
   30        7.933391      7.933335   0.000000   0.000000
   31       10.307334     10.307278   0.000000   0.000000
   32       10.314277     10.314223   0.000000   0.000000
   33       10.580081     10.579978   0.000000   0.000000
   34       10.752577     10.752478   0.000000   0.000000
   35       12.329743     12.329689   0.000000   0.000000
   36       12.331801     12.331745   0.000000   0.000000
   37       12.450785     12.450652   0.000000   0.000000
   38       12.452802     12.452668   0.000000   0.000000
   39       13.283247     13.283203   0.000000   0.000000
   40       13.904524     13.904429   0.000000   0.000000
   41       14.080929     14.080845   0.000000   0.000000
   42       14.083467     14.083380   0.000000   0.000000
   43       14.408310     14.408233   0.000000   0.000000
   44       15.178489     15.178379   0.000000   0.000000
   45       15.324596     15.324515   0.000000   0.000000
   46       15.579184     15.579202   0.000000   0.000000
   47       15.599755     15.599774   0.000000   0.000000
   48       15.848872     15.875424   0.000000   0.000000
 
  0.0000000E+00  0.5000000E+00  0.0000000E+00  0.1250000E+00
    1      -13.953276    -13.953254   1.000000   1.000000
    2      -13.763506    -13.763477   1.000000   1.000000
    3      -13.207929    -13.207910   1.000000   1.000000
    4      -13.165608    -13.165577   1.000000   1.000000
    5      -13.165190    -13.165159   1.000000   1.000000
    6      -13.163668    -13.163636   1.000000   1.000000
    7      -13.162352    -13.162321   1.000000   1.000000
    8       -1.295505     -1.295494   1.000000   1.000000
    9       -1.117187     -1.117183   1.000000   1.000000
   10       -1.116003     -1.115999   1.000000   1.000000
   11       -1.092446     -1.092435   1.000000   1.000000
   12       -0.323809     -0.323791   1.000000   1.000000
   13       -0.322264     -0.322246   1.000000   1.000000
   14       -0.306937     -0.306931   1.000000   1.000000
   15        0.176537      0.176558   1.000000   1.000000
   16        0.668325      0.668328   1.000000   1.000000
   17        0.764991      0.765019   1.000000   1.000000
   18        0.767440      0.767468   1.000000   1.000000
   19        0.785657      0.785679   1.000000   1.000000
   20        0.789024      0.789046   1.000000   1.000000
   21        1.624649      1.624678   1.000000   1.000000
   22        1.629259      1.629286   1.000000   1.000000
   23        1.637919      1.637964   1.000000   1.000000
   24        1.655996      1.656018   1.000000   1.000000
   25        2.032684      2.032725   1.000000   1.000000
   26        2.034491      2.034532   1.000000   1.000000
   27        2.287499      2.287536   1.000000   1.000000
   28        2.291109      2.291144   1.000000   1.000000
   29        5.136869      5.136827   1.000000   1.000000
   30        7.934119      7.934064   0.000000   0.000000
   31       10.306900     10.306844   0.000000   0.000000
   32       10.314809     10.314753   0.000000   0.000000
   33       10.580163     10.580061   0.000000   0.000000
   34       10.752568     10.752469   0.000000   0.000000
   35       12.328428     12.328373   0.000000   0.000000
   36       12.331420     12.331364   0.000000   0.000000
   37       12.450955     12.450822   0.000000   0.000000
   38       12.453982     12.453849   0.000000   0.000000
   39       13.281127     13.281082   0.000000   0.000000
   40       13.903837     13.903742   0.000000   0.000000
   41       14.081027     14.080942   0.000000   0.000000
   42       14.083905     14.083821   0.000000   0.000000
   43       14.408916     14.408838   0.000000   0.000000
   44       15.178886     15.178776   0.000000   0.000000
   45       15.323394     15.323313   0.000000   0.000000
   46       15.579861     15.579878   0.000000   0.000000
   47       15.600925     15.600940   0.000000   0.000000
   48       15.851665     15.851976   0.000000   0.000000
 
  0.5000000E+00  0.5000000E+00  0.0000000E+00  0.1250000E+00
    1      -13.779981    -13.779953   1.000000   1.000000
    2      -13.694765    -13.694745   1.000000   1.000000
    3      -13.346482    -13.346452   1.000000   1.000000
    4      -13.344080    -13.344050   1.000000   1.000000
    5      -13.343488    -13.343458   1.000000   1.000000
    6      -13.126915    -13.126891   1.000000   1.000000
    7      -12.983860    -12.983828   1.000000   1.000000
    8       -1.228274     -1.228263   1.000000   1.000000
    9       -0.780943     -0.780929   1.000000   1.000000
   10       -0.606145     -0.606138   1.000000   1.000000
   11       -0.604739     -0.604733   1.000000   1.000000
   12       -0.238453     -0.238436   1.000000   1.000000
   13       -0.238298     -0.238284   1.000000   1.000000
   14       -0.215652     -0.215638   1.000000   1.000000
   15        0.176975      0.176978   1.000000   1.000000
   16        0.488638      0.488655   1.000000   1.000000
   17        0.488999      0.489014   1.000000   1.000000
   18        0.697194      0.697218   1.000000   1.000000
   19        0.699647      0.699669   1.000000   1.000000
   20        0.700497      0.700520   1.000000   1.000000
   21        0.801698      0.801720   1.000000   1.000000
   22        0.910967      0.911003   1.000000   1.000000
   23        1.919807      1.919845   1.000000   1.000000
   24        1.920094      1.920130   1.000000   1.000000
   25        1.926527      1.926558   1.000000   1.000000
   26        1.932753      1.932784   1.000000   1.000000
   27        2.009220      2.009254   1.000000   1.000000
   28        2.010150      2.010193   1.000000   1.000000
   29        5.636938      5.636896   1.000000   1.000000
   30        8.186048      8.186003   0.000000   0.000000
   31        9.549993      9.549935   0.000000   0.000000
   32        9.555278      9.555221   0.000000   0.000000
   33       11.043191     11.043116   0.000000   0.000000
   34       11.953820     11.953737   0.000000   0.000000
   35       11.954358     11.954269   0.000000   0.000000
   36       12.986847     12.986726   0.000000   0.000000
   37       12.988038     12.987917   0.000000   0.000000
   38       13.747553     13.747437   0.000000   0.000000
   39       13.949019     13.948921   0.000000   0.000000
   40       14.154150     14.154015   0.000000   0.000000
   41       14.155621     14.155486   0.000000   0.000000
   42       14.290617     14.290508   0.000000   0.000000
   43       14.453039     14.453010   0.000000   0.000000
   44       14.460530     14.460446   0.000000   0.000000
   45       14.462364     14.462296   0.000000   0.000000
   46       14.676030     14.676060   0.000000   0.000000
   47       15.859912     15.859494   0.000000   0.000000
   48       15.924696     15.924592   0.000000   0.000000
 
  0.0000000E+00  0.0000000E+00  0.5000000E+00  0.1250000E+00
    1      -13.953334    -13.953312   1.000000   1.000000
    2      -13.763423    -13.763394   1.000000   1.000000
    3      -13.207956    -13.207937   1.000000   1.000000
    4      -13.165585    -13.165553   1.000000   1.000000
    5      -13.164984    -13.164953   1.000000   1.000000
    6      -13.163788    -13.163757   1.000000   1.000000
    7      -13.162460    -13.162429   1.000000   1.000000
    8       -1.295691     -1.295680   1.000000   1.000000
    9       -1.117211     -1.117206   1.000000   1.000000
   10       -1.115863     -1.115859   1.000000   1.000000
   11       -1.092254     -1.092243   1.000000   1.000000
   12       -0.323724     -0.323706   1.000000   1.000000
   13       -0.322222     -0.322205   1.000000   1.000000
   14       -0.306996     -0.306990   1.000000   1.000000
   15        0.176491      0.176512   1.000000   1.000000
   16        0.668071      0.668074   1.000000   1.000000
   17        0.764846      0.764874   1.000000   1.000000
   18        0.767470      0.767498   1.000000   1.000000
   19        0.785591      0.785612   1.000000   1.000000
   20        0.789126      0.789147   1.000000   1.000000
   21        1.624360      1.624388   1.000000   1.000000
   22        1.629159      1.629186   1.000000   1.000000
   23        1.638127      1.638172   1.000000   1.000000
   24        1.655808      1.655830   1.000000   1.000000
   25        2.033117      2.033157   1.000000   1.000000
   26        2.034809      2.034851   1.000000   1.000000
   27        2.287242      2.287280   1.000000   1.000000
   28        2.291199      2.291233   1.000000   1.000000
   29        5.136912      5.136870   1.000000   1.000000
   30        7.934041      7.933985   0.000000   0.000000
   31       10.306746     10.306691   0.000000   0.000000
   32       10.314534     10.314478   0.000000   0.000000
   33       10.580387     10.580284   0.000000   0.000000
   34       10.752193     10.752094   0.000000   0.000000
   35       12.328656     12.328601   0.000000   0.000000
   36       12.331746     12.331691   0.000000   0.000000
   37       12.450852     12.450719   0.000000   0.000000
   38       12.453918     12.453785   0.000000   0.000000
   39       13.282322     13.282278   0.000000   0.000000
   40       13.904050     13.903955   0.000000   0.000000
   41       14.080922     14.080836   0.000000   0.000000
   42       14.083796     14.083712   0.000000   0.000000
   43       14.408681     14.408604   0.000000   0.000000
   44       15.178697     15.178587   0.000000   0.000000
   45       15.323823     15.323741   0.000000   0.000000
   46       15.579088     15.579105   0.000000   0.000000
   47       15.600463     15.600481   0.000000   0.000000
   48       15.849976     15.851098   0.000000   0.000000
 
  0.5000000E+00  0.0000000E+00  0.5000000E+00  0.1250000E+00
    1      -13.780114    -13.780085   1.000000   1.000000
    2      -13.694658    -13.694638   1.000000   1.000000
    3      -13.346302    -13.346273   1.000000   1.000000
    4      -13.344309    -13.344279   1.000000   1.000000
    5      -13.343428    -13.343398   1.000000   1.000000
    6      -13.126772    -13.126749   1.000000   1.000000
    7      -12.983983    -12.983951   1.000000   1.000000
    8       -1.228705     -1.228694   1.000000   1.000000
    9       -0.781039     -0.781025   1.000000   1.000000
   10       -0.607200     -0.607194   1.000000   1.000000
   11       -0.605259     -0.605253   1.000000   1.000000
   12       -0.238593     -0.238576   1.000000   1.000000
   13       -0.238464     -0.238450   1.000000   1.000000
   14       -0.215428     -0.215414   1.000000   1.000000
   15        0.178061      0.178065   1.000000   1.000000
   16        0.489845      0.489862   1.000000   1.000000
   17        0.490394      0.490408   1.000000   1.000000
   18        0.697043      0.697067   1.000000   1.000000
   19        0.699540      0.699563   1.000000   1.000000
   20        0.700861      0.700884   1.000000   1.000000
   21        0.803128      0.803150   1.000000   1.000000
   22        0.910987      0.911023   1.000000   1.000000
   23        1.919657      1.919696   1.000000   1.000000
   24        1.919937      1.919972   1.000000   1.000000
   25        1.923936      1.923967   1.000000   1.000000
   26        1.932599      1.932629   1.000000   1.000000
   27        2.008966      2.009001   1.000000   1.000000
   28        2.010047      2.010090   1.000000   1.000000
   29        5.636639      5.636598   1.000000   1.000000
   30        8.188963      8.188917   0.000000   0.000000
   31        9.547326      9.547268   0.000000   0.000000
   32        9.554643      9.554585   0.000000   0.000000
   33       11.044244     11.044169   0.000000   0.000000
   34       11.953687     11.953606   0.000000   0.000000
   35       11.955294     11.955204   0.000000   0.000000
   36       12.986354     12.986233   0.000000   0.000000
   37       12.988013     12.987891   0.000000   0.000000
   38       13.747387     13.747271   0.000000   0.000000
   39       13.949002     13.948905   0.000000   0.000000
   40       14.153975     14.153840   0.000000   0.000000
   41       14.156249     14.156114   0.000000   0.000000
   42       14.290530     14.290422   0.000000   0.000000
   43       14.451326     14.451305   0.000000   0.000000
   44       14.460347     14.460264   0.000000   0.000000
   45       14.461563     14.461483   0.000000   0.000000
   46       14.676994     14.677024   0.000000   0.000000
   47       15.853620     15.853671   0.000000   0.000000
   48       15.924519     15.924431   0.000000   0.000000
 
  0.0000000E+00  0.5000000E+00  0.5000000E+00  0.1250000E+00
    1      -13.780419    -13.780390   1.000000   1.000000
    2      -13.694411    -13.694392   1.000000   1.000000
    3      -13.345677    -13.345647   1.000000   1.000000
    4      -13.344317    -13.344286   1.000000   1.000000
    5      -13.344037    -13.344006   1.000000   1.000000
    6      -13.126425    -13.126401   1.000000   1.000000
    7      -12.984274    -12.984242   1.000000   1.000000
    8       -1.229754     -1.229743   1.000000   1.000000
    9       -0.781243     -0.781229   1.000000   1.000000
   10       -0.608835     -0.608830   1.000000   1.000000
   11       -0.607733     -0.607726   1.000000   1.000000
   12       -0.238970     -0.238954   1.000000   1.000000
   13       -0.238829     -0.238815   1.000000   1.000000
   14       -0.214834     -0.214820   1.000000   1.000000
   15        0.180819      0.180823   1.000000   1.000000
   16        0.492163      0.492179   1.000000   1.000000
   17        0.494619      0.494634   1.000000   1.000000
   18        0.697664      0.697688   1.000000   1.000000
   19        0.699747      0.699769   1.000000   1.000000
   20        0.700296      0.700318   1.000000   1.000000
   21        0.806794      0.806815   1.000000   1.000000
   22        0.910976      0.911013   1.000000   1.000000
   23        1.919268      1.919306   1.000000   1.000000
   24        1.919532      1.919567   1.000000   1.000000
   25        1.923454      1.923484   1.000000   1.000000
   26        1.926058      1.926090   1.000000   1.000000
   27        2.008433      2.008467   1.000000   1.000000
   28        2.009807      2.009850   1.000000   1.000000
   29        5.635859      5.635817   1.000000   1.000000
   30        8.196500      8.196456   0.000000   0.000000
   31        9.545619      9.545561   0.000000   0.000000
   32        9.547820      9.547762   0.000000   0.000000
   33       11.046977     11.046902   0.000000   0.000000
   34       11.953253     11.953171   0.000000   0.000000
   35       11.957753     11.957663   0.000000   0.000000
   36       12.986221     12.986100   0.000000   0.000000
   37       12.987003     12.986882   0.000000   0.000000
   38       13.747006     13.746890   0.000000   0.000000
   39       13.948718     13.948621   0.000000   0.000000
   40       14.154779     14.154644   0.000000   0.000000
   41       14.156449     14.156312   0.000000   0.000000
   42       14.290728     14.290619   0.000000   0.000000
   43       14.444846     14.444833   0.000000   0.000000
   44       14.459739     14.459652   0.000000   0.000000
   45       14.461506     14.461424   0.000000   0.000000
   46       14.679618     14.679648   0.000000   0.000000
   47       15.837893     15.838033   0.000000   0.000000
   48       15.925834     15.925839   0.000000   0.000000
 
  0.5000000E+00  0.5000000E+00  0.5000000E+00  0.1250000E+00
    1      -13.953905    -13.953882   1.000000   1.000000
    2      -13.762626    -13.762598   1.000000   1.000000
    3      -13.208167    -13.208149   1.000000   1.000000
    4      -13.165313    -13.165282   1.000000   1.000000
    5      -13.164253    -13.164222   1.000000   1.000000
    6      -13.164141    -13.164109   1.000000   1.000000
    7      -13.163108    -13.163076   1.000000   1.000000
    8       -1.296593     -1.296583   1.000000   1.000000
    9       -1.118234     -1.118231   1.000000   1.000000
   10       -1.115866     -1.115863   1.000000   1.000000
   11       -1.091282     -1.091272   1.000000   1.000000
   12       -0.323580     -0.323564   1.000000   1.000000
   13       -0.320489     -0.320473   1.000000   1.000000
   14       -0.307531     -0.307523   1.000000   1.000000
   15        0.176907      0.176931   1.000000   1.000000
   16        0.668106      0.668113   1.000000   1.000000
   17        0.766083      0.766113   1.000000   1.000000
   18        0.766887      0.766918   1.000000   1.000000
   19        0.785689      0.785715   1.000000   1.000000
   20        0.787220      0.787245   1.000000   1.000000
   21        1.624360      1.624386   1.000000   1.000000
   22        1.628277      1.628303   1.000000   1.000000
   23        1.637382      1.637426   1.000000   1.000000
   24        1.657033      1.657053   1.000000   1.000000
   25        2.034833      2.034872   1.000000   1.000000
   26        2.035201      2.035240   1.000000   1.000000
   27        2.287283      2.287317   1.000000   1.000000
   28        2.290065      2.290099   1.000000   1.000000
   29        5.136593      5.136551   1.000000   1.000000
   30        7.933498      7.933444   0.000000   0.000000
   31       10.307705     10.307649   0.000000   0.000000
   32       10.314541     10.314484   0.000000   0.000000
   33       10.579701     10.579599   0.000000   0.000000
   34       10.752761     10.752663   0.000000   0.000000
   35       12.329079     12.329024   0.000000   0.000000
   36       12.331545     12.331491   0.000000   0.000000
   37       12.450799     12.450667   0.000000   0.000000
   38       12.452651     12.452519   0.000000   0.000000
   39       13.282047     13.282002   0.000000   0.000000
   40       13.904411     13.904316   0.000000   0.000000
   41       14.081260     14.081175   0.000000   0.000000
   42       14.083807     14.083722   0.000000   0.000000
   43       14.408506     14.408428   0.000000   0.000000
   44       15.178639     15.178532   0.000000   0.000000
   45       15.324159     15.324079   0.000000   0.000000
   46       15.579977     15.579995   0.000000   0.000000
   47       15.600147     15.600164   0.000000   0.000000
   48       15.850373     15.851380   0.000000   0.000000
