   15   15   20    2
  0.1021298E+02  0.6006014E-09  0.6006014E-09  0.6006014E-09  0.5000000E-15
  1.000000000000000E-004
  CAR 
 unknown system                          
     58     16     48
 
  0.2500000E+00  0.2500000E+00  0.2500000E+00  0.6250000E-01
    1      -14.251632    -14.251621   1.000000   1.000000
    2      -13.466787    -13.466775   1.000000   1.000000
    3      -13.268092    -13.268078   1.000000   1.000000
    4      -13.267608    -13.267594   1.000000   1.000000
    5      -13.228798    -13.228804   1.000000   1.000000
    6      -13.092399    -13.092384   1.000000   1.000000
    7      -13.091915    -13.091901   1.000000   1.000000
    8       -1.607287     -1.607270   1.000000   1.000000
    9       -1.470773     -1.470761   1.000000   1.000000
   10       -1.469266     -1.469254   1.000000   1.000000
   11       -1.293267     -1.293252   1.000000   1.000000
   12       -1.030226     -1.030212   1.000000   1.000000
   13       -0.677240     -0.677224   1.000000   1.000000
   14       -0.675518     -0.675502   1.000000   1.000000
   15        0.982889      0.982915   1.000000   1.000000
   16        0.983569      0.983595   1.000000   1.000000
   17        1.054372      1.054383   1.000000   1.000000
   18        1.396253      1.396275   1.000000   1.000000
   19        1.487036      1.487051   1.000000   1.000000
   20        1.490408      1.490423   1.000000   1.000000
   21        1.526239      1.526251   1.000000   1.000000
   22        1.582005      1.582025   1.000000   1.000000
   23        1.583169      1.583188   1.000000   1.000000
   24        1.879912      1.879929   1.000000   1.000000
   25        1.998949      1.998973   1.000000   1.000000
   26        1.999377      1.999401   1.000000   1.000000
   27        2.363612      2.363629   1.000000   1.000000
   28        2.366388      2.366405   1.000000   1.000000
   29        4.260118      4.260060   1.000000   1.000000
   30        8.670939      8.670886   0.000000   0.000000
   31        9.735911      9.735854   0.000000   0.000000
   32       10.462757     10.462702   0.000000   0.000000
   33       10.467512     10.467456   0.000000   0.000000
   34       11.156553     11.156471   0.000000   0.000000
   35       11.415128     11.415057   0.000000   0.000000
   36       11.418120     11.418048   0.000000   0.000000
   37       12.268576     12.268536   0.000000   0.000000
   38       12.269096     12.269056   0.000000   0.000000
   39       12.464732     12.464744   0.000000   0.000000
   40       12.896780     12.896729   0.000000   0.000000
   41       13.361780     13.361813   0.000000   0.000000
   42       13.365257     13.365290   0.000000   0.000000
   43       14.775404     14.775343   0.000000   0.000000
   44       15.085034     15.084974   0.000000   0.000000
   45       15.169757     15.169701   0.000000   0.000000
   46       15.173588     15.173532   0.000000   0.000000
   47       16.694169     16.694127   0.000000   0.000000
   48       17.281019     17.280986   0.000000   0.000000
 
  0.2500000E+00  0.0000000E+00  0.0000000E+00  0.6250000E-01
    1      -14.251629    -14.251618   1.000000   1.000000
    2      -13.466787    -13.466774   1.000000   1.000000
    3      -13.268070    -13.268056   1.000000   1.000000
    4      -13.267631    -13.267617   1.000000   1.000000
    5      -13.228798    -13.228805   1.000000   1.000000
    6      -13.092377    -13.092363   1.000000   1.000000
    7      -13.091941    -13.091927   1.000000   1.000000
    8       -1.607319     -1.607301   1.000000   1.000000
    9       -1.470735     -1.470723   1.000000   1.000000
   10       -1.469223     -1.469209   1.000000   1.000000
   11       -1.293314     -1.293302   1.000000   1.000000
   12       -1.030102     -1.030088   1.000000   1.000000
   13       -0.677349     -0.677333   1.000000   1.000000
   14       -0.675588     -0.675571   1.000000   1.000000
   15        0.983131      0.983155   1.000000   1.000000
   16        0.983610      0.983632   1.000000   1.000000
   17        1.054488      1.054496   1.000000   1.000000
   18        1.396032      1.396056   1.000000   1.000000
   19        1.487640      1.487653   1.000000   1.000000
   20        1.490756      1.490769   1.000000   1.000000
   21        1.526293      1.526301   1.000000   1.000000
   22        1.581745      1.581764   1.000000   1.000000
   23        1.582754      1.582774   1.000000   1.000000
   24        1.879628      1.879648   1.000000   1.000000
   25        1.998952      1.998979   1.000000   1.000000
   26        1.999196      1.999221   1.000000   1.000000
   27        2.363604      2.363621   1.000000   1.000000
   28        2.366204      2.366226   1.000000   1.000000
   29        4.260256      4.260197   1.000000   1.000000
   30        8.671044      8.670991   0.000000   0.000000
   31        9.735992      9.735935   0.000000   0.000000
   32       10.462464     10.462408   0.000000   0.000000
   33       10.467130     10.467075   0.000000   0.000000
   34       11.156595     11.156515   0.000000   0.000000
   35       11.415554     11.415482   0.000000   0.000000
   36       11.417815     11.417742   0.000000   0.000000
   37       12.268712     12.268672   0.000000   0.000000
   38       12.269476     12.269439   0.000000   0.000000
   39       12.465057     12.465067   0.000000   0.000000
   40       12.897135     12.897086   0.000000   0.000000
   41       13.361654     13.361687   0.000000   0.000000
   42       13.364976     13.365007   0.000000   0.000000
   43       14.775379     14.775318   0.000000   0.000000
   44       15.085070     15.085008   0.000000   0.000000
   45       15.169743     15.169687   0.000000   0.000000
   46       15.173469     15.173412   0.000000   0.000000
   47       16.693960     16.693918   0.000000   0.000000
   48       17.280665     17.286632   0.000000   0.000000
 
  0.0000000E+00  0.0000000E+00 -0.2500000E+00  0.6250000E-01
    1      -14.251567    -14.251556   1.000000   1.000000
    2      -13.467094    -13.467082   1.000000   1.000000
    3      -13.268120    -13.268106   1.000000   1.000000
    4      -13.267591    -13.267577   1.000000   1.000000
    5      -13.228549    -13.228555   1.000000   1.000000
    6      -13.092425    -13.092411   1.000000   1.000000
    7      -13.091886    -13.091872   1.000000   1.000000
    8       -1.607443     -1.607424   1.000000   1.000000
    9       -1.469938     -1.469924   1.000000   1.000000
   10       -1.469291     -1.469279   1.000000   1.000000
   11       -1.293563     -1.293550   1.000000   1.000000
   12       -1.029627     -1.029613   1.000000   1.000000
   13       -0.677299     -0.677282   1.000000   1.000000
   14       -0.676604     -0.676588   1.000000   1.000000
   15        0.982777      0.982800   1.000000   1.000000
   16        0.983602      0.983626   1.000000   1.000000
   17        1.054534      1.054542   1.000000   1.000000
   18        1.396071      1.396095   1.000000   1.000000
   19        1.487464      1.487477   1.000000   1.000000
   20        1.490541      1.490554   1.000000   1.000000
   21        1.526100      1.526109   1.000000   1.000000
   22        1.581891      1.581911   1.000000   1.000000
   23        1.583827      1.583846   1.000000   1.000000
   24        1.879607      1.879627   1.000000   1.000000
   25        1.998443      1.998470   1.000000   1.000000
   26        1.998836      1.998862   1.000000   1.000000
   27        2.363650      2.363672   1.000000   1.000000
   28        2.366754      2.366772   1.000000   1.000000
   29        4.260329      4.260270   1.000000   1.000000
   30        8.671413      8.671360   0.000000   0.000000
   31        9.736162      9.736106   0.000000   0.000000
   32       10.461748     10.461693   0.000000   0.000000
   33       10.467640     10.467584   0.000000   0.000000
   34       11.156500     11.156420   0.000000   0.000000
   35       11.415323     11.415250   0.000000   0.000000
   36       11.417987     11.417915   0.000000   0.000000
   37       12.268865     12.268826   0.000000   0.000000
   38       12.269130     12.269090   0.000000   0.000000
   39       12.464440     12.464450   0.000000   0.000000
   40       12.897434     12.897385   0.000000   0.000000
   41       13.361783     13.361814   0.000000   0.000000
   42       13.365011     13.365043   0.000000   0.000000
   43       14.775353     14.775291   0.000000   0.000000
   44       15.084435     15.084373   0.000000   0.000000
   45       15.168989     15.168931   0.000000   0.000000
   46       15.174702     15.174646   0.000000   0.000000
   47       16.694099     16.694056   0.000000   0.000000
   48       17.281517     17.281651   0.000000   0.000000
 
  0.0000000E+00  0.2500000E+00  0.0000000E+00  0.6250000E-01
    1      -14.251571    -14.251560   1.000000   1.000000
    2      -13.467081    -13.467068   1.000000   1.000000
    3      -13.268079    -13.268065   1.000000   1.000000
    4      -13.267631    -13.267617   1.000000   1.000000
    5      -13.228559    -13.228565   1.000000   1.000000
    6      -13.092385    -13.092370   1.000000   1.000000
    7      -13.091926    -13.091912   1.000000   1.000000
    8       -1.607451     -1.607433   1.000000   1.000000
    9       -1.469949     -1.469936   1.000000   1.000000
   10       -1.469437     -1.469423   1.000000   1.000000
   11       -1.293421     -1.293409   1.000000   1.000000
   12       -1.029691     -1.029676   1.000000   1.000000
   13       -0.677196     -0.677180   1.000000   1.000000
   14       -0.676661     -0.676645   1.000000   1.000000
   15        0.982999      0.983022   1.000000   1.000000
   16        0.983467      0.983491   1.000000   1.000000
   17        1.054638      1.054646   1.000000   1.000000
   18        1.396052      1.396076   1.000000   1.000000
   19        1.487263      1.487277   1.000000   1.000000
   20        1.490218      1.490231   1.000000   1.000000
   21        1.526322      1.526330   1.000000   1.000000
   22        1.582292      1.582313   1.000000   1.000000
   23        1.583944      1.583964   1.000000   1.000000
   24        1.879613      1.879633   1.000000   1.000000
   25        1.998305      1.998333   1.000000   1.000000
   26        1.998808      1.998833   1.000000   1.000000
   27        2.363704      2.363724   1.000000   1.000000
   28        2.366504      2.366523   1.000000   1.000000
   29        4.260303      4.260244   1.000000   1.000000
   30        8.671414      8.671361   0.000000   0.000000
   31        9.736121      9.736064   0.000000   0.000000
   32       10.462013     10.461958   0.000000   0.000000
   33       10.467810     10.467754   0.000000   0.000000
   34       11.156619     11.156539   0.000000   0.000000
   35       11.415575     11.415503   0.000000   0.000000
   36       11.417614     11.417542   0.000000   0.000000
   37       12.268753     12.268713   0.000000   0.000000
   38       12.269126     12.269088   0.000000   0.000000
   39       12.464032     12.464043   0.000000   0.000000
   40       12.897162     12.897113   0.000000   0.000000
   41       13.361873     13.361904   0.000000   0.000000
   42       13.365048     13.365080   0.000000   0.000000
   43       14.775392     14.775331   0.000000   0.000000
   44       15.084361     15.084299   0.000000   0.000000
   45       15.169341     15.169284   0.000000   0.000000
   46       15.174491     15.174435   0.000000   0.000000
   47       16.694274     16.694232   0.000000   0.000000
   48       17.288011     17.284256   0.000000   0.000000
 
 -0.2500000E+00  0.2500000E+00  0.2500000E+00  0.6250000E-01
    1      -13.940551    -13.940541   1.000000   1.000000
    2      -13.646453    -13.646440   1.000000   1.000000
    3      -13.440412    -13.440405   1.000000   1.000000
    4      -13.311893    -13.311879   1.000000   1.000000
    5      -13.220319    -13.220307   1.000000   1.000000
    6      -13.129462    -13.129457   1.000000   1.000000
    7      -13.056876    -13.056861   1.000000   1.000000
    8       -1.200784     -1.200770   1.000000   1.000000
    9       -0.978999     -0.978980   1.000000   1.000000
   10       -0.935656     -0.935647   1.000000   1.000000
   11       -0.801866     -0.801852   1.000000   1.000000
   12       -0.667935     -0.667921   1.000000   1.000000
   13       -0.255809     -0.255795   1.000000   1.000000
   14       -0.196250     -0.196232   1.000000   1.000000
   15        0.292099      0.292111   1.000000   1.000000
   16        0.295359      0.295380   1.000000   1.000000
   17        0.324135      0.324148   1.000000   1.000000
   18        0.734059      0.734071   1.000000   1.000000
   19        0.972736      0.972752   1.000000   1.000000
   20        1.154603      1.154616   1.000000   1.000000
   21        1.333479      1.333501   1.000000   1.000000
   22        1.472464      1.472481   1.000000   1.000000
   23        1.617789      1.617814   1.000000   1.000000
   24        1.694333      1.694350   1.000000   1.000000
   25        1.775457      1.775481   1.000000   1.000000
   26        1.966990      1.967016   1.000000   1.000000
   27        2.021260      2.021284   1.000000   1.000000
   28        2.165936      2.165953   1.000000   1.000000
   29        5.328710      5.328644   1.000000   1.000000
   30        8.422842      8.422801   0.000000   0.000000
   31        9.383217      9.383173   0.000000   0.000000
   32        9.846947      9.846893   0.000000   0.000000
   33       10.751153     10.751098   0.000000   0.000000
   34       11.636038     11.635970   0.000000   0.000000
   35       12.249317     12.249268   0.000000   0.000000
   36       12.561136     12.561067   0.000000   0.000000
   37       12.703433     12.703344   0.000000   0.000000
   38       13.276069     13.276038   0.000000   0.000000
   39       13.295838     13.295784   0.000000   0.000000
   40       14.037390     14.037386   0.000000   0.000000
   41       14.068384     14.068321   0.000000   0.000000
   42       14.194853     14.194788   0.000000   0.000000
   43       14.386627     14.386560   0.000000   0.000000
   44       14.705757     14.705704   0.000000   0.000000
   45       14.897022     14.897060   0.000000   0.000000
   46       14.932516     14.932464   0.000000   0.000000
   47       15.448339     15.448370   0.000000   0.000000
   48       16.183049     16.177264   0.000000   0.000000
 
  0.2500000E+00 -0.2500000E+00  0.2500000E+00  0.6250000E-01
    1      -13.940244    -13.940235   1.000000   1.000000
    2      -13.646867    -13.646854   1.000000   1.000000
    3      -13.440834    -13.440826   1.000000   1.000000
    4      -13.311641    -13.311627   1.000000   1.000000
    5      -13.219588    -13.219576   1.000000   1.000000
    6      -13.130184    -13.130179   1.000000   1.000000
    7      -13.056611    -13.056596   1.000000   1.000000
    8       -1.199672     -1.199658   1.000000   1.000000
    9       -0.979252     -0.979234   1.000000   1.000000
   10       -0.933821     -0.933812   1.000000   1.000000
   11       -0.802929     -0.802915   1.000000   1.000000
   12       -0.667204     -0.667191   1.000000   1.000000
   13       -0.255307     -0.255293   1.000000   1.000000
   14       -0.197742     -0.197724   1.000000   1.000000
   15        0.290525      0.290538   1.000000   1.000000
   16        0.294691      0.294711   1.000000   1.000000
   17        0.323996      0.324010   1.000000   1.000000
   18        0.732415      0.732427   1.000000   1.000000
   19        0.973122      0.973138   1.000000   1.000000
   20        1.152871      1.152884   1.000000   1.000000
   21        1.332931      1.332953   1.000000   1.000000
   22        1.472770      1.472787   1.000000   1.000000
   23        1.617552      1.617578   1.000000   1.000000
   24        1.696995      1.697012   1.000000   1.000000
   25        1.775829      1.775853   1.000000   1.000000
   26        1.965932      1.965957   1.000000   1.000000
   27        2.021702      2.021726   1.000000   1.000000
   28        2.168368      2.168385   1.000000   1.000000
   29        5.328865      5.328799   1.000000   1.000000
   30        8.421162      8.421121   0.000000   0.000000
   31        9.381997      9.381953   0.000000   0.000000
   32        9.851042      9.850988   0.000000   0.000000
   33       10.748646     10.748591   0.000000   0.000000
   34       11.637171     11.637103   0.000000   0.000000
   35       12.248946     12.248897   0.000000   0.000000
   36       12.560549     12.560480   0.000000   0.000000
   37       12.703853     12.703764   0.000000   0.000000
   38       13.275956     13.275924   0.000000   0.000000
   39       13.295406     13.295352   0.000000   0.000000
   40       14.038309     14.038304   0.000000   0.000000
   41       14.070076     14.070014   0.000000   0.000000
   42       14.193854     14.193788   0.000000   0.000000
   43       14.386748     14.386680   0.000000   0.000000
   44       14.706121     14.706067   0.000000   0.000000
   45       14.894345     14.894384   0.000000   0.000000
   46       14.932898     14.932846   0.000000   0.000000
   47       15.449981     15.450013   0.000000   0.000000
   48       16.188050     16.190438   0.000000   0.000000
 
  0.2500000E+00  0.2500000E+00 -0.2500000E+00  0.6250000E-01
    1      -13.940214    -13.940205   1.000000   1.000000
    2      -13.646885    -13.646872   1.000000   1.000000
    3      -13.440888    -13.440880   1.000000   1.000000
    4      -13.311527    -13.311513   1.000000   1.000000
    5      -13.219680    -13.219668   1.000000   1.000000
    6      -13.130279    -13.130274   1.000000   1.000000
    7      -13.056498    -13.056484   1.000000   1.000000
    8       -1.199361     -1.199347   1.000000   1.000000
    9       -0.979157     -0.979139   1.000000   1.000000
   10       -0.933154     -0.933145   1.000000   1.000000
   11       -0.803304     -0.803289   1.000000   1.000000
   12       -0.667150     -0.667137   1.000000   1.000000
   13       -0.255106     -0.255093   1.000000   1.000000
   14       -0.198042     -0.198024   1.000000   1.000000
   15        0.289950      0.289963   1.000000   1.000000
   16        0.294412      0.294432   1.000000   1.000000
   17        0.324033      0.324047   1.000000   1.000000
   18        0.731932      0.731944   1.000000   1.000000
   19        0.973117      0.973133   1.000000   1.000000
   20        1.151686      1.151700   1.000000   1.000000
   21        1.332653      1.332675   1.000000   1.000000
   22        1.473067      1.473084   1.000000   1.000000
   23        1.617344      1.617369   1.000000   1.000000
   24        1.698041      1.698058   1.000000   1.000000
   25        1.775808      1.775832   1.000000   1.000000
   26        1.965752      1.965777   1.000000   1.000000
   27        2.021945      2.021969   1.000000   1.000000
   28        2.169485      2.169502   1.000000   1.000000
   29        5.328972      5.328906   1.000000   1.000000
   30        8.420158      8.420118   0.000000   0.000000
   31        9.381682      9.381638   0.000000   0.000000
   32        9.852492      9.852437   0.000000   0.000000
   33       10.747829     10.747774   0.000000   0.000000
   34       11.637354     11.637286   0.000000   0.000000
   35       12.248989     12.248940   0.000000   0.000000
   36       12.560433     12.560364   0.000000   0.000000
   37       12.703768     12.703679   0.000000   0.000000
   38       13.276137     13.276105   0.000000   0.000000
   39       13.295098     13.295044   0.000000   0.000000
   40       14.040264     14.040258   0.000000   0.000000
   41       14.070754     14.070693   0.000000   0.000000
   42       14.193528     14.193462   0.000000   0.000000
   43       14.386584     14.386517   0.000000   0.000000
   44       14.706384     14.706331   0.000000   0.000000
   45       14.893140     14.893178   0.000000   0.000000
   46       14.933016     14.932964   0.000000   0.000000
   47       15.449962     15.449994   0.000000   0.000000
   48       16.192155     16.194482   0.000000   0.000000
 
  0.2500000E+00  0.0000000E+00  0.5000000E+00  0.6250000E-01
    1      -13.940228    -13.940219   1.000000   1.000000
    2      -13.646875    -13.646862   1.000000   1.000000
    3      -13.440861    -13.440853   1.000000   1.000000
    4      -13.311639    -13.311625   1.000000   1.000000
    5      -13.219529    -13.219518   1.000000   1.000000
    6      -13.130217    -13.130212   1.000000   1.000000
    7      -13.056609    -13.056595   1.000000   1.000000
    8       -1.199753     -1.199737   1.000000   1.000000
    9       -0.979227     -0.979211   1.000000   1.000000
   10       -0.933532     -0.933522   1.000000   1.000000
   11       -0.802823     -0.802809   1.000000   1.000000
   12       -0.667223     -0.667210   1.000000   1.000000
   13       -0.255477     -0.255463   1.000000   1.000000
   14       -0.197902     -0.197885   1.000000   1.000000
   15        0.290257      0.290270   1.000000   1.000000
   16        0.294489      0.294509   1.000000   1.000000
   17        0.324189      0.324203   1.000000   1.000000
   18        0.732689      0.732702   1.000000   1.000000
   19        0.973035      0.973052   1.000000   1.000000
   20        1.152772      1.152785   1.000000   1.000000
   21        1.332680      1.332702   1.000000   1.000000
   22        1.473076      1.473091   1.000000   1.000000
   23        1.617462      1.617485   1.000000   1.000000
   24        1.697052      1.697073   1.000000   1.000000
   25        1.776061      1.776082   1.000000   1.000000
   26        1.965775      1.965803   1.000000   1.000000
   27        2.021771      2.021789   1.000000   1.000000
   28        2.168340      2.168361   1.000000   1.000000
   29        5.328866      5.328800   1.000000   1.000000
   30        8.421372      8.421332   0.000000   0.000000
   31        9.382003      9.381958   0.000000   0.000000
   32        9.850501      9.850448   0.000000   0.000000
   33       10.748752     10.748698   0.000000   0.000000
   34       11.637086     11.637017   0.000000   0.000000
   35       12.249448     12.249400   0.000000   0.000000
   36       12.560504     12.560436   0.000000   0.000000
   37       12.703592     12.703503   0.000000   0.000000
   38       13.276058     13.276022   0.000000   0.000000
   39       13.295169     13.295113   0.000000   0.000000
   40       14.038905     14.038898   0.000000   0.000000
   41       14.070303     14.070246   0.000000   0.000000
   42       14.193694     14.193629   0.000000   0.000000
   43       14.386746     14.386679   0.000000   0.000000
   44       14.706004     14.705952   0.000000   0.000000
   45       14.894272     14.894311   0.000000   0.000000
   46       14.932817     14.932764   0.000000   0.000000
   47       15.450627     15.450660   0.000000   0.000000
   48       16.189278     16.189619   0.000000   0.000000
 
 -0.2500000E+00  0.5000000E+00  0.5000000E+00  0.6250000E-01
    1      -13.940551    -13.940542   1.000000   1.000000
    2      -13.646438    -13.646426   1.000000   1.000000
    3      -13.440411    -13.440404   1.000000   1.000000
    4      -13.311891    -13.311877   1.000000   1.000000
    5      -13.220320    -13.220308   1.000000   1.000000
    6      -13.129461    -13.129456   1.000000   1.000000
    7      -13.056876    -13.056862   1.000000   1.000000
    8       -1.200777     -1.200763   1.000000   1.000000
    9       -0.979041     -0.979026   1.000000   1.000000
   10       -0.935652     -0.935644   1.000000   1.000000
   11       -0.801973     -0.801961   1.000000   1.000000
   12       -0.667816     -0.667802   1.000000   1.000000
   13       -0.255764     -0.255749   1.000000   1.000000
   14       -0.196119     -0.196103   1.000000   1.000000
   15        0.292101      0.292117   1.000000   1.000000
   16        0.295214      0.295238   1.000000   1.000000
   17        0.324081      0.324098   1.000000   1.000000
   18        0.733828      0.733843   1.000000   1.000000
   19        0.972345      0.972363   1.000000   1.000000
   20        1.154720      1.154732   1.000000   1.000000
   21        1.333684      1.333705   1.000000   1.000000
   22        1.472289      1.472306   1.000000   1.000000
   23        1.618062      1.618085   1.000000   1.000000
   24        1.694577      1.694595   1.000000   1.000000
   25        1.775714      1.775736   1.000000   1.000000
   26        1.966421      1.966446   1.000000   1.000000
   27        2.021385      2.021405   1.000000   1.000000
   28        2.166163      2.166180   1.000000   1.000000
   29        5.328553      5.328486   1.000000   1.000000
   30        8.422884      8.422844   0.000000   0.000000
   31        9.383337      9.383291   0.000000   0.000000
   32        9.847039      9.846985   0.000000   0.000000
   33       10.750918     10.750863   0.000000   0.000000
   34       11.636297     11.636228   0.000000   0.000000
   35       12.249552     12.249504   0.000000   0.000000
   36       12.560714     12.560646   0.000000   0.000000
   37       12.703215     12.703125   0.000000   0.000000
   38       13.275850     13.275815   0.000000   0.000000
   39       13.295627     13.295573   0.000000   0.000000
   40       14.036557     14.036550   0.000000   0.000000
   41       14.068483     14.068423   0.000000   0.000000
   42       14.195203     14.195138   0.000000   0.000000
   43       14.386900     14.386832   0.000000   0.000000
   44       14.705739     14.705688   0.000000   0.000000
   45       14.896898     14.896939   0.000000   0.000000
   46       14.932472     14.932420   0.000000   0.000000
   47       15.449185     15.449218   0.000000   0.000000
   48       16.182633     16.180446   0.000000   0.000000
 
  0.2500000E+00  0.5000000E+00  0.0000000E+00  0.6250000E-01
    1      -13.940227    -13.940217   1.000000   1.000000
    2      -13.646852    -13.646839   1.000000   1.000000
    3      -13.440876    -13.440868   1.000000   1.000000
    4      -13.311535    -13.311521   1.000000   1.000000
    5      -13.219714    -13.219703   1.000000   1.000000
    6      -13.130258    -13.130253   1.000000   1.000000
    7      -13.056497    -13.056483   1.000000   1.000000
    8       -1.199424     -1.199408   1.000000   1.000000
    9       -0.979197     -0.979182   1.000000   1.000000
   10       -0.933234     -0.933224   1.000000   1.000000
   11       -0.803362     -0.803348   1.000000   1.000000
   12       -0.667009     -0.666996   1.000000   1.000000
   13       -0.255043     -0.255029   1.000000   1.000000
   14       -0.198079     -0.198062   1.000000   1.000000
   15        0.289972      0.289986   1.000000   1.000000
   16        0.294425      0.294446   1.000000   1.000000
   17        0.324154      0.324168   1.000000   1.000000
   18        0.731939      0.731952   1.000000   1.000000
   19        0.972901      0.972919   1.000000   1.000000
   20        1.151851      1.151864   1.000000   1.000000
   21        1.332644      1.332666   1.000000   1.000000
   22        1.473121      1.473137   1.000000   1.000000
   23        1.617595      1.617617   1.000000   1.000000
   24        1.697939      1.697960   1.000000   1.000000
   25        1.776161      1.776182   1.000000   1.000000
   26        1.965136      1.965165   1.000000   1.000000
   27        2.022111      2.022130   1.000000   1.000000
   28        2.169274      2.169295   1.000000   1.000000
   29        5.328913      5.328847   1.000000   1.000000
   30        8.420286      8.420246   0.000000   0.000000
   31        9.381760      9.381715   0.000000   0.000000
   32        9.852416      9.852363   0.000000   0.000000
   33       10.747695     10.747640   0.000000   0.000000
   34       11.637734     11.637665   0.000000   0.000000
   35       12.249264     12.249217   0.000000   0.000000
   36       12.560238     12.560170   0.000000   0.000000
   37       12.703510     12.703421   0.000000   0.000000
   38       13.275953     13.275917   0.000000   0.000000
   39       13.294987     13.294932   0.000000   0.000000
   40       14.039478     14.039472   0.000000   0.000000
   41       14.070662     14.070605   0.000000   0.000000
   42       14.193661     14.193597   0.000000   0.000000
   43       14.386845     14.386777   0.000000   0.000000
   44       14.706264     14.706212   0.000000   0.000000
   45       14.893060     14.893099   0.000000   0.000000
   46       14.933045     14.932993   0.000000   0.000000
   47       15.451046     15.451079   0.000000   0.000000
   48       16.193453     16.193537   0.000000   0.000000
 
  0.0000000E+00  0.5000000E+00 -0.2500000E+00  0.6250000E-01
    1      -13.940329    -13.940319   1.000000   1.000000
    2      -13.646496    -13.646484   1.000000   1.000000
    3      -13.441514    -13.441506   1.000000   1.000000
    4      -13.311892    -13.311878   1.000000   1.000000
    5      -13.218304    -13.218292   1.000000   1.000000
    6      -13.130543    -13.130538   1.000000   1.000000
    7      -13.056875    -13.056861   1.000000   1.000000
    8       -1.200359     -1.200344   1.000000   1.000000
    9       -0.979415     -0.979400   1.000000   1.000000
   10       -0.934588     -0.934577   1.000000   1.000000
   11       -0.802221     -0.802208   1.000000   1.000000
   12       -0.667984     -0.667970   1.000000   1.000000
   13       -0.255865     -0.255851   1.000000   1.000000
   14       -0.197545     -0.197528   1.000000   1.000000
   15        0.293123      0.293136   1.000000   1.000000
   16        0.295108      0.295128   1.000000   1.000000
   17        0.323043      0.323056   1.000000   1.000000
   18        0.734988      0.735000   1.000000   1.000000
   19        0.972324      0.972342   1.000000   1.000000
   20        1.155922      1.155934   1.000000   1.000000
   21        1.333210      1.333232   1.000000   1.000000