 vasp.5.4.1 05Feb16 (build Mar 31 2016 13:39:20) complex                        
  
 executed on           IFC91_ompi date 2018.04.28  12:46:13
 running on   16 total cores
 distrk:  each k-point on   16 cores,    1 groups
 distr:  one band on NCORES_PER_BAND=   4 cores,    4 groups


--------------------------------------------------------------------------------------------------------


 INCAR:
 POTCAR:    PAW_PBE Mg 13Apr2007                  
 POTCAR:    PAW_PBE O 08Apr2002                   
 POTCAR:    PAW_PBE Mg 13Apr2007                  
   VRHFIN =Mg: s2p0                                                             
   LEXCH  = PE                                                                  
   EATOM  =    23.0369 eV,    1.6932 Ry                                         
                                                                                
   TITEL  = PAW_PBE Mg 13Apr2007                                                
   LULTRA =        F    use ultrasoft PP ?                                      
   IUNSCR =        1    unscreen: 0-lin 1-nonlin 2-no                           
   RPACOR =    1.500    partial core radius                                     
   POMASS =   24.305; ZVAL   =    2.000    mass and valenz                      
   RCORE  =    2.000    outmost cutoff radius                                   
   RWIGS  =    2.880; RWIGS  =    1.524    wigner-seitz radius (au A)           
   ENMAX  =  126.143; ENMIN  =   94.607 eV                                      
   RCLOC  =    1.506    cutoff for local pot                                    
   LCOR   =        T    correct aug charges                                     
   LPAW   =        T    paw PP                                                  
   EAUG   =  454.734                                                            
   DEXC   =    0.000                                                            
   RMAX   =    2.045    core radius for proj-oper                               
   RAUG   =    1.300    factor for augmentation sphere                          
   RDEP   =    2.025    radius for radial grids                                 
   RDEPT  =    1.942    core radius for aug-charge                              
                                                                                
   Atomic configuration                                                         
    6 entries                                                                   
     n  l   j            E        occ.                                          
     1  0  0.50     -1259.6230   2.0000                                         
     2  0  0.50       -79.8442   2.0000                                         
     2  1  1.50       -46.6121   6.0000                                         
     3  0  0.50        -4.7055   2.0000                                         
     3  1  0.50        -1.3660   0.0000                                         
     3  2  1.50        -1.3606   0.0000                                         
   Description                                                                  
     l       E           TYP  RCUT    TYP  RCUT                                 
     0     -4.7054661     23  2.000                                             
     0     27.2116520     23  2.000                                             
     1      1.3605826     23  2.000                                             
     1     27.2116520     23  2.000                                             
     2     -1.3605826     23  2.000                                             
  local pseudopotential read in
  partial core-charges read in
  partial kinetic energy density read in
  atomic valenz-charges read in
  non local Contribution for L=           0  read in
    real space projection operators read in
  non local Contribution for L=           0  read in
    real space projection operators read in
  non local Contribution for L=           1  read in
    real space projection operators read in
  non local Contribution for L=           1  read in
    real space projection operators read in
  non local Contribution for L=           2  read in
    real space projection operators read in
    PAW grid and wavefunctions read in
 
   number of l-projection  operators is LMAX  =           5
   number of lm-projection operators is LMMAX =          13
 
 POTCAR:    PAW_PBE O 08Apr2002                   
   VRHFIN =O: s2p4                                                              
   LEXCH  = PE                                                                  
   EATOM  =   432.3788 eV,   31.7789 Ry                                         
                                                                                
   TITEL  = PAW_PBE O 08Apr2002                                                 
   LULTRA =        F    use ultrasoft PP ?                                      
   IUNSCR =        1    unscreen: 0-lin 1-nonlin 2-no                           
   RPACOR =    1.200    partial core radius                                     
   POMASS =   16.000; ZVAL   =    6.000    mass and valenz                      
   RCORE  =    1.520    outmost cutoff radius                                   
   RWIGS  =    1.550; RWIGS  =    0.820    wigner-seitz radius (au A)           
   ENMAX  =  400.000; ENMIN  =  300.000 eV                                      
   ICORE  =        2    local potential                                         
   LCOR   =        T    correct aug charges                                     
   LPAW   =        T    paw PP                                                  
   EAUG   =  605.392                                                            
   DEXC   =    0.000                                                            
   RMAX   =    1.553    core radius for proj-oper                               
   RAUG   =    1.300    factor for augmentation sphere                          
   RDEP   =    1.550    radius for radial grids                                 
   RDEPT  =    1.329    core radius for aug-charge                              
                                                                                
   Atomic configuration                                                         
    4 entries                                                                   
     n  l   j            E        occ.                                          
     1  0  0.50      -514.6923   2.0000                                         
     2  0  0.50       -23.9615   2.0000                                         
     2  1  0.50        -9.0305   4.0000                                         
     3  2  1.50        -9.5241   0.0000                                         
   Description                                                                  
     l       E           TYP  RCUT    TYP  RCUT                                 
     0    -23.9615318     23  1.200                                             
     0     -9.5240782     23  1.200                                             
     1     -9.0304911     23  1.520                                             
     1      8.1634956     23  1.520                                             
     2     -9.5240782      7  1.500                                             
  local pseudopotential read in
  partial core-charges read in
  partial kinetic energy density read in
  kinetic energy density of atom read in
  atomic valenz-charges read in
  non local Contribution for L=           0  read in
    real space projection operators read in
  non local Contribution for L=           0  read in
    real space projection operators read in
  non local Contribution for L=           1  read in
    real space projection operators read in
  non local Contribution for L=           1  read in
    real space projection operators read in
    PAW grid and wavefunctions read in
 
   number of l-projection  operators is LMAX  =           4
   number of lm-projection operators is LMMAX =           8
 
 Optimization of the real space projectors (new method)

 maximal supplied QI-value         = 18.90
 optimisation between [QCUT,QGAM] = [ 10.20, 20.41] = [ 29.16,116.64] Ry 
 Optimized for a Real-space Cutoff    1.30 Angstroem

   l    n(q)    QCUT    max X(q) W(low)/X(q) W(high)/X(q)  e(spline) 
   0      8    10.205    28.265    0.22E-03    0.17E-03    0.53E-07
   0      8    10.205    10.429    0.17E-03    0.15E-03    0.43E-07
   1      7    10.205    13.073    0.71E-04    0.41E-03    0.76E-07
   1      7    10.205     9.625    0.71E-04    0.33E-03    0.63E-07
   2      7    10.205     4.652    0.24E-03    0.41E-03    0.55E-07
 Optimization of the real space projectors (new method)

 maximal supplied QI-value         = 24.76
 optimisation between [QCUT,QGAM] = [ 10.15, 20.30] = [ 28.85,115.39] Ry 
 Optimized for a Real-space Cutoff    1.38 Angstroem

   l    n(q)    QCUT    max X(q) W(low)/X(q) W(high)/X(q)  e(spline) 
   0      8    10.150    20.381    0.22E-03    0.32E-03    0.29E-06
   0      8    10.150    15.268    0.23E-03    0.35E-03    0.30E-06
   1      8    10.150     5.964    0.46E-03    0.53E-03    0.21E-06
   1      8    10.150     5.382    0.38E-03    0.45E-03    0.19E-06
  PAW_PBE Mg 13Apr2007                  :
 energy of atom  1       EATOM=  -23.0369
 kinetic energy error for atom=    0.0001 (will be added to EATOM!!)
  PAW_PBE O 08Apr2002                   :
 energy of atom  2       EATOM= -432.3788
 kinetic energy error for atom=    0.1156 (will be added to EATOM!!)
 
 
 POSCAR: Mg8 O7                                  
  positions in direct lattice
  velocities in cartesian coordinates
 exchange correlation table for  LEXCH =        8
   RHO(1)=    0.500       N(1)  =     2000
   RHO(2)=  100.500       N(2)  =     4000
 


--------------------------------------------------------------------------------------------------------


 ion  position               nearest neighbor table
   1  0.999  0.999  0.004-  13 2.12   9 2.12  12 2.12  11 2.12  14 2.12  10 2.13   7 3.00   4 3.00
                             2 3.00   6 3.00   3 3.00   5 3.00   5 3.00   3 3.00   6 3.00   2 3.00
   2  0.999  0.998  0.505-  15 2.12  10 2.12  12 2.12  11 2.12  13 2.12   3 2.99   6 2.99   4 3.00
                             5 3.00   8 3.00   1 3.00   1 3.00   8 3.00   5 3.01   4 3.01   6 3.01
   3  0.999  0.500  0.003-  15 2.11   9 2.12  11 2.12  14 2.12  12 2.13   7 2.99   2 2.99   5 3.00
                             4 3.00   1 3.00   8 3.00   8 3.00   1 3.00   4 3.01   5 3.01   2 3.01
   4  0.999  0.499  0.504-  14 2.12  13 2.12  10 2.12   9 2.12  15 2.13   7 3.00   2 3.00   3 3.00
                             6 3.00   1 3.00   8 3.00   8 3.00   1 3.00   6 3.01   3 3.01   2 3.01
   5  0.499  0.999  0.004-  15 2.12   9 2.12  10 2.12  13 2.12  14 2.13   7 3.00   3 3.00   6 3.00
                             2 3.00   8 3.00   1 3.00   1 3.00   8 3.00   2 3.01   6 3.01   3 3.01
   6  0.500  0.998  0.505-  15 2.12  12 2.12  11 2.12  14 2.12   9 2.12   7 2.99   2 2.99   5 3.00
                             4 3.00   1 3.00   8 3.00   8 3.00   1 3.00   4 3.01   5 3.01   2 3.01
   7  0.501  0.500  0.003-  15 2.11  13 2.12  12 2.12  11 2.12  10 2.12   3 2.99   6 2.99   5 3.00
                             4 3.00   1 3.00   8 3.00   8 3.00   1 3.01   4 3.01   5 3.01   6 3.01
   8  0.499  0.499  0.504-  10 2.12  14 2.12  12 2.12  11 2.12   9 2.12  13 2.12   7 3.00   5 3.00
                             2 3.00   4 3.00   6 3.00   3 3.00   3 3.00   6 3.00   4 3.00   5 3.00
   9  0.249  0.249  0.754-   1 2.12   5 2.12   3 2.12   6 2.12   8 2.12   4 2.12
  10  0.249  0.749  0.254-   2 2.12   8 2.12   4 2.12   5 2.12   7 2.12   1 2.13
  11  0.249  0.749  0.754-   6 2.12   2 2.12   3 2.12   1 2.12   8 2.12   7 2.12
  12  0.749  0.248  0.254-   6 2.12   2 2.12   8 2.12   1 2.12   7 2.12   3 2.13
  13  0.749  0.249  0.754-   1 2.12   4 2.12   7 2.12   5 2.12   2 2.12   8 2.12
  14  0.749  0.748  0.254-   4 2.12   8 2.12   6 2.12   3 2.12   1 2.12   5 2.13
  15  0.749  0.749  0.755-   7 2.11   3 2.11   2 2.12   6 2.12   5 2.12   4 2.13
 
  LATTYP: Found a face centered cubic cell.
 ALAT       =     8.4937860000
  
  Lattice vectors:
  
 A1 = (   0.0000000000,   4.2468930000,   4.2468930000)
 A2 = (   4.2468930000,   0.0000000000,   4.2468930000)
 A3 = (   4.2468930000,   4.2468930000,   0.0000000000)


Analysis of symmetry for initial positions (statically):
=====================================================================
 Subroutine PRICEL returns:
 Original cell was already a primitive cell.
 

 Routine SETGRP: Setting up the symmetry group for a 
 face centered cubic supercell.


 Subroutine GETGRP returns: Found  1 space group operations
 (whereof  1 operations were pure point group operations)
 out of a pool of 48 trial point group operations.


The static configuration has the point symmetry C_1 .


Analysis of symmetry for dynamics (positions and initial velocities):
=====================================================================
 Subroutine PRICEL returns:
 Original cell was already a primitive cell.
 

 Routine SETGRP: Setting up the symmetry group for a 
 face centered cubic supercell.


 Subroutine GETGRP returns: Found  1 space group operations
 (whereof  1 operations were pure point group operations)
 out of a pool of 48 trial point group operations.


The dynamic configuration has the point symmetry C_1 .


Analysis of structural, dynamic, and magnetic symmetry:
=====================================================================
 Subroutine PRICEL returns:
 Original cell was already a primitive cell.
 

 Routine SETGRP: Setting up the symmetry group for a 
 face centered cubic supercell.


 Subroutine GETGRP returns: Found  1 space group operations
 (whereof  1 operations were pure point group operations)
 out of a pool of 48 trial point group operations.


The magnetic configuration has the point symmetry C_1 .


 Subroutine INISYM returns: Found  1 space group operations
 (whereof  1 operations are pure point group operations),
 and found     1 'primitive' translations

 
 
 KPOINTS: k-point mesh                            

Automatic generation of k-mesh.
Space group operators:
 irot       det(A)        alpha          n_x          n_y          n_z        tau_x        tau_y        tau_z
    1     1.000000     0.000000     1.000000     0.000000     0.000000     0.000000     0.000000     0.000000
 
 Subroutine IBZKPT returns following result:
 ===========================================
 
 Found      8 irreducible k-points:
 
 Following reciprocal coordinates:
            Coordinates               Weight
  0.000000  0.000000  0.000000      1.000000
  0.500000  0.000000  0.000000      1.000000
  0.000000  0.500000  0.000000      1.000000
  0.500000  0.500000  0.000000      1.000000
  0.000000  0.000000  0.500000      1.000000
  0.500000  0.000000  0.500000      1.000000
  0.000000  0.500000  0.500000      1.000000
  0.500000  0.500000  0.500000      1.000000
 
 Following cartesian coordinates:
            Coordinates               Weight
  0.000000  0.000000  0.000000      1.000000
 -0.058867  0.058867  0.058867      1.000000
  0.058867 -0.058867  0.058867      1.000000
  0.000000  0.000000  0.117733      1.000000
  0.058867  0.058867 -0.058867      1.000000
  0.000000  0.117733  0.000000      1.000000
  0.117733  0.000000  0.000000      1.000000
  0.058867  0.058867  0.058867      1.000000
 


--------------------------------------------------------------------------------------------------------




 Dimension of arrays:
   k-points           NKPTS =      8   k-points in BZ     NKDIM =      8   number of bands    NBANDS=     48
   number of dos      NEDOS =    301   number of ions     NIONS =     15
   non local maximal  LDIM  =      5   non local SUM 2l+1 LMDIM =     13
   total plane-waves  NPLWV =  27000
   max r-space proj   IRMAX =   1992   max aug-charges    IRDMAX=   7686
   dimension x,y,z NGX =    30 NGY =   30 NGZ =   30
   dimension x,y,z NGXF=    60 NGYF=   60 NGZF=   60
   support grid    NGXF=    60 NGYF=   60 NGZF=   60
   ions per type =               8   7
 NGX,Y,Z   is equivalent  to a cutoff of   8.30,  8.30,  8.30 a.u.
 NGXF,Y,Z  is equivalent  to a cutoff of  16.61, 16.61, 16.61 a.u.


 I would recommend the setting:
   dimension x,y,z NGX =    29 NGY =   29 NGZ =   29
 SYSTEM =  unknown system                          
 POSCAR =  Mg8 O7                                  

 Startparameter for this run:
   NWRITE =      2    write-flag & timer
   PREC   = n         normal or accurate (medium, high low for compatibility)
   ISTART =      0    job   : 0-new  1-cont  2-samecut
   ICHARG =      2    charge: 1-file 2-atom 10-const
   ISPIN  =      2    spin polarized calculation?
   LNONCOLLINEAR =      F non collinear calculations
   LSORBIT =      F    spin-orbit coupling
   INIWAV =      1    electr: 0-lowe 1-rand  2-diag
   LASPH  =      T    aspherical Exc in radial PAW
   METAGGA=      F    non-selfconsistent MetaGGA calc.

 Electronic Relaxation 1
   ENCUT  =  400.0 eV  29.40 Ry    5.42 a.u.   9.79  9.79  9.79*2*pi/ulx,y,z
   ENINI  =  400.0     initial cutoff
   ENAUG  =  605.4 eV  augmentation charge cutoff
   NELM   =    100;   NELMIN=  4; NELMDL=  0     # of ELM steps 
   EDIFF  = 0.1E-05   stopping-criterion for ELM
   LREAL  =      T    real-space projection
   NLSPLINE    = F    spline interpolate recip. space projectors
   LCOMPAT=      F    compatible to vasp.4.4
   GGA_COMPAT  = T    GGA compatible to vasp.4.4-vasp.4.6
   LMAXPAW     = -100 max onsite density
   LMAXMIX     =    2 max onsite mixed and CHGCAR
   VOSKOWN=      0    Vosko Wilk Nusair interpolation
   ROPT   =   -0.00050  -0.00050
 Ionic relaxation
   EDIFFG = -.5E-01   stopping-criterion for IOM
   NSW    =     20    number of steps for IOM
   NBLOCK =      1;   KBLOCK =     20    inner block; outer block 
   IBRION =      2    ionic relax: 0-MD 1-quasi-New 2-CG
   NFREE  =      1    steps in history (QN), initial steepest desc. (CG)
   ISIF   =      2    stress and relaxation
   IWAVPR =     11    prediction:  0-non 1-charg 2-wave 3-comb
   ISYM   =      2    0-nonsym 1-usesym 2-fastsym
   LCORR  =      T    Harris-Foulkes like correction to forces

   POTIM  = 0.5000    time-step for ionic-motion
   TEIN   =    0.0    initial temperature
   TEBEG  =    0.0;   TEEND  =   0.0 temperature during run
   SMASS  =  -3.00    Nose mass-parameter (am)
   estimated Nose-frequenzy (Omega)   =  0.10E-29 period in steps =****** mass=  -0.824E-27a.u.
   SCALEE = 1.0000    scale energy and forces
   NPACO  =    256;   APACO  = 16.0  distance and # of slots for P.C.
   PSTRESS=    0.0 pullay stress

  Mass of Ions in am
   POMASS =  24.30 16.00
  Ionic Valenz
   ZVAL   =   2.00  6.00
  Atomic Wigner-Seitz radii
   RWIGS  =  -1.00 -1.00
  virtual crystal weights 
   VCA    =   1.00  1.00
   NELECT =      58.0000    total number of electrons
   NUPDOWN=      -1.0000    fix difference up-down

 DOS related values:
   EMIN   =  10.00;   EMAX   =-10.00  energy-range for DOS
   EFERMI =   0.00
   ISMEAR =     0;   SIGMA  =   0.05  broadening in eV -4-tet -1-fermi 0-gaus

 Electronic relaxation 2 (details)
   IALGO  =     38    algorithm
   LDIAG  =      T    sub-space diagonalisation (order eigenvalues)
   LSUBROT=      F    optimize rotation matrix (better conditioning)
   TURBO    =      0    0=normal 1=particle mesh
   IRESTART =      0    0=no restart 2=restart with 2 vectors
   NREBOOT  =      0    no. of reboots
   NMIN     =      0    reboot dimension
   EREF     =   0.00    reference energy to select bands
   IMIX   =      4    mixing-type and parameters
     AMIX     =   0.40;   BMIX     =  1.00
     AMIX_MAG =   1.60;   BMIX_MAG =  1.00
     AMIN     =   0.10
     WC   =   100.;   INIMIX=   1;  MIXPRE=   1;  MAXMIX= -45

 Intra band minimization:
   WEIMIN = 0.0010     energy-eigenvalue tresh-hold
   EBREAK =  0.52E-08  absolut break condition
   DEPER  =   0.30     relativ break condition  

   TIME   =   0.40     timestep for ELM

  volume/ion in A,a.u.               =      10.21        68.92
  Fermi-wavevector in a.u.,A,eV,Ry     =   1.184321  2.238043 19.083760  1.402617
  Thomas-Fermi vector in A             =   2.320538
 
 Write flags
   LWAVE  =      F    write WAVECAR
   LCHARG =      F    write CHGCAR
   LVTOT  =      F    write LOCPOT, total local potential
   LVHAR  =      F    write LOCPOT, Hartree potential only
   LELF   =      F    write electronic localiz. function (ELF)
   LORBIT =     12    0 simple, 1 ext, 2 COOP (PROOUT)


 Dipole corrections
   LMONO  =      F    monopole corrections only (constant potential shift)
   LDIPOL =      F    correct potential (dipole corrections)
   IDIPOL =      0    1-x, 2-y, 3-z, 4-all directions 
   EPSILON=  1.0000000 bulk dielectric constant

 Exchange correlation treatment:
   GGA     =    --    GGA type
   LEXCH   =     8    internal setting for exchange type
   VOSKOWN=      0    Vosko Wilk Nusair interpolation
   LHFCALC =     F    Hartree Fock is set to
   LHFONE  =     F    Hartree Fock one center treatment
   AEXX    =    0.0000 exact exchange contribution

 Linear response parameters
   LEPSILON=     F    determine dielectric tensor
   LRPA    =     F    only Hartree local field effects (RPA)
   LNABLA  =     F    use nabla operator in PAW spheres
   LVEL    =     F    velocity operator in full k-point grid
   LINTERFAST=   F  fast interpolation
   KINTER  =     0    interpolate to denser k-point grid
   CSHIFT  =0.1000    complex shift for real part using Kramers Kronig
   OMEGAMAX=  -1.0    maximum frequency
   DEG_THRESHOLD= 0.2000000E-02 threshold for treating states as degnerate
   RTIME   =    0.100 relaxation time in fs

 Orbital magnetization related:
   ORBITALMAG=     F  switch on orbital magnetization
   LCHIMAG   =     F  perturbation theory with respect to B field
   DQ        =  0.001000  dq finite difference perturbation B field



--------------------------------------------------------------------------------------------------------


 conjugate gradient relaxation of ions
 charge density and potential will be updated during run
 spin polarized calculation
 Variant of blocked Davidson
 Davidson routine will perform the subspace rotation
 perform sub-space diagonalisation
    after iterative eigenvector-optimisation
 modified Broyden-mixing scheme, WC =      100.0
 initial mixing is a Kerker type mixing with AMIX =  0.4000 and BMIX =      1.0000
 Hartree-type preconditioning will be used
 using additional bands           19
 real space projection scheme for non local part
 use partial core corrections
 calculate Harris-corrections to forces 
   (improved forces if not selfconsistent)
 use gradient corrections 
 use of overlap-Matrix (Vanderbilt PP)
 Gauss-broadening in eV      SIGMA  =   0.05


--------------------------------------------------------------------------------------------------------


  energy-cutoff  :      400.00
  volume of cell :      153.19
      direct lattice vectors                 reciprocal lattice vectors
     0.000000000  4.246893000  4.246893000    -0.117733129  0.117733129  0.117733129
     4.246893000  0.000000000  4.246893000     0.117733129 -0.117733129  0.117733129
     4.246893000  4.246893000  0.000000000     0.117733129  0.117733129 -0.117733129

  length of vectors
     6.006013679  6.006013679  6.006013679     0.203919761  0.203919761  0.203919761


 
 k-points in units of 2pi/SCALE and weight: k-point mesh                            
   0.00000000  0.00000000  0.00000000       0.125
  -0.05886656  0.05886656  0.05886656       0.125
   0.05886656 -0.05886656  0.05886656       0.125
   0.00000000  0.00000000  0.11773313       0.125
   0.05886656  0.05886656 -0.05886656       0.125
   0.00000000  0.11773313  0.00000000       0.125
   0.11773313  0.00000000  0.00000000       0.125
   0.05886656  0.05886656  0.05886656       0.125
 
 k-points in reciprocal lattice and weights: k-point mesh                            
   0.00000000  0.00000000  0.00000000       0.125
   0.50000000  0.00000000  0.00000000       0.125
   0.00000000  0.50000000  0.00000000       0.125
   0.50000000  0.50000000  0.00000000       0.125
   0.00000000  0.00000000  0.50000000       0.125
   0.50000000  0.00000000  0.50000000       0.125
   0.00000000  0.50000000  0.50000000       0.125
   0.50000000  0.50000000  0.50000000       0.125
 
 position of ions in fractional coordinates (direct lattice) 
   0.99917582  0.99897852  0.00386781
   0.99857360  0.99753002  0.50503979
   0.99863696  0.49963912  0.00317705
   0.99931158  0.49862354  0.50403571
   0.49932439  0.99852638  0.00406210
   0.50002972  0.99801926  0.50483584
   0.50070633  0.49961992  0.00308265
   0.49938847  0.49876609  0.50388228
   0.24932556  0.24856908  0.75428780
   0.24921292  0.74860550  0.25443922
   0.24947783  0.74875966  0.75405483
   0.74930996  0.24833559  0.25444375
   0.74942355  0.24867453  0.75418738
   0.74946960  0.74846508  0.25444913
   0.74921670  0.74873169  0.75468865
 
 position of ions in cartesian coordinates  (Angst):
   4.25898106  4.25981895  8.48594768
   6.38125324  6.38568522  8.47723852
   2.13540649  4.25459691  6.36301822
   4.25818654  6.38455509  6.36157018
   4.25788602  2.13782859  6.36121196
   6.38246480  4.26755649  6.36205372
   2.13492401  2.13953790  4.24827854
   4.25814036  4.26078353  4.23905563
   4.25902587  4.26223858  2.11450527
   4.25982362  2.13895676  4.23762805
   6.38229235  4.26189587  4.23940782
   2.13525006  4.26283458  4.23689392
   4.25904724  6.38567475  4.23881579
   4.25926935  4.26353542  6.36156829
   6.38486531  6.38692510  6.36162655
 


--------------------------------------------------------------------------------------------------------


 k-point  1 :   0.0000 0.0000 0.0000  plane waves:    2733
 k-point  2 :   0.5000 0.0000 0.0000  plane waves:    2788
 k-point  3 :   0.0000 0.5000 0.0000  plane waves:    2788
 k-point  4 :   0.5000 0.5000 0.0000  plane waves:    2778
 k-point  5 :   0.0000 0.0000 0.5000  plane waves:    2788
 k-point  6 :   0.5000 0.0000 0.5000  plane waves:    2778
 k-point  7 :   0.0000 0.5000 0.5000  plane waves:    2778
 k-point  8 :   0.5000 0.5000 0.5000  plane waves:    2788

 maximum and minimum number of plane-waves per node :       715      668

 maximum number of plane-waves:      2788
 maximum index in each direction: 
   IXMAX=    9   IYMAX=    9   IZMAX=    9
   IXMIN=  -10   IYMIN=  -10   IZMIN=  -10

 WARNING: aliasing errors must be expected set NGX to  40 to avoid them
 WARNING: aliasing errors must be expected set NGY to  40 to avoid them
 WARNING: aliasing errors must be expected set NGZ to  40 to avoid them
 aliasing errors are usually negligible using standard VASP settings
 and one can safely disregard these warnings

 real space projection operators:
  total allocation   :       2087.52 KBytes
  max/ min on nodes  :        564.94        478.17


 parallel 3D FFT for wavefunctions:
    minimum data exchange during FFTs selected (reduces bandwidth)
 parallel 3D FFT for charge:
    minimum data exchange during FFTs selected (reduces bandwidth)


 total amount of memory used by VASP on root node    36062. kBytes
========================================================================

   base      :      30000. kBytes
   nonlr-proj:       1190. kBytes
   fftplans  :        708. kBytes
   grid      :       1766. kBytes
   one-center:         64. kBytes
   wavefun   :       2334. kBytes
 
     INWAV:  cpu time    0.0000: real time    0.0002
 Broyden mixing: mesh for mixing (old mesh)
   NGX = 19   NGY = 19   NGZ = 19
  (NGX  = 60   NGY  = 60   NGZ  = 60)
  gives a total of   6859 points

 initial charge density was supplied:
 charge density of overlapping atoms calculated
 number of electron      58.0000000 magnetization      15.0000000
 keeping initial charge density in first step


--------------------------------------------------------------------------------------------------------


 Maximum index for non-local projection operator          517
 Maximum index for augmentation-charges          494 (set IRDMAX)


--------------------------------------------------------------------------------------------------------


 First call to EWALD:  gamma=   0.331
 Maximum number of real-space cells 3x 3x 3
 Maximum number of reciprocal cells 3x 3x 3

 FEWALD executed in parallel
    FEWALD:  cpu time    0.0000: real time    0.0017


----------------------------------------- Iteration    1(   1)  ---------------------------------------


    POTLOK:  cpu time    0.0200: real time    0.0217
    SETDIJ:  cpu time    0.6760: real time    0.6749
     EDDAV:  cpu time    0.5320: real time    0.5370
       DOS:  cpu time    0.0000: real time    0.0008
    --------------------------------------------
      LOOP:  cpu time    1.2280: real time    1.2377

 eigenvalue-minimisations  :  1600
 total energy-change (2. order) : 0.2298392E+03  (-0.2407606E+04)
 number of electron      58.0000000 magnetization      15.0000000
 augmentation part       58.0000000 magnetization      15.0000000

 Free energy of the ion-electron system (eV)
  ---------------------------------------------------
  alpha Z        PSCENC =       129.53385374
  Ewald energy   TEWEN  =     -2377.02466906
  -Hartree energ DENC   =      -970.76332641
  -exchange      EXHF   =         0.00000000
  -V(xc)+E(xc)   XCENC  =      -189.68290263
  PAW double counting   =      2946.27252624    -2543.92834819
  entropy T*S    EENTRO =        -0.00471411
  eigenvalues    EBANDS =        25.30018176
  atomic energy  EATOM  =      3210.13655998
  Solvation  Ediel_sol  =         0.00000000
  ---------------------------------------------------
  free energy    TOTEN  =       229.83916133 eV

  energy without entropy =      229.84387544  energy(sigma->0) =      229.84151838


--------------------------------------------------------------------------------------------------------




----------------------------------------- Iteration    1(   2)  ---------------------------------------


     EDDAV:  cpu time    0.6040: real time    0.6055
       DOS:  cpu time    0.0000: real time    0.0002
    --------------------------------------------
      LOOP:  cpu time    0.6080: real time    0.6100

 eigenvalue-minimisations  :  1936
 total energy-change (2. order) :-0.3018110E+03  (-0.2919816E+03)
 number of electron      58.0000000 magnetization      15.0000000
 augmentation part       58.0000000 magnetization      15.0000000

 Free energy of the ion-electron system (eV)
  ---------------------------------------------------
  alpha Z        PSCENC =       129.53385374
  Ewald energy   TEWEN  =     -2377.02466906
  -Hartree energ DENC   =      -970.76332641
  -exchange      EXHF   =         0.00000000
  -V(xc)+E(xc)   XCENC  =      -189.68290263
  PAW double counting   =      2946.27252624    -2543.92834819
  entropy T*S    EENTRO =        -0.00000000
  eigenvalues    EBANDS =      -276.51556113
  atomic energy  EATOM  =      3210.13655998
  Solvation  Ediel_sol  =         0.00000000
  ---------------------------------------------------
  free energy    TOTEN  =       -71.97186745 eV

  energy without entropy =      -71.97186745  energy(sigma->0) =      -71.97186745


--------------------------------------------------------------------------------------------------------




----------------------------------------- Iteration    1(   3)  ---------------------------------------


     EDDAV:  cpu time    0.6000: real time    0.6040
       DOS:  cpu time    0.0000: real time    0.0007
    --------------------------------------------
      LOOP:  cpu time    0.6000: real time    0.6078

 eigenvalue-minimisations  :  1896
 total energy-change (2. order) :-0.1696665E+02  (-0.1687872E+02)
 number of electron      58.0000000 magnetization      15.0000000
 augmentation part       58.0000000 magnetization      15.0000000

 Free energy of the ion-electron system (eV)
  ---------------------------------------------------
  alpha Z        PSCENC =       129.53385374
  Ewald energy   TEWEN  =     -2377.02466906
  -Hartree energ DENC   =      -970.76332641
  -exchange      EXHF   =         0.00000000
  -V(xc)+E(xc)   XCENC  =      -189.68290263
  PAW double counting   =      2946.27252624    -2543.92834819
  entropy T*S    EENTRO =        -0.00000004
  eigenvalues    EBANDS =      -293.48221309
  atomic energy  EATOM  =      3210.13655998
  Solvation  Ediel_sol  =         0.00000000
  ---------------------------------------------------
  free energy    TOTEN  =       -88.93851945 eV

  energy without entropy =      -88.93851941  energy(sigma->0) =      -88.93851943


--------------------------------------------------------------------------------------------------------




----------------------------------------- Iteration    1(   4)  ---------------------------------------


     EDDAV:  cpu time    0.5720: real time    0.5724
       DOS:  cpu time    0.0000: real time    0.0004
    --------------------------------------------
      LOOP:  cpu time    0.5720: real time    0.5755

 eigenvalue-minimisations  :  1808
 total energy-change (2. order) :-0.9716370E-01  (-0.9712688E-01)
 number of electron      58.0000000 magnetization      15.0000000
 augmentation part       58.0000000 magnetization      15.0000000

 Free energy of the ion-electron system (eV)
  ---------------------------------------------------
  alpha Z        PSCENC =       129.53385374
  Ewald energy   TEWEN  =     -2377.02466906
  -Hartree energ DENC   =      -970.76332641
  -exchange      EXHF   =         0.00000000
  -V(xc)+E(xc)   XCENC  =      -189.68290263
  PAW double counting   =      2946.27252624    -2543.92834819
  entropy T*S    EENTRO =        -0.00000007
  eigenvalues    EBANDS =      -293.57937676
  atomic energy  EATOM  =      3210.13655998
  Solvation  Ediel_sol  =         0.00000000
  ---------------------------------------------------
  free energy    TOTEN  =       -89.03568315 eV

  energy without entropy =      -89.03568308  energy(sigma->0) =      -89.03568311


--------------------------------------------------------------------------------------------------------




----------------------------------------- Iteration    1(   5)  ---------------------------------------


     EDDAV:  cpu time    0.5920: real time    0.5926
       DOS:  cpu time    0.0000: real time    0.0004
    CHARGE:  cpu time    0.0240: real time    0.0214
    MIXING:  cpu time    0.0000: real time    0.0004
    --------------------------------------------
      LOOP:  cpu time    0.6160: real time    0.6180

 eigenvalue-minimisations  :  1880
 total energy-change (2. order) :-0.4811802E-03  (-0.4811542E-03)
 number of electron      57.9999880 magnetization       0.0852598
 augmentation part        5.6039944 magnetization       0.1390026

 Broyden mixing:
  rms(total) = 0.27359E+01    rms(broyden)= 0.27353E+01
  rms(prec ) = 0.45718E+01
  weight for this iteration     100.00

 Free energy of the ion-electron system (eV)
  ---------------------------------------------------
  alpha Z        PSCENC =       129.53385374
  Ewald energy   TEWEN  =     -2377.02466906
  -Hartree energ DENC   =      -970.76332641
  -exchange      EXHF   =         0.00000000
  -V(xc)+E(xc)   XCENC  =      -189.68290263
  PAW double counting   =      2946.27252624    -2543.92834819
  entropy T*S    EENTRO =        -0.00000007
  eigenvalues    EBANDS =      -293.57985794
  atomic energy  EATOM  =      3210.13655998
  Solvation  Ediel_sol  =         0.00000000
  ---------------------------------------------------
  free energy    TOTEN  =       -89.03616433 eV

  energy without entropy =      -89.03616426  energy(sigma->0) =      -89.03616429


--------------------------------------------------------------------------------------------------------




----------------------------------------- Iteration    1(   6)  ---------------------------------------


    POTLOK:  cpu time    0.0200: real time    0.0212
    SETDIJ:  cpu time    0.6760: real time    0.6768
     EDDAV:  cpu time    0.5640: real time    0.5645
       DOS:  cpu time    0.0000: real time    0.0003
    CHARGE:  cpu time    0.0240: real time    0.0221
    MIXING:  cpu time    0.0000: real time    0.0006
    --------------------------------------------
      LOOP:  cpu time    1.2840: real time    1.2889

 eigenvalue-minimisations  :  1752
 total energy-change (2. order) : 0.5547670E+01  (-0.3862008E+01)
 number of electron      57.9999902 magnetization       0.0069331
 augmentation part        4.6077352 magnetization      -0.0992577

 Broyden mixing:
  rms(total) = 0.76178E+00    rms(broyden)= 0.76032E+00
  rms(prec ) = 0.10382E+01
  weight for this iteration     100.00

 eigenvalues of (default mixing * dielectric matrix)
  average eigenvalue GAMMA=   0.8282
  0.8282

 Free energy of the ion-electron system (eV)
  ---------------------------------------------------
  alpha Z        PSCENC =       129.53385374
  Ewald energy   TEWEN  =     -2377.02466906
  -Hartree energ DENC   =     -1107.69464288
  -exchange      EXHF   =         0.00000000
  -V(xc)+E(xc)   XCENC  =      -182.83531169
  PAW double counting   =      3490.65760019    -3090.63358173
  entropy T*S    EENTRO =        -0.00000000
  eigenvalues    EBANDS =      -155.62830273
  atomic energy  EATOM  =      3210.13655998
  Solvation  Ediel_sol  =         0.00000000
  ---------------------------------------------------
  free energy    TOTEN  =       -83.48849417 eV

  energy without entropy =      -83.48849417  energy(sigma->0) =      -83.48849417


--------------------------------------------------------------------------------------------------------




----------------------------------------- Iteration    1(   7)  ---------------------------------------


    POTLOK:  cpu time    0.0200: real time    0.0214
    SETDIJ:  cpu time    0.6800: real time    0.6782
     EDDAV:  cpu time    0.5360: real time    0.5374
       DOS:  cpu time    0.0000: real time    0.0003
    CHARGE:  cpu time    0.0200: real time    0.0211
    MIXING:  cpu time    0.0000: real time    0.0006
    --------------------------------------------
      LOOP:  cpu time    1.2560: real time    1.2624

 eigenvalue-minimisations  :  1664
 total energy-change (2. order) :-0.1784974E+00  (-0.1272530E+00)
 number of electron      57.9999902 magnetization      -0.0030753
 augmentation part        4.6178400 magnetization      -0.0140110

 Broyden mixing:
  rms(total) = 0.39408E+00    rms(broyden)= 0.39401E+00
  rms(prec ) = 0.61046E+00
  weight for this iteration     100.00

 eigenvalues of (default mixing * dielectric matrix)
  average eigenvalue GAMMA=   0.9683
  0.9683  0.9683

 Free energy of the ion-electron system (eV)
  ---------------------------------------------------
  alpha Z        PSCENC =       129.53385374
  Ewald energy   TEWEN  =     -2377.02466906
  -Hartree energ DENC   =     -1106.62168838
  -exchange      EXHF   =         0.00000000
  -V(xc)+E(xc)   XCENC  =      -182.76628011
  PAW double counting   =      3662.03867020    -3261.73975590
  entropy T*S    EENTRO =        -0.00000000
  eigenvalues    EBANDS =      -157.22368200
  atomic energy  EATOM  =      3210.13655998
  Solvation  Ediel_sol  =         0.00000000
  ---------------------------------------------------
  free energy    TOTEN  =       -83.66699152 eV

  energy without entropy =      -83.66699152  energy(sigma->0) =      -83.66699152


--------------------------------------------------------------------------------------------------------




----------------------------------------- Iteration    1(   8)  ---------------------------------------


    POTLOK:  cpu time    0.0200: real time    0.0215
    SETDIJ:  cpu time    0.6760: real time    0.6768
     EDDAV:  cpu time    0.5720: real time    0.5754
       DOS:  cpu time    0.0000: real time    0.0003
    CHARGE:  cpu time    0.0240: real time    0.0211
    MIXING:  cpu time    0.0000: real time    0.0006
    --------------------------------------------
      LOOP:  cpu time    1.2960: real time    1.2989

 eigenvalue-minimisations  :  1816
 total energy-change (2. order) : 0.6750993E-01  (-0.1503927E-01)
 number of electron      57.9999901 magnetization      -0.0027942
 augmentation part        4.6462608 magnetization      -0.0040247

 Broyden mixing:
  rms(total) = 0.14392E+00    rms(broyden)= 0.14391E+00
  rms(prec ) = 0.22571E+00
  weight for this iteration     100.00

 eigenvalues of (default mixing * dielectric matrix)
  average eigenvalue GAMMA=   1.2711
  2.0994  0.8877  0.8261

 Free energy of the ion-electron system (eV)
  ---------------------------------------------------
  alpha Z        PSCENC =       129.53385374
  Ewald energy   TEWEN  =     -2377.02466906
  -Hartree energ DENC   =     -1109.94901614
  -exchange      EXHF   =         0.00000000
  -V(xc)+E(xc)   XCENC  =      -182.11172929
  PAW double counting   =      3875.13028243    -3474.59476474
  entropy T*S    EENTRO =        -0.00000000
  eigenvalues    EBANDS =      -154.71999853
  atomic energy  EATOM  =      3210.13655998
  Solvation  Ediel_sol  =         0.00000000
  ---------------------------------------------------
  free energy    TOTEN  =       -83.59948160 eV

  energy without entropy =      -83.59948160  energy(sigma->0) =      -83.59948160


--------------------------------------------------------------------------------------------------------




----------------------------------------- Iteration    1(   9)  ---------------------------------------


    POTLOK:  cpu time    0.0200: real time    0.0210
    SETDIJ:  cpu time    0.6800: real time    0.6773
     EDDAV:  cpu time    0.5720: real time    0.5748
       DOS:  cpu time    0.0000: real time    0.0003
    CHARGE:  cpu time    0.0200: real time    0.0210
    MIXING:  cpu time    0.0000: real time    0.0007
    --------------------------------------------
      LOOP:  cpu time    1.2920: real time    1.2986

 eigenvalue-minimisations  :  1824
 total energy-change (2. order) : 0.2278155E-02  (-0.3752333E-02)
 number of electron      57.9999901 magnetization      -0.0008033
 augmentation part        4.6378656 magnetization       0.0010922

 Broyden mixing:
  rms(total) = 0.46943E-01    rms(broyden)= 0.46938E-01
  rms(prec ) = 0.55330E-01
  weight for this iteration     100.00

 eigenvalues of (default mixing * dielectric matrix)
  average eigenvalue GAMMA=   1.2454
  2.4287  0.9502  0.9502  0.6523

 Free energy of the ion-electron system (eV)
  ---------------------------------------------------
  alpha Z        PSCENC =       129.53385374
  Ewald energy   TEWEN  =     -2377.02466906
  -Hartree energ DENC   =     -1115.01494855
  -exchange      EXHF   =         0.00000000
  -V(xc)+E(xc)   XCENC  =      -181.50611563
  PAW double counting   =      3979.53096980    -3578.94929074
  entropy T*S    EENTRO =        -0.00000000
  eigenvalues    EBANDS =      -150.30356299
  atomic energy  EATOM  =      3210.13655998
  Solvation  Ediel_sol  =         0.00000000
  ---------------------------------------------------
  free energy    TOTEN  =       -83.59720344 eV

  energy without entropy =      -83.59720344  energy(sigma->0) =      -83.59720344


--------------------------------------------------------------------------------------------------------




----------------------------------------- Iteration    1(  10)  ---------------------------------------


    POTLOK:  cpu time    0.0200: real time    0.0210
    SETDIJ:  cpu time    0.6760: real time    0.6763
     EDDAV:  cpu time    0.5920: real time    0.5928
       DOS:  cpu time    0.0000: real time    0.0003
    CHARGE:  cpu time    0.0200: real time    0.0212
    MIXING:  cpu time    0.0000: real time    0.0007
    --------------------------------------------
      LOOP:  cpu time    1.3120: real time    1.3155

 eigenvalue-minimisations  :  1896
 total energy-change (2. order) : 0.9539229E-03  (-0.3438064E-03)
 number of electron      57.9999902 magnetization       0.0003607
 augmentation part        4.6313803 magnetization       0.0015846

 Broyden mixing:
  rms(total) = 0.14418E-01    rms(broyden)= 0.14413E-01
  rms(prec ) = 0.20273E-01
  weight for this iteration     100.00

 eigenvalues of (default mixing * dielectric matrix)
  average eigenvalue GAMMA=   1.2099
  2.5114  1.1107  0.9139  0.8743  0.6390

 Free energy of the ion-electron system (eV)
  ---------------------------------------------------
  alpha Z        PSCENC =       129.53385374
  Ewald energy   TEWEN  =     -2377.02466906
  -Hartree energ DENC   =     -1115.76122957
  -exchange      EXHF   =         0.00000000
  -V(xc)+E(xc)   XCENC  =      -181.43734414
  PAW double counting   =      3971.72938510    -3571.17010822
  entropy T*S    EENTRO =        -0.00000000
  eigenvalues    EBANDS =      -149.60269735
  atomic energy  EATOM  =      3210.13655998
  Solvation  Ediel_sol  =         0.00000000
  ---------------------------------------------------
  free energy    TOTEN  =       -83.59624952 eV

  energy without entropy =      -83.59624952  energy(sigma->0) =      -83.59624952


--------------------------------------------------------------------------------------------------------




----------------------------------------- Iteration    1(  11)  ---------------------------------------


    POTLOK:  cpu time    0.0240: real time    0.0210
    SETDIJ:  cpu time    0.6720: real time    0.6763
     EDDAV:  cpu time    0.5840: real time    0.5838
       DOS:  cpu time    0.0000: real time    0.0003
    CHARGE:  cpu time    0.0200: real time    0.0209
    MIXING:  cpu time    0.0000: real time    0.0007
    --------------------------------------------
      LOOP:  cpu time    1.3000: real time    1.3068

 eigenvalue-minimisations  :  1856
 total energy-change (2. order) :-0.2877085E-03  (-0.3535982E-04)
 number of electron      57.9999902 magnetization       0.0001427
 augmentation part        4.6311509 magnetization      -0.0002214

 Broyden mixing:
  rms(total) = 0.69182E-02    rms(broyden)= 0.69175E-02
  rms(prec ) = 0.10140E-01
  weight for this iteration     100.00

 eigenvalues of (default mixing * dielectric matrix)
  average eigenvalue GAMMA=   1.3445
  2.6770  2.0232  0.9765  0.9765  0.7807  0.6332

 Free energy of the ion-electron system (eV)
  ---------------------------------------------------
  alpha Z        PSCENC =       129.53385374
  Ewald energy   TEWEN  =     -2377.02466906
  -Hartree energ DENC   =     -1115.74916965
  -exchange      EXHF   =         0.00000000
  -V(xc)+E(xc)   XCENC  =      -181.41995259
  PAW double counting   =      3960.41794852    -3559.86973462
  entropy T*S    EENTRO =        -0.00000000
  eigenvalues    EBANDS =      -149.62137356
  atomic energy  EATOM  =      3210.13655998
  Solvation  Ediel_sol  =         0.00000000
  ---------------------------------------------------
  free energy    TOTEN  =       -83.59653723 eV

  energy without entropy =      -83.59653723  energy(sigma->0) =      -83.59653723


--------------------------------------------------------------------------------------------------------




----------------------------------------- Iteration    1(  12)  ---------------------------------------


    POTLOK:  cpu time    0.0240: real time    0.0211
    SETDIJ:  cpu time    0.6760: real time    0.6773
     EDDAV:  cpu time    0.6000: real time    0.6016
       DOS:  cpu time    0.0040: real time    0.0003
    CHARGE:  cpu time    0.0200: real time    0.0210
    MIXING:  cpu time    0.0000: real time    0.0008
    --------------------------------------------
      LOOP:  cpu time    1.3240: real time    1.3253

 eigenvalue-minimisations  :  1840
 total energy-change (2. order) :-0.1259485E-03  (-0.1655412E-04)
 number of electron      57.9999902 magnetization       0.0000269
 augmentation part        4.6320138 magnetization      -0.0001594

 Broyden mixing:
  rms(total) = 0.19009E-02    rms(broyden)= 0.18998E-02
  rms(prec ) = 0.26044E-02
  weight for this iteration     100.00

 eigenvalues of (default mixing * dielectric matrix)
  average eigenvalue GAMMA=   1.3275
  2.7885  2.3701  0.9885  0.9885  0.8031  0.7240  0.6297

 Free energy of the ion-electron system (eV)
  ---------------------------------------------------
  alpha Z        PSCENC =       129.53385374
  Ewald energy   TEWEN  =     -2377.02466906
  -Hartree energ DENC   =     -1115.63943249
  -exchange      EXHF   =         0.00000000
  -V(xc)+E(xc)   XCENC  =      -181.40928481
  PAW double counting   =      3951.06654589    -3550.52528085
  entropy T*S    EENTRO =        -0.00000000
  eigenvalues    EBANDS =      -149.73495558
  atomic energy  EATOM  =      3210.13655998
  Solvation  Ediel_sol  =         0.00000000
  ---------------------------------------------------
  free energy    TOTEN  =       -83.59666318 eV

  energy without entropy =      -83.59666318  energy(sigma->0) =      -83.59666318


--------------------------------------------------------------------------------------------------------




----------------------------------------- Iteration    1(  13)  ---------------------------------------


    POTLOK:  cpu time    0.0200: real time    0.0212
    SETDIJ:  cpu time    0.6760: real time    0.6764
     EDDAV:  cpu time    0.5840: real time    0.5811
       DOS:  cpu time    0.0000: real time    0.0003
    CHARGE:  cpu time    0.0200: real time    0.0209
    MIXING:  cpu time    0.0000: real time    0.0009
    --------------------------------------------
      LOOP:  cpu time    1.3000: real time    1.3035

 eigenvalue-minimisations  :  1832
 total energy-change (2. order) :-0.4038279E-05  (-0.1251911E-05)
 number of electron      57.9999902 magnetization      -0.0000048
 augmentation part        4.6319104 magnetization      -0.0000715

 Broyden mixing:
  rms(total) = 0.72411E-03    rms(broyden)= 0.72388E-03
  rms(prec ) = 0.11562E-02
  weight for this iteration     100.00

 eigenvalues of (default mixing * dielectric matrix)
  average eigenvalue GAMMA=   1.2691
  2.7703  2.4255  1.0134  0.9489  0.8401  0.8401  0.6287  0.6857

 Free energy of the ion-electron system (eV)
  ---------------------------------------------------
  alpha Z        PSCENC =       129.53385374
  Ewald energy   TEWEN  =     -2377.02466906
  -Hartree energ DENC   =     -1115.66418639
  -exchange      EXHF   =         0.00000000
  -V(xc)+E(xc)   XCENC  =      -181.40685221
  PAW double counting   =      3950.25404047    -3549.71423577
  entropy T*S    EENTRO =        -0.00000000
  eigenvalues    EBANDS =      -149.71117798
  atomic energy  EATOM  =      3210.13655998
  Solvation  Ediel_sol  =         0.00000000
  ---------------------------------------------------
  free energy    TOTEN  =       -83.59666722 eV

  energy without entropy =      -83.59666722  energy(sigma->0) =      -83.59666722


--------------------------------------------------------------------------------------------------------




----------------------------------------- Iteration    1(  14)  ---------------------------------------


    POTLOK:  cpu time    0.0240: real time    0.0211
    SETDIJ:  cpu time    0.6760: real time    0.6775
     EDDAV:  cpu time    0.5760: real time    0.5747
       DOS:  cpu time    0.0000: real time    0.0002
    --------------------------------------------
      LOOP:  cpu time    1.2760: real time    1.2771

 eigenvalue-minimisations  :  1792
 total energy-change (2. order) :-0.2985398E-06  (-0.4305440E-06)
 number of electron      57.9999902 magnetization      -0.0000048
 augmentation part        4.6319104 magnetization      -0.0000715

 Free energy of the ion-electron system (eV)
  ---------------------------------------------------
  alpha Z        PSCENC =       129.53385374
  Ewald energy   TEWEN  =     -2377.02466906
  -Hartree energ DENC   =     -1115.68808302
  -exchange      EXHF   =         0.00000000
  -V(xc)+E(xc)   XCENC  =      -181.40542295
  PAW double counting   =      3950.06579882    -3549.52692099
  entropy T*S    EENTRO =        -0.00000000
  eigenvalues    EBANDS =      -149.68778403
  atomic energy  EATOM  =      3210.13655998
  Solvation  Ediel_sol  =         0.00000000
  ---------------------------------------------------
  free energy    TOTEN  =       -83.59666751 eV

  energy without entropy =      -83.59666751  energy(sigma->0) =      -83.59666751


--------------------------------------------------------------------------------------------------------




 average (electrostatic) potential at core
  the test charge radii are     1.0714  0.7215
  (the norm of the test charge is              1.0000)
       1 -35.6611       2 -35.6509       3 -35.6553       4 -35.6579       5 -35.6565
       6 -35.6524       7 -35.6541       8 -35.6615       9 -70.1813      10 -70.1810
      11 -70.1796      12 -70.1817      13 -70.1814      14 -70.1815      15 -70.2093
 
 
 
 E-fermi :   5.8755     XC(G=0): -10.7278     alpha+bet :-12.3507


 spin component 1

 k-point     1 :       0.0000    0.0000    0.0000
  band No.  band energies     occupation 
      1     -14.3700      1.00000
      2     -13.2798      1.00000
      3     -13.2795      1.00000
      4     -13.2789      1.00000
      5     -13.1877      1.00000
      6     -13.0305      1.00000
      7     -13.0300      1.00000
      8      -1.8688      1.00000
      9      -1.6906      1.00000
     10      -1.6898      1.00000
     11      -1.6892      1.00000
     12      -0.9170      1.00000
     13      -0.9166      1.00000
     14      -0.9155      1.00000
     15       1.3224      1.00000
     16       1.3225      1.00000
     17       1.3227      1.00000
     18       1.5500      1.00000
     19       1.5519      1.00000
     20       1.5567      1.00000
     21       2.0083      1.00000
     22       2.0088      1.00000
     23       2.0092      1.00000
     24       2.0110      1.00000
     25       2.0113      1.00000
     26       2.4675      1.00000
     27       2.4688      1.00000
     28       2.4722      1.00000
     29       3.4384      1.00000
     30       8.3485      0.00000
     31      10.4340      0.00000
     32      10.4341      0.00000
     33      10.4342      0.00000
     34      11.2695      0.00000
     35      11.2728      0.00000
     36      11.2814      0.00000
     37      11.8365      0.00000
     38      11.8366      0.00000
     39      11.8368      0.00000
     40      11.9030      0.00000
     41      12.4760      0.00000
     42      12.4791      0.00000
     43      14.9896      0.00000
     44      15.2722      0.00000
     45      15.2773      0.00000
     46      15.2796      0.00000
     47      18.3949      0.00000
     48      18.3995      0.00000

 k-point     2 :       0.5000    0.0000    0.0000
  band No.  band energies     occupation 
      1     -13.9540      1.00000
      2     -13.7625      1.00000
      3     -13.2082      1.00000
      4     -13.1651      1.00000
      5     -13.1644      1.00000
      6     -13.1640      1.00000
      7     -13.1633      1.00000
      8      -1.2968      1.00000
      9      -1.1182      1.00000
     10      -1.1160      1.00000
     11      -1.0910      1.00000
     12      -0.3237      1.00000
     13      -0.3206      1.00000
     14      -0.3075      1.00000
     15       0.1771      1.00000
     16       0.6681      1.00000
     17       0.7665      1.00000
     18       0.7671      1.00000
     19       0.7861      1.00000
     20       0.7875      1.00000
     21       1.6241      1.00000
     22       1.6278      1.00000
     23       1.6374      1.00000
     24       1.6565      1.00000
     25       2.0349      1.00000
     26       2.0356      1.00000
     27       2.2870      1.00000
     28       2.2897      1.00000
     29       5.1368      1.00000
     30       7.9334      0.00000
     31      10.3073      0.00000
     32      10.3143      0.00000
     33      10.5801      0.00000
     34      10.7526      0.00000
     35      12.3297      0.00000
     36      12.3318      0.00000
     37      12.4508      0.00000
     38      12.4528      0.00000
     39      13.2832      0.00000
     40      13.9045      0.00000
     41      14.0809      0.00000
     42      14.0835      0.00000
     43      14.4083      0.00000
     44      15.1785      0.00000
     45      15.3246      0.00000
     46      15.5792      0.00000
     47      15.5998      0.00000
     48      15.8489      0.00000

 k-point     3 :       0.0000    0.5000    0.0000
  band No.  band energies     occupation 
      1     -13.9533      1.00000
      2     -13.7635      1.00000
      3     -13.2079      1.00000
      4     -13.1656      1.00000
      5     -13.1652      1.00000
      6     -13.1637      1.00000
      7     -13.1624      1.00000
      8      -1.2955      1.00000
      9      -1.1172      1.00000
     10      -1.1160      1.00000
     11      -1.0924      1.00000
     12      -0.3238      1.00000
     13      -0.3223      1.00000
     14      -0.3069      1.00000
     15       0.1765      1.00000
     16       0.6683      1.00000
     17       0.7650      1.00000
     18       0.7674      1.00000
     19       0.7857      1.00000
     20       0.7890      1.00000
     21       1.6246      1.00000
     22       1.6293      1.00000
     23       1.6379      1.00000
     24       1.6560      1.00000
     25       2.0327      1.00000
     26       2.0345      1.00000
     27       2.2875      1.00000
     28       2.2911      1.00000
     29       5.1369      1.00000
     30       7.9341      0.00000
     31      10.3069      0.00000
     32      10.3148      0.00000
     33      10.5802      0.00000
     34      10.7526      0.00000
     35      12.3284      0.00000
     36      12.3314      0.00000
     37      12.4510      0.00000
     38      12.4540      0.00000
     39      13.2811      0.00000
     40      13.9038      0.00000
     41      14.0810      0.00000
     42      14.0839      0.00000
     43      14.4089      0.00000
     44      15.1789      0.00000
     45      15.3234      0.00000
     46      15.5799      0.00000
     47      15.6009      0.00000
     48      15.8517      0.00000

 k-point     4 :       0.5000    0.5000    0.0000
  band No.  band energies     occupation 
      1     -13.7800      1.00000
      2     -13.6948      1.00000
      3     -13.3465      1.00000
      4     -13.3441      1.00000
      5     -13.3435      1.00000
      6     -13.1269      1.00000
      7     -12.9839      1.00000
      8      -1.2283      1.00000
      9      -0.7809      1.00000
     10      -0.6061      1.00000
     11      -0.6047      1.00000
     12      -0.2385      1.00000
     13      -0.2383      1.00000
     14      -0.2157      1.00000
     15       0.1770      1.00000
     16       0.4886      1.00000
     17       0.4890      1.00000
     18       0.6972      1.00000
     19       0.6996      1.00000
     20       0.7005      1.00000
     21       0.8017      1.00000
     22       0.9110      1.00000
     23       1.9198      1.00000
     24       1.9201      1.00000
     25       1.9265      1.00000
     26       1.9328      1.00000
     27       2.0092      1.00000
     28       2.0102      1.00000
     29       5.6369      1.00000
     30       8.1860      0.00000
     31       9.5500      0.00000
     32       9.5553      0.00000
     33      11.0432      0.00000
     34      11.9538      0.00000
     35      11.9544      0.00000
     36      12.9868      0.00000
     37      12.9880      0.00000
     38      13.7476      0.00000
     39      13.9490      0.00000
     40      14.1542      0.00000
     41      14.1556      0.00000
     42      14.2906      0.00000
     43      14.4530      0.00000
     44      14.4605      0.00000
     45      14.4624      0.00000
     46      14.6760      0.00000
     47      15.8599      0.00000
     48      15.9247      0.00000

 k-point     5 :       0.0000    0.0000    0.5000
  band No.  band energies     occupation 
      1     -13.9533      1.00000
      2     -13.7634      1.00000
      3     -13.2080      1.00000
      4     -13.1656      1.00000
      5     -13.1650      1.00000
      6     -13.1638      1.00000
      7     -13.1625      1.00000
      8      -1.2957      1.00000
      9      -1.1172      1.00000
     10      -1.1159      1.00000
     11      -1.0923      1.00000
     12      -0.3237      1.00000
     13      -0.3222      1.00000
     14      -0.3070      1.00000
     15       0.1765      1.00000
     16       0.6681      1.00000
     17       0.7648      1.00000
     18       0.7675      1.00000
     19       0.7856      1.00000
     20       0.7891      1.00000
     21       1.6244      1.00000
     22       1.6292      1.00000
     23       1.6381      1.00000
     24       1.6558      1.00000
     25       2.0331      1.00000
     26       2.0348      1.00000
     27       2.2872      1.00000
     28       2.2912      1.00000
     29       5.1369      1.00000
     30       7.9340      0.00000
     31      10.3067      0.00000
     32      10.3145      0.00000
     33      10.5804      0.00000
     34      10.7522      0.00000
     35      12.3287      0.00000
     36      12.3317      0.00000
     37      12.4509      0.00000
     38      12.4539      0.00000
     39      13.2823      0.00000
     40      13.9040      0.00000
     41      14.0809      0.00000
     42      14.0838      0.00000
     43      14.4087      0.00000
     44      15.1787      0.00000
     45      15.3238      0.00000
     46      15.5791      0.00000
     47      15.6005      0.00000
     48      15.8500      0.00000

 k-point     6 :       0.5000    0.0000    0.5000
  band No.  band energies     occupation 
      1     -13.7801      1.00000
      2     -13.6947      1.00000
      3     -13.3463      1.00000
      4     -13.3443      1.00000
      5     -13.3434      1.00000
      6     -13.1268      1.00000
      7     -12.9840      1.00000
      8      -1.2287      1.00000
      9      -0.7810      1.00000
     10      -0.6072      1.00000
     11      -0.6053      1.00000
     12      -0.2386      1.00000
     13      -0.2385      1.00000
     14      -0.2154      1.00000
     15       0.1781      1.00000
     16       0.4898      1.00000
     17       0.4904      1.00000
     18       0.6970      1.00000
     19       0.6995      1.00000
     20       0.7009      1.00000
     21       0.8031      1.00000
     22       0.9110      1.00000
     23       1.9197      1.00000
     24       1.9199      1.00000
     25       1.9239      1.00000
     26       1.9326      1.00000
     27       2.0090      1.00000
     28       2.0100      1.00000
     29       5.6366      1.00000
     30       8.1890      0.00000
     31       9.5473      0.00000
     32       9.5546      0.00000
     33      11.0442      0.00000
     34      11.9537      0.00000
     35      11.9553      0.00000
     36      12.9864      0.00000
     37      12.9880      0.00000
     38      13.7474      0.00000
     39      13.9490      0.00000
     40      14.1540      0.00000
     41      14.1562      0.00000
     42      14.2905      0.00000
     43      14.4513      0.00000
     44      14.4603      0.00000
     45      14.4616      0.00000
     46      14.6770      0.00000
     47      15.8536      0.00000
     48      15.9245      0.00000

 k-point     7 :       0.0000    0.5000    0.5000
  band No.  band energies     occupation 
      1     -13.7804      1.00000
      2     -13.6944      1.00000
      3     -13.3457      1.00000
      4     -13.3443      1.00000
      5     -13.3440      1.00000
      6     -13.1264      1.00000
      7     -12.9843      1.00000
      8      -1.2298      1.00000
      9      -0.7812      1.00000
     10      -0.6088      1.00000
     11      -0.6077      1.00000
     12      -0.2390      1.00000
     13      -0.2388      1.00000
     14      -0.2148      1.00000
     15       0.1808      1.00000
     16       0.4922      1.00000
     17       0.4946      1.00000
     18       0.6977      1.00000
     19       0.6997      1.00000
     20       0.7003      1.00000
     21       0.8068      1.00000
     22       0.9110      1.00000
     23       1.9193      1.00000
     24       1.9195      1.00000
     25       1.9235      1.00000
     26       1.9261      1.00000
     27       2.0084      1.00000
     28       2.0098      1.00000
     29       5.6359      1.00000
     30       8.1965      0.00000
     31       9.5456      0.00000
     32       9.5478      0.00000
     33      11.0470      0.00000
     34      11.9533      0.00000
     35      11.9578      0.00000
     36      12.9862      0.00000
     37      12.9870      0.00000
     38      13.7470      0.00000
     39      13.9487      0.00000
     40      14.1548      0.00000
     41      14.1564      0.00000
     42      14.2907      0.00000
     43      14.4448      0.00000
     44      14.4597      0.00000
     45      14.4615      0.00000
     46      14.6796      0.00000
     47      15.8379      0.00000
     48      15.9258      0.00000

 k-point     8 :       0.5000    0.5000    0.5000
  band No.  band energies     occupation 
      1     -13.9539      1.00000
      2     -13.7626      1.00000
      3     -13.2082      1.00000
      4     -13.1653      1.00000
      5     -13.1643      1.00000
      6     -13.1641      1.00000
      7     -13.1631      1.00000
      8      -1.2966      1.00000
      9      -1.1182      1.00000
     10      -1.1159      1.00000
     11      -1.0913      1.00000
     12      -0.3236      1.00000
     13      -0.3205      1.00000
     14      -0.3075      1.00000
     15       0.1769      1.00000
     16       0.6681      1.00000
     17       0.7661      1.00000
     18       0.7669      1.00000
     19       0.7857      1.00000
     20       0.7872      1.00000
     21       1.6244      1.00000
     22       1.6283      1.00000
     23       1.6374      1.00000
     24       1.6570      1.00000
     25       2.0348      1.00000
     26       2.0352      1.00000
     27       2.2873      1.00000
     28       2.2901      1.00000
     29       5.1366      1.00000
     30       7.9335      0.00000
     31      10.3077      0.00000
     32      10.3145      0.00000
     33      10.5797      0.00000
     34      10.7528      0.00000
     35      12.3291      0.00000
     36      12.3315      0.00000
     37      12.4508      0.00000
     38      12.4527      0.00000
     39      13.2820      0.00000
     40      13.9044      0.00000
     41      14.0813      0.00000
     42      14.0838      0.00000
     43      14.4085      0.00000
     44      15.1786      0.00000
     45      15.3242      0.00000
     46      15.5800      0.00000
     47      15.6001      0.00000
     48      15.8504      0.00000

 spin component 2

 k-point     1 :       0.0000    0.0000    0.0000
  band No.  band energies     occupation 
      1     -14.3699      1.00000
      2     -13.2797      1.00000
      3     -13.2795      1.00000
      4     -13.2789      1.00000
      5     -13.1877      1.00000
      6     -13.0305      1.00000
      7     -13.0300      1.00000
      8      -1.8688      1.00000
      9      -1.6906      1.00000
     10      -1.6898      1.00000
     11      -1.6892      1.00000
     12      -0.9170      1.00000
     13      -0.9166      1.00000
     14      -0.9155      1.00000
     15       1.3225      1.00000
     16       1.3225      1.00000
     17       1.3227      1.00000
     18       1.5500      1.00000
     19       1.5519      1.00000
     20       1.5567      1.00000
     21       2.0083      1.00000
     22       2.0089      1.00000
     23       2.0092      1.00000
     24       2.0110      1.00000
     25       2.0114      1.00000
     26       2.4676      1.00000
     27       2.4689      1.00000
     28       2.4723      1.00000
     29       3.4383      1.00000
     30       8.3484      0.00000
     31      10.4338      0.00000
     32      10.4340      0.00000
     33      10.4341      0.00000
     34      11.2694      0.00000
     35      11.2727      0.00000
     36      11.2813      0.00000
     37      11.8364      0.00000
     38      11.8365      0.00000
     39      11.8367      0.00000
     40      11.9030      0.00000
     41      12.4761      0.00000
     42      12.4792      0.00000
     43      14.9896      0.00000
     44      15.2721      0.00000
     45      15.2772      0.00000
     46      15.2795      0.00000
     47      18.3978      0.00000
     48      18.4008      0.00000

 k-point     2 :       0.5000    0.0000    0.0000
  band No.  band energies     occupation 
      1     -13.9540      1.00000
      2     -13.7624      1.00000
      3     -13.2082      1.00000
      4     -13.1651      1.00000
      5     -13.1643      1.00000
      6     -13.1640      1.00000
      7     -13.1633      1.00000
      8      -1.2968      1.00000
      9      -1.1182      1.00000
     10      -1.1160      1.00000
     11      -1.0910      1.00000
     12      -0.3236      1.00000
     13      -0.3206      1.00000
     14      -0.3075      1.00000
     15       0.1771      1.00000
     16       0.6681      1.00000
     17       0.7665      1.00000
     18       0.7671      1.00000
     19       0.7861      1.00000
     20       0.7875      1.00000
     21       1.6241      1.00000
     22       1.6279      1.00000
     23       1.6374      1.00000
     24       1.6566      1.00000
     25       2.0349      1.00000
     26       2.0356      1.00000
     27       2.2870      1.00000
     28       2.2898      1.00000
     29       5.1368      1.00000
     30       7.9333      0.00000
     31      10.3073      0.00000
     32      10.3142      0.00000
     33      10.5800      0.00000
     34      10.7525      0.00000
     35      12.3297      0.00000
     36      12.3317      0.00000
     37      12.4507      0.00000
     38      12.4527      0.00000
     39      13.2832      0.00000
     40      13.9044      0.00000
     41      14.0808      0.00000
     42      14.0834      0.00000
     43      14.4082      0.00000
     44      15.1784      0.00000
     45      15.3245      0.00000
     46      15.5792      0.00000
     47      15.5998      0.00000
     48      15.8754      0.00000

 k-point     3 :       0.0000    0.5000    0.0000
  band No.  band energies     occupation 
      1     -13.9533      1.00000
      2     -13.7635      1.00000
      3     -13.2079      1.00000
      4     -13.1656      1.00000
      5     -13.1652      1.00000
      6     -13.1636      1.00000
      7     -13.1623      1.00000
      8      -1.2955      1.00000
      9      -1.1172      1.00000
     10      -1.1160      1.00000
     11      -1.0924      1.00000
     12      -0.3238      1.00000
     13      -0.3222      1.00000
     14      -0.3069      1.00000
     15       0.1766      1.00000
     16       0.6683      1.00000
     17       0.7650      1.00000
     18       0.7675      1.00000
     19       0.7857      1.00000
     20       0.7890      1.00000
     21       1.6247      1.00000
     22       1.6293      1.00000
     23       1.6380      1.00000
     24       1.6560      1.00000
     25       2.0327      1.00000
     26       2.0345      1.00000
     27       2.2875      1.00000
     28       2.2911      1.00000
     29       5.1368      1.00000
     30       7.9341      0.00000
     31      10.3068      0.00000
     32      10.3148      0.00000
     33      10.5801      0.00000
     34      10.7525      0.00000
     35      12.3284      0.00000
     36      12.3314      0.00000
     37      12.4508      0.00000
     38      12.4538      0.00000
     39      13.2811      0.00000
     40      13.9037      0.00000
     41      14.0809      0.00000
     42      14.0838      0.00000
     43      14.4088      0.00000
     44      15.1788      0.00000
     45      15.3233      0.00000
     46      15.5799      0.00000
     47      15.6009      0.00000
     48      15.8520      0.00000

 k-point     4 :       0.5000    0.5000    0.0000
  band No.  band energies     occupation 
      1     -13.7800      1.00000
      2     -13.6947      1.00000
      3     -13.3465      1.00000
      4     -13.3441      1.00000
      5     -13.3435      1.00000
      6     -13.1269      1.00000
      7     -12.9838      1.00000
      8      -1.2283      1.00000
      9      -0.7809      1.00000
     10      -0.6061      1.00000
     11      -0.6047      1.00000
     12      -0.2384      1.00000
     13      -0.2383      1.00000
     14      -0.2156      1.00000
     15       0.1770      1.00000
     16       0.4887      1.00000
     17       0.4890      1.00000
     18       0.6972      1.00000
     19       0.6997      1.00000
     20       0.7005      1.00000
     21       0.8017      1.00000
     22       0.9110      1.00000
     23       1.9198      1.00000
     24       1.9201      1.00000
     25       1.9266      1.00000
     26       1.9328      1.00000
     27       2.0093      1.00000
     28       2.0102      1.00000
     29       5.6369      1.00000
     30       8.1860      0.00000
     31       9.5499      0.00000
     32       9.5552      0.00000
     33      11.0431      0.00000
     34      11.9537      0.00000
     35      11.9543      0.00000
     36      12.9867      0.00000
     37      12.9879      0.00000
     38      13.7474      0.00000
     39      13.9489      0.00000
     40      14.1540      0.00000
     41      14.1555      0.00000
     42      14.2905      0.00000
     43      14.4530      0.00000
     44      14.4604      0.00000
     45      14.4623      0.00000
     46      14.6761      0.00000
     47      15.8595      0.00000
     48      15.9246      0.00000

 k-point     5 :       0.0000    0.0000    0.5000
  band No.  band energies     occupation 
      1     -13.9533      1.00000
      2     -13.7634      1.00000
      3     -13.2079      1.00000
      4     -13.1656      1.00000
      5     -13.1650      1.00000
      6     -13.1638      1.00000
      7     -13.1624      1.00000
      8      -1.2957      1.00000
      9      -1.1172      1.00000
     10      -1.1159      1.00000
     11      -1.0922      1.00000
     12      -0.3237      1.00000
     13      -0.3222      1.00000
     14      -0.3070      1.00000
     15       0.1765      1.00000
     16       0.6681      1.00000
     17       0.7649      1.00000
     18       0.7675      1.00000
     19       0.7856      1.00000
     20       0.7891      1.00000
     21       1.6244      1.00000
     22       1.6292      1.00000
     23       1.6382      1.00000
     24       1.6558      1.00000
     25       2.0332      1.00000
     26       2.0349      1.00000
     27       2.2873      1.00000
     28       2.2912      1.00000
     29       5.1369      1.00000
     30       7.9340      0.00000
     31      10.3067      0.00000
     32      10.3145      0.00000
     33      10.5803      0.00000
     34      10.7521      0.00000
     35      12.3286      0.00000
     36      12.3317      0.00000
     37      12.4507      0.00000
     38      12.4538      0.00000
     39      13.2823      0.00000
     40      13.9040      0.00000
     41      14.0808      0.00000
     42      14.0837      0.00000
     43      14.4086      0.00000
     44      15.1786      0.00000
     45      15.3237      0.00000
     46      15.5791      0.00000
     47      15.6005      0.00000
     48      15.8511      0.00000

 k-point     6 :       0.5000    0.0000    0.5000
  band No.  band energies     occupation 
      1     -13.7801      1.00000
      2     -13.6946      1.00000
      3     -13.3463      1.00000
      4     -13.3443      1.00000
      5     -13.3434      1.00000
      6     -13.1267      1.00000
      7     -12.9840      1.00000
      8      -1.2287      1.00000
      9      -0.7810      1.00000
     10      -0.6072      1.00000
     11      -0.6053      1.00000
     12      -0.2386      1.00000
     13      -0.2384      1.00000
     14      -0.2154      1.00000
     15       0.1781      1.00000
     16       0.4899      1.00000
     17       0.4904      1.00000
     18       0.6971      1.00000
     19       0.6996      1.00000
     20       0.7009      1.00000
     21       0.8031      1.00000
     22       0.9110      1.00000
     23       1.9197      1.00000
     24       1.9200      1.00000
     25       1.9240      1.00000
     26       1.9326      1.00000
     27       2.0090      1.00000
     28       2.0101      1.00000
     29       5.6366      1.00000
     30       8.1889      0.00000
     31       9.5473      0.00000
     32       9.5546      0.00000
     33      11.0442      0.00000
     34      11.9536      0.00000
     35      11.9552      0.00000
     36      12.9862      0.00000
     37      12.9879      0.00000
     38      13.7473      0.00000
     39      13.9489      0.00000
     40      14.1538      0.00000
     41      14.1561      0.00000
     42      14.2904      0.00000
     43      14.4513      0.00000
     44      14.4603      0.00000
     45      14.4615      0.00000
     46      14.6770      0.00000
     47      15.8537      0.00000
     48      15.9244      0.00000

 k-point     7 :       0.0000    0.5000    0.5000
  band No.  band energies     occupation 
      1     -13.7804      1.00000
      2     -13.6944      1.00000
      3     -13.3456      1.00000
      4     -13.3443      1.00000
      5     -13.3440      1.00000
      6     -13.1264      1.00000
      7     -12.9842      1.00000
      8      -1.2297      1.00000
      9      -0.7812      1.00000
     10      -0.6088      1.00000
     11      -0.6077      1.00000
     12      -0.2390      1.00000
     13      -0.2388      1.00000
     14      -0.2148      1.00000
     15       0.1808      1.00000
     16       0.4922      1.00000
     17       0.4946      1.00000
     18       0.6977      1.00000
     19       0.6998      1.00000
     20       0.7003      1.00000
     21       0.8068      1.00000
     22       0.9110      1.00000
     23       1.9193      1.00000
     24       1.9196      1.00000
     25       1.9235      1.00000
     26       1.9261      1.00000
     27       2.0085      1.00000
     28       2.0098      1.00000
     29       5.6358      1.00000
     30       8.1965      0.00000
     31       9.5456      0.00000
     32       9.5478      0.00000
     33      11.0469      0.00000
     34      11.9532      0.00000
     35      11.9577      0.00000
     36      12.9861      0.00000
     37      12.9869      0.00000
     38      13.7469      0.00000
     39      13.9486      0.00000
     40      14.1546      0.00000
     41      14.1563      0.00000
     42      14.2906      0.00000
     43      14.4448      0.00000
     44      14.4597      0.00000
     45      14.4614      0.00000
     46      14.6796      0.00000
     47      15.8380      0.00000
     48      15.9258      0.00000

 k-point     8 :       0.5000    0.5000    0.5000
  band No.  band energies     occupation 
      1     -13.9539      1.00000
      2     -13.7626      1.00000
      3     -13.2081      1.00000
      4     -13.1653      1.00000
      5     -13.1642      1.00000
      6     -13.1641      1.00000
      7     -13.1631      1.00000
      8      -1.2966      1.00000
      9      -1.1182      1.00000
     10      -1.1159      1.00000
     11      -1.0913      1.00000
     12      -0.3236      1.00000
     13      -0.3205      1.00000
     14      -0.3075      1.00000
     15       0.1769      1.00000
     16       0.6681      1.00000
     17       0.7661      1.00000
     18       0.7669      1.00000
     19       0.7857      1.00000
     20       0.7872      1.00000
     21       1.6244      1.00000
     22       1.6283      1.00000
     23       1.6374      1.00000
     24       1.6571      1.00000
     25       2.0349      1.00000
     26       2.0352      1.00000
     27       2.2873      1.00000
     28       2.2901      1.00000
     29       5.1366      1.00000
     30       7.9334      0.00000
     31      10.3076      0.00000
     32      10.3145      0.00000
     33      10.5796      0.00000
     34      10.7527      0.00000
     35      12.3290      0.00000
     36      12.3315      0.00000
     37      12.4507      0.00000
     38      12.4525      0.00000
     39      13.2820      0.00000
     40      13.9043      0.00000
     41      14.0812      0.00000
     42      14.0837      0.00000
     43      14.4084      0.00000
     44      15.1785      0.00000
     45      15.3241      0.00000
     46      15.5800      0.00000
     47      15.6002      0.00000
     48      15.8514      0.00000


--------------------------------------------------------------------------------------------------------


 soft charge-density along one line, spin component           1
         0         1         2         3         4         5         6         7         8         9
 total charge-density along one line
 
 soft charge-density along one line, spin component           2
         0         1         2         3         4         5         6         7         8         9
 total charge-density along one line
 
 pseudopotential strength for first ion, spin component:           1
  2.975   9.462  -0.000   0.000   0.000   0.000  -0.000   0.000
  9.462  29.932  -0.000  -0.000   0.000   0.000  -0.000   0.000
 -0.000  -0.000   7.270   0.000  -0.000  10.557   0.000  -0.000
  0.000  -0.000   0.000   7.270   0.000   0.000  10.557   0.000
  0.000   0.000  -0.000   0.000   7.270  -0.000   0.000  10.557
  0.000   0.000  10.557   0.000  -0.000  14.538   0.000  -0.000
 -0.000  -0.000   0.000  10.557   0.000   0.000  14.538   0.000
  0.000   0.000  -0.000   0.000  10.557  -0.000   0.000  14.538
 -0.000  -0.000  -0.000  -0.000   0.000  -0.000  -0.000   0.000
  0.000   0.000  -0.000   0.000  -0.000  -0.000   0.000  -0.000
 -0.000  -0.000  -0.000  -0.000  -0.000  -0.000  -0.000  -0.000
  0.000   0.000  -0.000  -0.000  -0.000  -0.000  -0.000  -0.000
 -0.000  -0.000  -0.000  -0.000   0.000  -0.000  -0.000   0.000
 pseudopotential strength for first ion, spin component:           2
  2.975   9.462  -0.000   0.000   0.000   0.000  -0.000   0.000
  9.462  29.932  -0.000  -0.000   0.000   0.000  -0.000   0.000
 -0.000  -0.000   7.270   0.000  -0.000  10.557   0.000  -0.000
  0.000  -0.000   0.000   7.270   0.000   0.000  10.557   0.000
  0.000   0.000  -0.000   0.000   7.270  -0.000   0.000  10.557
  0.000   0.000  10.557   0.000  -0.000  14.538   0.000  -0.000
 -0.000  -0.000   0.000  10.557   0.000   0.000  14.538   0.000
  0.000   0.000  -0.000   0.000  10.557  -0.000   0.000  14.538
 -0.000  -0.000  -0.000  -0.000   0.000  -0.000  -0.000   0.000
  0.000   0.000  -0.000   0.000  -0.000  -0.000   0.000  -0.000
 -0.000  -0.000  -0.000  -0.000  -0.000  -0.000  -0.000  -0.000
  0.000   0.000  -0.000  -0.000  -0.000  -0.000  -0.000  -0.000
 -0.000  -0.000  -0.000  -0.000   0.000  -0.000  -0.000   0.000
 total augmentation occupancy for first ion, spin component:           1
  0.986  -0.045  -0.001   0.000   0.000   0.000  -0.000  -0.000   0.000  -0.000   0.000  -0.000   0.000
 -0.045   0.002   0.000  -0.000  -0.000  -0.000   0.000   0.000  -0.000   0.000  -0.000   0.000  -0.000
 -0.001   0.000   0.114  -0.000   0.000  -0.012   0.000  -0.000   0.000  -0.000   0.000  -0.000   0.000
  0.000  -0.000  -0.000   0.114  -0.000   0.000  -0.012   0.000  -0.000   0.000   0.000   0.000  -0.000
  0.000  -0.000   0.000  -0.000   0.114  -0.000   0.000  -0.012   0.000  -0.000  -0.000  -0.000   0.000
  0.000  -0.000  -0.012   0.000  -0.000   0.001  -0.000   0.000  -0.000   0.000  -0.000   0.000  -0.000
 -0.000   0.000   0.000  -0.012   0.000  -0.000   0.001  -0.000   0.000  -0.000  -0.000  -0.000   0.000
 -0.000   0.000  -0.000   0.000  -0.012   0.000  -0.000   0.001  -0.000   0.000   0.000   0.000  -0.000
  0.000  -0.000   0.000  -0.000   0.000  -0.000   0.000  -0.000   0.012  -0.000  -0.000  -0.000   0.000
 -0.000   0.000  -0.000   0.000  -0.000   0.000  -0.000   0.000  -0.000   0.012  -0.000   0.000   0.000
  0.000  -0.000   0.000   0.000  -0.000  -0.000  -0.000   0.000  -0.000  -0.000   0.049   0.000  -0.000
 -0.000   0.000  -0.000   0.000  -0.000   0.000  -0.000   0.000  -0.000   0.000   0.000   0.012  -0.000
  0.000  -0.000   0.000  -0.000   0.000  -0.000   0.000  -0.000   0.000   0.000  -0.000  -0.000   0.049
 total augmentation occupancy for first ion, spin component:           2
  0.000  -0.000   0.000   0.000  -0.000   0.000   0.000   0.000   0.000  -0.000  -0.000   0.000  -0.000
 -0.000   0.000   0.000   0.000   0.000  -0.000  -0.000  -0.000  -0.000  -0.000   0.000  -0.000   0.000
  0.000   0.000   0.000  -0.000   0.000  -0.000   0.000  -0.000   0.000   0.000  -0.000   0.000  -0.000
  0.000   0.000  -0.000   0.000   0.000   0.000  -0.000  -0.000   0.000   0.000  -0.000   0.000  -0.000
 -0.000   0.000   0.000   0.000   0.000  -0.000  -0.000  -0.000   0.000   0.000   0.000   0.000   0.000
  0.000  -0.000  -0.000   0.000  -0.000   0.000  -0.000   0.000   0.000  -0.000  -0.000  -0.000   0.000
  0.000  -0.000   0.000  -0.000  -0.000  -0.000   0.000   0.000  -0.000  -0.000   0.000   0.000   0.000
  0.000  -0.000  -0.000  -0.000  -0.000   0.000   0.000   0.000  -0.000  -0.000   0.000  -0.000  -0.000
  0.000  -0.000   0.000   0.000   0.000   0.000  -0.000  -0.000   0.000   0.000  -0.000  -0.000   0.000
 -0.000  -0.000   0.000   0.000   0.000  -0.000  -0.000  -0.000   0.000   0.000  -0.000   0.000  -0.000
 -0.000   0.000  -0.000  -0.000   0.000  -0.000   0.000   0.000  -0.000  -0.000   0.000   0.000   0.000
  0.000  -0.000   0.000   0.000   0.000  -0.000   0.000  -0.000  -0.000   0.000   0.000   0.000   0.000
 -0.000   0.000  -0.000  -0.000   0.000   0.000   0.000  -0.000   0.000  -0.000   0.000   0.000   0.000


------------------------ aborting loop because EDIFF is reached ----------------------------------------


 


 total charge     
 
# of ion     s       p       d       tot
----------------------------------------
  1        0.144   0.171   0.074   0.389
  2        0.153   0.169   0.068   0.390
  3        0.153   0.169   0.068   0.390
  4        0.153   0.169   0.067   0.389
  5        0.153   0.169   0.067   0.389
  6        0.153   0.169   0.068   0.390
  7        0.153   0.169   0.068   0.390
  8        0.144   0.170   0.074   0.389
  9        1.570   3.555   0.000   5.125
 10        1.570   3.555   0.000   5.125
 11        1.570   3.555   0.000   5.125
 12        1.570   3.555   0.000   5.125
 13        1.570   3.555   0.000   5.125
 14        1.570   3.555   0.000   5.125
 15        1.566   3.567   0.000   5.133
------------------------------------------------
tot       12.191  26.251   0.555  38.997
 


 magnetization (x)
 
# of ion     s       p       d       tot
----------------------------------------
  1        0.000  -0.000   0.000   0.000
  2        0.000   0.000   0.000   0.000
  3        0.000   0.000   0.000   0.000
  4        0.000   0.000   0.000   0.000
  5        0.000   0.000   0.000   0.000
  6        0.000   0.000   0.000   0.000
  7        0.000   0.000   0.000   0.000
  8        0.000  -0.000   0.000   0.000
  9       -0.000   0.000   0.000  -0.000
 10       -0.000   0.000   0.000  -0.000
 11       -0.000   0.000   0.000  -0.000
 12       -0.000   0.000   0.000  -0.000
 13       -0.000   0.000   0.000  -0.000
 14       -0.000   0.000   0.000  -0.000
 15       -0.000   0.000   0.000   0.000
------------------------------------------------
tot       -0.000   0.000   0.000   0.000
 
    CHARGE:  cpu time    0.0200: real time    0.0207
    FORLOC:  cpu time    0.0040: real time    0.0014
    FORNL :  cpu time    0.1320: real time    0.1339
    STRESS:  cpu time    0.4040: real time    0.4032
    FORCOR:  cpu time    0.0240: real time    0.0219
    FORHAR:  cpu time    0.0000: real time    0.0030
    MIXING:  cpu time    0.0040: real time    0.0010
    OFIELD:  cpu time    0.0000: real time    0.0000

  FORCE on cell =-STRESS in cart. coord.  units (eV):
  Direction    XX          YY          ZZ          XY          YZ          ZX
  --------------------------------------------------------------------------------------
  Alpha Z   129.53385   129.53385   129.53385
  Ewald    -792.91420  -792.19909  -791.91625    -0.00121    -0.01106    -0.01195
  Hartree   371.87326   371.89448   371.90301    -0.00206    -0.00662    -0.00286
  E(xc)    -259.15926  -259.16416  -259.16591    -0.00110    -0.00111    -0.00112
  Local    -373.17019  -373.84396  -374.11099     0.01100     0.02535     0.02176
  n-local  -125.55011  -125.52107  -125.50683    -0.00226     0.00736     0.00737
  augment    47.64093    47.64012    47.63869     0.00131     0.00039     0.00048
  Kinetic   999.47027   999.43367   999.41949     0.00662     0.00740     0.00854
  Fock        0.00000     0.00000     0.00000     0.00000     0.00000     0.00000
  -------------------------------------------------------------------------------------
  Total      -2.27544    -2.22616    -2.20494     0.01230     0.02171     0.02221
  in kB     -23.79758   -23.28217   -23.06021     0.12866     0.22708     0.23233
  external pressure =      -23.38 kB  Pullay stress =        0.00 kB


 VOLUME and BASIS-vectors are now :
 -----------------------------------------------------------------------------
  energy-cutoff  :      400.00
  volume of cell :      153.19
      direct lattice vectors                 reciprocal lattice vectors
     0.000000000  4.246893000  4.246893000    -0.117733129  0.117733129  0.117733129
     4.246893000  0.000000000  4.246893000     0.117733129 -0.117733129  0.117733129
     4.246893000  4.246893000  0.000000000     0.117733129  0.117733129 -0.117733129

  length of vectors
     6.006013679  6.006013679  6.006013679     0.203919761  0.203919761  0.203919761


 FORCES acting on ions
    electron-ion (+dipol)            ewald-force                    non-local-force                 convergence-correction
 -----------------------------------------------------------------------------------------------
   0.237E-01 -.105E+00 0.549E-01   -.227E-01 0.918E-01 -.482E-01   -.179E-02 0.353E-01 -.176E-01   0.590E-05 0.212E-04 0.457E-05
   -.818E-01 0.149E-01 -.299E+02   0.705E-01 -.167E-01 0.299E+02   0.216E-01 -.421E-02 0.897E-01   -.209E-04 -.640E-05 -.146E-03
   0.443E-02 -.300E+02 0.723E-01   -.656E-02 0.299E+02 -.601E-01   0.333E-02 0.100E+00 -.179E-01   -.659E-05 -.144E-03 -.454E-05
   0.298E+02 -.951E-01 -.199E-01   -.298E+02 0.800E-01 0.213E-01   -.582E-03 0.198E-01 0.120E-02   0.148E-03 0.518E-05 0.213E-04
   -.300E+02 -.849E-01 -.405E-01   0.299E+02 0.708E-01 0.392E-01   0.496E-01 0.174E-01 0.607E-02   -.144E-03 -.619E-05 -.191E-04
   0.138E-01 0.299E+02 0.198E-01   -.149E-01 -.298E+02 -.174E-01   0.271E-04 -.597E-01 -.518E-02   0.473E-05 0.146E-03 0.602E-05
   -.491E-01 0.609E-01 0.300E+02   0.417E-01 -.618E-01 -.299E+02   0.130E-01 -.121E-01 -.109E+00   0.195E-04 0.433E-05 0.144E-03
   -.136E-01 -.654E-01 0.547E-01   0.130E-01 0.578E-01 -.480E-01   0.886E-02 0.229E-01 -.165E-01   -.476E-05 -.191E-04 -.677E-05
   -.128E+00 0.322E-02 -.752E-01   0.128E+00 -.550E-02 0.952E-01   0.484E-02 -.296E-02 -.177E-01   0.818E-05 -.139E-04 0.388E-04
   0.129E+00 0.741E-01 -.329E-02   -.147E+00 -.128E+00 -.110E-01   0.963E-02 0.517E-01 0.169E-01   -.352E-04 -.515E-04 -.217E-04
   -.454E-02 -.110E+00 0.792E-01   -.277E-02 0.139E+00 -.761E-01   0.985E-02 -.237E-01 -.100E-01   -.529E-05 0.530E-04 -.230E-04
   -.287E-01 0.863E-01 -.132E+00   0.215E-01 -.568E-01 0.147E+00   0.114E-01 -.361E-01 -.199E-02   0.384E-05 -.354E-06 0.429E-04
   -.584E-01 0.791E-01 0.629E-01   0.370E-01 -.130E+00 -.906E-01   0.224E-01 0.498E-01 0.241E-01   -.799E-05 -.416E-04 -.296E-04
   0.986E-01 0.424E-01 -.495E-01   -.915E-01 -.588E-01 0.695E-01   -.953E-02 0.392E-02 -.187E-01   -.222E-06 -.480E-04 0.327E-04
   0.153E+00 0.227E-01 0.317E-01   -.187E+00 -.679E-01 0.125E-02   0.144E-01 0.385E-01 -.342E-01   -.115E-03 -.648E-04 0.173E-04
 -----------------------------------------------------------------------------------------------
   -.133E+00 -.183E+00 0.848E-01   -.117E-14 0.401E-14 -.123E-13   0.157E+00 0.201E+00 -.111E+00   -.150E-03 -.166E-03 0.569E-04
 
 
 POSITION                                       TOTAL-FORCE (eV/Angst)
 -----------------------------------------------------------------------------------
      4.25898      4.25982      8.48595        -0.002316      0.020520     -0.009092
      6.38125      6.38569      8.47724         0.008643     -0.007168      0.015388
      2.13541      4.25460      6.36302        -0.000361      0.020273     -0.003968
      4.25819      6.38456      6.36157         0.026221      0.003475      0.004373
      4.25789      2.13783      6.36121        -0.010795      0.002154      0.006546
      6.38246      4.26756      6.36205        -0.002591     -0.000829     -0.001013
      2.13492      2.13954      4.24828         0.004078     -0.014177     -0.024274
      4.25814      4.26078      4.23906         0.006759      0.014010     -0.008038
      4.25903      4.26224      2.11451         0.002690     -0.006432      0.004186
      4.25982      2.13896      4.23763        -0.010176     -0.003211      0.004341
      6.38229      4.26190      4.23941         0.000977      0.003309     -0.005187
      2.13525      4.26283      4.23689         0.002680     -0.007712      0.015008
      4.25905      6.38567      4.23882        -0.000498     -0.002586     -0.001898
      4.25927      4.26354      6.36157        -0.004001     -0.013658      0.003074
      6.38487      6.38693      6.36163        -0.021311     -0.007967      0.000556
 -----------------------------------------------------------------------------------
    total drift:                                0.023414      0.017720     -0.026294


--------------------------------------------------------------------------------------------------------



  FREE ENERGIE OF THE ION-ELECTRON SYSTEM (eV)
  ---------------------------------------------------
  free  energy   TOTEN  =       -83.59666751 eV

  energy  without entropy=      -83.59666751  energy(sigma->0) =      -83.59666751
 


--------------------------------------------------------------------------------------------------------


    POTLOK:  cpu time    0.6960: real time    0.6978


--------------------------------------------------------------------------------------------------------




--------------------------------------------------------------------------------------------------------


  
 reached required accuracy - stopping structural energy minimisation
     LOOP+:  cpu time   17.2360: real time   17.3029
    4ORBIT:  cpu time    0.0000: real time    0.0000
 


 total charge     
 
# of ion     s       p       d       tot
----------------------------------------
  1        0.144   0.171   0.074   0.389
  2        0.153   0.169   0.068   0.390
  3        0.153   0.169   0.068   0.390
  4        0.153   0.169   0.067   0.389
  5        0.153   0.169   0.067   0.389
  6        0.153   0.169   0.068   0.390
  7        0.153   0.169   0.068   0.390
  8        0.144   0.170   0.074   0.389
  9        1.570   3.555   0.000   5.125
 10        1.570   3.555   0.000   5.125
 11        1.570   3.555   0.000   5.125
 12        1.570   3.555   0.000   5.125
 13        1.570   3.555   0.000   5.125
 14        1.570   3.555   0.000   5.125
 15        1.566   3.567   0.000   5.133
------------------------------------------------
tot       12.191  26.251   0.555  38.997
 


 magnetization (x)
 
# of ion     s       p       d       tot
----------------------------------------
  1        0.000  -0.000   0.000   0.000
  2        0.000   0.000   0.000   0.000
  3        0.000   0.000   0.000   0.000
  4        0.000   0.000   0.000   0.000
  5        0.000   0.000   0.000   0.000
  6        0.000   0.000   0.000   0.000
  7        0.000   0.000   0.000   0.000
  8        0.000  -0.000   0.000   0.000
  9       -0.000   0.000   0.000  -0.000
 10       -0.000   0.000   0.000  -0.000
 11       -0.000   0.000   0.000  -0.000
 12       -0.000   0.000   0.000  -0.000
 13       -0.000   0.000   0.000  -0.000
 14       -0.000   0.000   0.000  -0.000
 15       -0.000   0.000   0.000   0.000
------------------------------------------------
tot       -0.000   0.000   0.000   0.000
 

 total amount of memory used by VASP on root node    36062. kBytes
========================================================================

   base      :      30000. kBytes
   nonlr-proj:       1190. kBytes
   fftplans  :        708. kBytes
   grid      :       1766. kBytes
   one-center:         64. kBytes
   wavefun   :       2334. kBytes
 
  
  
 General timing and accounting informations for this job:
 ========================================================
  
                  Total CPU time used (sec):       18.368
                            User time (sec):       18.188
                          System time (sec):        0.180
                         Elapsed time (sec):       18.664
  
                   Maximum memory used (kb):       63896.
                   Average memory used (kb):           0.
  
                          Minor page faults:        18278
                          Major page faults:            8
                 Voluntary context switches:         1639
