 vasp.5.4.1 05Feb16 (build Mar 31 2016 13:39:20) complex                        
  
 executed on           IFC91_ompi date 2018.04.12  14:16:46
 running on   36 total cores
 distrk:  each k-point on   36 cores,    1 groups
 distr:  one band on NCORES_PER_BAND=   9 cores,    4 groups


--------------------------------------------------------------------------------------------------------


 INCAR:
 POTCAR:    PAW_PBE Mg 13Apr2007                  
 POTCAR:    PAW_PBE O 08Apr2002                   
 POTCAR:    PAW_PBE Mg 13Apr2007                  
   VRHFIN =Mg: s2p0                                                             
   LEXCH  = PE                                                                  
   EATOM  =    23.0369 eV,    1.6932 Ry                                         
                                                                                
   TITEL  = PAW_PBE Mg 13Apr2007                                                
   LULTRA =        F    use ultrasoft PP ?                                      
   IUNSCR =        1    unscreen: 0-lin 1-nonlin 2-no                           
   RPACOR =    1.500    partial core radius                                     
   POMASS =   24.305; ZVAL   =    2.000    mass and valenz                      
   RCORE  =    2.000    outmost cutoff radius                                   
   RWIGS  =    2.880; RWIGS  =    1.524    wigner-seitz radius (au A)           
   ENMAX  =  126.143; ENMIN  =   94.607 eV                                      
   RCLOC  =    1.506    cutoff for local pot                                    
   LCOR   =        T    correct aug charges                                     
   LPAW   =        T    paw PP                                                  
   EAUG   =  454.734                                                            
   DEXC   =    0.000                                                            
   RMAX   =    2.045    core radius for proj-oper                               
   RAUG   =    1.300    factor for augmentation sphere                          
   RDEP   =    2.025    radius for radial grids                                 
   RDEPT  =    1.942    core radius for aug-charge                              
                                                                                
   Atomic configuration                                                         
    6 entries                                                                   
     n  l   j            E        occ.                                          
     1  0  0.50     -1259.6230   2.0000                                         
     2  0  0.50       -79.8442   2.0000                                         
     2  1  1.50       -46.6121   6.0000                                         
     3  0  0.50        -4.7055   2.0000                                         
     3  1  0.50        -1.3660   0.0000                                         
     3  2  1.50        -1.3606   0.0000                                         
   Description                                                                  
     l       E           TYP  RCUT    TYP  RCUT                                 
     0     -4.7054661     23  2.000                                             
     0     27.2116520     23  2.000                                             
     1      1.3605826     23  2.000                                             
     1     27.2116520     23  2.000                                             
     2     -1.3605826     23  2.000                                             
  local pseudopotential read in
  partial core-charges read in
  partial kinetic energy density read in
  atomic valenz-charges read in
  non local Contribution for L=           0  read in
    real space projection operators read in
  non local Contribution for L=           0  read in
    real space projection operators read in
  non local Contribution for L=           1  read in
    real space projection operators read in
  non local Contribution for L=           1  read in
    real space projection operators read in
  non local Contribution for L=           2  read in
    real space projection operators read in
    PAW grid and wavefunctions read in
 
   number of l-projection  operators is LMAX  =           5
   number of lm-projection operators is LMMAX =          13
 
 POTCAR:    PAW_PBE O 08Apr2002                   
   VRHFIN =O: s2p4                                                              
   LEXCH  = PE                                                                  
   EATOM  =   432.3788 eV,   31.7789 Ry                                         
                                                                                
   TITEL  = PAW_PBE O 08Apr2002                                                 
   LULTRA =        F    use ultrasoft PP ?                                      
   IUNSCR =        1    unscreen: 0-lin 1-nonlin 2-no                           
   RPACOR =    1.200    partial core radius                                     
   POMASS =   16.000; ZVAL   =    6.000    mass and valenz                      
   RCORE  =    1.520    outmost cutoff radius                                   
   RWIGS  =    1.550; RWIGS  =    0.820    wigner-seitz radius (au A)           
   ENMAX  =  400.000; ENMIN  =  300.000 eV                                      
   ICORE  =        2    local potential                                         
   LCOR   =        T    correct aug charges                                     
   LPAW   =        T    paw PP                                                  
   EAUG   =  605.392                                                            
   DEXC   =    0.000                                                            
   RMAX   =    1.553    core radius for proj-oper                               
   RAUG   =    1.300    factor for augmentation sphere                          
   RDEP   =    1.550    radius for radial grids                                 
   RDEPT  =    1.329    core radius for aug-charge                              
                                                                                
   Atomic configuration                                                         
    4 entries                                                                   
     n  l   j            E        occ.                                          
     1  0  0.50      -514.6923   2.0000                                         
     2  0  0.50       -23.9615   2.0000                                         
     2  1  0.50        -9.0305   4.0000                                         
     3  2  1.50        -9.5241   0.0000                                         
   Description                                                                  
     l       E           TYP  RCUT    TYP  RCUT                                 
     0    -23.9615318     23  1.200                                             
     0     -9.5240782     23  1.200                                             
     1     -9.0304911     23  1.520                                             
     1      8.1634956     23  1.520                                             
     2     -9.5240782      7  1.500                                             
  local pseudopotential read in
  partial core-charges read in
  partial kinetic energy density read in
  kinetic energy density of atom read in
  atomic valenz-charges read in
  non local Contribution for L=           0  read in
    real space projection operators read in
  non local Contribution for L=           0  read in
    real space projection operators read in
  non local Contribution for L=           1  read in
    real space projection operators read in
  non local Contribution for L=           1  read in
    real space projection operators read in
    PAW grid and wavefunctions read in
 
   number of l-projection  operators is LMAX  =           4
   number of lm-projection operators is LMMAX =           8
 
 Optimization of the real space projectors (new method)

 maximal supplied QI-value         = 18.90
 optimisation between [QCUT,QGAM] = [ 10.20, 20.41] = [ 29.16,116.64] Ry 
 Optimized for a Real-space Cutoff    1.30 Angstroem

   l    n(q)    QCUT    max X(q) W(low)/X(q) W(high)/X(q)  e(spline) 
   0      8    10.205    28.265    0.22E-03    0.17E-03    0.53E-07
   0      8    10.205    10.429    0.17E-03    0.15E-03    0.43E-07
   1      7    10.205    13.073    0.71E-04    0.41E-03    0.76E-07
   1      7    10.205     9.625    0.71E-04    0.33E-03    0.63E-07
   2      7    10.205     4.652    0.24E-03    0.41E-03    0.55E-07
 Optimization of the real space projectors (new method)

 maximal supplied QI-value         = 24.76
 optimisation between [QCUT,QGAM] = [ 10.15, 20.30] = [ 28.85,115.39] Ry 
 Optimized for a Real-space Cutoff    1.38 Angstroem

   l    n(q)    QCUT    max X(q) W(low)/X(q) W(high)/X(q)  e(spline) 
   0      8    10.150    20.381    0.22E-03    0.32E-03    0.29E-06
   0      8    10.150    15.268    0.23E-03    0.35E-03    0.30E-06
   1      8    10.150     5.964    0.46E-03    0.53E-03    0.21E-06
   1      8    10.150     5.382    0.38E-03    0.45E-03    0.19E-06
  PAW_PBE Mg 13Apr2007                  :
 energy of atom  1       EATOM=  -23.0369
 kinetic energy error for atom=    0.0001 (will be added to EATOM!!)
  PAW_PBE O 08Apr2002                   :
 energy of atom  2       EATOM= -432.3788
 kinetic energy error for atom=    0.1156 (will be added to EATOM!!)
 
 
 POSCAR: Mg8 O7                                  
  positions in direct lattice
  velocities in cartesian coordinates
 exchange correlation table for  LEXCH =        8
   RHO(1)=    0.500       N(1)  =     2000
   RHO(2)=  100.500       N(2)  =     4000
 


--------------------------------------------------------------------------------------------------------


 ion  position               nearest neighbor table
   1  0.999  0.999  0.004-  13 2.12   9 2.12  12 2.12  11 2.12  14 2.12  10 2.13   7 3.00   4 3.00
                             2 3.00   3 3.00   6 3.00   5 3.00   5 3.00   6 3.00   3 3.00   2 3.00
   2  0.998  0.997  0.505-  15 2.11  10 2.12  12 2.12  11 2.12  13 2.12   3 2.99   6 2.99   4 3.00
                             5 3.00   8 3.00   1 3.00   1 3.00   8 3.00   5 3.01   4 3.01   6 3.01
   3  0.999  0.500  0.003-  15 2.11  11 2.12   9 2.12  14 2.12  12 2.13   2 2.99   7 2.99   5 3.00
                             4 3.00   1 3.00   8 3.00   8 3.00   1 3.00   4 3.01   5 3.01   7 3.02
   4  0.999  0.499  0.504-  14 2.12  13 2.12  10 2.12   9 2.12  15 2.13   7 2.99   2 3.00   6 3.00
                             3 3.00   1 3.00   8 3.00   8 3.00   1 3.00   3 3.01   6 3.01   2 3.01
   5  0.499  0.998  0.004-  15 2.12   9 2.12  10 2.12  13 2.12  14 2.13   7 2.99   6 3.00   3 3.00
                             2 3.00   8 3.00   1 3.00   1 3.00   8 3.00   2 3.01   3 3.01   6 3.01
   6  0.500  0.998  0.505-  15 2.12  12 2.12  11 2.12  14 2.12   9 2.12   7 2.99   2 2.99   5 3.00
                             4 3.00   8 3.00   1 3.00   1 3.00   8 3.00   4 3.01   5 3.01   2 3.01
   7  0.501  0.500  0.003-  15 2.11  13 2.12  12 2.12  11 2.12  10 2.13   3 2.99   6 2.99   5 2.99
                             4 2.99   1 3.00   8 3.00   8 3.00   1 3.01   4 3.01   5 3.01   6 3.01
   8  0.499  0.499  0.504-  10 2.12  14 2.12  12 2.12  11 2.12   9 2.12  13 2.12   7 3.00   2 3.00
                             5 3.00   4 3.00   6 3.00   3 3.00   3 3.00   6 3.00   4 3.00   5 3.00
   9  0.249  0.249  0.754-   5 2.12   1 2.12   3 2.12   6 2.12   8 2.12   4 2.12
  10  0.249  0.749  0.254-   2 2.12   8 2.12   4 2.12   5 2.12   7 2.13   1 2.13
  11  0.249  0.749  0.754-   6 2.12   3 2.12   2 2.12   1 2.12   8 2.12   7 2.12
  12  0.749  0.248  0.254-   6 2.12   2 2.12   8 2.12   1 2.12   7 2.12   3 2.13
  13  0.749  0.249  0.754-   1 2.12   7 2.12   4 2.12   5 2.12   8 2.12   2 2.12
  14  0.749  0.748  0.254-   4 2.12   8 2.12   6 2.12   3 2.12   1 2.12   5 2.13
  15  0.749  0.749  0.755-   7 2.11   3 2.11   2 2.11   6 2.12   5 2.12   4 2.13
 
  LATTYP: Found a face centered cubic cell.
 ALAT       =     8.4937860000
  
  Lattice vectors:
  
 A1 = (   0.0000000000,   4.2468930000,   4.2468930000)
 A2 = (   4.2468930000,   0.0000000000,   4.2468930000)
 A3 = (   4.2468930000,   4.2468930000,   0.0000000000)


Analysis of symmetry for initial positions (statically):
=====================================================================
 Subroutine PRICEL returns:
 Original cell was already a primitive cell.
 

 Routine SETGRP: Setting up the symmetry group for a 
 face centered cubic supercell.


 Subroutine GETGRP returns: Found  1 space group operations
 (whereof  1 operations were pure point group operations)
 out of a pool of 48 trial point group operations.


The static configuration has the point symmetry C_1 .


Analysis of symmetry for dynamics (positions and initial velocities):
=====================================================================
 Subroutine PRICEL returns:
 Original cell was already a primitive cell.
 

 Routine SETGRP: Setting up the symmetry group for a 
 face centered cubic supercell.


 Subroutine GETGRP returns: Found  1 space group operations
 (whereof  1 operations were pure point group operations)
 out of a pool of 48 trial point group operations.


The dynamic configuration has the point symmetry C_1 .


Analysis of structural, dynamic, and magnetic symmetry:
=====================================================================
 Subroutine PRICEL returns:
 Original cell was already a primitive cell.
 

 Routine SETGRP: Setting up the symmetry group for a 
 face centered cubic supercell.


 Subroutine GETGRP returns: Found  1 space group operations
 (whereof  1 operations were pure point group operations)
 out of a pool of 48 trial point group operations.


The magnetic configuration has the point symmetry C_1 .


 Subroutine INISYM returns: Found  1 space group operations
 (whereof  1 operations are pure point group operations),
 and found     1 'primitive' translations

 
 
 KPOINTS: k-point mesh                            

Automatic generation of k-mesh.
Space group operators:
 irot       det(A)        alpha          n_x          n_y          n_z        tau_x        tau_y        tau_z
    1     1.000000     0.000000     1.000000     0.000000     0.000000     0.000000     0.000000     0.000000
 
 Subroutine IBZKPT returns following result:
 ===========================================
 
 Found     16 irreducible k-points:
 
 Following reciprocal coordinates:
            Coordinates               Weight
  0.250000  0.250000  0.250000     24.000000
  0.250000  0.000000  0.000000     24.000000
  0.000000  0.000000 -0.250000     24.000000
  0.000000  0.250000  0.000000     24.000000
 -0.250000  0.250000  0.250000     24.000000
  0.250000 -0.250000  0.250000     24.000000
  0.250000  0.250000 -0.250000     24.000000
  0.250000  0.000000  0.500000     24.000000
 -0.250000  0.500000  0.500000     24.000000
  0.250000  0.500000  0.000000     24.000000
  0.000000  0.500000 -0.250000     24.000000
  0.500000  0.000000 -0.250000     24.000000
  0.500000  0.500000  0.250000     24.000000
  0.500000 -0.250000  0.500000     24.000000
  0.000000  0.250000  0.500000     24.000000
  0.500000  0.250000  0.000000     24.000000
 
 Following cartesian coordinates:
            Coordinates               Weight
  0.029433  0.029433  0.029433     24.000000
 -0.029433  0.029433  0.029433     24.000000
 -0.029433 -0.029433  0.029433     24.000000
  0.029433 -0.029433  0.029433     24.000000
  0.088300 -0.029433 -0.029433     24.000000
 -0.029433  0.088300 -0.029433     24.000000
 -0.029433 -0.029433  0.088300     24.000000
  0.029433  0.088300 -0.029433     24.000000
  0.147166 -0.029433 -0.029433     24.000000
  0.029433 -0.029433  0.088300     24.000000
  0.029433 -0.088300  0.088300     24.000000
 -0.088300  0.029433  0.088300     24.000000
  0.029433  0.029433  0.088300     24.000000
 -0.029433  0.147166 -0.029433     24.000000
  0.088300  0.029433 -0.029433     24.000000
 -0.029433  0.029433  0.088300     24.000000
 


--------------------------------------------------------------------------------------------------------




 Dimension of arrays:
   k-points           NKPTS =     16   k-points in BZ     NKDIM =     16   number of bands    NBANDS=     48
   number of dos      NEDOS =    301   number of ions     NIONS =     15
   non local maximal  LDIM  =      5   non local SUM 2l+1 LMDIM =     13
   total plane-waves  NPLWV =  27000
   max r-space proj   IRMAX =   1992   max aug-charges    IRDMAX=   7686
   dimension x,y,z NGX =    30 NGY =   30 NGZ =   30
   dimension x,y,z NGXF=    60 NGYF=   60 NGZF=   60
   support grid    NGXF=    60 NGYF=   60 NGZF=   60
   ions per type =               8   7
 NGX,Y,Z   is equivalent  to a cutoff of   8.30,  8.30,  8.30 a.u.
 NGXF,Y,Z  is equivalent  to a cutoff of  16.61, 16.61, 16.61 a.u.


 I would recommend the setting:
   dimension x,y,z NGX =    29 NGY =   29 NGZ =   29
 SYSTEM =  unknown system                          
 POSCAR =  Mg8 O7                                  

 Startparameter for this run:
   NWRITE =      2    write-flag & timer
   PREC   = n         normal or accurate (medium, high low for compatibility)
   ISTART =      0    job   : 0-new  1-cont  2-samecut
   ICHARG =      2    charge: 1-file 2-atom 10-const
   ISPIN  =      2    spin polarized calculation?
   LNONCOLLINEAR =      F non collinear calculations
   LSORBIT =      F    spin-orbit coupling
   INIWAV =      1    electr: 0-lowe 1-rand  2-diag
   LASPH  =      T    aspherical Exc in radial PAW
   METAGGA=      F    non-selfconsistent MetaGGA calc.

 Electronic Relaxation 1
   ENCUT  =  400.0 eV  29.40 Ry    5.42 a.u.   9.79  9.79  9.79*2*pi/ulx,y,z
   ENINI  =  400.0     initial cutoff
   ENAUG  =  605.4 eV  augmentation charge cutoff
   NELM   =    100;   NELMIN=  4; NELMDL=  0     # of ELM steps 
   EDIFF  = 0.1E-05   stopping-criterion for ELM
   LREAL  =      T    real-space projection
   NLSPLINE    = F    spline interpolate recip. space projectors
   LCOMPAT=      F    compatible to vasp.4.4
   GGA_COMPAT  = T    GGA compatible to vasp.4.4-vasp.4.6
   LMAXPAW     = -100 max onsite density
   LMAXMIX     =    2 max onsite mixed and CHGCAR
   VOSKOWN=      0    Vosko Wilk Nusair interpolation
   ROPT   =   -0.00050  -0.00050
 Ionic relaxation
   EDIFFG = -.5E-01   stopping-criterion for IOM
   NSW    =     20    number of steps for IOM
   NBLOCK =      1;   KBLOCK =     20    inner block; outer block 
   IBRION =      2    ionic relax: 0-MD 1-quasi-New 2-CG
   NFREE  =      1    steps in history (QN), initial steepest desc. (CG)
   ISIF   =      2    stress and relaxation
   IWAVPR =     11    prediction:  0-non 1-charg 2-wave 3-comb
   ISYM   =      2    0-nonsym 1-usesym 2-fastsym
   LCORR  =      T    Harris-Foulkes like correction to forces

   POTIM  = 0.5000    time-step for ionic-motion
   TEIN   =    0.0    initial temperature
   TEBEG  =    0.0;   TEEND  =   0.0 temperature during run
   SMASS  =  -3.00    Nose mass-parameter (am)
   estimated Nose-frequenzy (Omega)   =  0.10E-29 period in steps =****** mass=  -0.824E-27a.u.
   SCALEE = 1.0000    scale energy and forces
   NPACO  =    256;   APACO  = 16.0  distance and # of slots for P.C.
   PSTRESS=    0.0 pullay stress

  Mass of Ions in am
   POMASS =  24.30 16.00
  Ionic Valenz
   ZVAL   =   2.00  6.00
  Atomic Wigner-Seitz radii
   RWIGS  =  -1.00 -1.00
  virtual crystal weights 
   VCA    =   1.00  1.00
   NELECT =      58.0000    total number of electrons
   NUPDOWN=      -1.0000    fix difference up-down

 DOS related values:
   EMIN   =  10.00;   EMAX   =-10.00  energy-range for DOS
   EFERMI =   0.00
   ISMEAR =     0;   SIGMA  =   0.05  broadening in eV -4-tet -1-fermi 0-gaus

 Electronic relaxation 2 (details)
   IALGO  =     38    algorithm
   LDIAG  =      T    sub-space diagonalisation (order eigenvalues)
   LSUBROT=      F    optimize rotation matrix (better conditioning)
   TURBO    =      0    0=normal 1=particle mesh
   IRESTART =      0    0=no restart 2=restart with 2 vectors
   NREBOOT  =      0    no. of reboots
   NMIN     =      0    reboot dimension
   EREF     =   0.00    reference energy to select bands
   IMIX   =      4    mixing-type and parameters
     AMIX     =   0.40;   BMIX     =  1.00
     AMIX_MAG =   1.60;   BMIX_MAG =  1.00
     AMIN     =   0.10
     WC   =   100.;   INIMIX=   1;  MIXPRE=   1;  MAXMIX= -45

 Intra band minimization:
   WEIMIN = 0.0010     energy-eigenvalue tresh-hold
   EBREAK =  0.52E-08  absolut break condition
   DEPER  =   0.30     relativ break condition  

   TIME   =   0.40     timestep for ELM

  volume/ion in A,a.u.               =      10.21        68.92
  Fermi-wavevector in a.u.,A,eV,Ry     =   1.184321  2.238043 19.083760  1.402617
  Thomas-Fermi vector in A             =   2.320538
 
 Write flags
   LWAVE  =      F    write WAVECAR
   LCHARG =      F    write CHGCAR
   LVTOT  =      F    write LOCPOT, total local potential
   LVHAR  =      F    write LOCPOT, Hartree potential only
   LELF   =      F    write electronic localiz. function (ELF)
   LORBIT =     12    0 simple, 1 ext, 2 COOP (PROOUT)


 Dipole corrections
   LMONO  =      F    monopole corrections only (constant potential shift)
   LDIPOL =      F    correct potential (dipole corrections)
   IDIPOL =      0    1-x, 2-y, 3-z, 4-all directions 
   EPSILON=  1.0000000 bulk dielectric constant

 Exchange correlation treatment:
   GGA     =    --    GGA type
   LEXCH   =     8    internal setting for exchange type
   VOSKOWN=      0    Vosko Wilk Nusair interpolation
   LHFCALC =     F    Hartree Fock is set to
   LHFONE  =     F    Hartree Fock one center treatment
   AEXX    =    0.0000 exact exchange contribution

 Linear response parameters
   LEPSILON=     F    determine dielectric tensor
   LRPA    =     F    only Hartree local field effects (RPA)
   LNABLA  =     F    use nabla operator in PAW spheres
   LVEL    =     F    velocity operator in full k-point grid
   LINTERFAST=   F  fast interpolation
   KINTER  =     0    interpolate to denser k-point grid
   CSHIFT  =0.1000    complex shift for real part using Kramers Kronig
   OMEGAMAX=  -1.0    maximum frequency
   DEG_THRESHOLD= 0.2000000E-02 threshold for treating states as degnerate
   RTIME   =    0.100 relaxation time in fs

 Orbital magnetization related:
   ORBITALMAG=     F  switch on orbital magnetization
   LCHIMAG   =     F  perturbation theory with respect to B field
   DQ        =  0.001000  dq finite difference perturbation B field



--------------------------------------------------------------------------------------------------------


 conjugate gradient relaxation of ions
 charge density and potential will be updated during run
 spin polarized calculation
 Variant of blocked Davidson
 Davidson routine will perform the subspace rotation
 perform sub-space diagonalisation
    after iterative eigenvector-optimisation
 modified Broyden-mixing scheme, WC =      100.0
 initial mixing is a Kerker type mixing with AMIX =  0.4000 and BMIX =      1.0000
 Hartree-type preconditioning will be used
 using additional bands           19
 real space projection scheme for non local part
 use partial core corrections
 calculate Harris-corrections to forces 
   (improved forces if not selfconsistent)
 use gradient corrections 
 use of overlap-Matrix (Vanderbilt PP)
 Gauss-broadening in eV      SIGMA  =   0.05


--------------------------------------------------------------------------------------------------------


  energy-cutoff  :      400.00
  volume of cell :      153.19
      direct lattice vectors                 reciprocal lattice vectors
     0.000000000  4.246893000  4.246893000    -0.117733129  0.117733129  0.117733129
     4.246893000  0.000000000  4.246893000     0.117733129 -0.117733129  0.117733129
     4.246893000  4.246893000  0.000000000     0.117733129  0.117733129 -0.117733129

  length of vectors
     6.006013679  6.006013679  6.006013679     0.203919761  0.203919761  0.203919761


 
 k-points in units of 2pi/SCALE and weight: k-point mesh                            
   0.02943328  0.02943328  0.02943328       0.062
  -0.02943328  0.02943328  0.02943328       0.062
  -0.02943328 -0.02943328  0.02943328       0.062
   0.02943328 -0.02943328  0.02943328       0.062
   0.08829985 -0.02943328 -0.02943328       0.062
  -0.02943328  0.08829985 -0.02943328       0.062
  -0.02943328 -0.02943328  0.08829985       0.062
   0.02943328  0.08829985 -0.02943328       0.062
   0.14716641 -0.02943328 -0.02943328       0.062
   0.02943328 -0.02943328  0.08829985       0.062
   0.02943328 -0.08829985  0.08829985       0.062
  -0.08829985  0.02943328  0.08829985       0.062
   0.02943328  0.02943328  0.08829985       0.062
  -0.02943328  0.14716641 -0.02943328       0.062
   0.08829985  0.02943328 -0.02943328       0.062
  -0.02943328  0.02943328  0.08829985       0.062
 
 k-points in reciprocal lattice and weights: k-point mesh                            
   0.25000000  0.25000000  0.25000000       0.062
   0.25000000  0.00000000  0.00000000       0.062
   0.00000000  0.00000000 -0.25000000       0.062
   0.00000000  0.25000000  0.00000000       0.062
  -0.25000000  0.25000000  0.25000000       0.062
   0.25000000 -0.25000000  0.25000000       0.062
   0.25000000  0.25000000 -0.25000000       0.062
   0.25000000  0.00000000  0.50000000       0.062
  -0.25000000  0.50000000  0.50000000       0.062
   0.25000000  0.50000000  0.00000000       0.062
   0.00000000  0.50000000 -0.25000000       0.062
   0.50000000  0.00000000 -0.25000000       0.062
   0.50000000  0.50000000  0.25000000       0.062
   0.50000000 -0.25000000  0.50000000       0.062
   0.00000000  0.25000000  0.50000000       0.062
   0.50000000  0.25000000  0.00000000       0.062
 
 position of ions in fractional coordinates (direct lattice) 
   0.99916745  0.99897072  0.00389341
   0.99847737  0.99743840  0.50509743
   0.99857193  0.49979150  0.00302468
   0.99916242  0.49877230  0.50411672
   0.49944197  0.99840302  0.00387684
   0.50014641  0.99791892  0.50494595
   0.50081388  0.49971936  0.00297904
   0.49941029  0.49873398  0.50389079
   0.24931087  0.24857217  0.75431329
   0.24920788  0.74859452  0.25446281
   0.24947754  0.74874569  0.75408360
   0.74930800  0.24833509  0.25445550
   0.74941565  0.24866955  0.75420728
   0.74946071  0.74846339  0.25446505
   0.74921064  0.74871540  0.75472160
 
 position of ions in cartesian coordinates  (Angst):
   4.25905668  4.25989215  8.48587900
   6.38110892  6.38552129  8.47644072
   2.13540649  4.25367361  6.36338915
   4.25916237  6.38426568  6.36156849
   4.25657531  2.13754113  6.36118737
   6.38250628  4.26851971  6.36212318
   2.13490629  2.13955459  4.24915759
   4.25804013  4.26091234  4.23901189
   4.25914724  4.26228444  2.11445601
   4.25987715  2.13903553  4.23756003
   6.38235520  4.26201678  4.23934723
   2.13529782  4.26287618  4.23688343
   4.25911060  6.38572571  4.23876104
   4.25932977  4.26356529  6.36152339
   6.38493607  6.38703929  6.36153162
 


--------------------------------------------------------------------------------------------------------


 k-point  1 :   0.2500 0.2500 0.2500  plane waves:    2782
 k-point  2 :   0.2500 0.0000 0.0000  plane waves:    2782
 k-point  3 :   0.0000 0.0000-0.2500  plane waves:    2782
 k-point  4 :   0.0000 0.2500 0.0000  plane waves:    2782
 k-point  5 :  -0.2500 0.2500 0.2500  plane waves:    2788
 k-point  6 :   0.2500-0.2500 0.2500  plane waves:    2788
 k-point  7 :   0.2500 0.2500-0.2500  plane waves:    2788
 k-point  8 :   0.2500 0.0000 0.5000  plane waves:    2788
 k-point  9 :  -0.2500 0.5000 0.5000  plane waves:    2788
 k-point 10 :   0.2500 0.5000 0.0000  plane waves:    2788
 k-point 11 :   0.0000 0.5000-0.2500  plane waves:    2788
 k-point 12 :   0.5000 0.0000-0.2500  plane waves:    2788
 k-point 13 :   0.5000 0.5000 0.2500  plane waves:    2788
 k-point 14 :   0.5000-0.2500 0.5000  plane waves:    2788
 k-point 15 :   0.0000 0.2500 0.5000  plane waves:    2788
 k-point 16 :   0.5000 0.2500 0.0000  plane waves:    2788

 maximum and minimum number of plane-waves per node :       326      286

 maximum number of plane-waves:      2788
 maximum index in each direction: 
   IXMAX=   10   IYMAX=   10   IZMAX=   10
   IXMIN=  -10   IYMIN=  -10   IZMIN=  -10

 WARNING: aliasing errors must be expected set NGX to  42 to avoid them
 WARNING: aliasing errors must be expected set NGY to  42 to avoid them
 WARNING: aliasing errors must be expected set NGZ to  42 to avoid them
 aliasing errors are usually negligible using standard VASP settings
 and one can safely disregard these warnings

 real space projection operators:
  total allocation   :       2087.60 KBytes
  max/ min on nodes  :        297.77        191.30


 parallel 3D FFT for wavefunctions:
    minimum data exchange during FFTs selected (reduces bandwidth)
 parallel 3D FFT for charge:
    minimum data exchange during FFTs selected (reduces bandwidth)


 total amount of memory used by VASP on root node    34216. kBytes
========================================================================

   base      :      30000. kBytes
   nonlr-proj:        860. kBytes
   fftplans  :        353. kBytes
   grid      :        883. kBytes
   one-center:         32. kBytes
   wavefun   :       2088. kBytes
 
     INWAV:  cpu time    0.0000: real time    0.0003
 Broyden mixing: mesh for mixing (old mesh)
   NGX = 19   NGY = 19   NGZ = 19
  (NGX  = 60   NGY  = 60   NGZ  = 60)
  gives a total of   6859 points

 initial charge density was supplied:
 charge density of overlapping atoms calculated
 number of electron      58.0000000 magnetization      15.0000000
 keeping initial charge density in first step


--------------------------------------------------------------------------------------------------------


 Maximum index for non-local projection operator          276
 Maximum index for augmentation-charges          422 (set IRDMAX)


--------------------------------------------------------------------------------------------------------


 First call to EWALD:  gamma=   0.331
 Maximum number of real-space cells 3x 3x 3
 Maximum number of reciprocal cells 3x 3x 3

 FEWALD executed in parallel
    FEWALD:  cpu time    0.0000: real time    0.0013


----------------------------------------- Iteration    1(   1)  ---------------------------------------


    POTLOK:  cpu time    0.0080: real time    0.0105
    SETDIJ:  cpu time    0.3600: real time    0.3624
     EDDAV:  cpu time    0.7000: real time    0.6990
       DOS:  cpu time    0.0000: real time    0.0010
    --------------------------------------------
      LOOP:  cpu time    1.0720: real time    1.0754

 eigenvalue-minimisations  :  3272
 total energy-change (2. order) : 0.2225486E+03  (-0.2422386E+04)
 number of electron      58.0000000 magnetization      15.0000000
 augmentation part       58.0000000 magnetization      15.0000000

 Free energy of the ion-electron system (eV)
  ---------------------------------------------------
  alpha Z        PSCENC =       129.53385374
  Ewald energy   TEWEN  =     -2376.84970758
  -Hartree energ DENC   =      -970.87183897
  -exchange      EXHF   =         0.00000000
  -V(xc)+E(xc)   XCENC  =      -189.68060472
  PAW double counting   =      2946.27252624    -2543.92834819
  entropy T*S    EENTRO =        -0.00251427
  eigenvalues    EBANDS =        17.93865189
  atomic energy  EATOM  =      3210.13655998
  Solvation  Ediel_sol  =         0.00000000
  ---------------------------------------------------
  free energy    TOTEN  =       222.54857812 eV

  energy without entropy =      222.55109239  energy(sigma->0) =      222.54983526


--------------------------------------------------------------------------------------------------------




----------------------------------------- Iteration    1(   2)  ---------------------------------------


     EDDAV:  cpu time    0.7240: real time    0.7224
       DOS:  cpu time    0.0000: real time    0.0004
    --------------------------------------------
      LOOP:  cpu time    0.7240: real time    0.7291

 eigenvalue-minimisations  :  3816
 total energy-change (2. order) :-0.2950759E+03  (-0.2859531E+03)
 number of electron      58.0000000 magnetization      15.0000000
 augmentation part       58.0000000 magnetization      15.0000000

 Free energy of the ion-electron system (eV)
  ---------------------------------------------------
  alpha Z        PSCENC =       129.53385374
  Ewald energy   TEWEN  =     -2376.84970758
  -Hartree energ DENC   =      -970.87183897
  -exchange      EXHF   =         0.00000000
  -V(xc)+E(xc)   XCENC  =      -189.68060472
  PAW double counting   =      2946.27252624    -2543.92834819
  entropy T*S    EENTRO =        -0.00000000
  eigenvalues    EBANDS =      -277.13980827
  atomic energy  EATOM  =      3210.13655998
  Solvation  Ediel_sol  =         0.00000000
  ---------------------------------------------------
  free energy    TOTEN  =       -72.52736777 eV

  energy without entropy =      -72.52736777  energy(sigma->0) =      -72.52736777


--------------------------------------------------------------------------------------------------------




----------------------------------------- Iteration    1(   3)  ---------------------------------------


     EDDAV:  cpu time    0.7320: real time    0.7326
       DOS:  cpu time    0.0000: real time    0.0004
    --------------------------------------------
      LOOP:  cpu time    0.7320: real time    0.7359

 eigenvalue-minimisations  :  3768
 total energy-change (2. order) :-0.1653869E+02  (-0.1645173E+02)
 number of electron      58.0000000 magnetization      15.0000000
 augmentation part       58.0000000 magnetization      15.0000000

 Free energy of the ion-electron system (eV)
  ---------------------------------------------------
  alpha Z        PSCENC =       129.53385374
  Ewald energy   TEWEN  =     -2376.84970758
  -Hartree energ DENC   =      -970.87183897
  -exchange      EXHF   =         0.00000000
  -V(xc)+E(xc)   XCENC  =      -189.68060472
  PAW double counting   =      2946.27252624    -2543.92834819
  entropy T*S    EENTRO =        -0.00000000
  eigenvalues    EBANDS =      -293.67849498
  atomic energy  EATOM  =      3210.13655998
  Solvation  Ediel_sol  =         0.00000000
  ---------------------------------------------------
  free energy    TOTEN  =       -89.06605448 eV

  energy without entropy =      -89.06605448  energy(sigma->0) =      -89.06605448


--------------------------------------------------------------------------------------------------------




----------------------------------------- Iteration    1(   4)  ---------------------------------------


     EDDAV:  cpu time    0.6840: real time    0.6858
       DOS:  cpu time    0.0000: real time    0.0004
    --------------------------------------------
      LOOP:  cpu time    0.6840: real time    0.6890

 eigenvalue-minimisations  :  3568
 total energy-change (2. order) :-0.9631352E-01  (-0.9626400E-01)
 number of electron      58.0000000 magnetization      15.0000000
 augmentation part       58.0000000 magnetization      15.0000000

 Free energy of the ion-electron system (eV)
  ---------------------------------------------------
  alpha Z        PSCENC =       129.53385374
  Ewald energy   TEWEN  =     -2376.84970758
  -Hartree energ DENC   =      -970.87183897
  -exchange      EXHF   =         0.00000000
  -V(xc)+E(xc)   XCENC  =      -189.68060472
  PAW double counting   =      2946.27252624    -2543.92834819
  entropy T*S    EENTRO =        -0.00000000
  eigenvalues    EBANDS =      -293.77480851
  atomic energy  EATOM  =      3210.13655998
  Solvation  Ediel_sol  =         0.00000000
  ---------------------------------------------------
  free energy    TOTEN  =       -89.16236800 eV

  energy without entropy =      -89.16236800  energy(sigma->0) =      -89.16236800


--------------------------------------------------------------------------------------------------------




----------------------------------------- Iteration    1(   5)  ---------------------------------------


     EDDAV:  cpu time    0.7000: real time    0.6994
       DOS:  cpu time    0.0000: real time    0.0004
    CHARGE:  cpu time    0.0200: real time    0.0174
    MIXING:  cpu time    0.0000: real time    0.0003
    --------------------------------------------
      LOOP:  cpu time    0.7200: real time    0.7205

 eigenvalue-minimisations  :  3704
 total energy-change (2. order) :-0.4731019E-03  (-0.4730817E-03)
 number of electron      57.9999880 magnetization       0.0852594
 augmentation part        5.5944978 magnetization       0.1392681

 Broyden mixing:
  rms(total) = 0.27329E+01    rms(broyden)= 0.27322E+01
  rms(prec ) = 0.45654E+01
  weight for this iteration     100.00

 Free energy of the ion-electron system (eV)
  ---------------------------------------------------
  alpha Z        PSCENC =       129.53385374
  Ewald energy   TEWEN  =     -2376.84970758
  -Hartree energ DENC   =      -970.87183897
  -exchange      EXHF   =         0.00000000
  -V(xc)+E(xc)   XCENC  =      -189.68060472
  PAW double counting   =      2946.27252624    -2543.92834819
  entropy T*S    EENTRO =        -0.00000000
  eigenvalues    EBANDS =      -293.77528161
  atomic energy  EATOM  =      3210.13655998
  Solvation  Ediel_sol  =         0.00000000
  ---------------------------------------------------
  free energy    TOTEN  =       -89.16284110 eV

  energy without entropy =      -89.16284110  energy(sigma->0) =      -89.16284110


--------------------------------------------------------------------------------------------------------




----------------------------------------- Iteration    1(   6)  ---------------------------------------


    POTLOK:  cpu time    0.0080: real time    0.0093
    SETDIJ:  cpu time    0.3560: real time    0.3563
     EDDAV:  cpu time    0.6240: real time    0.6268
       DOS:  cpu time    0.0040: real time    0.0004
    CHARGE:  cpu time    0.0160: real time    0.0173
    MIXING:  cpu time    0.0000: real time    0.0003
    --------------------------------------------
      LOOP:  cpu time    1.0080: real time    1.0136

 eigenvalue-minimisations  :  3208
 total energy-change (2. order) : 0.5453702E+01  (-0.3870618E+01)
 number of electron      57.9999903 magnetization       0.0073065
 augmentation part        4.5870407 magnetization      -0.1019734

 Broyden mixing:
  rms(total) = 0.76261E+00    rms(broyden)= 0.76112E+00
  rms(prec ) = 0.10366E+01
  weight for this iteration     100.00

 eigenvalues of (default mixing * dielectric matrix)
  average eigenvalue GAMMA=   0.8280
  0.8280

 Free energy of the ion-electron system (eV)
  ---------------------------------------------------
  alpha Z        PSCENC =       129.53385374
  Ewald energy   TEWEN  =     -2376.84970758
  -Hartree energ DENC   =     -1107.65792636
  -exchange      EXHF   =         0.00000000
  -V(xc)+E(xc)   XCENC  =      -182.85219077
  PAW double counting   =      3489.60744729    -3089.56457504
  entropy T*S    EENTRO =        -0.00000000
  eigenvalues    EBANDS =      -156.06260086
  atomic energy  EATOM  =      3210.13655998
  Solvation  Ediel_sol  =         0.00000000
  ---------------------------------------------------
  free energy    TOTEN  =       -83.70913960 eV

  energy without entropy =      -83.70913960  energy(sigma->0) =      -83.70913960


--------------------------------------------------------------------------------------------------------




----------------------------------------- Iteration    1(   7)  ---------------------------------------


    POTLOK:  cpu time    0.0080: real time    0.0084
    SETDIJ:  cpu time    0.3600: real time    0.3590
     EDDAV:  cpu time    0.6840: real time    0.6841
       DOS:  cpu time    0.0000: real time    0.0004
    CHARGE:  cpu time    0.0160: real time    0.0174
    MIXING:  cpu time    0.0000: real time    0.0006
    --------------------------------------------
      LOOP:  cpu time    1.0680: real time    1.0727

 eigenvalue-minimisations  :  3560
 total energy-change (2. order) :-0.1659972E+00  (-0.1235675E+00)
 number of electron      57.9999903 magnetization      -0.0036818
 augmentation part        4.6074286 magnetization      -0.0165562

 Broyden mixing:
  rms(total) = 0.39093E+00    rms(broyden)= 0.39087E+00
  rms(prec ) = 0.60587E+00
  weight for this iteration     100.00

 eigenvalues of (default mixing * dielectric matrix)
  average eigenvalue GAMMA=   0.9734
  0.9734  0.9734

 Free energy of the ion-electron system (eV)
  ---------------------------------------------------
  alpha Z        PSCENC =       129.53385374
  Ewald energy   TEWEN  =     -2376.84970758
  -Hartree energ DENC   =     -1105.66860161
  -exchange      EXHF   =         0.00000000
  -V(xc)+E(xc)   XCENC  =      -182.84627260
  PAW double counting   =      3657.06759703    -3256.72423645
  entropy T*S    EENTRO =        -0.00000000
  eigenvalues    EBANDS =      -158.52432933
  atomic energy  EATOM  =      3210.13655998
  Solvation  Ediel_sol  =         0.00000000
  ---------------------------------------------------
  free energy    TOTEN  =       -83.87513682 eV

  energy without entropy =      -83.87513682  energy(sigma->0) =      -83.87513682


--------------------------------------------------------------------------------------------------------




----------------------------------------- Iteration    1(   8)  ---------------------------------------


    POTLOK:  cpu time    0.0080: real time    0.0088
    SETDIJ:  cpu time    0.3600: real time    0.3623
     EDDAV:  cpu time    0.7000: real time    0.6977
       DOS:  cpu time    0.0000: real time    0.0004
    CHARGE:  cpu time    0.0160: real time    0.0170
    MIXING:  cpu time    0.0000: real time    0.0003
    --------------------------------------------
      LOOP:  cpu time    1.0880: real time    1.0892

 eigenvalue-minimisations  :  3680
 total energy-change (2. order) : 0.6839931E-01  (-0.1573947E-01)
 number of electron      57.9999902 magnetization      -0.0029140
 augmentation part        4.6351262 magnetization      -0.0032251

 Broyden mixing:
  rms(total) = 0.13980E+00    rms(broyden)= 0.13979E+00
  rms(prec ) = 0.21721E+00
  weight for this iteration     100.00

 eigenvalues of (default mixing * dielectric matrix)
  average eigenvalue GAMMA=   1.2685
  2.0971  0.8862  0.8222

 Free energy of the ion-electron system (eV)
  ---------------------------------------------------
  alpha Z        PSCENC =       129.53385374
  Ewald energy   TEWEN  =     -2376.84970758
  -Hartree energ DENC   =     -1109.30665284
  -exchange      EXHF   =         0.00000000
  -V(xc)+E(xc)   XCENC  =      -182.16246424
  PAW double counting   =      3875.64143800    -3475.05619003
  entropy T*S    EENTRO =        -0.00000000
  eigenvalues    EBANDS =      -155.74357454
  atomic energy  EATOM  =      3210.13655998
  Solvation  Ediel_sol  =         0.00000000
  ---------------------------------------------------
  free energy    TOTEN  =       -83.80673751 eV

  energy without entropy =      -83.80673751  energy(sigma->0) =      -83.80673751


--------------------------------------------------------------------------------------------------------




----------------------------------------- Iteration    1(   9)  ---------------------------------------


    POTLOK:  cpu time    0.0080: real time    0.0086
    SETDIJ:  cpu time    0.3600: real time    0.3589
     EDDAV:  cpu time    0.7040: real time    0.7034
       DOS:  cpu time    0.0000: real time    0.0004
    CHARGE:  cpu time    0.0160: real time    0.0168
    MIXING:  cpu time    0.0000: real time    0.0003
    --------------------------------------------
      LOOP:  cpu time    1.0880: real time    1.0914

 eigenvalue-minimisations  :  3744
 total energy-change (2. order) : 0.1639012E-02  (-0.3633051E-02)
 number of electron      57.9999902 magnetization      -0.0007187
 augmentation part        4.6260090 magnetization       0.0016165

 Broyden mixing:
  rms(total) = 0.46261E-01    rms(broyden)= 0.46256E-01
  rms(prec ) = 0.54363E-01
  weight for this iteration     100.00

 eigenvalues of (default mixing * dielectric matrix)
  average eigenvalue GAMMA=   1.2471
  2.4293  0.9533  0.9533  0.6524

 Free energy of the ion-electron system (eV)
  ---------------------------------------------------
  alpha Z        PSCENC =       129.53385374
  Ewald energy   TEWEN  =     -2376.84970758
  -Hartree energ DENC   =     -1114.21557081
  -exchange      EXHF   =         0.00000000
  -V(xc)+E(xc)   XCENC  =      -181.58086178
  PAW double counting   =      3974.49914898    -3573.86996352
  entropy T*S    EENTRO =        -0.00000000
  eigenvalues    EBANDS =      -151.45855750
  atomic energy  EATOM  =      3210.13655998
  Solvation  Ediel_sol  =         0.00000000
  ---------------------------------------------------
  free energy    TOTEN  =       -83.80509849 eV

  energy without entropy =      -83.80509849  energy(sigma->0) =      -83.80509849


--------------------------------------------------------------------------------------------------------




----------------------------------------- Iteration    1(  10)  ---------------------------------------


    POTLOK:  cpu time    0.0080: real time    0.0080
    SETDIJ:  cpu time    0.3600: real time    0.3596
     EDDAV:  cpu time    0.7040: real time    0.7040
       DOS:  cpu time    0.0000: real time    0.0005
    CHARGE:  cpu time    0.0160: real time    0.0173
    MIXING:  cpu time    0.0040: real time    0.0004
    --------------------------------------------
      LOOP:  cpu time    1.0920: real time    1.0927

 eigenvalue-minimisations  :  3664
 total energy-change (2. order) : 0.7957583E-03  (-0.3529723E-03)
 number of electron      57.9999902 magnetization       0.0003273
 augmentation part        4.6196938 magnetization       0.0015591

 Broyden mixing:
  rms(total) = 0.14267E-01    rms(broyden)= 0.14262E-01
  rms(prec ) = 0.20445E-01
  weight for this iteration     100.00

 eigenvalues of (default mixing * dielectric matrix)
  average eigenvalue GAMMA=   1.2080
  2.5107  1.1107  0.9167  0.8630  0.6391

 Free energy of the ion-electron system (eV)
  ---------------------------------------------------
  alpha Z        PSCENC =       129.53385374
  Ewald energy   TEWEN  =     -2376.84970758
  -Hartree energ DENC   =     -1114.90541008
  -exchange      EXHF   =         0.00000000
  -V(xc)+E(xc)   XCENC  =      -181.51599115
  PAW double counting   =      3966.03695886    -3565.42960716
  entropy T*S    EENTRO =        -0.00000000
  eigenvalues    EBANDS =      -150.81095935
  atomic energy  EATOM  =      3210.13655998
  Solvation  Ediel_sol  =         0.00000000
  ---------------------------------------------------
  free energy    TOTEN  =       -83.80430274 eV

  energy without entropy =      -83.80430274  energy(sigma->0) =      -83.80430274


--------------------------------------------------------------------------------------------------------




----------------------------------------- Iteration    1(  11)  ---------------------------------------


    POTLOK:  cpu time    0.0080: real time    0.0086
    SETDIJ:  cpu time    0.3600: real time    0.3600
     EDDAV:  cpu time    0.6960: real time    0.6953
       DOS:  cpu time    0.0000: real time    0.0004
    CHARGE:  cpu time    0.0160: real time    0.0168
    MIXING:  cpu time    0.0000: real time    0.0004
    --------------------------------------------
      LOOP:  cpu time    1.0800: real time    1.0844

 eigenvalue-minimisations  :  3656
 total energy-change (2. order) :-0.2565498E-03  (-0.3189372E-04)
 number of electron      57.9999902 magnetization       0.0000936
 augmentation part        4.6198758 magnetization      -0.0002315

 Broyden mixing:
  rms(total) = 0.69694E-02    rms(broyden)= 0.69689E-02
  rms(prec ) = 0.10316E-01
  weight for this iteration     100.00

 eigenvalues of (default mixing * dielectric matrix)
  average eigenvalue GAMMA=   1.3525
  2.6830  2.0602  0.9805  0.9805  0.7776  0.6330

 Free energy of the ion-electron system (eV)
  ---------------------------------------------------
  alpha Z        PSCENC =       129.53385374
  Ewald energy   TEWEN  =     -2376.84970758
  -Hartree energ DENC   =     -1114.85272873
  -exchange      EXHF   =         0.00000000
  -V(xc)+E(xc)   XCENC  =      -181.50147059
  PAW double counting   =      3955.49771060    -3554.89962236
  entropy T*S    EENTRO =        -0.00000000
  eigenvalues    EBANDS =      -150.86915434
  atomic energy  EATOM  =      3210.13655998
  Solvation  Ediel_sol  =         0.00000000
  ---------------------------------------------------
  free energy    TOTEN  =       -83.80455929 eV

  energy without entropy =      -83.80455929  energy(sigma->0) =      -83.80455929


--------------------------------------------------------------------------------------------------------




----------------------------------------- Iteration    1(  12)  ---------------------------------------


    POTLOK:  cpu time    0.0080: real time    0.0089
    SETDIJ:  cpu time    0.3600: real time    0.3596
     EDDAV:  cpu time    0.6800: real time    0.6810
       DOS:  cpu time    0.0000: real time    0.0004
    CHARGE:  cpu time    0.0200: real time    0.0170
    MIXING:  cpu time    0.0000: real time    0.0004
    --------------------------------------------
      LOOP:  cpu time    1.0680: real time    1.0703

 eigenvalue-minimisations  :  3544
 total energy-change (2. order) :-0.1313733E-03  (-0.1920498E-04)
 number of electron      57.9999902 magnetization       0.0000335
 augmentation part        4.6206765 magnetization      -0.0001013

 Broyden mixing:
  rms(total) = 0.21138E-02    rms(broyden)= 0.21125E-02
  rms(prec ) = 0.31277E-02
  weight for this iteration     100.00

 eigenvalues of (default mixing * dielectric matrix)
  average eigenvalue GAMMA=   1.3211
  2.7845  2.3643  0.9887  0.9887  0.7731  0.6297  0.7188

 Free energy of the ion-electron system (eV)
  ---------------------------------------------------
  alpha Z        PSCENC =       129.53385374
  Ewald energy   TEWEN  =     -2376.84970758
  -Hartree energ DENC   =     -1114.75436904
  -exchange      EXHF   =         0.00000000
  -V(xc)+E(xc)   XCENC  =      -181.48890454
  PAW double counting   =      3946.01349598    -3545.42267496
  entropy T*S    EENTRO =        -0.00000000
  eigenvalues    EBANDS =      -150.97294425
  atomic energy  EATOM  =      3210.13655998
  Solvation  Ediel_sol  =         0.00000000
  ---------------------------------------------------
  free energy    TOTEN  =       -83.80469066 eV

  energy without entropy =      -83.80469066  energy(sigma->0) =      -83.80469066


--------------------------------------------------------------------------------------------------------




----------------------------------------- Iteration    1(  13)  ---------------------------------------


    POTLOK:  cpu time    0.0080: real time    0.0087
    SETDIJ:  cpu time    0.3600: real time    0.3595
     EDDAV:  cpu time    0.7120: real time    0.7145
       DOS:  cpu time    0.0000: real time    0.0005
    CHARGE:  cpu time    0.0200: real time    0.0170
    MIXING:  cpu time    0.0000: real time    0.0004
    --------------------------------------------
      LOOP:  cpu time    1.1000: real time    1.1033

 eigenvalue-minimisations  :  3752
 total energy-change (2. order) :-0.1323692E-05  (-0.1227555E-05)
 number of electron      57.9999902 magnetization       0.0000032
 augmentation part        4.6205259 magnetization      -0.0000672

 Broyden mixing:
  rms(total) = 0.88337E-03    rms(broyden)= 0.88320E-03
  rms(prec ) = 0.14644E-02
  weight for this iteration     100.00

 eigenvalues of (default mixing * dielectric matrix)
  average eigenvalue GAMMA=   1.2706
  2.7687  2.4246  0.9985  0.9644  0.8438  0.8438  0.6289  0.6924

 Free energy of the ion-electron system (eV)
  ---------------------------------------------------
  alpha Z        PSCENC =       129.53385374
  Ewald energy   TEWEN  =     -2376.84970758
  -Hartree energ DENC   =     -1114.78148494
  -exchange      EXHF   =         0.00000000
  -V(xc)+E(xc)   XCENC  =      -181.48656672
  PAW double counting   =      3945.18090730    -3544.59158630
  entropy T*S    EENTRO =        -0.00000000
  eigenvalues    EBANDS =      -150.94666746
  atomic energy  EATOM  =      3210.13655998
  Solvation  Ediel_sol  =         0.00000000
  ---------------------------------------------------
  free energy    TOTEN  =       -83.80469198 eV

  energy without entropy =      -83.80469198  energy(sigma->0) =      -83.80469198


--------------------------------------------------------------------------------------------------------




----------------------------------------- Iteration    1(  14)  ---------------------------------------


    POTLOK:  cpu time    0.0080: real time    0.0082
    SETDIJ:  cpu time    0.3600: real time    0.3599
     EDDAV:  cpu time    0.7120: real time    0.7130
       DOS:  cpu time    0.0000: real time    0.0004
    --------------------------------------------
      LOOP:  cpu time    1.0800: real time    1.0844

 eigenvalue-minimisations  :  3680
 total energy-change (2. order) :-0.4713902E-06  (-0.8753217E-06)
 number of electron      57.9999902 magnetization       0.0000032
 augmentation part        4.6205259 magnetization      -0.0000672

 Free energy of the ion-electron system (eV)
  ---------------------------------------------------
  alpha Z        PSCENC =       129.53385374
  Ewald energy   TEWEN  =     -2376.84970758
  -Hartree energ DENC   =     -1114.81066869
  -exchange      EXHF   =         0.00000000
  -V(xc)+E(xc)   XCENC  =      -181.48480361
  PAW double counting   =      3944.85194185    -3544.26374507
  entropy T*S    EENTRO =        -0.00000000
  eigenvalues    EBANDS =      -150.91812307
  atomic energy  EATOM  =      3210.13655998
  Solvation  Ediel_sol  =         0.00000000
  ---------------------------------------------------
  free energy    TOTEN  =       -83.80469245 eV

  energy without entropy =      -83.80469245  energy(sigma->0) =      -83.80469245


--------------------------------------------------------------------------------------------------------




 average (electrostatic) potential at core
  the test charge radii are     1.0714  0.7215
  (the norm of the test charge is              1.0000)
       1 -35.6573       2 -35.6377       3 -35.6414       4 -35.6444       5 -35.6429
       6 -35.6392       7 -35.6404       8 -35.6577       9 -70.2159      10 -70.2157
      11 -70.2142      12 -70.2164      13 -70.2158      14 -70.2160      15 -70.2428
 
 
 
 E-fermi :   5.5802     XC(G=0): -10.7318     alpha+bet :-12.3507


 spin component 1

 k-point     1 :       0.2500    0.2500    0.2500
  band No.  band energies     occupation 
      1     -14.2516      1.00000
      2     -13.4668      1.00000
      3     -13.2681      1.00000
      4     -13.2676      1.00000
      5     -13.2288      1.00000
      6     -13.0924      1.00000
      7     -13.0919      1.00000
      8      -1.6073      1.00000
      9      -1.4708      1.00000
     10      -1.4693      1.00000
     11      -1.2933      1.00000
     12      -1.0302      1.00000
     13      -0.6772      1.00000
     14      -0.6755      1.00000
     15       0.9829      1.00000
     16       0.9836      1.00000
     17       1.0544      1.00000
     18       1.3963      1.00000
     19       1.4870      1.00000
     20       1.4904      1.00000
     21       1.5262      1.00000
     22       1.5820      1.00000
     23       1.5832      1.00000
     24       1.8799      1.00000
     25       1.9989      1.00000
     26       1.9994      1.00000
     27       2.3636      1.00000
     28       2.3664      1.00000
     29       4.2601      1.00000
     30       8.6709      0.00000
     31       9.7359      0.00000
     32      10.4628      0.00000
     33      10.4675      0.00000
     34      11.1566      0.00000
     35      11.4151      0.00000
     36      11.4181      0.00000
     37      12.2686      0.00000
     38      12.2691      0.00000
     39      12.4647      0.00000
     40      12.8968      0.00000
     41      13.3618      0.00000
     42      13.3653      0.00000
     43      14.7754      0.00000
     44      15.0850      0.00000
     45      15.1698      0.00000
     46      15.1736      0.00000
     47      16.6942      0.00000
     48      17.2810      0.00000

 k-point     2 :       0.2500    0.0000    0.0000
  band No.  band energies     occupation 
      1     -14.2516      1.00000
      2     -13.4668      1.00000
      3     -13.2681      1.00000
      4     -13.2676      1.00000
      5     -13.2288      1.00000
      6     -13.0924      1.00000
      7     -13.0919      1.00000
      8      -1.6073      1.00000
      9      -1.4707      1.00000
     10      -1.4692      1.00000
     11      -1.2933      1.00000
     12      -1.0301      1.00000
     13      -0.6773      1.00000
     14      -0.6756      1.00000
     15       0.9831      1.00000
     16       0.9836      1.00000
     17       1.0545      1.00000
     18       1.3960      1.00000
     19       1.4876      1.00000
     20       1.4908      1.00000
     21       1.5263      1.00000
     22       1.5817      1.00000
     23       1.5828      1.00000
     24       1.8796      1.00000
     25       1.9990      1.00000
     26       1.9992      1.00000
     27       2.3636      1.00000
     28       2.3662      1.00000
     29       4.2603      1.00000
     30       8.6710      0.00000
     31       9.7360      0.00000
     32      10.4625      0.00000
     33      10.4671      0.00000
     34      11.1566      0.00000
     35      11.4156      0.00000
     36      11.4178      0.00000
     37      12.2687      0.00000
     38      12.2695      0.00000
     39      12.4651      0.00000
     40      12.8971      0.00000
     41      13.3617      0.00000
     42      13.3650      0.00000
     43      14.7754      0.00000
     44      15.0851      0.00000
     45      15.1697      0.00000
     46      15.1735      0.00000
     47      16.6940      0.00000
     48      17.2807      0.00000

 k-point     3 :       0.0000    0.0000   -0.2500
  band No.  band energies     occupation 
      1     -14.2516      1.00000
      2     -13.4671      1.00000
      3     -13.2681      1.00000
      4     -13.2676      1.00000
      5     -13.2285      1.00000
      6     -13.0924      1.00000
      7     -13.0919      1.00000
      8      -1.6074      1.00000
      9      -1.4699      1.00000
     10      -1.4693      1.00000
     11      -1.2936      1.00000
     12      -1.0296      1.00000
     13      -0.6773      1.00000
     14      -0.6766      1.00000
     15       0.9828      1.00000
     16       0.9836      1.00000
     17       1.0545      1.00000
     18       1.3961      1.00000
     19       1.4875      1.00000
     20       1.4905      1.00000
     21       1.5261      1.00000
     22       1.5819      1.00000
     23       1.5838      1.00000
     24       1.8796      1.00000
     25       1.9984      1.00000
     26       1.9988      1.00000
     27       2.3637      1.00000
     28       2.3668      1.00000
     29       4.2603      1.00000
     30       8.6714      0.00000
     31       9.7362      0.00000
     32      10.4617      0.00000
     33      10.4676      0.00000
     34      11.1565      0.00000
     35      11.4153      0.00000
     36      11.4180      0.00000
     37      12.2689      0.00000
     38      12.2691      0.00000
     39      12.4644      0.00000
     40      12.8974      0.00000
     41      13.3618      0.00000
     42      13.3650      0.00000
     43      14.7754      0.00000
     44      15.0844      0.00000
     45      15.1690      0.00000
     46      15.1747      0.00000
     47      16.6941      0.00000
     48      17.2815      0.00000

 k-point     4 :       0.0000    0.2500    0.0000
  band No.  band energies     occupation 
      1     -14.2516      1.00000
      2     -13.4671      1.00000
      3     -13.2681      1.00000
      4     -13.2676      1.00000
      5     -13.2286      1.00000
      6     -13.0924      1.00000
      7     -13.0919      1.00000
      8      -1.6075      1.00000
      9      -1.4699      1.00000
     10      -1.4694      1.00000
     11      -1.2934      1.00000
     12      -1.0297      1.00000
     13      -0.6772      1.00000
     14      -0.6767      1.00000
     15       0.9830      1.00000
     16       0.9835      1.00000
     17       1.0546      1.00000
     18       1.3961      1.00000
     19       1.4873      1.00000
     20       1.4902      1.00000
     21       1.5263      1.00000
     22       1.5823      1.00000
     23       1.5839      1.00000
     24       1.8796      1.00000
     25       1.9983      1.00000
     26       1.9988      1.00000
     27       2.3637      1.00000
     28       2.3665      1.00000
     29       4.2603      1.00000
     30       8.6714      0.00000
     31       9.7361      0.00000
     32      10.4620      0.00000
     33      10.4678      0.00000
     34      11.1566      0.00000
     35      11.4156      0.00000
     36      11.4176      0.00000
     37      12.2688      0.00000
     38      12.2691      0.00000
     39      12.4640      0.00000
     40      12.8972      0.00000
     41      13.3619      0.00000
     42      13.3650      0.00000
     43      14.7754      0.00000
     44      15.0844      0.00000
     45      15.1693      0.00000
     46      15.1745      0.00000
     47      16.6943      0.00000
     48      17.2880      0.00000

 k-point     5 :      -0.2500    0.2500    0.2500
  band No.  band energies     occupation 
      1     -13.9406      1.00000
      2     -13.6465      1.00000
      3     -13.4404      1.00000
      4     -13.3119      1.00000
      5     -13.2203      1.00000
      6     -13.1295      1.00000
      7     -13.0569      1.00000
      8      -1.2008      1.00000
      9      -0.9790      1.00000
     10      -0.9357      1.00000
     11      -0.8019      1.00000
     12      -0.6679      1.00000
     13      -0.2558      1.00000
     14      -0.1963      1.00000
     15       0.2921      1.00000
     16       0.2954      1.00000
     17       0.3241      1.00000
     18       0.7341      1.00000
     19       0.9727      1.00000
     20       1.1546      1.00000
     21       1.3335      1.00000
     22       1.4725      1.00000
     23       1.6178      1.00000
     24       1.6943      1.00000
     25       1.7755      1.00000
     26       1.9670      1.00000
     27       2.0213      1.00000
     28       2.1659      1.00000
     29       5.3287      1.00000
     30       8.4228      0.00000
     31       9.3832      0.00000
     32       9.8469      0.00000
     33      10.7512      0.00000
     34      11.6360      0.00000
     35      12.2493      0.00000
     36      12.5611      0.00000
     37      12.7034      0.00000
     38      13.2761      0.00000
     39      13.2958      0.00000
     40      14.0374      0.00000
     41      14.0684      0.00000
     42      14.1949      0.00000
     43      14.3866      0.00000
     44      14.7058      0.00000
     45      14.8970      0.00000
     46      14.9325      0.00000
     47      15.4483      0.00000
     48      16.1830      0.00000

 k-point     6 :       0.2500   -0.2500    0.2500
  band No.  band energies     occupation 
      1     -13.9402      1.00000
      2     -13.6469      1.00000
      3     -13.4408      1.00000
      4     -13.3116      1.00000
      5     -13.2196      1.00000
      6     -13.1302      1.00000
      7     -13.0566      1.00000
      8      -1.1997      1.00000
      9      -0.9793      1.00000
     10      -0.9338      1.00000
     11      -0.8029      1.00000
     12      -0.6672      1.00000
     13      -0.2553      1.00000
     14      -0.1977      1.00000
     15       0.2905      1.00000
     16       0.2947      1.00000
     17       0.3240      1.00000
     18       0.7324      1.00000
     19       0.9731      1.00000
     20       1.1529      1.00000
     21       1.3329      1.00000
     22       1.4728      1.00000
     23       1.6176      1.00000
     24       1.6970      1.00000
     25       1.7758      1.00000
     26       1.9659      1.00000
     27       2.0217      1.00000
     28       2.1684      1.00000
     29       5.3289      1.00000
     30       8.4212      0.00000
     31       9.3820      0.00000
     32       9.8510      0.00000
     33      10.7486      0.00000
     34      11.6372      0.00000
     35      12.2489      0.00000
     36      12.5605      0.00000
     37      12.7039      0.00000
     38      13.2760      0.00000
     39      13.2954      0.00000
     40      14.0383      0.00000
     41      14.0701      0.00000
     42      14.1939      0.00000
     43      14.3867      0.00000
     44      14.7061      0.00000
     45      14.8943      0.00000
     46      14.9329      0.00000
     47      15.4500      0.00000
     48      16.1880      0.00000

 k-point     7 :       0.2500    0.2500   -0.2500
  band No.  band energies     occupation 
      1     -13.9402      1.00000
      2     -13.6469      1.00000
      3     -13.4409      1.00000
      4     -13.3115      1.00000
      5     -13.2197      1.00000
      6     -13.1303      1.00000
      7     -13.0565      1.00000
      8      -1.1994      1.00000
      9      -0.9792      1.00000
     10      -0.9332      1.00000
     11      -0.8033      1.00000
     12      -0.6672      1.00000
     13      -0.2551      1.00000
     14      -0.1980      1.00000
     15       0.2900      1.00000
     16       0.2944      1.00000
     17       0.3240      1.00000
     18       0.7319      1.00000
     19       0.9731      1.00000
     20       1.1517      1.00000
     21       1.3327      1.00000
     22       1.4731      1.00000
     23       1.6173      1.00000
     24       1.6980      1.00000
     25       1.7758      1.00000
     26       1.9658      1.00000
     27       2.0219      1.00000
     28       2.1695      1.00000
     29       5.3290      1.00000
     30       8.4202      0.00000
     31       9.3817      0.00000
     32       9.8525      0.00000
     33      10.7478      0.00000
     34      11.6374      0.00000
     35      12.2490      0.00000
     36      12.5604      0.00000
     37      12.7038      0.00000
     38      13.2761      0.00000
     39      13.2951      0.00000
     40      14.0403      0.00000
     41      14.0708      0.00000
     42      14.1935      0.00000
     43      14.3866      0.00000
     44      14.7064      0.00000
     45      14.8931      0.00000
     46      14.9330      0.00000
     47      15.4500      0.00000
     48      16.1922      0.00000

 k-point     8 :       0.2500    0.0000    0.5000
  band No.  band energies     occupation 
      1     -13.9402      1.00000
      2     -13.6469      1.00000
      3     -13.4409      1.00000
      4     -13.3116      1.00000
      5     -13.2195      1.00000
      6     -13.1302      1.00000
      7     -13.0566      1.00000
      8      -1.1998      1.00000
      9      -0.9792      1.00000
     10      -0.9335      1.00000
     11      -0.8028      1.00000
     12      -0.6672      1.00000
     13      -0.2555      1.00000
     14      -0.1979      1.00000
     15       0.2903      1.00000
     16       0.2945      1.00000
     17       0.3242      1.00000
     18       0.7327      1.00000
     19       0.9730      1.00000
     20       1.1528      1.00000
     21       1.3327      1.00000
     22       1.4731      1.00000
     23       1.6175      1.00000
     24       1.6971      1.00000
     25       1.7761      1.00000
     26       1.9658      1.00000
     27       2.0218      1.00000
     28       2.1683      1.00000
     29       5.3289      1.00000
     30       8.4214      0.00000
     31       9.3820      0.00000
     32       9.8505      0.00000
     33      10.7488      0.00000
     34      11.6371      0.00000
     35      12.2494      0.00000
     36      12.5605      0.00000
     37      12.7036      0.00000
     38      13.2761      0.00000
     39      13.2952      0.00000
     40      14.0389      0.00000
     41      14.0703      0.00000
     42      14.1937      0.00000
     43      14.3867      0.00000
     44      14.7060      0.00000
     45      14.8943      0.00000
     46      14.9328      0.00000
     47      15.4506      0.00000
     48      16.1893      0.00000

 k-point     9 :      -0.2500    0.5000    0.5000
  band No.  band energies     occupation 
      1     -13.9406      1.00000
      2     -13.6464      1.00000
      3     -13.4404      1.00000
      4     -13.3119      1.00000
      5     -13.2203      1.00000
      6     -13.1295      1.00000
      7     -13.0569      1.00000
      8      -1.2008      1.00000
      9      -0.9790      1.00000
     10      -0.9357      1.00000
     11      -0.8020      1.00000
     12      -0.6678      1.00000
     13      -0.2558      1.00000
     14      -0.1961      1.00000
     15       0.2921      1.00000
     16       0.2952      1.00000
     17       0.3241      1.00000
     18       0.7338      1.00000
     19       0.9723      1.00000
     20       1.1547      1.00000
     21       1.3337      1.00000
     22       1.4723      1.00000
     23       1.6181      1.00000
     24       1.6946      1.00000
     25       1.7757      1.00000
     26       1.9664      1.00000
     27       2.0214      1.00000
     28       2.1662      1.00000
     29       5.3286      1.00000
     30       8.4229      0.00000
     31       9.3833      0.00000
     32       9.8470      0.00000
     33      10.7509      0.00000
     34      11.6363      0.00000
     35      12.2496      0.00000
     36      12.5607      0.00000
     37      12.7032      0.00000
     38      13.2758      0.00000
     39      13.2956      0.00000
     40      14.0366      0.00000
     41      14.0685      0.00000
     42      14.1952      0.00000
     43      14.3869      0.00000
     44      14.7057      0.00000
     45      14.8969      0.00000
     46      14.9325      0.00000
     47      15.4492      0.00000
     48      16.1826      0.00000

 k-point    10 :       0.2500    0.5000    0.0000
  band No.  band energies     occupation 
      1     -13.9402      1.00000
      2     -13.6469      1.00000
      3     -13.4409      1.00000
      4     -13.3115      1.00000
      5     -13.2197      1.00000
      6     -13.1303      1.00000
      7     -13.0565      1.00000
      8      -1.1994      1.00000
      9      -0.9792      1.00000
     10      -0.9332      1.00000
     11      -0.8034      1.00000
     12      -0.6670      1.00000
     13      -0.2550      1.00000
     14      -0.1981      1.00000
     15       0.2900      1.00000
     16       0.2944      1.00000
     17       0.3242      1.00000
     18       0.7319      1.00000
     19       0.9729      1.00000
     20       1.1519      1.00000
     21       1.3326      1.00000
     22       1.4731      1.00000
     23       1.6176      1.00000
     24       1.6979      1.00000
     25       1.7762      1.00000
     26       1.9651      1.00000
     27       2.0221      1.00000
     28       2.1693      1.00000
     29       5.3289      1.00000
     30       8.4203      0.00000
     31       9.3818      0.00000
     32       9.8524      0.00000
     33      10.7477      0.00000
     34      11.6377      0.00000
     35      12.2493      0.00000
     36      12.5602      0.00000
     37      12.7035      0.00000
     38      13.2760      0.00000
     39      13.2950      0.00000
     40      14.0395      0.00000
     41      14.0707      0.00000
     42      14.1937      0.00000
     43      14.3868      0.00000
     44      14.7063      0.00000
     45      14.8931      0.00000
     46      14.9330      0.00000
     47      15.4510      0.00000
     48      16.1935      0.00000

 k-point    11 :       0.0000    0.5000   -0.2500
  band No.  band energies     occupation 
      1     -13.9403      1.00000
      2     -13.6465      1.00000
      3     -13.4415      1.00000
      4     -13.3119      1.00000
      5     -13.2183      1.00000
      6     -13.1305      1.00000
      7     -13.0569      1.00000
      8      -1.2004      1.00000
      9      -0.9794      1.00000
     10      -0.9346      1.00000
     11      -0.8022      1.00000
     12      -0.6680      1.00000
     13      -0.2559      1.00000
     14      -0.1975      1.00000
     15       0.2931      1.00000
     16       0.2951      1.00000
     17       0.3230      1.00000
     18       0.7350      1.00000
     19       0.9723      1.00000
     20       1.1559      1.00000
     21       1.3332      1.00000
     22       1.4713      1.00000
     23       1.6179      1.00000
     24       1.6949      1.00000
     25       1.7757      1.00000
     26       1.9661      1.00000
     27       2.0211      1.00000
     28       2.1664      1.00000
     29       5.3287      1.00000
     30       8.4233      0.00000
     31       9.3838      0.00000
     32       9.8462      0.00000
     33      10.7511      0.00000
     34      11.6362      0.00000
     35      12.2491      0.00000
     36      12.5607      0.00000
     37      12.7043      0.00000
     38      13.2754      0.00000
     39      13.2955      0.00000
     40      14.0367      0.00000
     41      14.0680      0.00000
     42      14.1954      0.00000
     43      14.3871      0.00000
     44      14.7050      0.00000
     45      14.8972      0.00000
     46      14.9326      0.00000
     47      15.4493      0.00000
     48      16.1962      0.00000

 k-point    12 :       0.5000    0.0000   -0.2500
  band No.  band energies     occupation 
      1     -13.9406      1.00000
      2     -13.6461      1.00000
      3     -13.4413      1.00000
      4     -13.3116      1.00000
      5     -13.2197      1.00000
      6     -13.1301      1.00000
      7     -13.0566      1.00000
      8      -1.2003      1.00000
      9      -0.9790      1.00000
     10      -0.9338      1.00000
     11      -0.8028      1.00000
     12      -0.6677      1.00000
     13      -0.2548      1.00000
     14      -0.1975      1.00000
     15       0.2914      1.00000
     16       0.2946      1.00000
     17       0.3239      1.00000
     18       0.7330      1.00000
     19       0.9724      1.00000
     20       1.1524      1.00000
     21       1.3328      1.00000
     22       1.4728      1.00000
     23       1.6175      1.00000
     24       1.6964      1.00000
     25       1.7759      1.00000
     26       1.9672      1.00000
     27       2.0218      1.00000
     28       2.1677      1.00000
     29       5.3288      1.00000
     30       8.4205      0.00000
     31       9.3827      0.00000
     32       9.8506      0.00000
     33      10.7487      0.00000
     34      11.6373      0.00000
     35      12.2495      0.00000
     36      12.5601      0.00000
     37      12.7035      0.00000
     38      13.2760      0.00000
     39      13.2956      0.00000
     40      14.0398      0.00000
     41      14.0702      0.00000
     42      14.1939      0.00000
     43      14.3868      0.00000
     44      14.7060      0.00000
     45      14.8943      0.00000
     46      14.9329      0.00000
     47      15.4497      0.00000
     48      16.1885      0.00000

 k-point    13 :       0.5000    0.5000    0.2500
  band No.  band energies     occupation 
      1     -13.9405      1.00000
      2     -13.6461      1.00000
      3     -13.4413      1.00000
      4     -13.3115      1.00000
      5     -13.2198      1.00000
      6     -13.1302      1.00000
      7     -13.0565      1.00000
      8      -1.2001      1.00000
      9      -0.9790      1.00000
     10      -0.9333      1.00000
     11      -0.8030      1.00000
     12      -0.6673      1.00000
     13      -0.2544      1.00000
     14      -0.1976      1.00000
     15       0.2904      1.00000
     16       0.2943      1.00000
     17       0.3239      1.00000
     18       0.7317      1.00000
     19       0.9726      1.00000
     20       1.1514      1.00000
     21       1.3328      1.00000
     22       1.4731      1.00000
     23       1.6174      1.00000
     24       1.6970      1.00000
     25       1.7762      1.00000
     26       1.9678      1.00000
     27       2.0220      1.00000
     28       2.1681      1.00000
     29       5.3287      1.00000
     30       8.4199      0.00000
     31       9.3821      0.00000
     32       9.8525      0.00000
     33      10.7475      0.00000
     34      11.6379      0.00000
     35      12.2494      0.00000
     36      12.5596      0.00000
     37      12.7036      0.00000
     38      13.2762      0.00000
     39      13.2956      0.00000
     40      14.0393      0.00000
     41      14.0710      0.00000
     42      14.1933      0.00000
     43      14.3869      0.00000
     44      14.7064      0.00000
     45      14.8934      0.00000
     46      14.9329      0.00000
     47      15.4503      0.00000
     48      16.1923      0.00000

 k-point    14 :       0.5000   -0.2500    0.5000
  band No.  band energies     occupation 
      1     -13.9406      1.00000
      2     -13.6461      1.00000
      3     -13.4412      1.00000
      4     -13.3116      1.00000
      5     -13.2197      1.00000
      6     -13.1301      1.00000
      7     -13.0566      1.00000
      8      -1.2003      1.00000
      9      -0.9789      1.00000
     10      -0.9340      1.00000
     11      -0.8028      1.00000
     12      -0.6676      1.00000
     13      -0.2546      1.00000
     14      -0.1972      1.00000
     15       0.2912      1.00000
     16       0.2946      1.00000
     17       0.3236      1.00000
     18       0.7324      1.00000
     19       0.9724      1.00000
     20       1.1525      1.00000
     21       1.3332      1.00000
     22       1.4725      1.00000
     23       1.6177      1.00000
     24       1.6962      1.00000
     25       1.7759      1.00000
     26       1.9675      1.00000
     27       2.0220      1.00000
     28       2.1676      1.00000
     29       5.3287      1.00000
     30       8.4205      0.00000
     31       9.3825      0.00000
     32       9.8511      0.00000
     33      10.7484      0.00000
     34      11.6373      0.00000
     35      12.2490      0.00000
     36      12.5601      0.00000
     37      12.7036      0.00000
     38      13.2760      0.00000
     39      13.2958      0.00000
     40      14.0389      0.00000
     41      14.0701      0.00000
     42      14.1941      0.00000
     43      14.3868      0.00000
     44      14.7061      0.00000
     45      14.8943      0.00000
     46      14.9329      0.00000
     47      15.4492      0.00000
     48      16.1879      0.00000

 k-point    15 :       0.0000    0.2500    0.5000
  band No.  band energies     occupation 
      1     -13.9403      1.00000
      2     -13.6465      1.00000
      3     -13.4415      1.00000
      4     -13.3119      1.00000
      5     -13.2183      1.00000
      6     -13.1305      1.00000
      7     -13.0569      1.00000
      8      -1.2004      1.00000
      9      -0.9792      1.00000
     10      -0.9346      1.00000
     11      -0.8021      1.00000
     12      -0.6681      1.00000
     13      -0.2559      1.00000
     14      -0.1975      1.00000
     15       0.2931      1.00000
     16       0.2949      1.00000
     17       0.3229      1.00000
[...]
      4     -13.3119      1.00000
      5     -13.2183      1.00000
      6     -13.1305      1.00000
      7     -13.0569      1.00000
      8      -1.2004      1.00000
      9      -0.9792      1.00000
     10      -0.9346      1.00000
     11      -0.8021      1.00000
     12      -0.6681      1.00000
     13      -0.2559      1.00000
     14      -0.1975      1.00000
     15       0.2931      1.00000
     16       0.2950      1.00000
     17       0.3229      1.00000
     18       0.7350      1.00000
     19       0.9724      1.00000
     20       1.1559      1.00000
     21       1.3332      1.00000
     22       1.4714      1.00000
     23       1.6179      1.00000
     24       1.6948      1.00000
     25       1.7756      1.00000
     26       1.9666      1.00000
     27       2.0213      1.00000
     28       2.1663      1.00000
     29       5.3287      1.00000
     30       8.4233      0.00000
     31       9.3836      0.00000
     32       9.8461      0.00000
     33      10.7512      0.00000
     34      11.6358      0.00000
     35      12.2489      0.00000
     36      12.5610      0.00000
     37      12.7042      0.00000
     38      13.2754      0.00000
     39      13.2957      0.00000
     40      14.0370      0.00000
     41      14.0685      0.00000
     42      14.1952      0.00000
     43      14.3868      0.00000
     44      14.7050      0.00000
     45      14.8973      0.00000
     46      14.9326      0.00000
     47      15.4484      0.00000
     48      16.1833      0.00000

 k-point    16 :       0.5000    0.2500    0.0000
  band No.  band energies     occupation 
      1     -13.9405      1.00000
      2     -13.6461      1.00000
      3     -13.4412      1.00000
      4     -13.3115      1.00000
      5     -13.2198      1.00000
      6     -13.1302      1.00000
      7     -13.0565      1.00000
      8      -1.2001      1.00000
      9      -0.9788      1.00000
     10      -0.9334      1.00000
     11      -0.8030      1.00000
     12      -0.6674      1.00000
     13      -0.2544      1.00000
     14      -0.1978      1.00000
     15       0.2906      1.00000
     16       0.2943      1.00000
     17       0.3239      1.00000
     18       0.7320      1.00000
     19       0.9728      1.00000
     20       1.1514      1.00000
     21       1.3326      1.00000
     22       1.4733      1.00000
     23       1.6174      1.00000
     24       1.6966      1.00000
     25       1.7761      1.00000
     26       1.9680      1.00000
     27       2.0222      1.00000
     28       2.1678      1.00000
     29       5.3288      1.00000
     30       8.4198      0.00000
     31       9.3819      0.00000
     32       9.8522      0.00000
     33      10.7477      0.00000
     34      11.6376      0.00000
     35      12.2491      0.00000
     36      12.5601      0.00000
     37      12.7035      0.00000
     38      13.2762      0.00000
     39      13.2958      0.00000
     40      14.0402      0.00000
     41      14.0708      0.00000
     42      14.1930      0.00000
     43      14.3866      0.00000
     44      14.7063      0.00000
     45      14.8934      0.00000
     46      14.9331      0.00000
     47      15.4496      0.00000
     48      16.2363      0.00000


--------------------------------------------------------------------------------------------------------


 soft charge-density along one line, spin component           1
         0         1         2         3         4         5         6         7         8         9
 total charge-density along one line
 
 soft charge-density along one line, spin component           2
         0         1         2         3         4         5         6         7         8         9
 total charge-density along one line
 
 pseudopotential strength for first ion, spin component:           1
  2.975   9.462  -0.000  -0.000   0.000   0.000  -0.000   0.000
  9.462  29.931   0.000  -0.000   0.000   0.000  -0.000   0.000
 -0.000   0.000   7.271   0.000  -0.000  10.557   0.000  -0.000
 -0.000  -0.000   0.000   7.271   0.000   0.000  10.557   0.000
  0.000   0.000  -0.000   0.000   7.271  -0.000   0.000  10.557
  0.000   0.000  10.557   0.000  -0.000  14.538   0.000  -0.000
 -0.000  -0.000   0.000  10.557   0.000   0.000  14.538   0.000
  0.000   0.000  -0.000   0.000  10.557  -0.000   0.000  14.538
 -0.000  -0.000  -0.000  -0.000   0.000   0.000  -0.000   0.000
  0.000   0.000  -0.000   0.000  -0.000  -0.000   0.000  -0.000
 -0.000  -0.000  -0.000  -0.000  -0.000  -0.000  -0.000  -0.000
  0.000   0.000  -0.000  -0.000  -0.000  -0.000  -0.000  -0.000
 -0.000  -0.000  -0.000  -0.000   0.000  -0.000  -0.000   0.000
 pseudopotential strength for first ion, spin component:           2
  2.975   9.462  -0.000  -0.000   0.000   0.000  -0.000   0.000
  9.462  29.932   0.000  -0.000   0.000   0.000  -0.000   0.000
 -0.000   0.000   7.271   0.000  -0.000  10.557   0.000  -0.000
 -0.000  -0.000   0.000   7.271   0.000   0.000  10.557   0.000
  0.000   0.000  -0.000   0.000   7.271  -0.000   0.000  10.557
  0.000   0.000  10.557   0.000  -0.000  14.538   0.000  -0.000
 -0.000  -0.000   0.000  10.557   0.000   0.000  14.538   0.000
  0.000   0.000  -0.000   0.000  10.557  -0.000   0.000  14.538
 -0.000  -0.000  -0.000  -0.000   0.000   0.000  -0.000   0.000
  0.000   0.000  -0.000   0.000  -0.000  -0.000   0.000  -0.000
 -0.000  -0.000  -0.000  -0.000  -0.000  -0.000  -0.000  -0.000
  0.000   0.000  -0.000  -0.000  -0.000  -0.000  -0.000  -0.000
 -0.000  -0.000  -0.000  -0.000   0.000  -0.000  -0.000   0.000
 total augmentation occupancy for first ion, spin component:           1
  0.987  -0.045  -0.001   0.000   0.000   0.000  -0.000  -0.000   0.000  -0.000   0.000  -0.000   0.000
 -0.045   0.002   0.000  -0.000  -0.000  -0.000   0.000   0.000  -0.000   0.000  -0.000   0.000  -0.000
 -0.001   0.000   0.114  -0.000   0.000  -0.012   0.000  -0.000   0.000  -0.000   0.000  -0.000   0.000
  0.000  -0.000  -0.000   0.114  -0.000   0.000  -0.012   0.000  -0.000   0.000   0.000   0.000  -0.000
  0.000  -0.000   0.000  -0.000   0.114  -0.000   0.000  -0.012   0.000  -0.000  -0.000  -0.000   0.000
  0.000  -0.000  -0.012   0.000  -0.000   0.001  -0.000   0.000  -0.000   0.000  -0.000   0.000  -0.000
 -0.000   0.000   0.000  -0.012   0.000  -0.000   0.001  -0.000   0.000  -0.000  -0.000  -0.000   0.000
 -0.000   0.000  -0.000   0.000  -0.012   0.000  -0.000   0.001  -0.000   0.000   0.000   0.000  -0.000
  0.000  -0.000   0.000  -0.000   0.000  -0.000   0.000  -0.000   0.012  -0.000  -0.000  -0.000   0.000
 -0.000   0.000  -0.000   0.000  -0.000   0.000  -0.000   0.000  -0.000   0.012  -0.000   0.000   0.000
  0.000  -0.000   0.000   0.000  -0.000  -0.000  -0.000   0.000  -0.000  -0.000   0.049   0.000  -0.000
 -0.000   0.000  -0.000   0.000  -0.000   0.000  -0.000   0.000  -0.000   0.000   0.000   0.012  -0.000
  0.000  -0.000   0.000  -0.000   0.000  -0.000   0.000  -0.000   0.000   0.000  -0.000  -0.000   0.049
 total augmentation occupancy for first ion, spin component:           2
  0.000  -0.000   0.000   0.000  -0.000   0.000   0.000  -0.000   0.000   0.000   0.000   0.000  -0.000
 -0.000   0.000   0.000  -0.000   0.000  -0.000  -0.000  -0.000  -0.000  -0.000  -0.000  -0.000  -0.000
  0.000   0.000   0.000   0.000   0.000  -0.000  -0.000   0.000   0.000   0.000  -0.000   0.000   0.000
  0.000  -0.000   0.000   0.000   0.000  -0.000  -0.000  -0.000   0.000   0.000   0.000   0.000  -0.000
 -0.000   0.000   0.000   0.000   0.000   0.000  -0.000  -0.000   0.000   0.000   0.000   0.000  -0.000
  0.000  -0.000  -0.000  -0.000   0.000   0.000   0.000  -0.000  -0.000  -0.000  -0.000  -0.000  -0.000
  0.000  -0.000  -0.000  -0.000  -0.000   0.000   0.000   0.000  -0.000  -0.000   0.000  -0.000  -0.000
 -0.000  -0.000   0.000  -0.000  -0.000  -0.000   0.000   0.000  -0.000  -0.000   0.000  -0.000   0.000
  0.000  -0.000   0.000   0.000   0.000  -0.000  -0.000  -0.000   0.000   0.000  -0.000   0.000  -0.000
  0.000  -0.000   0.000   0.000   0.000  -0.000  -0.000  -0.000   0.000   0.000   0.000   0.000  -0.000
  0.000  -0.000  -0.000   0.000   0.000  -0.000   0.000   0.000  -0.000   0.000   0.000   0.000   0.000
  0.000  -0.000   0.000   0.000   0.000  -0.000  -0.000  -0.000   0.000   0.000   0.000   0.000  -0.000
 -0.000  -0.000   0.000  -0.000  -0.000  -0.000  -0.000   0.000  -0.000  -0.000   0.000  -0.000   0.000


------------------------ aborting loop because EDIFF is reached ----------------------------------------


 


 total charge     
 
# of ion     s       p       d       tot
----------------------------------------
  1        0.144   0.171   0.074   0.389
  2        0.154   0.170   0.067   0.391
  3        0.154   0.170   0.067   0.391
  4        0.154   0.169   0.067   0.391
  5        0.154   0.169   0.067   0.391
  6        0.154   0.170   0.067   0.391
  7        0.154   0.170   0.067   0.391
  8        0.144   0.171   0.074   0.389
  9        1.572   3.550   0.000   5.122
 10        1.572   3.550   0.000   5.122
 11        1.572   3.550   0.000   5.121
 12        1.572   3.550   0.000   5.122
 13        1.572   3.550   0.000   5.122
 14        1.572   3.550   0.000   5.122
 15        1.567   3.565   0.000   5.132
------------------------------------------------
tot       12.213  26.221   0.551  38.986
 


 magnetization (x)
 
# of ion     s       p       d       tot
----------------------------------------
  1        0.000   0.000   0.000   0.000
  2        0.000   0.000   0.000   0.000
  3        0.000   0.000   0.000   0.000
  4        0.000   0.000   0.000   0.000
  5        0.000   0.000   0.000   0.000
  6        0.000   0.000   0.000   0.000
  7        0.000   0.000   0.000   0.000
  8        0.000   0.000   0.000   0.000
  9       -0.000  -0.000   0.000  -0.000
 10       -0.000  -0.000   0.000  -0.000
 11       -0.000  -0.000   0.000  -0.000
 12       -0.000  -0.000   0.000  -0.000
 13       -0.000  -0.000   0.000  -0.000
 14       -0.000  -0.000   0.000  -0.000
 15       -0.000   0.000   0.000  -0.000
------------------------------------------------
tot        0.000  -0.000   0.000   0.000
 
    CHARGE:  cpu time    0.0200: real time    0.0190
    FORLOC:  cpu time    0.0000: real time    0.0005
    FORNL :  cpu time    0.1120: real time    0.1117
    STRESS:  cpu time    0.3480: real time    0.3455
    FORCOR:  cpu time    0.0080: real time    0.0082
    FORHAR:  cpu time    0.0000: real time    0.0013
    MIXING:  cpu time    0.0000: real time    0.0005
    OFIELD:  cpu time    0.0000: real time    0.0000

  FORCE on cell =-STRESS in cart. coord.  units (eV):
  Direction    XX          YY          ZZ          XY          YZ          ZX
  --------------------------------------------------------------------------------------
  Alpha Z   129.53385   129.53385   129.53385
  Ewald    -792.83905  -792.14361  -791.87192    -0.00242    -0.01062    -0.01637
  Hartree   371.57680   371.59671   371.60465    -0.00220    -0.00702    -0.00374
  E(xc)    -259.10332  -259.10829  -259.11006    -0.00108    -0.00110    -0.00111
  Local    -372.94268  -373.59875  -373.85560     0.01218     0.02527     0.02667
  n-local  -125.01805  -124.99070  -124.97375    -0.00316     0.00725     0.00714
  augment    47.53622    47.53534    47.53389     0.00132     0.00038     0.00052
  Kinetic   999.03617   999.00094   998.98747     0.00680     0.00729     0.00917
  Fock        0.00000     0.00000     0.00000     0.00000     0.00000     0.00000
  -------------------------------------------------------------------------------------
  Total      -2.22005    -2.17450    -2.15146     0.01144     0.02145     0.02227
  in kB     -23.21828   -22.74187   -22.50093     0.11962     0.22434     0.23296
  external pressure =      -22.82 kB  Pullay stress =        0.00 kB


 VOLUME and BASIS-vectors are now :
 -----------------------------------------------------------------------------
  energy-cutoff  :      400.00
  volume of cell :      153.19
      direct lattice vectors                 reciprocal lattice vectors
     0.000000000  4.246893000  4.246893000    -0.117733129  0.117733129  0.117733129
     4.246893000  0.000000000  4.246893000     0.117733129 -0.117733129  0.117733129
     4.246893000  4.246893000  0.000000000     0.117733129  0.117733129 -0.117733129

  length of vectors
     6.006013679  6.006013679  6.006013679     0.203919761  0.203919761  0.203919761


 FORCES acting on ions
    electron-ion (+dipol)            ewald-force                    non-local-force                 convergence-correction
 -----------------------------------------------------------------------------------------------
   0.254E-01 -.103E+00 0.528E-01   -.244E-01 0.882E-01 -.459E-01   -.211E-02 0.344E-01 -.169E-01   -.647E-06 0.508E-05 0.346E-05
   -.933E-01 -.109E-02 -.299E+02   0.809E-01 -.200E-02 0.299E+02   0.239E-01 -.493E-03 0.588E-01   -.480E-05 -.812E-07 0.719E-04
   -.763E-03 -.300E+02 0.961E-01   -.221E-02 0.299E+02 -.816E-01   0.428E-02 0.698E-01 -.226E-01   -.465E-05 0.733E-04 0.167E-05
   0.298E+02 -.115E+00 -.158E-01   -.298E+02 0.989E-01 0.173E-01   0.284E-01 0.244E-01 0.763E-03   -.675E-04 0.300E-05 0.435E-05
   -.300E+02 -.105E+00 -.382E-01   0.300E+02 0.896E-01 0.375E-01   0.264E-01 0.225E-01 0.605E-02   0.711E-04 -.464E-05 -.360E-05
   0.110E-01 0.299E+02 0.267E-01   -.128E-01 -.299E+02 -.241E-01   0.849E-03 -.311E-01 -.728E-02   0.311E-05 -.701E-04 -.952E-06
   -.528E-01 0.556E-01 0.300E+02   0.446E-01 -.570E-01 -.299E+02   0.138E-01 -.108E-01 -.808E-01   0.323E-05 -.216E-05 -.735E-04
   -.194E-01 -.608E-01 0.535E-01   0.180E-01 0.533E-01 -.465E-01   0.108E-01 0.212E-01 -.161E-01   0.152E-05 -.287E-05 -.435E-05
   -.118E+00 0.157E-01 -.703E-01   0.119E+00 -.281E-01 0.883E-01   0.195E-02 0.670E-02 -.152E-01   0.133E-04 -.191E-04 0.347E-04
   0.125E+00 0.668E-01 -.401E-02   -.146E+00 -.116E+00 -.870E-02   0.122E-01 0.463E-01 0.158E-01   -.362E-04 -.540E-04 0.284E-05
   -.420E-02 -.940E-01 0.624E-01   -.402E-02 0.119E+00 -.535E-01   0.105E-01 -.208E-01 -.149E-01   0.712E-06 0.455E-04 -.223E-04
   -.282E-01 0.852E-01 -.131E+00   0.204E-01 -.608E-01 0.154E+00   0.118E-01 -.308E-01 -.104E-01   -.341E-05 0.605E-05 0.646E-04
   -.488E-01 0.694E-01 0.603E-01   0.260E-01 -.116E+00 -.876E-01   0.229E-01 0.444E-01 0.235E-01   -.114E-04 -.435E-04 -.253E-04
   0.878E-01 0.560E-01 -.454E-01   -.813E-01 -.831E-01 0.631E-01   -.930E-02 0.137E-01 -.160E-01   -.784E-05 -.610E-04 0.215E-04
   0.161E+00 0.286E-01 0.220E-01   -.201E+00 -.711E-01 0.107E-01   0.192E-01 0.339E-01 -.326E-01   -.885E-04 -.475E-04 0.224E-04
 -----------------------------------------------------------------------------------------------
   -.151E+00 -.207E+00 0.102E+00   0.316E-14 0.303E-14 -.880E-14   0.176E+00 0.223E+00 -.128E+00   -.132E-03 -.172E-03 0.975E-04
 
 
 POSITION                                       TOTAL-FORCE (eV/Angst)
 -----------------------------------------------------------------------------------
      4.25906      4.25989      8.48588        -0.002772      0.018949     -0.008301
      6.38111      6.38552      8.47644         0.009854     -0.004658      0.016089
      2.13541      4.25367      6.36339        -0.000339      0.019470     -0.006300
      4.25916      6.38427      6.36157         0.025595      0.006682      0.004005
      4.25658      2.13754      6.36119        -0.006730      0.005953      0.007043
      6.38251      4.26852      6.36212        -0.002528     -0.002879     -0.002903
      2.13491      2.13955      4.24916         0.003998     -0.013246     -0.025926
      4.25804      4.26091      4.23901         0.007799      0.012629     -0.007328
      4.25915      4.26228      2.11446         0.001421     -0.006820      0.004577
      4.25988      2.13904      4.23756        -0.010840     -0.004082      0.004764
      6.38236      4.26202      4.23935         0.000639      0.002701     -0.004279
      2.13530      4.26288      4.23688         0.002414     -0.007495      0.015230
      4.25911      6.38573      4.23876        -0.001596     -0.003066     -0.002104
      4.25933      4.26357      6.36152        -0.004441     -0.014468      0.003498
      6.38494      6.38704      6.36153        -0.022474     -0.009670      0.001933
 -----------------------------------------------------------------------------------
    total drift:                                0.024650      0.016054     -0.025719


--------------------------------------------------------------------------------------------------------



  FREE ENERGIE OF THE ION-ELECTRON SYSTEM (eV)
  ---------------------------------------------------
  free  energy   TOTEN  =       -83.80469245 eV

  energy  without entropy=      -83.80469245  energy(sigma->0) =      -83.80469245
 


--------------------------------------------------------------------------------------------------------


    POTLOK:  cpu time    0.3800: real time    0.3788


--------------------------------------------------------------------------------------------------------




--------------------------------------------------------------------------------------------------------


  
 reached required accuracy - stopping structural energy minimisation
     LOOP+:  cpu time   14.8320: real time   14.8900
    4ORBIT:  cpu time    0.0000: real time    0.0000
 


 total charge     
 
# of ion     s       p       d       tot
----------------------------------------
  1        0.144   0.171   0.074   0.389
  2        0.154   0.170   0.067   0.391
  3        0.154   0.170   0.067   0.391
  4        0.154   0.169   0.067   0.391
  5        0.154   0.169   0.067   0.391
  6        0.154   0.170   0.067   0.391
  7        0.154   0.170   0.067   0.391
  8        0.144   0.171   0.074   0.389
  9        1.572   3.550   0.000   5.122
 10        1.572   3.550   0.000   5.122
 11        1.572   3.550   0.000   5.121
 12        1.572   3.550   0.000   5.122
 13        1.572   3.550   0.000   5.122
 14        1.572   3.550   0.000   5.122
 15        1.567   3.565   0.000   5.132
------------------------------------------------
tot       12.213  26.221   0.551  38.986
 


 magnetization (x)
 
# of ion     s       p       d       tot
----------------------------------------
  1        0.000   0.000   0.000   0.000
  2        0.000   0.000   0.000   0.000
  3        0.000   0.000   0.000   0.000
  4        0.000   0.000   0.000   0.000
  5        0.000   0.000   0.000   0.000
  6        0.000   0.000   0.000   0.000
  7        0.000   0.000   0.000   0.000
  8        0.000   0.000   0.000   0.000
  9       -0.000  -0.000   0.000  -0.000
 10       -0.000  -0.000   0.000  -0.000
 11       -0.000  -0.000   0.000  -0.000
 12       -0.000  -0.000   0.000  -0.000
 13       -0.000  -0.000   0.000  -0.000
 14       -0.000  -0.000   0.000  -0.000
 15       -0.000   0.000   0.000  -0.000
------------------------------------------------
tot        0.000  -0.000   0.000   0.000
 

 total amount of memory used by VASP on root node    34216. kBytes
========================================================================

   base      :      30000. kBytes
   nonlr-proj:        860. kBytes
   fftplans  :        353. kBytes
   grid      :        883. kBytes
   one-center:         32. kBytes
   wavefun   :       2088. kBytes
 
  
  
 General timing and accounting informations for this job:
 ========================================================
  
                  Total CPU time used (sec):       16.212
                            User time (sec):       15.984
                          System time (sec):        0.228
                         Elapsed time (sec):       16.568
  
                   Maximum memory used (kb):       80132.
                   Average memory used (kb):           0.
  
                          Minor page faults:        15029
                          Major page faults:            8
                 Voluntary context switches:         2020
