<?xml version="1.0" encoding="ISO-8859-1"?>
<modeling>
 <generator>
  <i name="program" type="string">vasp </i>
  <i name="version" type="string">5.4.1  </i>
  <i name="subversion" type="string">05Feb16 (build Mar 31 2016 13:39:20) complex                          parallel </i>
  <i name="platform" type="string">IFC91_ompi </i>
  <i name="date" type="string">2018 04 12 </i>
  <i name="time" type="string">14:16:46 </i>
 </generator>
 <incar>
  <i type="string" name="PREC">n</i>
  <i type="string" name="ALGO"> N</i>
  <i type="int" name="ISPIN">     2</i>
  <i type="int" name="NELM">   100</i>
  <i type="int" name="NELMIN">     4</i>
  <i type="int" name="IBRION">     2</i>
  <i name="EDIFF">      0.00000100</i>
  <i name="EDIFFG">     -0.05000000</i>
  <i type="int" name="NSW">    20</i>
  <i type="int" name="ISIF">     2</i>
  <i name="ENCUT">    400.00000000</i>
  <i name="NELECT">     58.00000000</i>
  <i type="string" name="LREAL"> A</i>
  <i type="int" name="ISMEAR">     0</i>
  <i name="SIGMA">      0.05000000</i>
  <i type="logical" name="LWAVE"> F  </i>
  <i type="logical" name="LCHARG"> F  </i>
  <i type="logical" name="LORBIT"> F  </i>
  <i type="logical" name="LASPH"> T  </i>
  <v type="int" name="KPOINT_BSE">    -1     0     0     0</v>
  <i type="int" name="NELM">   100</i>
  <i type="logical" name="LASPH"> T  </i>
 </incar>
 <kpoints>
  <generation param="Monkhorst-Pack">
   <v type="int" name="divisions">       2        2        2 </v>
   <v name="usershift">      0.00000000       0.00000000       0.00000000 </v>
   <v name="genvec1">      0.50000000       0.00000000       0.00000000 </v>
   <v name="genvec2">      0.00000000       0.50000000       0.00000000 </v>
   <v name="genvec3">      0.00000000       0.00000000       0.50000000 </v>
   <v name="shift">      0.50000000       0.50000000       0.50000000 </v>
  </generation>
  <varray name="kpointlist" >
   <v>       0.25000000       0.25000000       0.25000000 </v>
   <v>       0.25000000       0.00000000       0.00000000 </v>
   <v>       0.00000000       0.00000000      -0.25000000 </v>
   <v>       0.00000000       0.25000000       0.00000000 </v>
   <v>      -0.25000000       0.25000000       0.25000000 </v>
   <v>       0.25000000      -0.25000000       0.25000000 </v>
   <v>       0.25000000       0.25000000      -0.25000000 </v>
   <v>       0.25000000       0.00000000       0.50000000 </v>
   <v>      -0.25000000       0.50000000       0.50000000 </v>
   <v>       0.25000000       0.50000000       0.00000000 </v>
   <v>       0.00000000       0.50000000      -0.25000000 </v>
   <v>       0.50000000       0.00000000      -0.25000000 </v>
   <v>       0.50000000       0.50000000       0.25000000 </v>
   <v>       0.50000000      -0.25000000       0.50000000 </v>
   <v>       0.00000000       0.25000000       0.50000000 </v>
   <v>       0.50000000       0.25000000       0.00000000 </v>
  </varray>
  <varray name="weights" >
   <v>       0.06250000 </v>
   <v>       0.06250000 </v>
   <v>       0.06250000 </v>
   <v>       0.06250000 </v>
   <v>       0.06250000 </v>
   <v>       0.06250000 </v>
   <v>       0.06250000 </v>
   <v>       0.06250000 </v>
   <v>       0.06250000 </v>
   <v>       0.06250000 </v>
   <v>       0.06250000 </v>
   <v>       0.06250000 </v>
   <v>       0.06250000 </v>
   <v>       0.06250000 </v>
   <v>       0.06250000 </v>
   <v>       0.06250000 </v>
  </varray>
 </kpoints>
 <parameters>
  <separator name="general" >
   <i type="string" name="SYSTEM">unknown system</i>
   <i type="logical" name="LCOMPAT"> F  </i>
  </separator>
  <separator name="electronic" >
   <i type="string" name="PREC">n</i>
   <i name="ENMAX">    400.00000000</i>
   <i name="ENAUG">    605.39200000</i>
   <i name="EDIFF">      0.00000100</i>
   <i type="int" name="IALGO">    38</i>
   <i type="int" name="IWAVPR">    11</i>
   <i type="int" name="NBANDS">    48</i>
   <i name="NELECT">     58.00000000</i>
   <i type="int" name="TURBO">     0</i>
   <i type="int" name="IRESTART">     0</i>
   <i type="int" name="NREBOOT">     0</i>
   <i type="int" name="NMIN">     0</i>
   <i name="EREF">      0.00000000</i>
   <separator name="electronic smearing" >
    <i type="int" name="ISMEAR">     0</i>
    <i name="SIGMA">      0.05000000</i>
    <i name="KSPACING">      0.50000000</i>
    <i type="logical" name="KGAMMA"> T  </i>
   </separator>
   <separator name="electronic projectors" >
    <i type="logical" name="LREAL"> T  </i>
    <v name="ROPT">     -0.00050000     -0.00050000</v>
    <i type="int" name="LMAXPAW">  -100</i>
    <i type="int" name="LMAXMIX">     2</i>
    <i type="logical" name="NLSPLINE"> F  </i>
   </separator>
   <separator name="electronic startup" >
    <i type="int" name="ISTART">     0</i>
    <i type="int" name="ICHARG">     2</i>
    <i type="int" name="INIWAV">     1</i>
   </separator>
   <separator name="electronic spin" >
    <i type="int" name="ISPIN">     2</i>
    <i type="logical" name="LNONCOLLINEAR"> F  </i>
    <v name="MAGMOM">      1.00000000      1.00000000      1.00000000      1.00000000      1.00000000      1.00000000      1.00000000      1.00000000      1.00000000      1.00000000      1.00000000      1.00000000      1.00000000      1.00000000      1.00000000</v>
    <i name="NUPDOWN">     -1.00000000</i>
    <i type="logical" name="LSORBIT"> F  </i>
    <v name="SAXIS">      0.00000000      0.00000000      1.00000000</v>
    <i type="logical" name="LSPIRAL"> F  </i>
    <v name="QSPIRAL">      0.00000000      0.00000000      0.00000000</v>
    <i type="logical" name="LZEROZ"> F  </i>
   </separator>
   <separator name="electronic exchange-correlation" >
    <i type="logical" name="LASPH"> T  </i>
    <i type="logical" name="LMETAGGA"> F  </i>
   </separator>
   <separator name="electronic convergence" >
    <i type="int" name="NELM">   100</i>
    <i type="int" name="NELMDL">     0</i>
    <i type="int" name="NELMIN">     4</i>
    <i name="ENINI">    400.00000000</i>
    <separator name="electronic convergence detail" >
     <i type="logical" name="LDIAG"> T  </i>
     <i type="logical" name="LSUBROT"> F  </i>
     <i name="WEIMIN">      0.00100000</i>
     <i name="EBREAK">      0.00000001</i>
     <i name="DEPER">      0.30000000</i>
     <i type="int" name="NRMM">     4</i>
     <i name="TIME">      0.40000000</i>
    </separator>
   </separator>
   <separator name="electronic mixer" >
    <i name="AMIX">      0.40000000</i>
    <i name="BMIX">      1.00000000</i>
    <i name="AMIN">      0.10000000</i>
    <i name="AMIX_MAG">      1.60000000</i>
    <i name="BMIX_MAG">      1.00000000</i>
    <separator name="electronic mixer details" >
     <i type="int" name="IMIX">     4</i>
     <i type="logical" name="MIXFIRST"> F  </i>
     <i type="int" name="MAXMIX">   -45</i>
     <i name="WC">    100.00000000</i>
     <i type="int" name="INIMIX">     1</i>
     <i type="int" name="MIXPRE">     1</i>
     <i type="int" name="MREMOVE">     5</i>
    </separator>
   </separator>
   <separator name="electronic dipolcorrection" >
    <i type="logical" name="LDIPOL"> F  </i>
    <i type="logical" name="LMONO"> F  </i>
    <i type="int" name="IDIPOL">     0</i>
    <i name="EPSILON">      1.00000000</i>
    <v name="DIPOL">   -100.00000000   -100.00000000   -100.00000000</v>
    <i name="EFIELD">      0.00000000</i>
   </separator>
  </separator>
  <separator name="grids" >
   <i type="int" name="NGX">    30</i>
   <i type="int" name="NGY">    30</i>
   <i type="int" name="NGZ">    30</i>
   <i type="int" name="NGXF">    60</i>
   <i type="int" name="NGYF">    60</i>
   <i type="int" name="NGZF">    60</i>
   <i type="logical" name="ADDGRID"> F  </i>
  </separator>
  <separator name="ionic" >
   <i type="int" name="NSW">    20</i>
   <i type="int" name="IBRION">     2</i>
   <i type="int" name="ISIF">     2</i>
   <i name="PSTRESS">      0.00000000</i>
   <i name="EDIFFG">     -0.05000000</i>
   <i type="int" name="NFREE">     1</i>
   <i name="POTIM">      0.50000000</i>
   <i name="SMASS">     -3.00000000</i>
   <i name="SCALEE">      1.00000000</i>
  </separator>
  <separator name="ionic md" >
   <i name="TEBEG">      0.00010000</i>
   <i name="TEEND">      0.00010000</i>
   <i type="int" name="NBLOCK">     1</i>
   <i type="int" name="KBLOCK">    20</i>
   <i type="int" name="NPACO">   256</i>
   <i name="APACO">     16.00000000</i>
  </separator>
  <separator name="symmetry" >
   <i type="int" name="ISYM">     2</i>
   <i name="SYMPREC">      0.00001000</i>
  </separator>
  <separator name="dos" >
   <i type="logical" name="LORBIT"> F  </i>
   <v name="RWIGS">     -1.00000000     -1.00000000</v>
   <i type="int" name="NEDOS">   301</i>
   <i name="EMIN">     10.00000000</i>
   <i name="EMAX">    -10.00000000</i>
   <i name="EFERMI">      0.00000000</i>
  </separator>
  <separator name="writing" >
   <i type="int" name="NWRITE">     2</i>
   <i type="logical" name="LWAVE"> F  </i>
   <i type="logical" name="LCHARG"> F  </i>
   <i type="logical" name="LPARD"> F  </i>
   <i type="logical" name="LVTOT"> F  </i>
   <i type="logical" name="LVHAR"> F  </i>
   <i type="logical" name="LELF"> F  </i>
   <i type="logical" name="LOPTICS"> F  </i>
   <v name="STM">      0.00000000      0.00000000      0.00000000      0.00000000      0.00000000      0.00000000      0.00000000</v>
  </separator>
  <separator name="performance" >
   <i type="int" name="NPAR">     4</i>
   <i type="int" name="NSIM">     4</i>
   <i type="int" name="NBLK">    -1</i>
   <i type="logical" name="LPLANE"> T  </i>
   <i type="logical" name="LSCALAPACK"> T  </i>
   <i type="logical" name="LSCAAWARE"> F  </i>
   <i type="logical" name="LSCALU"> F  </i>
   <i type="logical" name="LASYNC"> F  </i>
   <i type="logical" name="LORBITALREAL"> F  </i>
  </separator>
  <separator name="miscellaneous" >
   <i type="int" name="IDIOT">     3</i>
   <i type="logical" name="LMUSIC"> F  </i>
   <v name="POMASS">     24.30500000     16.00000000</v>
   <v name="DARWINR">      0.00000000      0.00000000</v>
   <v name="DARWINV">      1.00000000      1.00000000</v>
   <i type="logical" name="LCORR"> T  </i>
  </separator>
  <i type="logical" name="GGA_COMPAT"> T  </i>
  <i type="logical" name="LBERRY"> F  </i>
  <i type="int" name="ICORELEVEL">     0</i>
  <i type="logical" name="LDAU"> F  </i>
  <i type="int" name="I_CONSTRAINED_M">     0</i>
  <separator name="electronic exchange-correlation" >
   <i type="string" name="GGA">--</i>
   <i type="int" name="VOSKOWN">     0</i>
   <i type="logical" name="LHFCALC"> F  </i>
   <i type="string" name="PRECFOCK"></i>
   <i type="logical" name="LSYMGRAD"> F  </i>
   <i type="logical" name="LHFONE"> F  </i>
   <i type="logical" name="LRHFCALC"> F  </i>
   <i type="logical" name="LTHOMAS"> F  </i>
   <i type="logical" name="LMODELHF"> F  </i>
   <i name="ENCUT4O">     -1.00000000</i>
   <i type="int" name="EXXOEP">     0</i>
   <i type="int" name="FOURORBIT">     0</i>
   <i name="AEXX">      0.00000000</i>
   <i name="HFALPHA">      0.00000000</i>
   <i name="MCALPHA">      0.00000000</i>
   <i name="ALDAX">      1.00000000</i>
   <i name="AGGAX">      1.00000000</i>
   <i name="ALDAC">      1.00000000</i>
   <i name="AGGAC">      1.00000000</i>
   <i type="int" name="NKREDX">     1</i>
   <i type="int" name="NKREDY">     1</i>
   <i type="int" name="NKREDZ">     1</i>
   <i type="logical" name="SHIFTRED"> F  </i>
   <i type="logical" name="ODDONLY"> F  </i>
   <i type="logical" name="EVENONLY"> F  </i>
   <i type="int" name="LMAXFOCK">     0</i>
   <i type="int" name="NMAXFOCKAE">     0</i>
   <i type="logical" name="LFOCKAEDFT"> F  </i>
   <i name="HFSCREEN">      0.00000000</i>
   <i name="HFSCREENC">      0.00000000</i>
   <i type="int" name="NBANDSGWLOW">     0</i>
  </separator>
  <separator name="vdW DFT" >
   <i type="logical" name="LUSE_VDW"> F  </i>
   <i name="Zab_VDW">     -0.84910000</i>
   <i name="PARAM1">      0.12340000</i>
   <i name="PARAM2">      1.00000000</i>
   <i name="PARAM3">      0.00000000</i>
  </separator>
  <separator name="model GW" >
   <i type="int" name="MODEL_GW">     0</i>
   <i name="MODEL_EPS0">      6.12779100</i>
   <i name="MODEL_ALPHA">      1.00000000</i>
  </separator>
  <separator name="linear response parameters" >
   <i type="logical" name="LEPSILON"> F  </i>
   <i type="logical" name="LRPA"> F  </i>
   <i type="logical" name="LNABLA"> F  </i>
   <i type="logical" name="LVEL"> F  </i>
   <i type="int" name="KINTER">     0</i>
   <i name="CSHIFT">      0.10000000</i>
   <i name="OMEGAMAX">     -1.00000000</i>
   <i name="DEG_THRESHOLD">      0.00200000</i>
  </separator>
  <separator name="orbital magnetization" >
   <i type="logical" name="NUCIND"> F  </i>
   <v name="MAGPOS">      0.00000000      0.00000000      0.00000000</v>
   <i type="logical" name="LNICSALL"> T  </i>
   <i type="logical" name="ORBITALMAG"> F  </i>
   <i type="logical" name="LMAGBLOCH"> F  </i>
   <i type="logical" name="LCHIMAG"> F  </i>
   <i type="logical" name="LGAUGE"> T  </i>
   <i type="int" name="MAGATOM">     0</i>
   <v name="MAGDIPOL">      0.00000000      0.00000000      0.00000000</v>
   <v name="AVECCONST">      0.00000000      0.00000000      0.00000000</v>
  </separator>
  <separator name="response functions" >
   <i type="logical" name="LADDER"> F  </i>
   <i type="logical" name="LFXC"> F  </i>
   <i type="logical" name="LHARTREE"> T  </i>
   <i type="int" name="IBSE">     0</i>
   <v type="int" name="KPOINT">    -1     0     0     0</v>
   <i type="logical" name="LTCTE"> F  </i>
   <i type="logical" name="LTETE"> F  </i>
   <i type="logical" name="LTRIPLET"> F  </i>
   <i type="logical" name="LFXCEPS"> F  </i>
   <i type="logical" name="LFXHEG"> F  </i>
   <i type="int" name="NATURALO">     0</i>
   <i type="logical" name="L2ORDER"> F  </i>
   <i type="logical" name="LUSEW"> F  </i>
   <i name="ENCUTGW">     -2.00000000</i>
   <i name="ENCUTGWSOFT">     -2.00000000</i>
   <i name="ENCUTLF">     -1.00000000</i>
   <i type="int" name="LMAXMP2">    -1</i>
   <i name="SCISSOR">      0.00000000</i>
   <i type="int" name="NOMEGA">     0</i>
   <i type="int" name="NOMEGAR">     0</i>
   <i type="int" name="NBANDSGW">    -1</i>
   <i type="int" name="NBANDSO">    -1</i>
   <i type="int" name="NBANDSV">    -1</i>
   <i type="int" name="NELM">   100</i>
   <i type="int" name="NELMHF">     1</i>
   <i type="int" name="DIM">     3</i>
   <i type="int" name="ANTIRES">     0</i>
   <i name="OMEGAMAX">    -30.00000000</i>
   <i name="OMEGAMIN">    -30.00000000</i>
   <i name="OMEGATL">   -200.00000000</i>
   <i type="int" name="OMEGAGRID">     0</i>
   <i name="CSHIFT">     -0.10000000</i>
   <i type="logical" name="SELFENERGY"> F  </i>
   <i type="logical" name="LSPECTRAL"> F  </i>
   <i type="logical" name="LSPECTRALGW"> F  </i>
   <i type="logical" name="LSINGLES"> F  </i>
   <i type="logical" name="LFERMIGW"> F  </i>
   <i type="logical" name="ODDONLYGW"> F  </i>
   <i type="logical" name="EVENONLYGW"> F  </i>
   <i type="int" name="NKREDLFX">     1</i>
   <i type="int" name="NKREDLFY">     1</i>
   <i type="int" name="NKREDLFZ">     1</i>
   <i type="int" name="MAXMEM">  1800</i>
   <i type="int" name="TELESCOPE">     0</i>
   <i type="int" name="TAUPAR">     1</i>
   <i type="int" name="OMEGAPAR">    -1</i>
   <i name="LAMBDA">      1.00000000</i>
  </separator>
  <separator name="External order field" >
   <i name="OFIELD_KAPPA">      0.00000000</i>
   <v name="OFIELD_K">      0.00000000      0.00000000      0.00000000</v>
   <i name="OFIELD_Q6_NEAR">      0.00000000</i>
   <i name="OFIELD_Q6_FAR">      0.00000000</i>
   <i name="OFIELD_A">      0.00000000</i>
  </separator>
 </parameters>
 <atominfo>
  <atoms>      15 </atoms>
  <types>       2 </types>
  <array name="atoms" >
   <dimension dim="1">ion</dimension>
   <field type="string">element</field>
   <field type="int">atomtype</field>
   <set>
    <rc><c>Mg</c><c>   1</c></rc>
    <rc><c>Mg</c><c>   1</c></rc>
    <rc><c>Mg</c><c>   1</c></rc>
    <rc><c>Mg</c><c>   1</c></rc>
    <rc><c>Mg</c><c>   1</c></rc>
    <rc><c>Mg</c><c>   1</c></rc>
    <rc><c>Mg</c><c>   1</c></rc>
    <rc><c>Mg</c><c>   1</c></rc>
    <rc><c>O </c><c>   2</c></rc>
    <rc><c>O </c><c>   2</c></rc>
    <rc><c>O </c><c>   2</c></rc>
    <rc><c>O </c><c>   2</c></rc>
    <rc><c>O </c><c>   2</c></rc>
    <rc><c>O </c><c>   2</c></rc>
    <rc><c>O </c><c>   2</c></rc>
   </set>
  </array>
  <array name="atomtypes" >
   <dimension dim="1">type</dimension>
   <field type="int">atomspertype</field>
   <field type="string">element</field>
   <field>mass</field>
   <field>valence</field>
   <field type="string">pseudopotential</field>
   <set>
    <rc><c>   8</c><c>Mg</c><c>     24.30500000</c><c>      2.00000000</c><c>  PAW_PBE Mg 13Apr2007                  </c></rc>
    <rc><c>   7</c><c>O </c><c>     16.00000000</c><c>      6.00000000</c><c>  PAW_PBE O 08Apr2002                   </c></rc>
   </set>
  </array>
 </atominfo>
 <structure name="initialpos" >
  <crystal>
   <varray name="basis" >
    <v>       0.00000000       4.24689300       4.24689300 </v>
    <v>       4.24689300       0.00000000       4.24689300 </v>
    <v>       4.24689300       4.24689300       0.00000000 </v>
   </varray>
   <i name="volume">    153.19477498 </i>
   <varray name="rec_basis" >
    <v>      -0.11773313       0.11773313       0.11773313 </v>
    <v>       0.11773313      -0.11773313       0.11773313 </v>
    <v>       0.11773313       0.11773313      -0.11773313 </v>
   </varray>
  </crystal>
  <varray name="positions" >
   <v>       0.99916745       0.99897072       0.00389341 </v>
   <v>       0.99847737       0.99743840       0.50509743 </v>
   <v>       0.99857193       0.49979150       0.00302468 </v>
   <v>       0.99916242       0.49877230       0.50411672 </v>
   <v>       0.49944197       0.99840302       0.00387684 </v>
   <v>       0.50014641       0.99791892       0.50494595 </v>
   <v>       0.50081388       0.49971936       0.00297904 </v>
   <v>       0.49941029       0.49873398       0.50389079 </v>
   <v>       0.24931087       0.24857217       0.75431329 </v>
   <v>       0.24920788       0.74859452       0.25446281 </v>
   <v>       0.24947754       0.74874569       0.75408360 </v>
   <v>       0.74930800       0.24833509       0.25445550 </v>
   <v>       0.74941565       0.24866955       0.75420728 </v>
   <v>       0.74946071       0.74846339       0.25446505 </v>
   <v>       0.74921064       0.74871540       0.75472160 </v>
  </varray>
 </structure>
 <calculation>
  <scstep>
   <time name="dav">    0.70    0.70</time>
   <time name="total">    1.07    1.08</time>
   <energy>
    <i name="alphaZ">    129.53385374 </i>
    <i name="ewald">  -2376.84970758 </i>
    <i name="hartreedc">   -970.87183897 </i>
    <i name="XCdc">   -189.68060472 </i>
    <i name="pawpsdc">   2946.27252624 </i>
    <i name="pawaedc">  -2543.92834819 </i>
    <i name="eentropy">     -0.00251427 </i>
    <i name="bandstr">     17.93865189 </i>
    <i name="atom">   3210.13655998 </i>
    <i name="e_fr_energy">    222.54857812 </i>
    <i name="e_wo_entrp">    222.55109239 </i>
    <i name="e_0_energy">    222.54983526 </i>
   </energy>
  </scstep>
  <scstep>
   <time name="dav">    0.72    0.72</time>
   <time name="total">    0.72    0.73</time>
   <energy>
    <i name="e_fr_energy">    -72.52736777 </i>
    <i name="e_wo_entrp">    -72.52736777 </i>
    <i name="e_0_energy">    -72.52736777 </i>
   </energy>
  </scstep>
  <scstep>
   <time name="dav">    0.73    0.73</time>
   <time name="total">    0.73    0.74</time>
   <energy>
    <i name="e_fr_energy">    -89.06605448 </i>
    <i name="e_wo_entrp">    -89.06605448 </i>
    <i name="e_0_energy">    -89.06605448 </i>
   </energy>
  </scstep>
  <scstep>
   <time name="dav">    0.68    0.69</time>
   <time name="total">    0.68    0.69</time>
   <energy>
    <i name="e_fr_energy">    -89.16236800 </i>
    <i name="e_wo_entrp">    -89.16236800 </i>
    <i name="e_0_energy">    -89.16236800 </i>
   </energy>
  </scstep>
  <scstep>
   <time name="dav">    0.70    0.70</time>
   <time name="total">    0.72    0.72</time>
   <energy>
    <i name="e_fr_energy">    -89.16284110 </i>
    <i name="e_wo_entrp">    -89.16284110 </i>
    <i name="e_0_energy">    -89.16284110 </i>
   </energy>
  </scstep>
  <scstep>
   <time name="dav">    0.62    0.63</time>
   <time name="total">    1.01    1.01</time>
   <energy>
    <i name="e_fr_energy">    -83.70913960 </i>
    <i name="e_wo_entrp">    -83.70913960 </i>
    <i name="e_0_energy">    -83.70913960 </i>
   </energy>
  </scstep>
  <scstep>
   <time name="dav">    0.68    0.68</time>
   <time name="total">    1.07    1.07</time>
   <energy>
    <i name="e_fr_energy">    -83.87513682 </i>
    <i name="e_wo_entrp">    -83.87513682 </i>
    <i name="e_0_energy">    -83.87513682 </i>
   </energy>
  </scstep>
  <scstep>
   <time name="dav">    0.70    0.70</time>
   <time name="total">    1.09    1.09</time>
   <energy>
    <i name="e_fr_energy">    -83.80673751 </i>
    <i name="e_wo_entrp">    -83.80673751 </i>
    <i name="e_0_energy">    -83.80673751 </i>
   </energy>
  </scstep>
  <scstep>
   <time name="dav">    0.70    0.70</time>
   <time name="total">    1.09    1.09</time>
   <energy>
    <i name="e_fr_energy">    -83.80509849 </i>
    <i name="e_wo_entrp">    -83.80509849 </i>
    <i name="e_0_energy">    -83.80509849 </i>
   </energy>
  </scstep>
  <scstep>
   <time name="dav">    0.70    0.70</time>
   <time name="total">    1.09    1.09</time>
   <energy>
    <i name="e_fr_energy">    -83.80430274 </i>
    <i name="e_wo_entrp">    -83.80430274 </i>
    <i name="e_0_energy">    -83.80430274 </i>
   </energy>
  </scstep>
  <scstep>
   <time name="dav">    0.70    0.70</time>
   <time name="total">    1.08    1.08</time>
   <energy>
    <i name="e_fr_energy">    -83.80455929 </i>
    <i name="e_wo_entrp">    -83.80455929 </i>
    <i name="e_0_energy">    -83.80455929 </i>
   </energy>
  </scstep>
  <scstep>
   <time name="dav">    0.68    0.68</time>
   <time name="total">    1.07    1.07</time>
   <energy>
    <i name="e_fr_energy">    -83.80469066 </i>
    <i name="e_wo_entrp">    -83.80469066 </i>
    <i name="e_0_energy">    -83.80469066 </i>
   </energy>
  </scstep>
  <scstep>
   <time name="dav">    0.71    0.71</time>
   <time name="total">    1.10    1.10</time>
   <energy>
    <i name="e_fr_energy">    -83.80469198 </i>
    <i name="e_wo_entrp">    -83.80469198 </i>
    <i name="e_0_energy">    -83.80469198 </i>
   </energy>
  </scstep>
  <scstep>
   <time name="dav">    0.71    0.71</time>
   <time name="total">    1.08    1.08</time>
   <energy>
    <i name="alphaZ">    129.53385374 </i>
    <i name="ewald">  -2376.84970758 </i>
    <i name="hartreedc">  -1114.81066869 </i>
    <i name="XCdc">   -181.48480361 </i>
    <i name="pawpsdc">   3944.85194185 </i>
    <i name="pawaedc">  -3544.26374507 </i>
    <i name="eentropy">     -0.00000000 </i>
    <i name="bandstr">   -150.91812307 </i>
    <i name="atom">   3210.13655998 </i>
    <i name="e_fr_energy">    -83.80469245 </i>
    <i name="e_wo_entrp">    -83.80469245 </i>
    <i name="e_0_energy">    -83.80469245 </i>
   </energy>
  </scstep>
  <structure>
   <crystal>
    <varray name="basis" >
     <v>       0.00000000       4.24689300       4.24689300 </v>
     <v>       4.24689300       0.00000000       4.24689300 </v>
     <v>       4.24689300       4.24689300       0.00000000 </v>
    </varray>
    <i name="volume">    153.19477498 </i>
    <varray name="rec_basis" >
     <v>      -0.11773313       0.11773313       0.11773313 </v>
     <v>       0.11773313      -0.11773313       0.11773313 </v>
     <v>       0.11773313       0.11773313      -0.11773313 </v>
    </varray>
   </crystal>
   <varray name="positions" >
    <v>       0.99916745       0.99897072       0.00389341 </v>
    <v>       0.99847737       0.99743840       0.50509743 </v>
    <v>       0.99857193       0.49979150       0.00302468 </v>
    <v>       0.99916242       0.49877230       0.50411672 </v>
    <v>       0.49944197       0.99840302       0.00387684 </v>
    <v>       0.50014641       0.99791892       0.50494595 </v>
    <v>       0.50081388       0.49971936       0.00297904 </v>
    <v>       0.49941029       0.49873398       0.50389079 </v>
    <v>       0.24931087       0.24857217       0.75431329 </v>
    <v>       0.24920788       0.74859452       0.25446281 </v>
    <v>       0.24947754       0.74874569       0.75408360 </v>
    <v>       0.74930800       0.24833509       0.25445550 </v>
    <v>       0.74941565       0.24866955       0.75420728 </v>
    <v>       0.74946071       0.74846339       0.25446505 </v>
    <v>       0.74921064       0.74871540       0.75472160 </v>
   </varray>
  </structure>
  <varray name="forces" >
   <v>      -0.00277167       0.01894881      -0.00830140 </v>
   <v>       0.00985421      -0.00465759       0.01608933 </v>
   <v>      -0.00033934       0.01946998      -0.00630000 </v>
   <v>       0.02559531       0.00668200       0.00400507 </v>
   <v>      -0.00672972       0.00595336       0.00704277 </v>
   <v>      -0.00252808      -0.00287907      -0.00290277 </v>
   <v>       0.00399783      -0.01324581      -0.02592565 </v>
   <v>       0.00779902       0.01262945      -0.00732816 </v>
   <v>       0.00142088      -0.00682047       0.00457737 </v>
   <v>      -0.01083999      -0.00408153       0.00476410 </v>
   <v>       0.00063869       0.00270068      -0.00427861 </v>
   <v>       0.00241368      -0.00749535       0.01523029 </v>
   <v>      -0.00159565      -0.00306614      -0.00210425 </v>
   <v>      -0.00444135      -0.01446818       0.00349847 </v>
   <v>      -0.02247382      -0.00967015       0.00193344 </v>
  </varray>
  <varray name="stress" >
   <v>     -23.21827756       0.11961993       0.23296141 </v>
   <v>       0.11961998     -22.74186932       0.22434167 </v>
   <v>       0.23296149       0.22434157     -22.50092736 </v>
  </varray>
  <energy>
   <i name="e_fr_energy">    -83.80469245 </i>
   <i name="e_wo_entrp">    -83.80469245 </i>
   <i name="e_0_energy">     -0.00000000 </i>
  </energy>
  <time name="totalsc">   14.83   14.89</time>
  <eigenvalues>
   <array>
    <dimension dim="1">band</dimension>
    <dimension dim="2">kpoint</dimension>
    <dimension dim="3">spin</dimension>
    <field>eigene</field>
    <field>occ</field>
    <set>
     <set comment="spin 1">
      <set comment="kpoint 1">
       <r>  -14.2516    1.0000 </r>
       <r>  -13.4668    1.0000 </r>
       <r>  -13.2681    1.0000 </r>
       <r>  -13.2676    1.0000 </r>
       <r>  -13.2288    1.0000 </r>
       <r>  -13.0924    1.0000 </r>
       <r>  -13.0919    1.0000 </r>
       <r>   -1.6073    1.0000 </r>
       <r>   -1.4708    1.0000 </r>
       <r>   -1.4693    1.0000 </r>
       <r>   -1.2933    1.0000 </r>
       <r>   -1.0302    1.0000 </r>
       <r>   -0.6772    1.0000 </r>
       <r>   -0.6755    1.0000 </r>
       <r>    0.9829    1.0000 </r>
       <r>    0.9836    1.0000 </r>
       <r>    1.0544    1.0000 </r>
       <r>    1.3963    1.0000 </r>
       <r>    1.4870    1.0000 </r>
       <r>    1.4904    1.0000 </r>
       <r>    1.5262    1.0000 </r>
       <r>    1.5820    1.0000 </r>
       <r>    1.5832    1.0000 </r>
       <r>    1.8799    1.0000 </r>
       <r>    1.9989    1.0000 </r>
       <r>    1.9994    1.0000 </r>
       <r>    2.3636    1.0000 </r>
       <r>    2.3664    1.0000 </r>
       <r>    4.2601    1.0000 </r>
       <r>    8.6709    0.0000 </r>
       <r>    9.7359    0.0000 </r>
       <r>   10.4628    0.0000 </r>
       <r>   10.4675    0.0000 </r>
       <r>   11.1566    0.0000 </r>
       <r>   11.4151    0.0000 </r>
       <r>   11.4181    0.0000 </r>
       <r>   12.2686    0.0000 </r>
       <r>   12.2691    0.0000 </r>
       <r>   12.4647    0.0000 </r>
       <r>   12.8968    0.0000 </r>
       <r>   13.3618    0.0000 </r>
       <r>   13.3653    0.0000 </r>
       <r>   14.7754    0.0000 </r>
       <r>   15.0850    0.0000 </r>
       <r>   15.1698    0.0000 </r>
       <r>   15.1736    0.0000 </r>
       <r>   16.6942    0.0000 </r>
       <r>   17.2810    0.0000 </r>
      </set>
      <set comment="kpoint 2">
       <r>  -14.2516    1.0000 </r>
       <r>  -13.4668    1.0000 </r>
       <r>  -13.2681    1.0000 </r>
       <r>  -13.2676    1.0000 </r>
       <r>  -13.2288    1.0000 </r>
       <r>  -13.0924    1.0000 </r>
       <r>  -13.0919    1.0000 </r>
       <r>   -1.6073    1.0000 </r>
       <r>   -1.4707    1.0000 </r>
       <r>   -1.4692    1.0000 </r>
       <r>   -1.2933    1.0000 </r>
       <r>   -1.0301    1.0000 </r>
       <r>   -0.6773    1.0000 </r>
       <r>   -0.6756    1.0000 </r>
       <r>    0.9831    1.0000 </r>
       <r>    0.9836    1.0000 </r>
       <r>    1.0545    1.0000 </r>
       <r>    1.3960    1.0000 </r>
       <r>    1.4876    1.0000 </r>
       <r>    1.4908    1.0000 </r>
       <r>    1.5263    1.0000 </r>
       <r>    1.5817    1.0000 </r>
       <r>    1.5828    1.0000 </r>
       <r>    1.8796    1.0000 </r>
       <r>    1.9990    1.0000 </r>
       <r>    1.9992    1.0000 </r>
       <r>    2.3636    1.0000 </r>
       <r>    2.3662    1.0000 </r>
       <r>    4.2603    1.0000 </r>
       <r>    8.6710    0.0000 </r>
       <r>    9.7360    0.0000 </r>
       <r>   10.4625    0.0000 </r>
       <r>   10.4671    0.0000 </r>
       <r>   11.1566    0.0000 </r>
       <r>   11.4156    0.0000 </r>
       <r>   11.4178    0.0000 </r>
       <r>   12.2687    0.0000 </r>
       <r>   12.2695    0.0000 </r>
       <r>   12.4651    0.0000 </r>
       <r>   12.8971    0.0000 </r>
       <r>   13.3617    0.0000 </r>
       <r>   13.3650    0.0000 </r>
       <r>   14.7754    0.0000 </r>
       <r>   15.0851    0.0000 </r>
       <r>   15.1697    0.0000 </r>
       <r>   15.1735    0.0000 </r>
       <r>   16.6940    0.0000 </r>
       <r>   17.2807    0.0000 </r>
      </set>
      <set comment="kpoint 3">
       <r>  -14.2516    1.0000 </r>
       <r>  -13.4671    1.0000 </r>
       <r>  -13.2681    1.0000 </r>
       <r>  -13.2676    1.0000 </r>
       <r>  -13.2285    1.0000 </r>
       <r>  -13.0924    1.0000 </r>
       <r>  -13.0919    1.0000 </r>
       <r>   -1.6074    1.0000 </r>
       <r>   -1.4699    1.0000 </r>
       <r>   -1.4693    1.0000 </r>
       <r>   -1.2936    1.0000 </r>
       <r>   -1.0296    1.0000 </r>
       <r>   -0.6773    1.0000 </r>
       <r>   -0.6766    1.0000 </r>
       <r>    0.9828    1.0000 </r>
       <r>    0.9836    1.0000 </r>
       <r>    1.0545    1.0000 </r>
       <r>    1.3961    1.0000 </r>
       <r>    1.4875    1.0000 </r>
       <r>    1.4905    1.0000 </r>
       <r>    1.5261    1.0000 </r>
       <r>    1.5819    1.0000 </r>
       <r>    1.5838    1.0000 </r>
       <r>    1.8796    1.0000 </r>
       <r>    1.9984    1.0000 </r>
       <r>    1.9988    1.0000 </r>
       <r>    2.3637    1.0000 </r>
       <r>    2.3668    1.0000 </r>
       <r>    4.2603    1.0000 </r>
       <r>    8.6714    0.0000 </r>
       <r>    9.7362    0.0000 </r>
       <r>   10.4617    0.0000 </r>
       <r>   10.4676    0.0000 </r>
       <r>   11.1565    0.0000 </r>
       <r>   11.4153    0.0000 </r>
       <r>   11.4180    0.0000 </r>
       <r>   12.2689    0.0000 </r>
       <r>   12.2691    0.0000 </r>
       <r>   12.4644    0.0000 </r>
       <r>   12.8974    0.0000 </r>
       <r>   13.3618    0.0000 </r>
       <r>   13.3650    0.0000 </r>
       <r>   14.7754    0.0000 </r>
       <r>   15.0844    0.0000 </r>
       <r>   15.1690    0.0000 </r>
       <r>   15.1747    0.0000 </r>
       <r>   16.6941    0.0000 </r>
       <r>   17.2815    0.0000 </r>
      </set>
      <set comment="kpoint 4">
       <r>  -14.2516    1.0000 </r>
       <r>  -13.4671    1.0000 </r>
       <r>  -13.2681    1.0000 </r>
       <r>  -13.2676    1.0000 </r>
       <r>  -13.2286    1.0000 </r>
       <r>  -13.0924    1.0000 </r>
       <r>  -13.0919    1.0000 </r>
       <r>   -1.6075    1.0000 </r>
       <r>   -1.4699    1.0000 </r>
       <r>   -1.4694    1.0000 </r>
       <r>   -1.2934    1.0000 </r>
       <r>   -1.0297    1.0000 </r>
       <r>   -0.6772    1.0000 </r>
       <r>   -0.6767    1.0000 </r>
       <r>    0.9830    1.0000 </r>
       <r>    0.9835    1.0000 </r>
       <r>    1.0546    1.0000 </r>
       <r>    1.3961    1.0000 </r>
       <r>    1.4873    1.0000 </r>
       <r>    1.4902    1.0000 </r>
       <r>    1.5263    1.0000 </r>
       <r>    1.5823    1.0000 </r>
       <r>    1.5839    1.0000 </r>
       <r>    1.8796    1.0000 </r>
       <r>    1.9983    1.0000 </r>
       <r>    1.9988    1.0000 </r>
       <r>    2.3637    1.0000 </r>
       <r>    2.3665    1.0000 </r>
       <r>    4.2603    1.0000 </r>
       <r>    8.6714    0.0000 </r>
       <r>    9.7361    0.0000 </r>
       <r>   10.4620    0.0000 </r>
       <r>   10.4678    0.0000 </r>
       <r>   11.1566    0.0000 </r>
       <r>   11.4156    0.0000 </r>
       <r>   11.4176    0.0000 </r>
       <r>   12.2688    0.0000 </r>
       <r>   12.2691    0.0000 </r>
       <r>   12.4640    0.0000 </r>
       <r>   12.8972    0.0000 </r>
       <r>   13.3619    0.0000 </r>
       <r>   13.3650    0.0000 </r>
       <r>   14.7754    0.0000 </r>
       <r>   15.0844    0.0000 </r>
       <r>   15.1693    0.0000 </r>
       <r>   15.1745    0.0000 </r>
       <r>   16.6943    0.0000 </r>
       <r>   17.2880    0.0000 </r>
      </set>
      <set comment="kpoint 5">
       <r>  -13.9406    1.0000 </r>
       <r>  -13.6465    1.0000 </r>
       <r>  -13.4404    1.0000 </r>
       <r>  -13.3119    1.0000 </r>
       <r>  -13.2203    1.0000 </r>
       <r>  -13.1295    1.0000 </r>
       <r>  -13.0569    1.0000 </r>
       <r>   -1.2008    1.0000 </r>
       <r>   -0.9790    1.0000 </r>
       <r>   -0.9357    1.0000 </r>
       <r>   -0.8019    1.0000 </r>
       <r>   -0.6679    1.0000 </r>
       <r>   -0.2558    1.0000 </r>
       <r>   -0.1963    1.0000 </r>
       <r>    0.2921    1.0000 </r>
       <r>    0.2954    1.0000 </r>
       <r>    0.3241    1.0000 </r>
       <r>    0.7341    1.0000 </r>
       <r>    0.9727    1.0000 </r>
       <r>    1.1546    1.0000 </r>
       <r>    1.3335    1.0000 </r>
       <r>    1.4725    1.0000 </r>
       <r>    1.6178    1.0000 </r>
       <r>    1.6943    1.0000 </r>
       <r>    1.7755    1.0000 </r>
       <r>    1.9670    1.0000 </r>
       <r>    2.0213    1.0000 </r>
       <r>    2.1659    1.0000 </r>
       <r>    5.3287    1.0000 </r>
       <r>    8.4228    0.0000 </r>
       <r>    9.3832    0.0000 </r>
       <r>    9.8469    0.0000 </r>
       <r>   10.7512    0.0000 </r>
       <r>   11.6360    0.0000 </r>
       <r>   12.2493    0.0000 </r>
       <r>   12.5611    0.0000 </r>
       <r>   12.7034    0.0000 </r>
       <r>   13.2761    0.0000 </r>
       <r>   13.2958    0.0000 </r>
       <r>   14.0374    0.0000 </r>
       <r>   14.0684    0.0000 </r>
       <r>   14.1949    0.0000 </r>
       <r>   14.3866    0.0000 </r>
       <r>   14.7058    0.0000 </r>
       <r>   14.8970    0.0000 </r>
       <r>   14.9325    0.0000 </r>
       <r>   15.4483    0.0000 </r>
       <r>   16.1830    0.0000 </r>
      </set>
      <set comment="kpoint 6">
       <r>  -13.9402    1.0000 </r>
       <r>  -13.6469    1.0000 </r>
       <r>  -13.4408    1.0000 </r>
       <r>  -13.3116    1.0000 </r>
       <r>  -13.2196    1.0000 </r>
       <r>  -13.1302    1.0000 </r>
       <r>  -13.0566    1.0000 </r>
       <r>   -1.1997    1.0000 </r>
       <r>   -0.9793    1.0000 </r>
       <r>   -0.9338    1.0000 </r>
       <r>   -0.8029    1.0000 </r>
       <r>   -0.6672    1.0000 </r>
       <r>   -0.2553    1.0000 </r>
       <r>   -0.1977    1.0000 </r>
       <r>    0.2905    1.0000 </r>
       <r>    0.2947    1.0000 </r>
       <r>    0.3240    1.0000 </r>
       <r>    0.7324    1.0000 </r>
       <r>    0.9731    1.0000 </r>
       <r>    1.1529    1.0000 </r>
       <r>    1.3329    1.0000 </r>
       <r>    1.4728    1.0000 </r>
       <r>    1.6176    1.0000 </r>
       <r>    1.6970    1.0000 </r>
       <r>    1.7758    1.0000 </r>
       <r>    1.9659    1.0000 </r>
       <r>    2.0217    1.0000 </r>
       <r>    2.1684    1.0000 </r>
       <r>    5.3289    1.0000 </r>
       <r>    8.4212    0.0000 </r>
       <r>    9.3820    0.0000 </r>
       <r>    9.8510    0.0000 </r>
       <r>   10.7486    0.0000 </r>
       <r>   11.6372    0.0000 </r>
       <r>   12.2489    0.0000 </r>
       <r>   12.5605    0.0000 </r>
       <r>   12.7039    0.0000 </r>
       <r>   13.2760    0.0000 </r>
       <r>   13.2954    0.0000 </r>
       <r>   14.0383    0.0000 </r>
       <r>   14.0701    0.0000 </r>
       <r>   14.1939    0.0000 </r>
       <r>   14.3867    0.0000 </r>
       <r>   14.7061    0.0000 </r>
       <r>   14.8943    0.0000 </r>
       <r>   14.9329    0.0000 </r>
       <r>   15.4500    0.0000 </r>
       <r>   16.1880    0.0000 </r>
      </set>
      <set comment="kpoint 7">
       <r>  -13.9402    1.0000 </r>
       <r>  -13.6469    1.0000 </r>
       <r>  -13.4409    1.0000 </r>
       <r>  -13.3115    1.0000 </r>
       <r>  -13.2197    1.0000 </r>
       <r>  -13.1303    1.0000 </r>
       <r>  -13.0565    1.0000 </r>
       <r>   -1.1994    1.0000 </r>
       <r>   -0.9792    1.0000 </r>
       <r>   -0.9332    1.0000 </r>
       <r>   -0.8033    1.0000 </r>
       <r>   -0.6672    1.0000 </r>
       <r>   -0.2551    1.0000 </r>
       <r>   -0.1980    1.0000 </r>
       <r>    0.2900    1.0000 </r>
       <r>    0.2944    1.0000 </r>
       <r>    0.3240    1.0000 </r>
       <r>    0.7319    1.0000 </r>
       <r>    0.9731    1.0000 </r>
       <r>    1.1517    1.0000 </r>
       <r>    1.3327    1.0000 </r>
       <r>    1.4731    1.0000 </r>
       <r>    1.6173    1.0000 </r>
       <r>    1.6980    1.0000 </r>
       <r>    1.7758    1.0000 </r>
       <r>    1.9658    1.0000 </r>
       <r>    2.0219    1.0000 </r>
       <r>    2.1695    1.0000 </r>
       <r>    5.3290    1.0000 </r>
       <r>    8.4202    0.0000 </r>
       <r>    9.3817    0.0000 </r>
       <r>    9.8525    0.0000 </r>
       <r>   10.7478    0.0000 </r>
       <r>   11.6374    0.0000 </r>
       <r>   12.2490    0.0000 </r>
       <r>   12.5604    0.0000 </r>
       <r>   12.7038    0.0000 </r>
       <r>   13.2761    0.0000 </r>
       <r>   13.2951    0.0000 </r>
       <r>   14.0403    0.0000 </r>
       <r>   14.0708    0.0000 </r>
       <r>   14.1935    0.0000 </r>
       <r>   14.3866    0.0000 </r>
       <r>   14.7064    0.0000 </r>
       <r>   14.8931    0.0000 </r>
       <r>   14.9330    0.0000 </r>
       <r>   15.4500    0.0000 </r>
       <r>   16.1922    0.0000 </r>
      </set>
      <set comment="kpoint 8">
       <r>  -13.9402    1.0000 </r>
       <r>  -13.6469    1.0000 </r>
       <r>  -13.4409    1.0000 </r>
       <r>  -13.3116    1.0000 </r>
       <r>  -13.2195    1.0000 </r>
       <r>  -13.1302    1.0000 </r>
       <r>  -13.0566    1.0000 </r>
       <r>   -1.1998    1.0000 </r>
       <r>   -0.9792    1.0000 </r>
       <r>   -0.9335    1.0000 </r>
       <r>   -0.8028    1.0000 </r>
       <r>   -0.6672    1.0000 </r>
       <r>   -0.2555    1.0000 </r>
       <r>   -0.1979    1.0000 </r>
       <r>    0.2903    1.0000 </r>
       <r>    0.2945    1.0000 </r>
       <r>    0.3242    1.0000 </r>
       <r>    0.7327    1.0000 </r>
       <r>    0.9730    1.0000 </r>
       <r>    1.1528    1.0000 </r>
       <r>    1.3327    1.0000 </r>
       <r>    1.4731    1.0000 </r>
       <r>    1.6175    1.0000 </r>
       <r>    1.6971    1.0000 </r>
       <r>    1.7761    1.0000 </r>
       <r>    1.9658    1.0000 </r>
       <r>    2.0218    1.0000 </r>
       <r>    2.1683    1.0000 </r>
       <r>    5.3289    1.0000 </r>
       <r>    8.4214    0.0000 </r>
       <r>    9.3820    0.0000 </r>
       <r>    9.8505    0.0000 </r>
       <r>   10.7488    0.0000 </r>
       <r>   11.6371    0.0000 </r>
       <r>   12.2494    0.0000 </r>
       <r>   12.5605    0.0000 </r>
       <r>   12.7036    0.0000 </r>
       <r>   13.2761    0.0000 </r>
       <r>   13.2952    0.0000 </r>
       <r>   14.0389    0.0000 </r>
       <r>   14.0703    0.0000 </r>
       <r>   14.1937    0.0000 </r>
       <r>   14.3867    0.0000 </r>
       <r>   14.7060    0.0000 </r>
       <r>   14.8943    0.0000 </r>
       <r>   14.9328    0.0000 </r>
       <r>   15.4506    0.0000 </r>
       <r>   16.1893    0.0000 </r>
      </set>
      <set comment="kpoint 9">
       <r>  -13.9406    1.0000 </r>
       <r>  -13.6464    1.0000 </r>
       <r>  -13.4404    1.0000 </r>
       <r>  -13.3119    1.0000 </r>
       <r>  -13.2203    1.0000 </r>
       <r>  -13.1295    1.0000 </r>
       <r>  -13.0569    1.0000 </r>
       <r>   -1.2008    1.0000 </r>
       <r>   -0.9790    1.0000 </r>
       <r>   -0.9357    1.0000 </r>
       <r>   -0.8020    1.0000 </r>
       <r>   -0.6678    1.0000 </r>
       <r>   -0.2558    1.0000 </r>
       <r>   -0.1961    1.0000 </r>
       <r>    0.2921    1.0000 </r>
       <r>    0.2952    1.0000 </r>
       <r>    0.3241    1.0000 </r>
       <r>    0.7338    1.0000 </r>
       <r>    0.9723    1.0000 </r>
       <r>    1.1547    1.0000 </r>
       <r>    1.3337    1.0000 </r>
       <r>    1.4723    1.0000 </r>
       <r>    1.6181    1.0000 </r>
       <r>    1.6946    1.0000 </r>
       <r>    1.7757    1.0000 </r>
       <r>    1.9664    1.0000 </r>
       <r>    2.0214    1.0000 </r>
       <r>    2.1662    1.0000 </r>
       <r>    5.3286    1.0000 </r>
       <r>    8.4229    0.0000 </r>
       <r>    9.3833    0.0000 </r>
       <r>    9.8470    0.0000 </r>
       <r>   10.7509    0.0000 </r>
       <r>   11.6363    0.0000 </r>
       <r>   12.2496    0.0000 </r>
       <r>   12.5607    0.0000 </r>
       <r>   12.7032    0.0000 </r>
       <r>   13.2758    0.0000 </r>
       <r>   13.2956    0.0000 </r>
       <r>   14.0366    0.0000 </r>
       <r>   14.0685    0.0000 </r>
       <r>   14.1952    0.0000 </r>
       <r>   14.3869    0.0000 </r>
       <r>   14.7057    0.0000 </r>
       <r>   14.8969    0.0000 </r>
       <r>   14.9325    0.0000 </r>
       <r>   15.4492    0.0000 </r>
       <r>   16.1826    0.0000 </r>
      </set>
      <set comment="kpoint 10">
       <r>  -13.9402    1.0000 </r>
       <r>  -13.6469    1.0000 </r>
       <r>  -13.4409    1.0000 </r>
       <r>  -13.3115    1.0000 </r>
       <r>  -13.2197    1.0000 </r>
       <r>  -13.1303    1.0000 </r>
       <r>  -13.0565    1.0000 </r>
       <r>   -1.1994    1.0000 </r>
       <r>   -0.9792    1.0000 </r>
       <r>   -0.9332    1.0000 </r>
       <r>   -0.8034    1.0000 </r>
       <r>   -0.6670    1.0000 </r>
       <r>   -0.2550    1.0000 </r>
       <r>   -0.1981    1.0000 </r>
       <r>    0.2900    1.0000 </r>
       <r>    0.2944    1.0000 </r>
       <r>    0.3242    1.0000 </r>
       <r>    0.7319    1.0000 </r>
       <r>    0.9729    1.0000 </r>
       <r>    1.1519    1.0000 </r>
       <r>    1.3326    1.0000 </r>
       <r>    1.4731    1.0000 </r>
       <r>    1.6176    1.0000 </r>
       <r>    1.6979    1.0000 </r>
       <r>    1.7762    1.0000 </r>
       <r>    1.9651    1.0000 </r>
       <r>    2.0221    1.0000 </r>
       <r>    2.1693    1.0000 </r>
       <r>    5.3289    1.0000 </r>
       <r>    8.4203    0.0000 </r>
       <r>    9.3818    0.0000 </r>
       <r>    9.8524    0.0000 </r>
       <r>   10.7477    0.0000 </r>
       <r>   11.6377    0.0000 </r>
       <r>   12.2493    0.0000 </r>
       <r>   12.5602    0.0000 </r>
       <r>   12.7035    0.0000 </r>
       <r>   13.2760    0.0000 </r>
       <r>   13.2950    0.0000 </r>
       <r>   14.0395    0.0000 </r>
       <r>   14.0707    0.0000 </r>
       <r>   14.1937    0.0000 </r>
       <r>   14.3868    0.0000 </r>
       <r>   14.7063    0.0000 </r>
       <r>   14.8931    0.0000 </r>
       <r>   14.9330    0.0000 </r>
       <r>   15.4510    0.0000 </r>
       <r>   16.1935    0.0000 </r>
      </set>
      <set comment="kpoint 11">
       <r>  -13.9403    1.0000 </r>
       <r>  -13.6465    1.0000 </r>
       <r>  -13.4415    1.0000 </r>
       <r>  -13.3119    1.0000 </r>
       <r>  -13.2183    1.0000 </r>
       <r>  -13.1305    1.0000 </r>
       <r>  -13.0569    1.0000 </r>
       <r>   -1.2004    1.0000 </r>
       <r>   -0.9794    1.0000 </r>
       <r>   -0.9346    1.0000 </r>
       <r>   -0.8022    1.0000 </r>
       <r>   -0.6680    1.0000 </r>
       <r>   -0.2559    1.0000 </r>
       <r>   -0.1975    1.0000 </r>
       <r>    0.2931    1.0000 </r>
       <r>    0.2951    1.0000 </r>
       <r>    0.3230    1.0000 </r>
       <r>    0.7350    1.0000 </r>
       <r>    0.9723    1.0000 </r>
       <r>    1.1559    1.0000 </r>
       <r>    1.3332    1.0000 </r>
       <r>    1.4713    1.0000 </r>
       <r>    1.6179    1.0000 </r>
       <r>    1.6949    1.0000 </r>
       <r>    1.7757    1.0000 </r>
       <r>    1.9661    1.0000 </r>
       <r>    2.0211    1.0000 </r>
       <r>    2.1664    1.0000 </r>
       <r>    5.3287    1.0000 </r>
       <r>    8.4233    0.0000 </r>
       <r>    9.3838    0.0000 </r>
       <r>    9.8462    0.0000 </r>
       <r>   10.7511    0.0000 </r>
       <r>   11.6362    0.0000 </r>
       <r>   12.2491    0.0000 </r>
       <r>   12.5607    0.0000 </r>
       <r>   12.7043    0.0000 </r>
       <r>   13.2754    0.0000 </r>
       <r>   13.2955    0.0000 </r>
       <r>   14.0367    0.0000 </r>
       <r>   14.0680    0.0000 </r>
       <r>   14.1954    0.0000 </r>
       <r>   14.3871    0.0000 </r>
       <r>   14.7050    0.0000 </r>
       <r>   14.8972    0.0000 </r>
       <r>   14.9326    0.0000 </r>
       <r>   15.4493    0.0000 </r>
       <r>   16.1962    0.0000 </r>
      </set>
      <set comment="kpoint 12">
       <r>  -13.9406    1.0000 </r>
       <r>  -13.6461    1.0000 </r>
       <r>  -13.4413    1.0000 </r>
       <r>  -13.3116    1.0000 </r>
       <r>  -13.2197    1.0000 </r>
       <r>  -13.1301    1.0000 </r>
       <r>  -13.0566    1.0000 </r>
       <r>   -1.2003    1.0000 </r>
       <r>   -0.9790    1.0000 </r>
       <r>   -0.9338    1.0000 </r>
       <r>   -0.8028    1.0000 </r>
       <r>   -0.6677    1.0000 </r>
       <r>   -0.2548    1.0000 </r>
       <r>   -0.1975    1.0000 </r>
       <r>    0.2914    1.0000 </r>
       <r>    0.2946    1.0000 </r>
       <r>    0.3239    1.0000 </r>
       <r>    0.7330    1.0000 </r>
       <r>    0.9724    1.0000 </r>
       <r>    1.1524    1.0000 </r>
       <r>    1.3328    1.0000 </r>
       <r>    1.4728    1.0000 </r>
       <r>    1.6175    1.0000 </r>
       <r>    1.6964    1.0000 </r>
       <r>    1.7759    1.0000 </r>
       <r>    1.9672    1.0000 </r>
       <r>    2.0218    1.0000 </r>
       <r>    2.1677    1.0000 </r>
       <r>    5.3288    1.0000 </r>
       <r>    8.4205    0.0000 </r>
       <r>    9.3827    0.0000 </r>
       <r>    9.8506    0.0000 </r>
       <r>   10.7487    0.0000 </r>
       <r>   11.6373    0.0000 </r>
       <r>   12.2495    0.0000 </r>
       <r>   12.5601    0.0000 </r>
       <r>   12.7035    0.0000 </r>
       <r>   13.2760    0.0000 </r>
       <r>   13.2956    0.0000 </r>
       <r>   14.0398    0.0000 </r>
       <r>   14.0702    0.0000 </r>
       <r>   14.1939    0.0000 </r>
       <r>   14.3868    0.0000 </r>
       <r>   14.7060    0.0000 </r>
       <r>   14.8943    0.0000 </r>
       <r>   14.9329    0.0000 </r>
       <r>   15.4497    0.0000 </r>
       <r>   16.1885    0.0000 </r>
      </set>
      <set comment="kpoint 13">
       <r>  -13.9405    1.0000 </r>
       <r>  -13.6461    1.0000 </r>
       <r>  -13.4413    1.0000 </r>
       <r>  -13.3115    1.0000 </r>
       <r>  -13.2198    1.0000 </r>
       <r>  -13.1302    1.0000 </r>
       <r>  -13.0565    1.0000 </r>
       <r>   -1.2001    1.0000 </r>
       <r>   -0.9790    1.0000 </r>
       <r>   -0.9333    1.0000 </r>
       <r>   -0.8030    1.0000 </r>
       <r>   -0.6673    1.0000 </r>
       <r>   -0.2544    1.0000 </r>
       <r>   -0.1976    1.0000 </r>
       <r>    0.2904    1.0000 </r>
       <r>    0.2943    1.0000 </r>
       <r>    0.3239    1.0000 </r>
       <r>    0.7317    1.0000 </r>
       <r>    0.9726    1.0000 </r>
       <r>    1.1514    1.0000 </r>
       <r>    1.3328    1.0000 </r>
       <r>    1.4731    1.0000 </r>
       <r>    1.6174    1.0000 </r>
       <r>    1.6970    1.0000 </r>
       <r>    1.7762    1.0000 </r>
       <r>    1.9678    1.0000 </r>
       <r>    2.0220    1.0000 </r>
       <r>    2.1681    1.0000 </r>
       <r>    5.3287    1.0000 </r>
       <r>    8.4199    0.0000 </r>
       <r>    9.3821    0.0000 </r>
       <r>    9.8525    0.0000 </r>
       <r>   10.7475    0.0000 </r>
       <r>   11.6379    0.0000 </r>
       <r>   12.2494    0.0000 </r>
       <r>   12.5596    0.0000 </r>
       <r>   12.7036    0.0000 </r>
       <r>   13.2762    0.0000 </r>
       <r>   13.2956    0.0000 </r>
       <r>   14.0393    0.0000 </r>
       <r>   14.0710    0.0000 </r>
       <r>   14.1933    0.0000 </r>
       <r>   14.3869    0.0000 </r>
       <r>   14.7064    0.0000 </r>
       <r>   14.8934    0.0000 </r>
       <r>   14.9329    0.0000 </r>
       <r>   15.4503    0.0000 </r>
       <r>   16.1923    0.0000 </r>
      </set>
      <set comment="kpoint 14">
       <r>  -13.9406    1.0000 </r>
       <r>  -13.6461    1.0000 </r>
       <r>  -13.4412    1.0000 </r>
       <r>  -13.3116    1.0000 </r>
       <r>  -13.2197    1.0000 </r>
       <r>  -13.1301    1.0000 </r>
       <r>  -13.0566    1.0000 </r>
       <r>   -1.2003    1.0000 </r>
       <r>   -0.9789    1.0000 </r>
       <r>   -0.9340    1.0000 </r>
       <r>   -0.8028    1.0000 </r>
       <r>   -0.6676    1.0000 </r>
       <r>   -0.2546    1.0000 </r>
       <r>   -0.1972    1.0000 </r>
       <r>    0.2912    1.0000 </r>
       <r>    0.2946    1.0000 </r>
       <r>    0.3236    1.0000 </r>
       <r>    0.7324    1.0000 </r>
       <r>    0.9724    1.0000 </r>
       <r>    1.1525    1.0000 </r>
       <r>    1.3332    1.0000 </r>
       <r>    1.4725    1.0000 </r>
       <r>    1.6177    1.0000 </r>
       <r>    1.6962    1.0000 </r>
       <r>    1.7759    1.0000 </r>
       <r>    1.9675    1.0000 </r>
       <r>    2.0220    1.0000 </r>
       <r>    2.1676    1.0000 </r>
       <r>    5.3287    1.0000 </r>
       <r>    8.4205    0.0000 </r>
       <r>    9.3825    0.0000 </r>
       <r>    9.8511    0.0000 </r>
       <r>   10.7484    0.0000 </r>
       <r>   11.6373    0.0000 </r>
       <r>   12.2490    0.0000 </r>
       <r>   12.5601    0.0000 </r>
       <r>   12.7036    0.0000 </r>
       <r>   13.2760    0.0000 </r>
       <r>   13.2958    0.0000 </r>
       <r>   14.0389    0.0000 </r>
       <r>   14.0701    0.0000 </r>
       <r>   14.1941    0.0000 </r>
       <r>   14.3868    0.0000 </r>
       <r>   14.7061    0.0000 </r>
       <r>   14.8943    0.0000 </r>
       <r>   14.9329    0.0000 </r>
       <r>   15.4492    0.0000 </r>
       <r>   16.1879    0.0000 </r>
      </set>
      <set comment="kpoint 15">
       <r>  -13.9403    1.0000 </r>
       <r>  -13.6465    1.0000 </r>
       <r>  -13.4415    1.0000 </r>
       <r>  -13.3119    1.0000 </r>
       <r>  -13.2183    1.0000 </r>
       <r>  -13.1305    1.0000 </r>
       <r>  -13.0569    1.0000 </r>
       <r>   -1.2004    1.0000 </r>
       <r>   -0.9792    1.0000 </r>
       <r>   -0.9346    1.0000 </r>
       <r>   -0.8021    1.0000 </r>
       <r>   -0.6681    1.0000 </r>
       <r>   -0.2559    1.0000 </r>
       <r>   -0.1975    1.0000 </r>
       <r>    0.2931    1.0000 </r>
       <r>    0.2949    1.0000 </r>
       <r>    0.3229    1.0000 </r>
       <r>    0.7350    1.0000 </r>
       <r>    0.9724    1.0000 </r>
       <r>    1.1559    1.0000 </r>
       <r>    1.3332    1.0000 </r>
       <r>    1.4714    1.0000 </r>
       <r>    1.6179    1.0000 </r>
       <r>    1.6948    1.0000 </r>
       <r>    1.7756    1.0000 </r>
       <r>    1.9665    1.0000 </r>
       <r>    2.0213    1.0000 </r>
       <r>    2.1663    1.0000 </r>
       <r>    5.3287    1.0000 </r>
       <r>    8.4233    0.0000 </r>
       <r>    9.3837    0.0000 </r>
       <r>    9.8461    0.0000 </r>
       <r>   10.7512    0.0000 </r>
       <r>   11.6359    0.0000 </r>
       <r>   12.2489    0.0000 </r>
       <r>   12.5611    0.0000 </r>
       <r>   12.7043    0.0000 </r>
       <r>   13.2754    0.0000 </r>
       <r>   13.2957    0.0000 </r>
       <r>   14.0370    0.0000 </r>
       <r>   14.0686    0.0000 </r>
       <r>   14.1952    0.0000 </r>
       <r>   14.3868    0.0000 </r>
       <r>   14.7050    0.0000 </r>
       <r>   14.8972    0.0000 </r>
       <r>   14.9326    0.0000 </r>
       <r>   15.4484    0.0000 </r>
       <r>   16.1878    0.0000 </r>
      </set>
      <set comment="kpoint 16">
       <r>  -13.9405    1.0000 </r>
       <r>  -13.6461    1.0000 </r>
       <r>  -13.4413    1.0000 </r>
       <r>  -13.3115    1.0000 </r>
       <r>  -13.2199    1.0000 </r>
       <r>  -13.1302    1.0000 </r>
       <r>  -13.0565    1.0000 </r>
       <r>   -1.2002    1.0000 </r>
       <r>   -0.9789    1.0000 </r>
       <r>   -0.9334    1.0000 </r>
       <r>   -0.8030    1.0000 </r>
       <r>   -0.6674    1.0000 </r>
       <r>   -0.2544    1.0000 </r>
       <r>   -0.1978    1.0000 </r>
       <r>    0.2906    1.0000 </r>
       <r>    0.2943    1.0000 </r>
       <r>    0.3239    1.0000 </r>
       <r>    0.7320    1.0000 </r>
       <r>    0.9728    1.0000 </r>
       <r>    1.1514    1.0000 </r>
       <r>    1.3326    1.0000 </r>
       <r>    1.4733    1.0000 </r>
       <r>    1.6174    1.0000 </r>
       <r>    1.6966    1.0000 </r>
       <r>    1.7761    1.0000 </r>
       <r>    1.9679    1.0000 </r>
       <r>    2.0222    1.0000 </r>
       <r>    2.1678    1.0000 </r>
       <r>    5.3289    1.0000 </r>
       <r>    8.4198    0.0000 </r>
       <r>    9.3820    0.0000 </r>
       <r>    9.8523    0.0000 </r>
       <r>   10.7477    0.0000 </r>
       <r>   11.6377    0.0000 </r>
       <r>   12.2492    0.0000 </r>
       <r>   12.5602    0.0000 </r>
       <r>   12.7036    0.0000 </r>
       <r>   13.2762    0.0000 </r>
       <r>   13.2958    0.0000 </r>
       <r>   14.0403    0.0000 </r>
       <r>   14.0709    0.0000 </r>
       <r>   14.1931    0.0000 </r>
       <r>   14.3867    0.0000 </r>
       <r>   14.7063    0.0000 </r>
       <r>   14.8933    0.0000 </r>
       <r>   14.9331    0.0000 </r>
       <r>   15.4495    0.0000 </r>
       <r>   16.2032    0.0000 </r>
      </set>
     </set>
     <set comment="spin 2">
      <set comment="kpoint 1">
       <r>  -14.2516    1.0000 </r>
       <r>  -13.4668    1.0000 </r>
       <r>  -13.2681    1.0000 </r>
       <r>  -13.2676    1.0000 </r>
       <r>  -13.2288    1.0000 </r>
       <r>  -13.0924    1.0000 </r>
       <r>  -13.0919    1.0000 </r>
       <r>   -1.6073    1.0000 </r>
       <r>   -1.4708    1.0000 </r>
       <r>   -1.4693    1.0000 </r>
       <r>   -1.2933    1.0000 </r>
       <r>   -1.0302    1.0000 </r>
       <r>   -0.6772    1.0000 </r>
       <r>   -0.6755    1.0000 </r>
       <r>    0.9829    1.0000 </r>
       <r>    0.9836    1.0000 </r>
       <r>    1.0544    1.0000 </r>
       <r>    1.3963    1.0000 </r>
       <r>    1.4871    1.0000 </r>
       <r>    1.4904    1.0000 </r>
       <r>    1.5263    1.0000 </r>
       <r>    1.5820    1.0000 </r>
       <r>    1.5832    1.0000 </r>
       <r>    1.8799    1.0000 </r>
       <r>    1.9990    1.0000 </r>
       <r>    1.9994    1.0000 </r>
       <r>    2.3636    1.0000 </r>
       <r>    2.3664    1.0000 </r>
       <r>    4.2601    1.0000 </r>
       <r>    8.6709    0.0000 </r>
       <r>    9.7359    0.0000 </r>
       <r>   10.4627    0.0000 </r>
       <r>   10.4675    0.0000 </r>
       <r>   11.1565    0.0000 </r>
       <r>   11.4151    0.0000 </r>
       <r>   11.4180    0.0000 </r>
       <r>   12.2685    0.0000 </r>
       <r>   12.2691    0.0000 </r>
       <r>   12.4647    0.0000 </r>
       <r>   12.8967    0.0000 </r>
       <r>   13.3618    0.0000 </r>
       <r>   13.3653    0.0000 </r>
       <r>   14.7753    0.0000 </r>
       <r>   15.0850    0.0000 </r>
       <r>   15.1697    0.0000 </r>
       <r>   15.1735    0.0000 </r>
       <r>   16.6941    0.0000 </r>
       <r>   17.2810    0.0000 </r>
      </set>
      <set comment="kpoint 2">
       <r>  -14.2516    1.0000 </r>
       <r>  -13.4668    1.0000 </r>
       <r>  -13.2681    1.0000 </r>
       <r>  -13.2676    1.0000 </r>
       <r>  -13.2288    1.0000 </r>
       <r>  -13.0924    1.0000 </r>
       <r>  -13.0919    1.0000 </r>
       <r>   -1.6073    1.0000 </r>
       <r>   -1.4707    1.0000 </r>
       <r>   -1.4692    1.0000 </r>
       <r>   -1.2933    1.0000 </r>
       <r>   -1.0301    1.0000 </r>
       <r>   -0.6773    1.0000 </r>
       <r>   -0.6756    1.0000 </r>
       <r>    0.9832    1.0000 </r>
       <r>    0.9836    1.0000 </r>
       <r>    1.0545    1.0000 </r>
       <r>    1.3961    1.0000 </r>
       <r>    1.4877    1.0000 </r>
       <r>    1.4908    1.0000 </r>
       <r>    1.5263    1.0000 </r>
       <r>    1.5818    1.0000 </r>
       <r>    1.5828    1.0000 </r>
       <r>    1.8796    1.0000 </r>
       <r>    1.9990    1.0000 </r>
       <r>    1.9992    1.0000 </r>
       <r>    2.3636    1.0000 </r>
       <r>    2.3662    1.0000 </r>
       <r>    4.2602    1.0000 </r>
       <r>    8.6710    0.0000 </r>
       <r>    9.7359    0.0000 </r>
       <r>   10.4624    0.0000 </r>
       <r>   10.4671    0.0000 </r>
       <r>   11.1565    0.0000 </r>
       <r>   11.4155    0.0000 </r>
       <r>   11.4177    0.0000 </r>
       <r>   12.2687    0.0000 </r>
       <r>   12.2694    0.0000 </r>
       <r>   12.4651    0.0000 </r>
       <r>   12.8971    0.0000 </r>
       <r>   13.3617    0.0000 </r>
       <r>   13.3650    0.0000 </r>
       <r>   14.7753    0.0000 </r>
       <r>   15.0850    0.0000 </r>
       <r>   15.1697    0.0000 </r>
       <r>   15.1734    0.0000 </r>
       <r>   16.6939    0.0000 </r>
       <r>   17.2866    0.0000 </r>
      </set>
      <set comment="kpoint 3">
       <r>  -14.2516    1.0000 </r>
       <r>  -13.4671    1.0000 </r>
       <r>  -13.2681    1.0000 </r>
       <r>  -13.2676    1.0000 </r>
       <r>  -13.2286    1.0000 </r>
       <r>  -13.0924    1.0000 </r>
       <r>  -13.0919    1.0000 </r>
       <r>   -1.6074    1.0000 </r>
       <r>   -1.4699    1.0000 </r>
       <r>   -1.4693    1.0000 </r>
       <r>   -1.2936    1.0000 </r>
       <r>   -1.0296    1.0000 </r>
       <r>   -0.6773    1.0000 </r>
       <r>   -0.6766    1.0000 </r>
       <r>    0.9828    1.0000 </r>
       <r>    0.9836    1.0000 </r>
       <r>    1.0545    1.0000 </r>
       <r>    1.3961    1.0000 </r>
       <r>    1.4875    1.0000 </r>
       <r>    1.4906    1.0000 </r>
       <r>    1.5261    1.0000 </r>
       <r>    1.5819    1.0000 </r>
       <r>    1.5838    1.0000 </r>
       <r>    1.8796    1.0000 </r>
       <r>    1.9985    1.0000 </r>
       <r>    1.9989    1.0000 </r>
       <r>    2.3637    1.0000 </r>
       <r>    2.3668    1.0000 </r>
       <r>    4.2603    1.0000 </r>
       <r>    8.6714    0.0000 </r>
       <r>    9.7361    0.0000 </r>
       <r>   10.4617    0.0000 </r>
       <r>   10.4676    0.0000 </r>
       <r>   11.1564    0.0000 </r>
       <r>   11.4153    0.0000 </r>
       <r>   11.4179    0.0000 </r>
       <r>   12.2688    0.0000 </r>
       <r>   12.2691    0.0000 </r>
       <r>   12.4645    0.0000 </r>
       <r>   12.8974    0.0000 </r>
       <r>   13.3618    0.0000 </r>
       <r>   13.3650    0.0000 </r>
       <r>   14.7753    0.0000 </r>
       <r>   15.0844    0.0000 </r>
       <r>   15.1689    0.0000 </r>
       <r>   15.1746    0.0000 </r>
       <r>   16.6941    0.0000 </r>
       <r>   17.2817    0.0000 </r>
      </set>
      <set comment="kpoint 4">
       <r>  -14.2516    1.0000 </r>
       <r>  -13.4671    1.0000 </r>
       <r>  -13.2681    1.0000 </r>
       <r>  -13.2676    1.0000 </r>
       <r>  -13.2286    1.0000 </r>
       <r>  -13.0924    1.0000 </r>
       <r>  -13.0919    1.0000 </r>
       <r>   -1.6074    1.0000 </r>
       <r>   -1.4699    1.0000 </r>
       <r>   -1.4694    1.0000 </r>
       <r>   -1.2934    1.0000 </r>
       <r>   -1.0297    1.0000 </r>
       <r>   -0.6772    1.0000 </r>
       <r>   -0.6766    1.0000 </r>
       <r>    0.9830    1.0000 </r>
       <r>    0.9835    1.0000 </r>
       <r>    1.0546    1.0000 </r>
       <r>    1.3961    1.0000 </r>
       <r>    1.4873    1.0000 </r>
       <r>    1.4902    1.0000 </r>
       <r>    1.5263    1.0000 </r>
       <r>    1.5823    1.0000 </r>
       <r>    1.5840    1.0000 </r>
       <r>    1.8796    1.0000 </r>
       <r>    1.9983    1.0000 </r>
       <r>    1.9988    1.0000 </r>
       <r>    2.3637    1.0000 </r>
       <r>    2.3665    1.0000 </r>
       <r>    4.2602    1.0000 </r>
       <r>    8.6714    0.0000 </r>
       <r>    9.7361    0.0000 </r>
       <r>   10.4620    0.0000 </r>
       <r>   10.4678    0.0000 </r>
       <r>   11.1565    0.0000 </r>
       <r>   11.4155    0.0000 </r>
       <r>   11.4175    0.0000 </r>
       <r>   12.2687    0.0000 </r>
       <r>   12.2691    0.0000 </r>
       <r>   12.4640    0.0000 </r>
       <r>   12.8971    0.0000 </r>
       <r>   13.3619    0.0000 </r>
       <r>   13.3651    0.0000 </r>
       <r>   14.7753    0.0000 </r>
       <r>   15.0843    0.0000 </r>
       <r>   15.1693    0.0000 </r>
       <r>   15.1744    0.0000 </r>
       <r>   16.6942    0.0000 </r>
       <r>   17.2843    0.0000 </r>
      </set>
      <set comment="kpoint 5">
       <r>  -13.9405    1.0000 </r>
       <r>  -13.6464    1.0000 </r>
       <r>  -13.4404    1.0000 </r>
       <r>  -13.3119    1.0000 </r>
       <r>  -13.2203    1.0000 </r>
       <r>  -13.1295    1.0000 </r>
       <r>  -13.0569    1.0000 </r>
       <r>   -1.2008    1.0000 </r>
       <r>   -0.9790    1.0000 </r>
       <r>   -0.9356    1.0000 </r>
       <r>   -0.8019    1.0000 </r>
       <r>   -0.6679    1.0000 </r>
       <r>   -0.2558    1.0000 </r>
       <r>   -0.1962    1.0000 </r>
       <r>    0.2921    1.0000 </r>
       <r>    0.2954    1.0000 </r>
       <r>    0.3241    1.0000 </r>
       <r>    0.7341    1.0000 </r>
       <r>    0.9728    1.0000 </r>
       <r>    1.1546    1.0000 </r>
       <r>    1.3335    1.0000 </r>
       <r>    1.4725    1.0000 </r>
       <r>    1.6178    1.0000 </r>
       <r>    1.6943    1.0000 </r>
       <r>    1.7755    1.0000 </r>
       <r>    1.9670    1.0000 </r>
       <r>    2.0213    1.0000 </r>
       <r>    2.1660    1.0000 </r>
       <r>    5.3286    1.0000 </r>
       <r>    8.4228    0.0000 </r>
       <r>    9.3832    0.0000 </r>
       <r>    9.8469    0.0000 </r>
       <r>   10.7511    0.0000 </r>
       <r>   11.6360    0.0000 </r>
       <r>   12.2493    0.0000 </r>
       <r>   12.5611    0.0000 </r>
       <r>   12.7033    0.0000 </r>
       <r>   13.2760    0.0000 </r>
       <r>   13.2958    0.0000 </r>
       <r>   14.0374    0.0000 </r>
       <r>   14.0683    0.0000 </r>
       <r>   14.1948    0.0000 </r>
       <r>   14.3866    0.0000 </r>
       <r>   14.7057    0.0000 </r>
       <r>   14.8971    0.0000 </r>
       <r>   14.9325    0.0000 </r>
       <r>   15.4484    0.0000 </r>
       <r>   16.1773    0.0000 </r>
      </set>
      <set comment="kpoint 6">
       <r>  -13.9402    1.0000 </r>
       <r>  -13.6469    1.0000 </r>
       <r>  -13.4408    1.0000 </r>
       <r>  -13.3116    1.0000 </r>
       <r>  -13.2196    1.0000 </r>
       <r>  -13.1302    1.0000 </r>
       <r>  -13.0566    1.0000 </r>
       <r>   -1.1997    1.0000 </r>
       <r>   -0.9792    1.0000 </r>
       <r>   -0.9338    1.0000 </r>
       <r>   -0.8029    1.0000 </r>
       <r>   -0.6672    1.0000 </r>
       <r>   -0.2553    1.0000 </r>
       <r>   -0.1977    1.0000 </r>
       <r>    0.2905    1.0000 </r>
       <r>    0.2947    1.0000 </r>
       <r>    0.3240    1.0000 </r>
       <r>    0.7324    1.0000 </r>
       <r>    0.9731    1.0000 </r>
       <r>    1.1529    1.0000 </r>
       <r>    1.3330    1.0000 </r>
       <r>    1.4728    1.0000 </r>
       <r>    1.6176    1.0000 </r>
       <r>    1.6970    1.0000 </r>
       <r>    1.7759    1.0000 </r>
       <r>    1.9660    1.0000 </r>
       <r>    2.0217    1.0000 </r>
       <r>    2.1684    1.0000 </r>
       <r>    5.3288    1.0000 </r>
       <r>    8.4211    0.0000 </r>
       <r>    9.3820    0.0000 </r>
       <r>    9.8510    0.0000 </r>
       <r>   10.7486    0.0000 </r>
       <r>   11.6371    0.0000 </r>
       <r>   12.2489    0.0000 </r>
       <r>   12.5605    0.0000 </r>
       <r>   12.7038    0.0000 </r>
       <r>   13.2759    0.0000 </r>
       <r>   13.2954    0.0000 </r>
       <r>   14.0383    0.0000 </r>
       <r>   14.0700    0.0000 </r>
       <r>   14.1938    0.0000 </r>
       <r>   14.3867    0.0000 </r>
       <r>   14.7061    0.0000 </r>
       <r>   14.8944    0.0000 </r>
       <r>   14.9328    0.0000 </r>
       <r>   15.4500    0.0000 </r>
       <r>   16.1904    0.0000 </r>
      </set>
      <set comment="kpoint 7">
       <r>  -13.9402    1.0000 </r>
       <r>  -13.6469    1.0000 </r>
       <r>  -13.4409    1.0000 </r>
       <r>  -13.3115    1.0000 </r>
       <r>  -13.2197    1.0000 </r>
       <r>  -13.1303    1.0000 </r>
       <r>  -13.0565    1.0000 </r>
       <r>   -1.1993    1.0000 </r>
       <r>   -0.9791    1.0000 </r>
       <r>   -0.9331    1.0000 </r>
       <r>   -0.8033    1.0000 </r>
       <r>   -0.6671    1.0000 </r>
       <r>   -0.2551    1.0000 </r>
       <r>   -0.1980    1.0000 </r>
       <r>    0.2900    1.0000 </r>
       <r>    0.2944    1.0000 </r>
       <r>    0.3240    1.0000 </r>
       <r>    0.7319    1.0000 </r>
       <r>    0.9731    1.0000 </r>
       <r>    1.1517    1.0000 </r>
       <r>    1.3327    1.0000 </r>
       <r>    1.4731    1.0000 </r>
       <r>    1.6174    1.0000 </r>
       <r>    1.6981    1.0000 </r>
       <r>    1.7758    1.0000 </r>
       <r>    1.9658    1.0000 </r>
       <r>    2.0220    1.0000 </r>
       <r>    2.1695    1.0000 </r>
       <r>    5.3289    1.0000 </r>
       <r>    8.4201    0.0000 </r>
       <r>    9.3816    0.0000 </r>
       <r>    9.8524    0.0000 </r>
       <r>   10.7478    0.0000 </r>
       <r>   11.6373    0.0000 </r>
       <r>   12.2489    0.0000 </r>
       <r>   12.5604    0.0000 </r>
       <r>   12.7037    0.0000 </r>
       <r>   13.2761    0.0000 </r>
       <r>   13.2950    0.0000 </r>
       <r>   14.0403    0.0000 </r>
       <r>   14.0707    0.0000 </r>
       <r>   14.1935    0.0000 </r>
       <r>   14.3865    0.0000 </r>
       <r>   14.7063    0.0000 </r>
       <r>   14.8932    0.0000 </r>
       <r>   14.9330    0.0000 </r>
       <r>   15.4500    0.0000 </r>
       <r>   16.1945    0.0000 </r>
      </set>
      <set comment="kpoint 8">
       <r>  -13.9402    1.0000 </r>
       <r>  -13.6469    1.0000 </r>
       <r>  -13.4409    1.0000 </r>
       <r>  -13.3116    1.0000 </r>
       <r>  -13.2195    1.0000 </r>
       <r>  -13.1302    1.0000 </r>
       <r>  -13.0566    1.0000 </r>
       <r>   -1.1997    1.0000 </r>
       <r>   -0.9792    1.0000 </r>
       <r>   -0.9335    1.0000 </r>
       <r>   -0.8028    1.0000 </r>
       <r>   -0.6672    1.0000 </r>
       <r>   -0.2555    1.0000 </r>
       <r>   -0.1979    1.0000 </r>
       <r>    0.2903    1.0000 </r>
       <r>    0.2945    1.0000 </r>
       <r>    0.3242    1.0000 </r>
       <r>    0.7327    1.0000 </r>
       <r>    0.9731    1.0000 </r>
       <r>    1.1528    1.0000 </r>
       <r>    1.3327    1.0000 </r>
       <r>    1.4731    1.0000 </r>
       <r>    1.6175    1.0000 </r>
       <r>    1.6971    1.0000 </r>
       <r>    1.7761    1.0000 </r>
       <r>    1.9658    1.0000 </r>
       <r>    2.0218    1.0000 </r>
       <r>    2.1684    1.0000 </r>
       <r>    5.3288    1.0000 </r>
       <r>    8.4213    0.0000 </r>
       <r>    9.3820    0.0000 </r>
       <r>    9.8504    0.0000 </r>
       <r>   10.7487    0.0000 </r>
       <r>   11.6370    0.0000 </r>
       <r>   12.2494    0.0000 </r>
       <r>   12.5604    0.0000 </r>
       <r>   12.7035    0.0000 </r>
       <r>   13.2760    0.0000 </r>
       <r>   13.2951    0.0000 </r>
       <r>   14.0389    0.0000 </r>
       <r>   14.0702    0.0000 </r>
       <r>   14.1936    0.0000 </r>
       <r>   14.3867    0.0000 </r>
       <r>   14.7060    0.0000 </r>
       <r>   14.8943    0.0000 </r>
       <r>   14.9328    0.0000 </r>
       <r>   15.4507    0.0000 </r>
       <r>   16.1896    0.0000 </r>
      </set>
      <set comment="kpoint 9">
       <r>  -13.9405    1.0000 </r>
       <r>  -13.6464    1.0000 </r>
       <r>  -13.4404    1.0000 </r>
       <r>  -13.3119    1.0000 </r>
       <r>  -13.2203    1.0000 </r>
       <r>  -13.1295    1.0000 </r>
       <r>  -13.0569    1.0000 </r>
       <r>   -1.2008    1.0000 </r>
       <r>   -0.9790    1.0000 </r>
       <r>   -0.9356    1.0000 </r>
       <r>   -0.8020    1.0000 </r>
       <r>   -0.6678    1.0000 </r>
       <r>   -0.2557    1.0000 </r>
       <r>   -0.1961    1.0000 </r>
       <r>    0.2921    1.0000 </r>
       <r>    0.2952    1.0000 </r>
       <r>    0.3241    1.0000 </r>
       <r>    0.7338    1.0000 </r>
       <r>    0.9724    1.0000 </r>
       <r>    1.1547    1.0000 </r>
       <r>    1.3337    1.0000 </r>
       <r>    1.4723    1.0000 </r>
       <r>    1.6181    1.0000 </r>
       <r>    1.6946    1.0000 </r>
       <r>    1.7757    1.0000 </r>
       <r>    1.9664    1.0000 </r>
       <r>    2.0214    1.0000 </r>
       <r>    2.1662    1.0000 </r>
       <r>    5.3285    1.0000 </r>
       <r>    8.4228    0.0000 </r>
       <r>    9.3833    0.0000 </r>
       <r>    9.8470    0.0000 </r>
       <r>   10.7509    0.0000 </r>
       <r>   11.6362    0.0000 </r>
       <r>   12.2495    0.0000 </r>
       <r>   12.5606    0.0000 </r>
       <r>   12.7031    0.0000 </r>
       <r>   13.2758    0.0000 </r>
       <r>   13.2956    0.0000 </r>
       <r>   14.0365    0.0000 </r>
       <r>   14.0684    0.0000 </r>
       <r>   14.1951    0.0000 </r>
       <r>   14.3868    0.0000 </r>
       <r>   14.7057    0.0000 </r>
       <r>   14.8969    0.0000 </r>
       <r>   14.9324    0.0000 </r>
       <r>   15.4492    0.0000 </r>
       <r>   16.1804    0.0000 </r>
      </set>
      <set comment="kpoint 10">
       <r>  -13.9402    1.0000 </r>
       <r>  -13.6468    1.0000 </r>
       <r>  -13.4409    1.0000 </r>
       <r>  -13.3115    1.0000 </r>
       <r>  -13.2197    1.0000 </r>
       <r>  -13.1303    1.0000 </r>
       <r>  -13.0565    1.0000 </r>
       <r>   -1.1994    1.0000 </r>
       <r>   -0.9792    1.0000 </r>
       <r>   -0.9332    1.0000 </r>
       <r>   -0.8033    1.0000 </r>
       <r>   -0.6670    1.0000 </r>
       <r>   -0.2550    1.0000 </r>
       <r>   -0.1981    1.0000 </r>
       <r>    0.2900    1.0000 </r>
       <r>    0.2944    1.0000 </r>
       <r>    0.3242    1.0000 </r>
       <r>    0.7320    1.0000 </r>
       <r>    0.9729    1.0000 </r>
       <r>    1.1519    1.0000 </r>
       <r>    1.3327    1.0000 </r>
       <r>    1.4731    1.0000 </r>
       <r>    1.6176    1.0000 </r>
       <r>    1.6980    1.0000 </r>
       <r>    1.7762    1.0000 </r>
       <r>    1.9652    1.0000 </r>
       <r>    2.0221    1.0000 </r>
       <r>    2.1693    1.0000 </r>
       <r>    5.3288    1.0000 </r>
       <r>    8.4202    0.0000 </r>
       <r>    9.3817    0.0000 </r>
       <r>    9.8524    0.0000 </r>
       <r>   10.7476    0.0000 </r>
       <r>   11.6377    0.0000 </r>
       <r>   12.2492    0.0000 </r>
       <r>   12.5602    0.0000 </r>
       <r>   12.7034    0.0000 </r>
       <r>   13.2759    0.0000 </r>
       <r>   13.2949    0.0000 </r>
       <r>   14.0395    0.0000 </r>
       <r>   14.0706    0.0000 </r>
       <r>   14.1936    0.0000 </r>
       <r>   14.3868    0.0000 </r>
       <r>   14.7062    0.0000 </r>
       <r>   14.8931    0.0000 </r>
       <r>   14.9330    0.0000 </r>
       <r>   15.4511    0.0000 </r>
       <r>   16.1935    0.0000 </r>
      </set>
      <set comment="kpoint 11">
       <r>  -13.9403    1.0000 </r>
       <r>  -13.6465    1.0000 </r>
       <r>  -13.4415    1.0000 </r>
       <r>  -13.3119    1.0000 </r>
       <r>  -13.2183    1.0000 </r>
       <r>  -13.1305    1.0000 </r>
       <r>  -13.0569    1.0000 </r>
       <r>   -1.2003    1.0000 </r>
       <r>   -0.9794    1.0000 </r>
       <r>   -0.9346    1.0000 </r>
       <r>   -0.8022    1.0000 </r>
       <r>   -0.6680    1.0000 </r>
       <r>   -0.2559    1.0000 </r>
       <r>   -0.1975    1.0000 </r>
       <r>    0.2931    1.0000 </r>
       <r>    0.2951    1.0000 </r>
       <r>    0.3231    1.0000 </r>
       <r>    0.7350    1.0000 </r>
       <r>    0.9723    1.0000 </r>
       <r>    1.1559    1.0000 </r>
       <r>    1.3332    1.0000 </r>
       <r>    1.4713    1.0000 </r>
       <r>    1.6179    1.0000 </r>
       <r>    1.6950    1.0000 </r>
       <r>    1.7757    1.0000 </r>
       <r>    1.9662    1.0000 </r>
       <r>    2.0211    1.0000 </r>
       <r>    2.1664    1.0000 </r>
       <r>    5.3286    1.0000 </r>
       <r>    8.4233    0.0000 </r>
       <r>    9.3838    0.0000 </r>
       <r>    9.8461    0.0000 </r>
       <r>   10.7511    0.0000 </r>
       <r>   11.6361    0.0000 </r>
       <r>   12.2491    0.0000 </r>
       <r>   12.5606    0.0000 </r>
       <r>   12.7042    0.0000 </r>
       <r>   13.2754    0.0000 </r>
       <r>   13.2954    0.0000 </r>
       <r>   14.0367    0.0000 </r>
       <r>   14.0680    0.0000 </r>
       <r>   14.1953    0.0000 </r>
       <r>   14.3870    0.0000 </r>
       <r>   14.7049    0.0000 </r>
       <r>   14.8972    0.0000 </r>
       <r>   14.9325    0.0000 </r>
       <r>   15.4493    0.0000 </r>
       <r>   16.1884    0.0000 </r>
      </set>
      <set comment="kpoint 12">
       <r>  -13.9406    1.0000 </r>
       <r>  -13.6461    1.0000 </r>
       <r>  -13.4412    1.0000 </r>
       <r>  -13.3116    1.0000 </r>
       <r>  -13.2197    1.0000 </r>
       <r>  -13.1301    1.0000 </r>
       <r>  -13.0566    1.0000 </r>
       <r>   -1.2003    1.0000 </r>
       <r>   -0.9790    1.0000 </r>
       <r>   -0.9337    1.0000 </r>
       <r>   -0.8028    1.0000 </r>
       <r>   -0.6677    1.0000 </r>
       <r>   -0.2548    1.0000 </r>
       <r>   -0.1975    1.0000 </r>
       <r>    0.2914    1.0000 </r>
       <r>    0.2946    1.0000 </r>
       <r>    0.3239    1.0000 </r>
       <r>    0.7330    1.0000 </r>
       <r>    0.9725    1.0000 </r>
       <r>    1.1524    1.0000 </r>
       <r>    1.3328    1.0000 </r>
       <r>    1.4728    1.0000 </r>
       <r>    1.6175    1.0000 </r>
       <r>    1.6964    1.0000 </r>
       <r>    1.7759    1.0000 </r>
       <r>    1.9673    1.0000 </r>
       <r>    2.0218    1.0000 </r>
       <r>    2.1677    1.0000 </r>
       <r>    5.3288    1.0000 </r>
       <r>    8.4205    0.0000 </r>
       <r>    9.3826    0.0000 </r>
       <r>    9.8505    0.0000 </r>
       <r>   10.7486    0.0000 </r>
       <r>   11.6372    0.0000 </r>
       <r>   12.2494    0.0000 </r>
       <r>   12.5600    0.0000 </r>
       <r>   12.7035    0.0000 </r>
       <r>   13.2760    0.0000 </r>
       <r>   13.2955    0.0000 </r>
       <r>   14.0398    0.0000 </r>
       <r>   14.0701    0.0000 </r>
       <r>   14.1938    0.0000 </r>
       <r>   14.3867    0.0000 </r>
       <r>   14.7059    0.0000 </r>
       <r>   14.8943    0.0000 </r>
       <r>   14.9328    0.0000 </r>
       <r>   15.4497    0.0000 </r>
       <r>   16.1913    0.0000 </r>
      </set>
      <set comment="kpoint 13">
       <r>  -13.9405    1.0000 </r>
       <r>  -13.6460    1.0000 </r>
       <r>  -13.4413    1.0000 </r>
       <r>  -13.3115    1.0000 </r>
       <r>  -13.2198    1.0000 </r>
       <r>  -13.1302    1.0000 </r>
       <r>  -13.0565    1.0000 </r>
       <r>   -1.2001    1.0000 </r>
       <r>   -0.9790    1.0000 </r>
       <r>   -0.9333    1.0000 </r>
       <r>   -0.8030    1.0000 </r>
       <r>   -0.6673    1.0000 </r>
       <r>   -0.2544    1.0000 </r>
       <r>   -0.1976    1.0000 </r>
       <r>    0.2904    1.0000 </r>
       <r>    0.2944    1.0000 </r>
       <r>    0.3239    1.0000 </r>
       <r>    0.7317    1.0000 </r>
       <r>    0.9727    1.0000 </r>
       <r>    1.1514    1.0000 </r>
       <r>    1.3329    1.0000 </r>
       <r>    1.4732    1.0000 </r>
       <r>    1.6175    1.0000 </r>
       <r>    1.6970    1.0000 </r>
       <r>    1.7762    1.0000 </r>
       <r>    1.9679    1.0000 </r>
       <r>    2.0220    1.0000 </r>
       <r>    2.1682    1.0000 </r>
       <r>    5.3287    1.0000 </r>
       <r>    8.4198    0.0000 </r>
       <r>    9.3820    0.0000 </r>
       <r>    9.8524    0.0000 </r>
       <r>   10.7474    0.0000 </r>
       <r>   11.6378    0.0000 </r>
       <r>   12.2493    0.0000 </r>
       <r>   12.5595    0.0000 </r>
       <r>   12.7035    0.0000 </r>
       <r>   13.2761    0.0000 </r>
       <r>   13.2955    0.0000 </r>
       <r>   14.0393    0.0000 </r>
       <r>   14.0710    0.0000 </r>
       <r>   14.1932    0.0000 </r>
       <r>   14.3869    0.0000 </r>
       <r>   14.7063    0.0000 </r>
       <r>   14.8934    0.0000 </r>
       <r>   14.9329    0.0000 </r>
       <r>   15.4503    0.0000 </r>
       <r>   16.2003    0.0000 </r>
      </set>
      <set comment="kpoint 14">
       <r>  -13.9406    1.0000 </r>
       <r>  -13.6461    1.0000 </r>
       <r>  -13.4412    1.0000 </r>
       <r>  -13.3116    1.0000 </r>
       <r>  -13.2197    1.0000 </r>
       <r>  -13.1301    1.0000 </r>
       <r>  -13.0566    1.0000 </r>
       <r>   -1.2003    1.0000 </r>
       <r>   -0.9789    1.0000 </r>
       <r>   -0.9340    1.0000 </r>
       <r>   -0.8028    1.0000 </r>
       <r>   -0.6676    1.0000 </r>
       <r>   -0.2546    1.0000 </r>
       <r>   -0.1972    1.0000 </r>
       <r>    0.2913    1.0000 </r>
       <r>    0.2947    1.0000 </r>
       <r>    0.3236    1.0000 </r>
       <r>    0.7324    1.0000 </r>
       <r>    0.9724    1.0000 </r>
       <r>    1.1525    1.0000 </r>
       <r>    1.3332    1.0000 </r>
       <r>    1.4726    1.0000 </r>
       <r>    1.6177    1.0000 </r>
       <r>    1.6962    1.0000 </r>
       <r>    1.7759    1.0000 </r>
       <r>    1.9676    1.0000 </r>
       <r>    2.0220    1.0000 </r>
       <r>    2.1676    1.0000 </r>
       <r>    5.3286    1.0000 </r>
       <r>    8.4205    0.0000 </r>
       <r>    9.3825    0.0000 </r>
       <r>    9.8511    0.0000 </r>
       <r>   10.7484    0.0000 </r>
       <r>   11.6373    0.0000 </r>
       <r>   12.2490    0.0000 </r>
       <r>   12.5600    0.0000 </r>
       <r>   12.7035    0.0000 </r>
       <r>   13.2759    0.0000 </r>
       <r>   13.2957    0.0000 </r>
       <r>   14.0389    0.0000 </r>
       <r>   14.0700    0.0000 </r>
       <r>   14.1940    0.0000 </r>
       <r>   14.3868    0.0000 </r>
       <r>   14.7061    0.0000 </r>
       <r>   14.8943    0.0000 </r>
       <r>   14.9329    0.0000 </r>
       <r>   15.4492    0.0000 </r>
       <r>   16.2006    0.0000 </r>
      </set>
      <set comment="kpoint 15">
       <r>  -13.9403    1.0000 </r>
       <r>  -13.6465    1.0000 </r>
       <r>  -13.4415    1.0000 </r>
       <r>  -13.3119    1.0000 </r>
       <r>  -13.2183    1.0000 </r>
       <r>  -13.1305    1.0000 </r>
[...]
        <r>  0.0000  0.0045  0.0090  0.0116  0.0000  0.0000  0.0000  0.0000  0.0000 </r>
        <r>  0.0000  0.0116  0.0090  0.0045  0.0000  0.0000  0.0000  0.0000  0.0000 </r>
        <r>  0.0179  0.0029  0.0290  0.0030  0.0000  0.0000  0.0000  0.0000  0.0000 </r>
        <r>  0.0082  0.0013  0.0165  0.0013  0.0000  0.0000  0.0000  0.0000  0.0000 </r>
       </set>
       <set comment="band 36">
        <r>  0.0197  0.0037  0.0024  0.0038  0.0028  0.0007  0.0010  0.0007  0.0000 </r>
        <r>  0.0026  0.0043  0.0073  0.0042  0.0021  0.0015  0.0022  0.0015  0.0000 </r>
        <r>  0.0063  0.0014  0.0006  0.0036  0.0016  0.0041  0.0005  0.0005  0.0002 </r>
        <r>  0.0064  0.0036  0.0005  0.0016  0.0016  0.0005  0.0005  0.0041  0.0001 </r>
        <r>  0.0063  0.0037  0.0005  0.0015  0.0016  0.0005  0.0005  0.0040  0.0002 </r>
        <r>  0.0063  0.0016  0.0006  0.0037  0.0016  0.0041  0.0005  0.0005  0.0002 </r>
        <r>  0.0025  0.0045  0.0072  0.0044  0.0021  0.0015  0.0022  0.0014  0.0000 </r>
        <r>  0.0198  0.0038  0.0024  0.0038  0.0028  0.0007  0.0010  0.0007  0.0000 </r>
        <r>  0.0021  0.0107  0.0337  0.0106  0.0000  0.0000  0.0000  0.0000  0.0000 </r>
        <r>  0.0001  0.0001  0.0070  0.0137  0.0000  0.0000  0.0000  0.0000  0.0000 </r>
        <r>  0.0001  0.0138  0.0071  0.0001  0.0000  0.0000  0.0000  0.0000  0.0000 </r>
        <r>  0.0155  0.0025  0.0030  0.0029  0.0000  0.0000  0.0000  0.0000  0.0000 </r>
        <r>  0.0152  0.0030  0.0031  0.0026  0.0000  0.0000  0.0000  0.0000  0.0000 </r>
        <r>  0.0112  0.0000  0.0067  0.0001  0.0000  0.0000  0.0000  0.0000  0.0000 </r>
        <r>  0.0038  0.0107  0.0216  0.0106  0.0000  0.0000  0.0000  0.0000  0.0000 </r>
       </set>
       <set comment="band 37">
        <r>  0.0000  0.0076  0.0000  0.0075  0.0000  0.0035  0.0000  0.0036  0.0003 </r>
        <r>  0.0000  0.0052  0.0000  0.0052  0.0000  0.0056  0.0000  0.0057  0.0003 </r>
        <r>  0.0016  0.0054  0.0047  0.0016  0.0002  0.0018  0.0009  0.0017  0.0003 </r>
        <r>  0.0016  0.0015  0.0047  0.0056  0.0002  0.0016  0.0008  0.0019  0.0003 </r>
        <r>  0.0016  0.0016  0.0047  0.0055  0.0002  0.0016  0.0008  0.0018  0.0003 </r>
        <r>  0.0015  0.0054  0.0047  0.0015  0.0002  0.0018  0.0008  0.0016  0.0003 </r>
        <r>  0.0000  0.0053  0.0000  0.0054  0.0000  0.0057  0.0000  0.0057  0.0002 </r>
        <r>  0.0000  0.0077  0.0000  0.0076  0.0000  0.0035  0.0000  0.0035  0.0003 </r>
        <r>  0.0000  0.0032  0.0000  0.0034  0.0000  0.0000  0.0000  0.0000  0.0000 </r>
        <r>  0.0066  0.0063  0.0212  0.0045  0.0000  0.0000  0.0000  0.0000  0.0000 </r>
        <r>  0.0066  0.0044  0.0210  0.0063  0.0000  0.0000  0.0000  0.0000  0.0000 </r>
        <r>  0.0118  0.0001  0.0021  0.0001  0.0000  0.0000  0.0000  0.0000  0.0000 </r>
        <r>  0.0120  0.0001  0.0021  0.0001  0.0000  0.0000  0.0000  0.0000  0.0000 </r>
        <r>  0.0000  0.0223  0.0000  0.0224  0.0000  0.0000  0.0000  0.0000  0.0000 </r>
        <r>  0.0000  0.0239  0.0000  0.0244  0.0000  0.0000  0.0000  0.0000  0.0000 </r>
       </set>
       <set comment="band 38">
        <r>  0.0001  0.0072  0.0000  0.0066  0.0001  0.0010  0.0000  0.0012  0.0008 </r>
        <r>  0.0000  0.0058  0.0000  0.0063  0.0001  0.0006  0.0000  0.0006  0.0008 </r>
        <r>  0.0164  0.0001  0.0089  0.0001  0.0001  0.0038  0.0001  0.0043  0.0001 </r>
        <r>  0.0168  0.0001  0.0092  0.0002  0.0001  0.0043  0.0001  0.0036  0.0001 </r>
        <r>  0.0166  0.0001  0.0088  0.0001  0.0001  0.0043  0.0001  0.0039  0.0001 </r>
        <r>  0.0167  0.0002  0.0090  0.0001  0.0002  0.0036  0.0001  0.0043  0.0001 </r>
        <r>  0.0000  0.0061  0.0000  0.0059  0.0001  0.0006  0.0000  0.0006  0.0008 </r>
        <r>  0.0001  0.0066  0.0000  0.0070  0.0001  0.0012  0.0000  0.0011  0.0008 </r>
        <r>  0.0000  0.0006  0.0000  0.0005  0.0000  0.0000  0.0000  0.0000  0.0000 </r>
        <r>  0.0155  0.0145  0.0066  0.0151  0.0000  0.0000  0.0000  0.0000  0.0000 </r>
        <r>  0.0155  0.0149  0.0065  0.0142  0.0000  0.0000  0.0000  0.0000  0.0000 </r>
        <r>  0.0030  0.0229  0.0000  0.0240  0.0000  0.0000  0.0000  0.0000  0.0000 </r>
        <r>  0.0030  0.0245  0.0000  0.0235  0.0000  0.0000  0.0000  0.0000  0.0000 </r>
        <r>  0.0000  0.0022  0.0000  0.0020  0.0000  0.0000  0.0000  0.0000  0.0000 </r>
        <r>  0.0000  0.0024  0.0000  0.0025  0.0000  0.0000  0.0000  0.0000  0.0000 </r>
       </set>
       <set comment="band 39">
        <r>  0.0132  0.0005  0.0012  0.0010  0.0164  0.0007  0.0001  0.0006  0.0000 </r>
        <r>  0.0015  0.0016  0.0009  0.0011  0.0161  0.0001  0.0002  0.0001  0.0000 </r>
        <r>  0.0015  0.0008  0.0003  0.0016  0.0147  0.0003  0.0001  0.0001  0.0001 </r>
        <r>  0.0010  0.0016  0.0000  0.0007  0.0146  0.0000  0.0001  0.0005  0.0002 </r>
        <r>  0.0013  0.0017  0.0003  0.0008  0.0147  0.0001  0.0001  0.0003  0.0001 </r>
        <r>  0.0012  0.0007  0.0000  0.0016  0.0146  0.0006  0.0001  0.0000  0.0001 </r>
        <r>  0.0015  0.0012  0.0008  0.0014  0.0161  0.0001  0.0002  0.0001  0.0000 </r>
        <r>  0.0131  0.0010  0.0013  0.0006  0.0165  0.0006  0.0001  0.0007  0.0000 </r>
        <r>  0.0014  0.0055  0.0076  0.0055  0.0000  0.0000  0.0000  0.0000  0.0000 </r>
        <r>  0.0001  0.0032  0.0017  0.0001  0.0000  0.0000  0.0000  0.0000  0.0000 </r>
        <r>  0.0001  0.0001  0.0019  0.0035  0.0000  0.0000  0.0000  0.0000  0.0000 </r>
        <r>  0.0015  0.0105  0.0001  0.0064  0.0000  0.0000  0.0000  0.0000  0.0000 </r>
        <r>  0.0016  0.0057  0.0001  0.0098  0.0000  0.0000  0.0000  0.0000  0.0000 </r>
        <r>  0.0001  0.0089  0.0022  0.0091  0.0000  0.0000  0.0000  0.0000  0.0000 </r>
        <r>  0.0050  0.0019  0.0011  0.0018  0.0000  0.0000  0.0000  0.0000  0.0000 </r>
       </set>
       <set comment="band 40">
        <r>  0.0311  0.0051  0.0071  0.0051  0.0043  0.0035  0.0001  0.0033  0.0000 </r>
        <r>  0.0316  0.0010  0.0033  0.0010  0.0050  0.0010  0.0002  0.0011  0.0000 </r>
        <r>  0.0090  0.0003  0.0029  0.0007  0.0003  0.0004  0.0000  0.0015  0.0008 </r>
        <r>  0.0098  0.0007  0.0030  0.0002  0.0002  0.0016  0.0000  0.0004  0.0008 </r>
        <r>  0.0094  0.0007  0.0029  0.0003  0.0003  0.0018  0.0000  0.0006  0.0007 </r>
        <r>  0.0099  0.0003  0.0029  0.0007  0.0002  0.0006  0.0000  0.0019  0.0007 </r>
        <r>  0.0314  0.0011  0.0031  0.0010  0.0051  0.0010  0.0002  0.0010  0.0000 </r>
        <r>  0.0285  0.0050  0.0066  0.0050  0.0043  0.0036  0.0001  0.0037  0.0000 </r>
        <r>  0.0052  0.0058  0.0033  0.0058  0.0000  0.0000  0.0000  0.0000  0.0000 </r>
        <r>  0.0012  0.0000  0.0116  0.0000  0.0000  0.0000  0.0000  0.0000  0.0000 </r>
        <r>  0.0012  0.0000  0.0113  0.0000  0.0000  0.0000  0.0000  0.0000  0.0000 </r>
        <r>  0.0007  0.0013  0.0216  0.0044  0.0000  0.0000  0.0000  0.0000  0.0000 </r>
        <r>  0.0007  0.0045  0.0219  0.0013  0.0000  0.0000  0.0000  0.0000  0.0000 </r>
        <r>  0.0051  0.0015  0.0012  0.0014  0.0000  0.0000  0.0000  0.0000  0.0000 </r>
        <r>  0.0043  0.0053  0.0330  0.0055  0.0000  0.0000  0.0000  0.0000  0.0000 </r>
       </set>
       <set comment="band 41">
        <r>  0.0196  0.0029  0.0017  0.0029  0.0001  0.0022  0.0001  0.0024  0.0000 </r>
        <r>  0.0142  0.0018  0.0031  0.0019  0.0013  0.0015  0.0001  0.0016  0.0000 </r>
        <r>  0.0011  0.0001  0.0000  0.0001  0.0001  0.0062  0.0000  0.0074  0.0001 </r>
        <r>  0.0009  0.0000  0.0000  0.0001  0.0001  0.0072  0.0000  0.0064  0.0001 </r>
        <r>  0.0009  0.0000  0.0000  0.0001  0.0001  0.0071  0.0000  0.0060  0.0001 </r>
        <r>  0.0007  0.0001  0.0000  0.0000  0.0001  0.0061  0.0000  0.0070  0.0001 </r>
        <r>  0.0141  0.0018  0.0032  0.0017  0.0012  0.0016  0.0001  0.0016  0.0000 </r>
        <r>  0.0221  0.0032  0.0020  0.0031  0.0001  0.0021  0.0001  0.0020  0.0000 </r>
        <r>  0.0018  0.0008  0.0001  0.0007  0.0000  0.0000  0.0000  0.0000  0.0000 </r>
        <r>  0.0002  0.0071  0.0008  0.0120  0.0000  0.0000  0.0000  0.0000  0.0000 </r>
        <r>  0.0002  0.0120  0.0008  0.0071  0.0000  0.0000  0.0000  0.0000  0.0000 </r>
        <r>  0.0002  0.0231  0.0002  0.0455  0.0000  0.0000  0.0000  0.0000  0.0000 </r>
        <r>  0.0002  0.0455  0.0001  0.0231  0.0000  0.0000  0.0000  0.0000  0.0000 </r>
        <r>  0.0004  0.0004  0.0453  0.0005  0.0000  0.0000  0.0000  0.0000  0.0000 </r>
        <r>  0.0002  0.0005  0.0421  0.0005  0.0000  0.0000  0.0000  0.0000  0.0000 </r>
       </set>
       <set comment="band 42">
        <r>  0.0000  0.0000  0.0000  0.0000  0.0000  0.0075  0.0000  0.0075  0.0000 </r>
        <r>  0.0000  0.0001  0.0000  0.0001  0.0000  0.0069  0.0000  0.0067  0.0000 </r>
        <r>  0.0158  0.0009  0.0062  0.0009  0.0005  0.0017  0.0001  0.0016  0.0000 </r>
        <r>  0.0157  0.0009  0.0060  0.0010  0.0005  0.0019  0.0001  0.0015  0.0000 </r>
        <r>  0.0157  0.0009  0.0062  0.0010  0.0005  0.0017  0.0001  0.0016  0.0000 </r>
        <r>  0.0158  0.0009  0.0060  0.0009  0.0005  0.0015  0.0001  0.0018  0.0000 </r>
        <r>  0.0000  0.0001  0.0000  0.0001  0.0000  0.0068  0.0000  0.0069  0.0001 </r>
        <r>  0.0000  0.0000  0.0000  0.0000  0.0000  0.0075  0.0000  0.0074  0.0000 </r>
        <r>  0.0000  0.0000  0.0000  0.0000  0.0000  0.0000  0.0000  0.0000  0.0000 </r>
        <r>  0.0015  0.0001  0.0115  0.0001  0.0000  0.0000  0.0000  0.0000  0.0000 </r>
        <r>  0.0015  0.0001  0.0116  0.0001  0.0000  0.0000  0.0000  0.0000  0.0000 </r>
        <r>  0.0000  0.0001  0.0597  0.0001  0.0000  0.0000  0.0000  0.0000  0.0000 </r>
        <r>  0.0000  0.0000  0.0594  0.0001  0.0000  0.0000  0.0000  0.0000  0.0000 </r>
        <r>  0.0000  0.0333  0.0000  0.0333  0.0000  0.0000  0.0000  0.0000  0.0000 </r>
        <r>  0.0000  0.0334  0.0000  0.0334  0.0000  0.0000  0.0000  0.0000  0.0000 </r>
       </set>
       <set comment="band 43">
        <r>  0.0156  0.0018  0.0159  0.0018  0.0003  0.0015  0.0001  0.0015  0.0000 </r>
        <r>  0.0014  0.0008  0.0019  0.0008  0.0021  0.0002  0.0001  0.0003  0.0000 </r>
        <r>  0.0003  0.0002  0.0001  0.0002  0.0001  0.0010  0.0000  0.0133  0.0000 </r>
        <r>  0.0004  0.0001  0.0001  0.0002  0.0002  0.0132  0.0000  0.0010  0.0000 </r>
        <r>  0.0003  0.0002  0.0001  0.0002  0.0001  0.0133  0.0000  0.0010  0.0000 </r>
        <r>  0.0004  0.0002  0.0001  0.0002  0.0001  0.0011  0.0000  0.0132  0.0000 </r>
        <r>  0.0014  0.0008  0.0018  0.0008  0.0021  0.0002  0.0001  0.0002  0.0000 </r>
        <r>  0.0157  0.0017  0.0160  0.0018  0.0003  0.0015  0.0001  0.0015  0.0000 </r>
        <r>  0.0000  0.0011  0.0851  0.0011  0.0000  0.0000  0.0000  0.0000  0.0000 </r>
        <r>  0.0000  0.0429  0.0007  0.0032  0.0000  0.0000  0.0000  0.0000  0.0000 </r>
        <r>  0.0000  0.0032  0.0007  0.0429  0.0000  0.0000  0.0000  0.0000  0.0000 </r>
        <r>  0.0001  0.0068  0.0015  0.0048  0.0000  0.0000  0.0000  0.0000  0.0000 </r>
        <r>  0.0001  0.0048  0.0015  0.0068  0.0000  0.0000  0.0000  0.0000  0.0000 </r>
        <r>  0.0015  0.0001  0.0627  0.0001  0.0000  0.0000  0.0000  0.0000  0.0000 </r>
        <r>  0.0004  0.0018  0.0064  0.0018  0.0000  0.0000  0.0000  0.0000  0.0000 </r>
       </set>
       <set comment="band 44">
        <r>  0.0206  0.0038  0.0004  0.0038  0.0002  0.0035  0.0003  0.0036  0.0000 </r>
        <r>  0.0188  0.0027  0.0014  0.0026  0.0011  0.0052  0.0002  0.0051  0.0000 </r>
        <r>  0.0027  0.0021  0.0052  0.0011  0.0009  0.0031  0.0000  0.0020  0.0000 </r>
        <r>  0.0033  0.0011  0.0050  0.0023  0.0009  0.0020  0.0000  0.0031  0.0000 </r>
        <r>  0.0027  0.0011  0.0050  0.0022  0.0009  0.0019  0.0000  0.0031  0.0000 </r>
        <r>  0.0032  0.0023  0.0050  0.0011  0.0009  0.0032  0.0000  0.0020  0.0000 </r>
        <r>  0.0190  0.0027  0.0014  0.0027  0.0011  0.0052  0.0002  0.0052  0.0000 </r>
        <r>  0.0209  0.0038  0.0004  0.0038  0.0002  0.0035  0.0003  0.0035  0.0000 </r>
        <r>  0.0000  0.0142  0.0069  0.0141  0.0000  0.0000  0.0000  0.0000  0.0000 </r>
        <r>  0.0001  0.0032  0.0190  0.0056  0.0000  0.0000  0.0000  0.0000  0.0000 </r>
        <r>  0.0001  0.0055  0.0190  0.0032  0.0000  0.0000  0.0000  0.0000  0.0000 </r>
        <r>  0.0002  0.0008  0.0180  0.0054  0.0000  0.0000  0.0000  0.0000  0.0000 </r>
        <r>  0.0001  0.0054  0.0178  0.0008  0.0000  0.0000  0.0000  0.0000  0.0000 </r>
        <r>  0.0001  0.0001  0.0018  0.0001  0.0000  0.0000  0.0000  0.0000  0.0000 </r>
        <r>  0.0000  0.0189  0.0195  0.0189  0.0000  0.0000  0.0000  0.0000  0.0000 </r>
       </set>
       <set comment="band 45">
        <r>  0.0000  0.0024  0.0000  0.0024  0.0000  0.0003  0.0000  0.0003  0.0000 </r>
        <r>  0.0000  0.0024  0.0000  0.0023  0.0000  0.0005  0.0000  0.0005  0.0000 </r>
        <r>  0.0751  0.0058  0.0004  0.0041  0.0002  0.0009  0.0005  0.0009  0.0001 </r>
        <r>  0.0718  0.0043  0.0003  0.0059  0.0001  0.0009  0.0006  0.0007  0.0001 </r>
        <r>  0.0747  0.0043  0.0004  0.0060  0.0001  0.0009  0.0005  0.0009  0.0001 </r>
        <r>  0.0718  0.0057  0.0003  0.0042  0.0002  0.0008  0.0006  0.0009  0.0001 </r>
        <r>  0.0000  0.0024  0.0000  0.0024  0.0000  0.0005  0.0000  0.0005  0.0000 </r>
        <r>  0.0000  0.0024  0.0000  0.0024  0.0000  0.0003  0.0000  0.0003  0.0000 </r>
        <r>  0.0000  0.0001  0.0000  0.0001  0.0000  0.0000  0.0000  0.0000  0.0000 </r>
        <r>  0.0000  0.0069  0.0307  0.0080  0.0000  0.0000  0.0000  0.0000  0.0000 </r>
        <r>  0.0000  0.0088  0.0314  0.0071  0.0000  0.0000  0.0000  0.0000  0.0000 </r>
        <r>  0.0010  0.0074  0.0151  0.0085  0.0000  0.0000  0.0000  0.0000  0.0000 </r>
        <r>  0.0009  0.0086  0.0151  0.0077  0.0000  0.0000  0.0000  0.0000  0.0000 </r>
        <r>  0.0000  0.0021  0.0000  0.0019  0.0000  0.0000  0.0000  0.0000  0.0000 </r>
        <r>  0.0000  0.0020  0.0000  0.0021  0.0000  0.0000  0.0000  0.0000  0.0000 </r>
       </set>
       <set comment="band 46">
        <r>  0.0114  0.0001  0.0001  0.0002  0.0148  0.0010  0.0001  0.0010  0.0000 </r>
        <r>  0.0021  0.0037  0.0000  0.0039  0.0121  0.0006  0.0000  0.0006  0.0000 </r>
        <r>  0.0009  0.0003  0.0001  0.0029  0.0168  0.0019  0.0000  0.0000  0.0000 </r>
        <r>  0.0035  0.0026  0.0001  0.0004  0.0168  0.0001  0.0000  0.0020  0.0000 </r>
        <r>  0.0010  0.0027  0.0001  0.0002  0.0169  0.0000  0.0000  0.0019  0.0000 </r>
        <r>  0.0033  0.0004  0.0001  0.0026  0.0168  0.0020  0.0000  0.0001  0.0000 </r>
        <r>  0.0020  0.0039  0.0000  0.0039  0.0121  0.0007  0.0000  0.0006  0.0000 </r>
        <r>  0.0115  0.0002  0.0001  0.0001  0.0148  0.0010  0.0001  0.0011  0.0000 </r>
        <r>  0.0000  0.0041  0.0037  0.0041  0.0000  0.0000  0.0000  0.0000  0.0000 </r>
        <r>  0.0000  0.0020  0.0001  0.0113  0.0000  0.0000  0.0000  0.0000  0.0000 </r>
        <r>  0.0000  0.0110  0.0001  0.0019  0.0000  0.0000  0.0000  0.0000  0.0000 </r>
        <r>  0.0000  0.0046  0.0020  0.0004  0.0000  0.0000  0.0000  0.0000  0.0000 </r>
        <r>  0.0000  0.0003  0.0021  0.0048  0.0000  0.0000  0.0000  0.0000  0.0000 </r>
        <r>  0.0000  0.0107  0.0016  0.0110  0.0000  0.0000  0.0000  0.0000  0.0000 </r>
        <r>  0.0000  0.0035  0.0002  0.0034  0.0000  0.0000  0.0000  0.0000  0.0000 </r>
       </set>
       <set comment="band 47">
        <r>  0.0350  0.0051  0.0058  0.0049  0.0002  0.0017  0.0003  0.0017  0.0000 </r>
        <r>  0.0291  0.0028  0.0024  0.0028  0.0004  0.0020  0.0002  0.0020  0.0000 </r>
        <r>  0.0232  0.0014  0.0080  0.0040  0.0004  0.0002  0.0002  0.0006  0.0000 </r>
        <r>  0.0226  0.0041  0.0080  0.0015  0.0004  0.0006  0.0002  0.0002  0.0000 </r>
        <r>  0.0233  0.0042  0.0080  0.0014  0.0003  0.0006  0.0002  0.0002  0.0000 </r>
        <r>  0.0228  0.0015  0.0078  0.0041  0.0003  0.0002  0.0002  0.0006  0.0000 </r>
        <r>  0.0295  0.0027  0.0024  0.0027  0.0004  0.0020  0.0002  0.0020  0.0000 </r>
        <r>  0.0350  0.0050  0.0058  0.0050  0.0002  0.0017  0.0003  0.0016  0.0000 </r>
        <r>  0.0004  0.0076  0.0088  0.0075  0.0000  0.0000  0.0000  0.0000  0.0000 </r>
        <r>  0.0004  0.0115  0.0105  0.0016  0.0000  0.0000  0.0000  0.0000  0.0000 </r>
        <r>  0.0004  0.0015  0.0101  0.0112  0.0000  0.0000  0.0000  0.0000  0.0000 </r>
        <r>  0.0005  0.0118  0.0077  0.0003  0.0000  0.0000  0.0000  0.0000  0.0000 </r>
        <r>  0.0005  0.0002  0.0075  0.0115  0.0000  0.0000  0.0000  0.0000  0.0000 </r>
        <r>  0.0000  0.0002  0.0007  0.0002  0.0000  0.0000  0.0000  0.0000  0.0000 </r>
        <r>  0.0002  0.0085  0.0022  0.0085  0.0000  0.0000  0.0000  0.0000  0.0000 </r>
       </set>
       <set comment="band 48">
        <r>  0.0073  0.0108  0.0004  0.0174  0.0001  0.0015  0.0002  0.0016  0.0001 </r>
        <r>  0.0163  0.0095  0.0023  0.0130  0.0001  0.0006  0.0001  0.0014  0.0001 </r>
        <r>  0.0279  0.0033  0.0055  0.0067  0.0001  0.0002  0.0005  0.0005  0.0003 </r>
        <r>  0.0504  0.0025  0.0014  0.0033  0.0002  0.0003  0.0004  0.0004  0.0000 </r>
        <r>  0.0297  0.0056  0.0053  0.0042  0.0001  0.0006  0.0005  0.0002  0.0002 </r>
        <r>  0.0503  0.0021  0.0017  0.0037  0.0002  0.0004  0.0004  0.0002  0.0001 </r>
        <r>  0.0162  0.0116  0.0021  0.0108  0.0001  0.0015  0.0001  0.0006  0.0001 </r>
        <r>  0.0071  0.0153  0.0004  0.0128  0.0001  0.0016  0.0002  0.0015  0.0001 </r>
        <r>  0.0004  0.0020  0.0001  0.0019  0.0000  0.0000  0.0000  0.0000  0.0000 </r>
        <r>  0.0002  0.0071  0.0012  0.0072  0.0000  0.0000  0.0000  0.0000  0.0000 </r>
        <r>  0.0002  0.0100  0.0014  0.0063  0.0000  0.0000  0.0000  0.0000  0.0000 </r>
        <r>  0.0013  0.0055  0.0003  0.0026  0.0000  0.0000  0.0000  0.0000  0.0000 </r>
        <r>  0.0014  0.0029  0.0002  0.0039  0.0000  0.0000  0.0000  0.0000  0.0000 </r>
        <r>  0.0003  0.0059  0.0000  0.0047  0.0000  0.0000  0.0000  0.0000  0.0000 </r>
        <r>  0.0001  0.0047  0.0011  0.0040  0.0000  0.0000  0.0000  0.0000  0.0000 </r>
       </set>
      </set>
     </set>
    </set>
   </array>
  </projected>
 </calculation>
 <structure name="finalpos" >
  <crystal>
   <varray name="basis" >
    <v>       0.00000000       4.24689300       4.24689300 </v>
    <v>       4.24689300       0.00000000       4.24689300 </v>
    <v>       4.24689300       4.24689300       0.00000000 </v>
   </varray>
   <i name="volume">    153.19477498 </i>
   <varray name="rec_basis" >
    <v>      -0.11773313       0.11773313       0.11773313 </v>
    <v>       0.11773313      -0.11773313       0.11773313 </v>
    <v>       0.11773313       0.11773313      -0.11773313 </v>
   </varray>
  </crystal>
  <varray name="positions" >
   <v>       0.99916745       0.99897072       0.00389341 </v>
   <v>       0.99847737       0.99743840       0.50509743 </v>
   <v>       0.99857193       0.49979150       0.00302468 </v>
   <v>       0.99916242       0.49877230       0.50411672 </v>
   <v>       0.49944197       0.99840302       0.00387684 </v>
   <v>       0.50014641       0.99791892       0.50494595 </v>
   <v>       0.50081388       0.49971936       0.00297904 </v>
   <v>       0.49941029       0.49873398       0.50389079 </v>
   <v>       0.24931087       0.24857217       0.75431329 </v>
   <v>       0.24920788       0.74859452       0.25446281 </v>
   <v>       0.24947754       0.74874569       0.75408360 </v>
   <v>       0.74930800       0.24833509       0.25445550 </v>
   <v>       0.74941565       0.24866955       0.75420728 </v>
   <v>       0.74946071       0.74846339       0.25446505 </v>
   <v>       0.74921064       0.74871540       0.75472160 </v>
  </varray>
 </structure>
</modeling>
