<?xml version="1.0" encoding="ISO-8859-1"?>
<modeling>
 <generator>
  <i name="program" type="string">vasp </i>
  <i name="version" type="string">5.4.1  </i>
  <i name="subversion" type="string">05Feb16 (build Mar 31 2016 13:39:20) complex                          parallel </i>
  <i name="platform" type="string">IFC91_ompi </i>
  <i name="date" type="string">2018 04 28 </i>
  <i name="time" type="string">12:46:13 </i>
 </generator>
 <incar>
  <i type="string" name="PREC">n</i>
  <i type="string" name="ALGO"> N</i>
  <i type="int" name="ISPIN">     2</i>
  <i type="int" name="NELM">   100</i>
  <i type="int" name="NELMIN">     4</i>
  <i type="int" name="IBRION">     2</i>
  <i name="EDIFF">      0.00000100</i>
  <i name="EDIFFG">     -0.05000000</i>
  <i type="int" name="NSW">    20</i>
  <i type="int" name="ISIF">     2</i>
  <i name="ENCUT">    400.00000000</i>
  <i name="NELECT">     58.00000000</i>
  <i type="string" name="LREAL"> A</i>
  <i type="int" name="ISMEAR">     0</i>
  <i name="SIGMA">      0.05000000</i>
  <i type="logical" name="LWAVE"> F  </i>
  <i type="logical" name="LCHARG"> F  </i>
  <i type="logical" name="LORBIT"> F  </i>
  <i type="logical" name="LASPH"> T  </i>
  <v type="int" name="KPOINT_BSE">    -1     0     0     0</v>
  <i type="int" name="NELM">   100</i>
  <i type="logical" name="LASPH"> T  </i>
 </incar>
 <kpoints>
  <generation param="Gamma">
   <v type="int" name="divisions">       2        2        2 </v>
   <v name="usershift">      0.00000000       0.00000000       0.00000000 </v>
   <v name="genvec1">      0.50000000       0.00000000       0.00000000 </v>
   <v name="genvec2">      0.00000000       0.50000000       0.00000000 </v>
   <v name="genvec3">      0.00000000       0.00000000       0.50000000 </v>
   <v name="shift">      0.00000000       0.00000000       0.00000000 </v>
  </generation>
  <varray name="kpointlist" >
   <v>       0.00000000       0.00000000       0.00000000 </v>
   <v>       0.50000000       0.00000000       0.00000000 </v>
   <v>       0.00000000       0.50000000       0.00000000 </v>
   <v>       0.50000000       0.50000000       0.00000000 </v>
   <v>       0.00000000       0.00000000       0.50000000 </v>
   <v>       0.50000000       0.00000000       0.50000000 </v>
   <v>       0.00000000       0.50000000       0.50000000 </v>
   <v>       0.50000000       0.50000000       0.50000000 </v>
  </varray>
  <varray name="weights" >
   <v>       0.12500000 </v>
   <v>       0.12500000 </v>
   <v>       0.12500000 </v>
   <v>       0.12500000 </v>
   <v>       0.12500000 </v>
   <v>       0.12500000 </v>
   <v>       0.12500000 </v>
   <v>       0.12500000 </v>
  </varray>
 </kpoints>
 <parameters>
  <separator name="general" >
   <i type="string" name="SYSTEM">unknown system</i>
   <i type="logical" name="LCOMPAT"> F  </i>
  </separator>
  <separator name="electronic" >
   <i type="string" name="PREC">n</i>
   <i name="ENMAX">    400.00000000</i>
   <i name="ENAUG">    605.39200000</i>
   <i name="EDIFF">      0.00000100</i>
   <i type="int" name="IALGO">    38</i>
   <i type="int" name="IWAVPR">    11</i>
   <i type="int" name="NBANDS">    48</i>
   <i name="NELECT">     58.00000000</i>
   <i type="int" name="TURBO">     0</i>
   <i type="int" name="IRESTART">     0</i>
   <i type="int" name="NREBOOT">     0</i>
   <i type="int" name="NMIN">     0</i>
   <i name="EREF">      0.00000000</i>
   <separator name="electronic smearing" >
    <i type="int" name="ISMEAR">     0</i>
    <i name="SIGMA">      0.05000000</i>
    <i name="KSPACING">      0.50000000</i>
    <i type="logical" name="KGAMMA"> T  </i>
   </separator>
   <separator name="electronic projectors" >
    <i type="logical" name="LREAL"> T  </i>
    <v name="ROPT">     -0.00050000     -0.00050000</v>
    <i type="int" name="LMAXPAW">  -100</i>
    <i type="int" name="LMAXMIX">     2</i>
    <i type="logical" name="NLSPLINE"> F  </i>
   </separator>
   <separator name="electronic startup" >
    <i type="int" name="ISTART">     0</i>
    <i type="int" name="ICHARG">     2</i>
    <i type="int" name="INIWAV">     1</i>
   </separator>
   <separator name="electronic spin" >
    <i type="int" name="ISPIN">     2</i>
    <i type="logical" name="LNONCOLLINEAR"> F  </i>
    <v name="MAGMOM">      1.00000000      1.00000000      1.00000000      1.00000000      1.00000000      1.00000000      1.00000000      1.00000000      1.00000000      1.00000000      1.00000000      1.00000000      1.00000000      1.00000000      1.00000000</v>
    <i name="NUPDOWN">     -1.00000000</i>
    <i type="logical" name="LSORBIT"> F  </i>
    <v name="SAXIS">      0.00000000      0.00000000      1.00000000</v>
    <i type="logical" name="LSPIRAL"> F  </i>
    <v name="QSPIRAL">      0.00000000      0.00000000      0.00000000</v>
    <i type="logical" name="LZEROZ"> F  </i>
   </separator>
   <separator name="electronic exchange-correlation" >
    <i type="logical" name="LASPH"> T  </i>
    <i type="logical" name="LMETAGGA"> F  </i>
   </separator>
   <separator name="electronic convergence" >
    <i type="int" name="NELM">   100</i>
    <i type="int" name="NELMDL">     0</i>
    <i type="int" name="NELMIN">     4</i>
    <i name="ENINI">    400.00000000</i>
    <separator name="electronic convergence detail" >
     <i type="logical" name="LDIAG"> T  </i>
     <i type="logical" name="LSUBROT"> F  </i>
     <i name="WEIMIN">      0.00100000</i>
     <i name="EBREAK">      0.00000001</i>
     <i name="DEPER">      0.30000000</i>
     <i type="int" name="NRMM">     4</i>
     <i name="TIME">      0.40000000</i>
    </separator>
   </separator>
   <separator name="electronic mixer" >
    <i name="AMIX">      0.40000000</i>
    <i name="BMIX">      1.00000000</i>
    <i name="AMIN">      0.10000000</i>
    <i name="AMIX_MAG">      1.60000000</i>
    <i name="BMIX_MAG">      1.00000000</i>
    <separator name="electronic mixer details" >
     <i type="int" name="IMIX">     4</i>
     <i type="logical" name="MIXFIRST"> F  </i>
     <i type="int" name="MAXMIX">   -45</i>
     <i name="WC">    100.00000000</i>
     <i type="int" name="INIMIX">     1</i>
     <i type="int" name="MIXPRE">     1</i>
     <i type="int" name="MREMOVE">     5</i>
    </separator>
   </separator>
   <separator name="electronic dipolcorrection" >
    <i type="logical" name="LDIPOL"> F  </i>
    <i type="logical" name="LMONO"> F  </i>
    <i type="int" name="IDIPOL">     0</i>
    <i name="EPSILON">      1.00000000</i>
    <v name="DIPOL">   -100.00000000   -100.00000000   -100.00000000</v>
    <i name="EFIELD">      0.00000000</i>
   </separator>
  </separator>
  <separator name="grids" >
   <i type="int" name="NGX">    30</i>
   <i type="int" name="NGY">    30</i>
   <i type="int" name="NGZ">    30</i>
   <i type="int" name="NGXF">    60</i>
   <i type="int" name="NGYF">    60</i>
   <i type="int" name="NGZF">    60</i>
   <i type="logical" name="ADDGRID"> F  </i>
  </separator>
  <separator name="ionic" >
   <i type="int" name="NSW">    20</i>
   <i type="int" name="IBRION">     2</i>
   <i type="int" name="ISIF">     2</i>
   <i name="PSTRESS">      0.00000000</i>
   <i name="EDIFFG">     -0.05000000</i>
   <i type="int" name="NFREE">     1</i>
   <i name="POTIM">      0.50000000</i>
   <i name="SMASS">     -3.00000000</i>
   <i name="SCALEE">      1.00000000</i>
  </separator>
  <separator name="ionic md" >
   <i name="TEBEG">      0.00010000</i>
   <i name="TEEND">      0.00010000</i>
   <i type="int" name="NBLOCK">     1</i>
   <i type="int" name="KBLOCK">    20</i>
   <i type="int" name="NPACO">   256</i>
   <i name="APACO">     16.00000000</i>
  </separator>
  <separator name="symmetry" >
   <i type="int" name="ISYM">     2</i>
   <i name="SYMPREC">      0.00001000</i>
  </separator>
  <separator name="dos" >
   <i type="logical" name="LORBIT"> F  </i>
   <v name="RWIGS">     -1.00000000     -1.00000000</v>
   <i type="int" name="NEDOS">   301</i>
   <i name="EMIN">     10.00000000</i>
   <i name="EMAX">    -10.00000000</i>
   <i name="EFERMI">      0.00000000</i>
  </separator>
  <separator name="writing" >
   <i type="int" name="NWRITE">     2</i>
   <i type="logical" name="LWAVE"> F  </i>
   <i type="logical" name="LCHARG"> F  </i>
   <i type="logical" name="LPARD"> F  </i>
   <i type="logical" name="LVTOT"> F  </i>
   <i type="logical" name="LVHAR"> F  </i>
   <i type="logical" name="LELF"> F  </i>
   <i type="logical" name="LOPTICS"> F  </i>
   <v name="STM">      0.00000000      0.00000000      0.00000000      0.00000000      0.00000000      0.00000000      0.00000000</v>
  </separator>
  <separator name="performance" >
   <i type="int" name="NPAR">     4</i>
   <i type="int" name="NSIM">     4</i>
   <i type="int" name="NBLK">    -1</i>
   <i type="logical" name="LPLANE"> T  </i>
   <i type="logical" name="LSCALAPACK"> T  </i>
   <i type="logical" name="LSCAAWARE"> F  </i>
   <i type="logical" name="LSCALU"> F  </i>
   <i type="logical" name="LASYNC"> F  </i>
   <i type="logical" name="LORBITALREAL"> F  </i>
  </separator>
  <separator name="miscellaneous" >
   <i type="int" name="IDIOT">     3</i>
   <i type="logical" name="LMUSIC"> F  </i>
   <v name="POMASS">     24.30500000     16.00000000</v>
   <v name="DARWINR">      0.00000000      0.00000000</v>
   <v name="DARWINV">      1.00000000      1.00000000</v>
   <i type="logical" name="LCORR"> T  </i>
  </separator>
  <i type="logical" name="GGA_COMPAT"> T  </i>
  <i type="logical" name="LBERRY"> F  </i>
  <i type="int" name="ICORELEVEL">     0</i>
  <i type="logical" name="LDAU"> F  </i>
  <i type="int" name="I_CONSTRAINED_M">     0</i>
  <separator name="electronic exchange-correlation" >
   <i type="string" name="GGA">--</i>
   <i type="int" name="VOSKOWN">     0</i>
   <i type="logical" name="LHFCALC"> F  </i>
   <i type="string" name="PRECFOCK"></i>
   <i type="logical" name="LSYMGRAD"> F  </i>
   <i type="logical" name="LHFONE"> F  </i>
   <i type="logical" name="LRHFCALC"> F  </i>
   <i type="logical" name="LTHOMAS"> F  </i>
   <i type="logical" name="LMODELHF"> F  </i>
   <i name="ENCUT4O">     -1.00000000</i>
   <i type="int" name="EXXOEP">     0</i>
   <i type="int" name="FOURORBIT">     0</i>
   <i name="AEXX">      0.00000000</i>
   <i name="HFALPHA">      0.00000000</i>
   <i name="MCALPHA">      0.00000000</i>
   <i name="ALDAX">      1.00000000</i>
   <i name="AGGAX">      1.00000000</i>
   <i name="ALDAC">      1.00000000</i>
   <i name="AGGAC">      1.00000000</i>
   <i type="int" name="NKREDX">     1</i>
   <i type="int" name="NKREDY">     1</i>
   <i type="int" name="NKREDZ">     1</i>
   <i type="logical" name="SHIFTRED"> F  </i>
   <i type="logical" name="ODDONLY"> F  </i>
   <i type="logical" name="EVENONLY"> F  </i>
   <i type="int" name="LMAXFOCK">     0</i>
   <i type="int" name="NMAXFOCKAE">     0</i>
   <i type="logical" name="LFOCKAEDFT"> F  </i>
   <i name="HFSCREEN">      0.00000000</i>
   <i name="HFSCREENC">      0.00000000</i>
   <i type="int" name="NBANDSGWLOW">     0</i>
  </separator>
  <separator name="vdW DFT" >
   <i type="logical" name="LUSE_VDW"> F  </i>
   <i name="Zab_VDW">     -0.84910000</i>
   <i name="PARAM1">      0.12340000</i>
   <i name="PARAM2">      1.00000000</i>
   <i name="PARAM3">      0.00000000</i>
  </separator>
  <separator name="model GW" >
   <i type="int" name="MODEL_GW">     0</i>
   <i name="MODEL_EPS0">      6.12779100</i>
   <i name="MODEL_ALPHA">      1.00000000</i>
  </separator>
  <separator name="linear response parameters" >
   <i type="logical" name="LEPSILON"> F  </i>
   <i type="logical" name="LRPA"> F  </i>
   <i type="logical" name="LNABLA"> F  </i>
   <i type="logical" name="LVEL"> F  </i>
   <i type="int" name="KINTER">     0</i>
   <i name="CSHIFT">      0.10000000</i>
   <i name="OMEGAMAX">     -1.00000000</i>
   <i name="DEG_THRESHOLD">      0.00200000</i>
  </separator>
  <separator name="orbital magnetization" >
   <i type="logical" name="NUCIND"> F  </i>
   <v name="MAGPOS">      0.00000000      0.00000000      0.00000000</v>
   <i type="logical" name="LNICSALL"> T  </i>
   <i type="logical" name="ORBITALMAG"> F  </i>
   <i type="logical" name="LMAGBLOCH"> F  </i>
   <i type="logical" name="LCHIMAG"> F  </i>
   <i type="logical" name="LGAUGE"> T  </i>
   <i type="int" name="MAGATOM">     0</i>
   <v name="MAGDIPOL">      0.00000000      0.00000000      0.00000000</v>
   <v name="AVECCONST">      0.00000000      0.00000000      0.00000000</v>
  </separator>
  <separator name="response functions" >
   <i type="logical" name="LADDER"> F  </i>
   <i type="logical" name="LFXC"> F  </i>
   <i type="logical" name="LHARTREE"> T  </i>
   <i type="int" name="IBSE">     0</i>
   <v type="int" name="KPOINT">    -1     0     0     0</v>
   <i type="logical" name="LTCTE"> F  </i>
   <i type="logical" name="LTETE"> F  </i>
   <i type="logical" name="LTRIPLET"> F  </i>
   <i type="logical" name="LFXCEPS"> F  </i>
   <i type="logical" name="LFXHEG"> F  </i>
   <i type="int" name="NATURALO">     0</i>
   <i type="logical" name="L2ORDER"> F  </i>
   <i type="logical" name="LUSEW"> F  </i>
   <i name="ENCUTGW">     -2.00000000</i>
   <i name="ENCUTGWSOFT">     -2.00000000</i>
   <i name="ENCUTLF">     -1.00000000</i>
   <i type="int" name="LMAXMP2">    -1</i>
   <i name="SCISSOR">      0.00000000</i>
   <i type="int" name="NOMEGA">     0</i>
   <i type="int" name="NOMEGAR">     0</i>
   <i type="int" name="NBANDSGW">    -1</i>
   <i type="int" name="NBANDSO">    -1</i>
   <i type="int" name="NBANDSV">    -1</i>
   <i type="int" name="NELM">   100</i>
   <i type="int" name="NELMHF">     1</i>
   <i type="int" name="DIM">     3</i>
   <i type="int" name="ANTIRES">     0</i>
   <i name="OMEGAMAX">    -30.00000000</i>
   <i name="OMEGAMIN">    -30.00000000</i>
   <i name="OMEGATL">   -200.00000000</i>
   <i type="int" name="OMEGAGRID">     0</i>
   <i name="CSHIFT">     -0.10000000</i>
   <i type="logical" name="SELFENERGY"> F  </i>
   <i type="logical" name="LSPECTRAL"> F  </i>
   <i type="logical" name="LSPECTRALGW"> F  </i>
   <i type="logical" name="LSINGLES"> F  </i>
   <i type="logical" name="LFERMIGW"> F  </i>
   <i type="logical" name="ODDONLYGW"> F  </i>
   <i type="logical" name="EVENONLYGW"> F  </i>
   <i type="int" name="NKREDLFX">     1</i>
   <i type="int" name="NKREDLFY">     1</i>
   <i type="int" name="NKREDLFZ">     1</i>
   <i type="int" name="MAXMEM">  1800</i>
   <i type="int" name="TELESCOPE">     0</i>
   <i type="int" name="TAUPAR">     1</i>
   <i type="int" name="OMEGAPAR">    -1</i>
   <i name="LAMBDA">      1.00000000</i>
  </separator>
  <separator name="External order field" >
   <i name="OFIELD_KAPPA">      0.00000000</i>
   <v name="OFIELD_K">      0.00000000      0.00000000      0.00000000</v>
   <i name="OFIELD_Q6_NEAR">      0.00000000</i>
   <i name="OFIELD_Q6_FAR">      0.00000000</i>
   <i name="OFIELD_A">      0.00000000</i>
  </separator>
 </parameters>
 <atominfo>
  <atoms>      15 </atoms>
  <types>       2 </types>
  <array name="atoms" >
   <dimension dim="1">ion</dimension>
   <field type="string">element</field>
   <field type="int">atomtype</field>
   <set>
    <rc><c>Mg</c><c>   1</c></rc>
    <rc><c>Mg</c><c>   1</c></rc>
    <rc><c>Mg</c><c>   1</c></rc>
    <rc><c>Mg</c><c>   1</c></rc>
    <rc><c>Mg</c><c>   1</c></rc>
    <rc><c>Mg</c><c>   1</c></rc>
    <rc><c>Mg</c><c>   1</c></rc>
    <rc><c>Mg</c><c>   1</c></rc>
    <rc><c>O </c><c>   2</c></rc>
    <rc><c>O </c><c>   2</c></rc>
    <rc><c>O </c><c>   2</c></rc>
    <rc><c>O </c><c>   2</c></rc>
    <rc><c>O </c><c>   2</c></rc>
    <rc><c>O </c><c>   2</c></rc>
    <rc><c>O </c><c>   2</c></rc>
   </set>
  </array>
  <array name="atomtypes" >
   <dimension dim="1">type</dimension>
   <field type="int">atomspertype</field>
   <field type="string">element</field>
   <field>mass</field>
   <field>valence</field>
   <field type="string">pseudopotential</field>
   <set>
    <rc><c>   8</c><c>Mg</c><c>     24.30500000</c><c>      2.00000000</c><c>  PAW_PBE Mg 13Apr2007                  </c></rc>
    <rc><c>   7</c><c>O </c><c>     16.00000000</c><c>      6.00000000</c><c>  PAW_PBE O 08Apr2002                   </c></rc>
   </set>
  </array>
 </atominfo>
 <structure name="initialpos" >
  <crystal>
   <varray name="basis" >
    <v>       0.00000000       4.24689300       4.24689300 </v>
    <v>       4.24689300       0.00000000       4.24689300 </v>
    <v>       4.24689300       4.24689300       0.00000000 </v>
   </varray>
   <i name="volume">    153.19477498 </i>
   <varray name="rec_basis" >
    <v>      -0.11773313       0.11773313       0.11773313 </v>
    <v>       0.11773313      -0.11773313       0.11773313 </v>
    <v>       0.11773313       0.11773313      -0.11773313 </v>
   </varray>
  </crystal>
  <varray name="positions" >
   <v>       0.99917582       0.99897852       0.00386781 </v>
   <v>       0.99857360       0.99753002       0.50503979 </v>
   <v>       0.99863696       0.49963912       0.00317705 </v>
   <v>       0.99931158       0.49862354       0.50403571 </v>
   <v>       0.49932439       0.99852638       0.00406210 </v>
   <v>       0.50002972       0.99801926       0.50483584 </v>
   <v>       0.50070633       0.49961992       0.00308265 </v>
   <v>       0.49938847       0.49876609       0.50388228 </v>
   <v>       0.24932556       0.24856908       0.75428780 </v>
   <v>       0.24921292       0.74860550       0.25443922 </v>
   <v>       0.24947783       0.74875966       0.75405483 </v>
   <v>       0.74930996       0.24833559       0.25444375 </v>
   <v>       0.74942355       0.24867453       0.75418738 </v>
   <v>       0.74946960       0.74846508       0.25444913 </v>
   <v>       0.74921670       0.74873169       0.75468865 </v>
  </varray>
 </structure>
 <calculation>
  <scstep>
   <time name="dav">    0.53    0.54</time>
   <time name="total">    1.23    1.24</time>
   <energy>
    <i name="alphaZ">    129.53385374 </i>
    <i name="ewald">  -2377.02466906 </i>
    <i name="hartreedc">   -970.76332641 </i>
    <i name="XCdc">   -189.68290263 </i>
    <i name="pawpsdc">   2946.27252624 </i>
    <i name="pawaedc">  -2543.92834819 </i>
    <i name="eentropy">     -0.00471411 </i>
    <i name="bandstr">     25.30018176 </i>
    <i name="atom">   3210.13655998 </i>
    <i name="e_fr_energy">    229.83916133 </i>
    <i name="e_wo_entrp">    229.84387544 </i>
    <i name="e_0_energy">    229.84151838 </i>
   </energy>
  </scstep>
  <scstep>
   <time name="dav">    0.60    0.61</time>
   <time name="total">    0.61    0.61</time>
   <energy>
    <i name="e_fr_energy">    -71.97186745 </i>
    <i name="e_wo_entrp">    -71.97186745 </i>
    <i name="e_0_energy">    -71.97186745 </i>
   </energy>
  </scstep>
  <scstep>
   <time name="dav">    0.60    0.60</time>
   <time name="total">    0.60    0.61</time>
   <energy>
    <i name="e_fr_energy">    -88.93851945 </i>
    <i name="e_wo_entrp">    -88.93851941 </i>
    <i name="e_0_energy">    -88.93851943 </i>
   </energy>
  </scstep>
  <scstep>
   <time name="dav">    0.57    0.57</time>
   <time name="total">    0.57    0.58</time>
   <energy>
    <i name="e_fr_energy">    -89.03568315 </i>
    <i name="e_wo_entrp">    -89.03568308 </i>
    <i name="e_0_energy">    -89.03568311 </i>
   </energy>
  </scstep>
  <scstep>
   <time name="dav">    0.59    0.59</time>
   <time name="total">    0.62    0.62</time>
   <energy>
    <i name="e_fr_energy">    -89.03616433 </i>
    <i name="e_wo_entrp">    -89.03616426 </i>
    <i name="e_0_energy">    -89.03616429 </i>
   </energy>
  </scstep>
  <scstep>
   <time name="dav">    0.56    0.56</time>
   <time name="total">    1.28    1.29</time>
   <energy>
    <i name="e_fr_energy">    -83.48849417 </i>
    <i name="e_wo_entrp">    -83.48849417 </i>
    <i name="e_0_energy">    -83.48849417 </i>
   </energy>
  </scstep>
  <scstep>
   <time name="dav">    0.54    0.54</time>
   <time name="total">    1.26    1.26</time>
   <energy>
    <i name="e_fr_energy">    -83.66699152 </i>
    <i name="e_wo_entrp">    -83.66699152 </i>
    <i name="e_0_energy">    -83.66699152 </i>
   </energy>
  </scstep>
  <scstep>
   <time name="dav">    0.57    0.58</time>
   <time name="total">    1.30    1.30</time>
   <energy>
    <i name="e_fr_energy">    -83.59948160 </i>
    <i name="e_wo_entrp">    -83.59948160 </i>
    <i name="e_0_energy">    -83.59948160 </i>
   </energy>
  </scstep>
  <scstep>
   <time name="dav">    0.57    0.57</time>
   <time name="total">    1.29    1.30</time>
   <energy>
    <i name="e_fr_energy">    -83.59720344 </i>
    <i name="e_wo_entrp">    -83.59720344 </i>
    <i name="e_0_energy">    -83.59720344 </i>
   </energy>
  </scstep>
  <scstep>
   <time name="dav">    0.59    0.59</time>
   <time name="total">    1.31    1.32</time>
   <energy>
    <i name="e_fr_energy">    -83.59624952 </i>
    <i name="e_wo_entrp">    -83.59624952 </i>
    <i name="e_0_energy">    -83.59624952 </i>
   </energy>
  </scstep>
  <scstep>
   <time name="dav">    0.58    0.58</time>
   <time name="total">    1.30    1.31</time>
   <energy>
    <i name="e_fr_energy">    -83.59653723 </i>
    <i name="e_wo_entrp">    -83.59653723 </i>
    <i name="e_0_energy">    -83.59653723 </i>
   </energy>
  </scstep>
  <scstep>
   <time name="dav">    0.60    0.60</time>
   <time name="total">    1.32    1.33</time>
   <energy>
    <i name="e_fr_energy">    -83.59666318 </i>
    <i name="e_wo_entrp">    -83.59666318 </i>
    <i name="e_0_energy">    -83.59666318 </i>
   </energy>
  </scstep>
  <scstep>
   <time name="dav">    0.58    0.58</time>
   <time name="total">    1.30    1.30</time>
   <energy>
    <i name="e_fr_energy">    -83.59666722 </i>
    <i name="e_wo_entrp">    -83.59666722 </i>
    <i name="e_0_energy">    -83.59666722 </i>
   </energy>
  </scstep>
  <scstep>
   <time name="dav">    0.58    0.57</time>
   <time name="total">    1.28    1.28</time>
   <energy>
    <i name="alphaZ">    129.53385374 </i>
    <i name="ewald">  -2377.02466906 </i>
    <i name="hartreedc">  -1115.68808302 </i>
    <i name="XCdc">   -181.40542295 </i>
    <i name="pawpsdc">   3950.06579882 </i>
    <i name="pawaedc">  -3549.52692099 </i>
    <i name="eentropy">     -0.00000000 </i>
    <i name="bandstr">   -149.68778403 </i>
    <i name="atom">   3210.13655998 </i>
    <i name="e_fr_energy">    -83.59666751 </i>
    <i name="e_wo_entrp">    -83.59666751 </i>
    <i name="e_0_energy">    -83.59666751 </i>
   </energy>
  </scstep>
  <structure>
   <crystal>
    <varray name="basis" >
     <v>       0.00000000       4.24689300       4.24689300 </v>
     <v>       4.24689300       0.00000000       4.24689300 </v>
     <v>       4.24689300       4.24689300       0.00000000 </v>
    </varray>
    <i name="volume">    153.19477498 </i>
    <varray name="rec_basis" >
     <v>      -0.11773313       0.11773313       0.11773313 </v>
     <v>       0.11773313      -0.11773313       0.11773313 </v>
     <v>       0.11773313       0.11773313      -0.11773313 </v>
    </varray>
   </crystal>
   <varray name="positions" >
    <v>       0.99917582       0.99897852       0.00386781 </v>
    <v>       0.99857360       0.99753002       0.50503979 </v>
    <v>       0.99863696       0.49963912       0.00317705 </v>
    <v>       0.99931158       0.49862354       0.50403571 </v>
    <v>       0.49932439       0.99852638       0.00406210 </v>
    <v>       0.50002972       0.99801926       0.50483584 </v>
    <v>       0.50070633       0.49961992       0.00308265 </v>
    <v>       0.49938847       0.49876609       0.50388228 </v>
    <v>       0.24932556       0.24856908       0.75428780 </v>
    <v>       0.24921292       0.74860550       0.25443922 </v>
    <v>       0.24947783       0.74875966       0.75405483 </v>
    <v>       0.74930996       0.24833559       0.25444375 </v>
    <v>       0.74942355       0.24867453       0.75418738 </v>
    <v>       0.74946960       0.74846508       0.25444913 </v>
    <v>       0.74921670       0.74873169       0.75468865 </v>
   </varray>
  </structure>
  <varray name="forces" >
   <v>      -0.00231553       0.02051990      -0.00909245 </v>
   <v>       0.00864275      -0.00716829       0.01538826 </v>
   <v>      -0.00036061       0.02027322      -0.00396763 </v>
   <v>       0.02622075       0.00347458       0.00437294 </v>
   <v>      -0.01079464       0.00215412       0.00654576 </v>
   <v>      -0.00259116      -0.00082945      -0.00101325 </v>
   <v>       0.00407824      -0.01417697      -0.02427397 </v>
   <v>       0.00675927       0.01400983      -0.00803793 </v>
   <v>       0.00268971      -0.00643175       0.00418609 </v>
   <v>      -0.01017599      -0.00321094       0.00434058 </v>
   <v>       0.00097734       0.00330856      -0.00518697 </v>
   <v>       0.00267974      -0.00771179       0.01500757 </v>
   <v>      -0.00049798      -0.00258592      -0.00189808 </v>
   <v>      -0.00400069      -0.01365779       0.00307354 </v>
   <v>      -0.02131120      -0.00796730       0.00055554 </v>
  </varray>
  <varray name="stress" >
   <v>     -23.79757572       0.12865768       0.23232684 </v>
   <v>       0.12865774     -23.28217147       0.22708407 </v>
   <v>       0.23232685       0.22708406     -23.06020582 </v>
  </varray>
  <energy>
   <i name="e_fr_energy">    -83.59666751 </i>
   <i name="e_wo_entrp">    -83.59666751 </i>
   <i name="e_0_energy">     -0.00000000 </i>
  </energy>
  <time name="totalsc">   17.24   17.30</time>
  <eigenvalues>
   <array>
    <dimension dim="1">band</dimension>
    <dimension dim="2">kpoint</dimension>
    <dimension dim="3">spin</dimension>
    <field>eigene</field>
    <field>occ</field>
    <set>
     <set comment="spin 1">
      <set comment="kpoint 1">
       <r>  -14.3700    1.0000 </r>
       <r>  -13.2798    1.0000 </r>
       <r>  -13.2795    1.0000 </r>
       <r>  -13.2789    1.0000 </r>
       <r>  -13.1877    1.0000 </r>
       <r>  -13.0305    1.0000 </r>
       <r>  -13.0300    1.0000 </r>
       <r>   -1.8688    1.0000 </r>
       <r>   -1.6906    1.0000 </r>
       <r>   -1.6898    1.0000 </r>
       <r>   -1.6892    1.0000 </r>
       <r>   -0.9170    1.0000 </r>
       <r>   -0.9166    1.0000 </r>
       <r>   -0.9155    1.0000 </r>
       <r>    1.3224    1.0000 </r>
       <r>    1.3225    1.0000 </r>
       <r>    1.3227    1.0000 </r>
       <r>    1.5500    1.0000 </r>
       <r>    1.5519    1.0000 </r>
       <r>    1.5567    1.0000 </r>
       <r>    2.0083    1.0000 </r>
       <r>    2.0088    1.0000 </r>
       <r>    2.0092    1.0000 </r>
       <r>    2.0110    1.0000 </r>
       <r>    2.0113    1.0000 </r>
       <r>    2.4675    1.0000 </r>
       <r>    2.4688    1.0000 </r>
       <r>    2.4722    1.0000 </r>
       <r>    3.4384    1.0000 </r>
       <r>    8.3485    0.0000 </r>
       <r>   10.4340    0.0000 </r>
       <r>   10.4341    0.0000 </r>
       <r>   10.4342    0.0000 </r>
       <r>   11.2695    0.0000 </r>
       <r>   11.2728    0.0000 </r>
       <r>   11.2814    0.0000 </r>
       <r>   11.8365    0.0000 </r>
       <r>   11.8366    0.0000 </r>
       <r>   11.8368    0.0000 </r>
       <r>   11.9030    0.0000 </r>
       <r>   12.4760    0.0000 </r>
       <r>   12.4791    0.0000 </r>
       <r>   14.9896    0.0000 </r>
       <r>   15.2722    0.0000 </r>
       <r>   15.2773    0.0000 </r>
       <r>   15.2796    0.0000 </r>
       <r>   18.3949    0.0000 </r>
       <r>   18.3995    0.0000 </r>
      </set>
      <set comment="kpoint 2">
       <r>  -13.9540    1.0000 </r>
       <r>  -13.7625    1.0000 </r>
       <r>  -13.2082    1.0000 </r>
       <r>  -13.1651    1.0000 </r>
       <r>  -13.1644    1.0000 </r>
       <r>  -13.1640    1.0000 </r>
       <r>  -13.1633    1.0000 </r>
       <r>   -1.2968    1.0000 </r>
       <r>   -1.1182    1.0000 </r>
       <r>   -1.1160    1.0000 </r>
       <r>   -1.0910    1.0000 </r>
       <r>   -0.3237    1.0000 </r>
       <r>   -0.3206    1.0000 </r>
       <r>   -0.3075    1.0000 </r>
       <r>    0.1771    1.0000 </r>
       <r>    0.6681    1.0000 </r>
       <r>    0.7665    1.0000 </r>
       <r>    0.7671    1.0000 </r>
       <r>    0.7861    1.0000 </r>
       <r>    0.7875    1.0000 </r>
       <r>    1.6241    1.0000 </r>
       <r>    1.6278    1.0000 </r>
       <r>    1.6374    1.0000 </r>
       <r>    1.6565    1.0000 </r>
       <r>    2.0349    1.0000 </r>
       <r>    2.0356    1.0000 </r>
       <r>    2.2870    1.0000 </r>
       <r>    2.2897    1.0000 </r>
       <r>    5.1368    1.0000 </r>
       <r>    7.9334    0.0000 </r>
       <r>   10.3073    0.0000 </r>
       <r>   10.3143    0.0000 </r>
       <r>   10.5801    0.0000 </r>
       <r>   10.7526    0.0000 </r>
       <r>   12.3297    0.0000 </r>
       <r>   12.3318    0.0000 </r>
       <r>   12.4508    0.0000 </r>
       <r>   12.4528    0.0000 </r>
       <r>   13.2832    0.0000 </r>
       <r>   13.9045    0.0000 </r>
       <r>   14.0809    0.0000 </r>
       <r>   14.0835    0.0000 </r>
       <r>   14.4083    0.0000 </r>
       <r>   15.1785    0.0000 </r>
       <r>   15.3246    0.0000 </r>
       <r>   15.5792    0.0000 </r>
       <r>   15.5998    0.0000 </r>
       <r>   15.8489    0.0000 </r>
      </set>
      <set comment="kpoint 3">
       <r>  -13.9533    1.0000 </r>
       <r>  -13.7635    1.0000 </r>
       <r>  -13.2079    1.0000 </r>
       <r>  -13.1656    1.0000 </r>
       <r>  -13.1652    1.0000 </r>
       <r>  -13.1637    1.0000 </r>
       <r>  -13.1624    1.0000 </r>
       <r>   -1.2955    1.0000 </r>
       <r>   -1.1172    1.0000 </r>
       <r>   -1.1160    1.0000 </r>
       <r>   -1.0924    1.0000 </r>
       <r>   -0.3238    1.0000 </r>
       <r>   -0.3223    1.0000 </r>
       <r>   -0.3069    1.0000 </r>
       <r>    0.1765    1.0000 </r>
       <r>    0.6683    1.0000 </r>
       <r>    0.7650    1.0000 </r>
       <r>    0.7674    1.0000 </r>
       <r>    0.7857    1.0000 </r>
       <r>    0.7890    1.0000 </r>
       <r>    1.6246    1.0000 </r>
       <r>    1.6293    1.0000 </r>
       <r>    1.6379    1.0000 </r>
       <r>    1.6560    1.0000 </r>
       <r>    2.0327    1.0000 </r>
       <r>    2.0345    1.0000 </r>
       <r>    2.2875    1.0000 </r>
       <r>    2.2911    1.0000 </r>
       <r>    5.1369    1.0000 </r>
       <r>    7.9341    0.0000 </r>
       <r>   10.3069    0.0000 </r>
       <r>   10.3148    0.0000 </r>
       <r>   10.5802    0.0000 </r>
       <r>   10.7526    0.0000 </r>
       <r>   12.3284    0.0000 </r>
       <r>   12.3314    0.0000 </r>
       <r>   12.4510    0.0000 </r>
       <r>   12.4540    0.0000 </r>
       <r>   13.2811    0.0000 </r>
       <r>   13.9038    0.0000 </r>
       <r>   14.0810    0.0000 </r>
       <r>   14.0839    0.0000 </r>
       <r>   14.4089    0.0000 </r>
       <r>   15.1789    0.0000 </r>
       <r>   15.3234    0.0000 </r>
       <r>   15.5799    0.0000 </r>
       <r>   15.6009    0.0000 </r>
       <r>   15.8517    0.0000 </r>
      </set>
      <set comment="kpoint 4">
       <r>  -13.7800    1.0000 </r>
       <r>  -13.6948    1.0000 </r>
       <r>  -13.3465    1.0000 </r>
       <r>  -13.3441    1.0000 </r>
       <r>  -13.3435    1.0000 </r>
       <r>  -13.1269    1.0000 </r>
       <r>  -12.9839    1.0000 </r>
       <r>   -1.2283    1.0000 </r>
       <r>   -0.7809    1.0000 </r>
       <r>   -0.6061    1.0000 </r>
       <r>   -0.6047    1.0000 </r>
       <r>   -0.2385    1.0000 </r>
       <r>   -0.2383    1.0000 </r>
       <r>   -0.2157    1.0000 </r>
       <r>    0.1770    1.0000 </r>
       <r>    0.4886    1.0000 </r>
       <r>    0.4890    1.0000 </r>
       <r>    0.6972    1.0000 </r>
       <r>    0.6996    1.0000 </r>
       <r>    0.7005    1.0000 </r>
       <r>    0.8017    1.0000 </r>
       <r>    0.9110    1.0000 </r>
       <r>    1.9198    1.0000 </r>
       <r>    1.9201    1.0000 </r>
       <r>    1.9265    1.0000 </r>
       <r>    1.9328    1.0000 </r>
       <r>    2.0092    1.0000 </r>
       <r>    2.0102    1.0000 </r>
       <r>    5.6369    1.0000 </r>
       <r>    8.1860    0.0000 </r>
       <r>    9.5500    0.0000 </r>
       <r>    9.5553    0.0000 </r>
       <r>   11.0432    0.0000 </r>
       <r>   11.9538    0.0000 </r>
       <r>   11.9544    0.0000 </r>
       <r>   12.9868    0.0000 </r>
       <r>   12.9880    0.0000 </r>
       <r>   13.7476    0.0000 </r>
       <r>   13.9490    0.0000 </r>
       <r>   14.1542    0.0000 </r>
       <r>   14.1556    0.0000 </r>
       <r>   14.2906    0.0000 </r>
       <r>   14.4530    0.0000 </r>
       <r>   14.4605    0.0000 </r>
       <r>   14.4624    0.0000 </r>
       <r>   14.6760    0.0000 </r>
       <r>   15.8599    0.0000 </r>
       <r>   15.9247    0.0000 </r>
      </set>
      <set comment="kpoint 5">
       <r>  -13.9533    1.0000 </r>
       <r>  -13.7634    1.0000 </r>
       <r>  -13.2080    1.0000 </r>
       <r>  -13.1656    1.0000 </r>
       <r>  -13.1650    1.0000 </r>
       <r>  -13.1638    1.0000 </r>
       <r>  -13.1625    1.0000 </r>
       <r>   -1.2957    1.0000 </r>
       <r>   -1.1172    1.0000 </r>
       <r>   -1.1159    1.0000 </r>
       <r>   -1.0923    1.0000 </r>
       <r>   -0.3237    1.0000 </r>
       <r>   -0.3222    1.0000 </r>
       <r>   -0.3070    1.0000 </r>
       <r>    0.1765    1.0000 </r>
       <r>    0.6681    1.0000 </r>
       <r>    0.7648    1.0000 </r>
       <r>    0.7675    1.0000 </r>
       <r>    0.7856    1.0000 </r>
       <r>    0.7891    1.0000 </r>
       <r>    1.6244    1.0000 </r>
       <r>    1.6292    1.0000 </r>
       <r>    1.6381    1.0000 </r>
       <r>    1.6558    1.0000 </r>
       <r>    2.0331    1.0000 </r>
       <r>    2.0348    1.0000 </r>
       <r>    2.2872    1.0000 </r>
       <r>    2.2912    1.0000 </r>
       <r>    5.1369    1.0000 </r>
       <r>    7.9340    0.0000 </r>
       <r>   10.3067    0.0000 </r>
       <r>   10.3145    0.0000 </r>
       <r>   10.5804    0.0000 </r>
       <r>   10.7522    0.0000 </r>
       <r>   12.3287    0.0000 </r>
       <r>   12.3317    0.0000 </r>
       <r>   12.4509    0.0000 </r>
       <r>   12.4539    0.0000 </r>
       <r>   13.2823    0.0000 </r>
       <r>   13.9040    0.0000 </r>
       <r>   14.0809    0.0000 </r>
       <r>   14.0838    0.0000 </r>
       <r>   14.4087    0.0000 </r>
       <r>   15.1787    0.0000 </r>
       <r>   15.3238    0.0000 </r>
       <r>   15.5791    0.0000 </r>
       <r>   15.6005    0.0000 </r>
       <r>   15.8500    0.0000 </r>
      </set>
      <set comment="kpoint 6">
       <r>  -13.7801    1.0000 </r>
       <r>  -13.6947    1.0000 </r>
       <r>  -13.3463    1.0000 </r>
       <r>  -13.3443    1.0000 </r>
       <r>  -13.3434    1.0000 </r>
       <r>  -13.1268    1.0000 </r>
       <r>  -12.9840    1.0000 </r>
       <r>   -1.2287    1.0000 </r>
       <r>   -0.7810    1.0000 </r>
       <r>   -0.6072    1.0000 </r>
       <r>   -0.6053    1.0000 </r>
       <r>   -0.2386    1.0000 </r>
       <r>   -0.2385    1.0000 </r>
       <r>   -0.2154    1.0000 </r>
       <r>    0.1781    1.0000 </r>
       <r>    0.4898    1.0000 </r>
       <r>    0.4904    1.0000 </r>
       <r>    0.6970    1.0000 </r>
       <r>    0.6995    1.0000 </r>
       <r>    0.7009    1.0000 </r>
       <r>    0.8031    1.0000 </r>
       <r>    0.9110    1.0000 </r>
       <r>    1.9197    1.0000 </r>
       <r>    1.9199    1.0000 </r>
       <r>    1.9239    1.0000 </r>
       <r>    1.9326    1.0000 </r>
       <r>    2.0090    1.0000 </r>
       <r>    2.0100    1.0000 </r>
       <r>    5.6366    1.0000 </r>
       <r>    8.1890    0.0000 </r>
       <r>    9.5473    0.0000 </r>
       <r>    9.5546    0.0000 </r>
       <r>   11.0442    0.0000 </r>
       <r>   11.9537    0.0000 </r>
       <r>   11.9553    0.0000 </r>
       <r>   12.9864    0.0000 </r>
       <r>   12.9880    0.0000 </r>
       <r>   13.7474    0.0000 </r>
       <r>   13.9490    0.0000 </r>
       <r>   14.1540    0.0000 </r>
       <r>   14.1562    0.0000 </r>
       <r>   14.2905    0.0000 </r>
       <r>   14.4513    0.0000 </r>
       <r>   14.4603    0.0000 </r>
       <r>   14.4616    0.0000 </r>
       <r>   14.6770    0.0000 </r>
       <r>   15.8536    0.0000 </r>
       <r>   15.9245    0.0000 </r>
      </set>
      <set comment="kpoint 7">
       <r>  -13.7804    1.0000 </r>
       <r>  -13.6944    1.0000 </r>
       <r>  -13.3457    1.0000 </r>
       <r>  -13.3443    1.0000 </r>
       <r>  -13.3440    1.0000 </r>
       <r>  -13.1264    1.0000 </r>
       <r>  -12.9843    1.0000 </r>
       <r>   -1.2298    1.0000 </r>
       <r>   -0.7812    1.0000 </r>
       <r>   -0.6088    1.0000 </r>
       <r>   -0.6077    1.0000 </r>
       <r>   -0.2390    1.0000 </r>
       <r>   -0.2388    1.0000 </r>
       <r>   -0.2148    1.0000 </r>
       <r>    0.1808    1.0000 </r>
       <r>    0.4922    1.0000 </r>
       <r>    0.4946    1.0000 </r>
       <r>    0.6977    1.0000 </r>
       <r>    0.6997    1.0000 </r>
       <r>    0.7003    1.0000 </r>
       <r>    0.8068    1.0000 </r>
       <r>    0.9110    1.0000 </r>
       <r>    1.9193    1.0000 </r>
       <r>    1.9195    1.0000 </r>
       <r>    1.9235    1.0000 </r>
       <r>    1.9261    1.0000 </r>
       <r>    2.0084    1.0000 </r>
       <r>    2.0098    1.0000 </r>
       <r>    5.6359    1.0000 </r>
       <r>    8.1965    0.0000 </r>
       <r>    9.5456    0.0000 </r>
       <r>    9.5478    0.0000 </r>
       <r>   11.0470    0.0000 </r>
       <r>   11.9533    0.0000 </r>
       <r>   11.9578    0.0000 </r>
       <r>   12.9862    0.0000 </r>
       <r>   12.9870    0.0000 </r>
       <r>   13.7470    0.0000 </r>
       <r>   13.9487    0.0000 </r>
       <r>   14.1548    0.0000 </r>
       <r>   14.1564    0.0000 </r>
       <r>   14.2907    0.0000 </r>
       <r>   14.4448    0.0000 </r>
       <r>   14.4597    0.0000 </r>
       <r>   14.4615    0.0000 </r>
       <r>   14.6796    0.0000 </r>
       <r>   15.8379    0.0000 </r>
       <r>   15.9258    0.0000 </r>
      </set>
      <set comment="kpoint 8">
       <r>  -13.9539    1.0000 </r>
       <r>  -13.7626    1.0000 </r>
       <r>  -13.2082    1.0000 </r>
       <r>  -13.1653    1.0000 </r>
       <r>  -13.1643    1.0000 </r>
       <r>  -13.1641    1.0000 </r>
       <r>  -13.1631    1.0000 </r>
       <r>   -1.2966    1.0000 </r>
       <r>   -1.1182    1.0000 </r>
       <r>   -1.1159    1.0000 </r>
       <r>   -1.0913    1.0000 </r>
       <r>   -0.3236    1.0000 </r>
       <r>   -0.3205    1.0000 </r>
       <r>   -0.3075    1.0000 </r>
       <r>    0.1769    1.0000 </r>
       <r>    0.6681    1.0000 </r>
       <r>    0.7661    1.0000 </r>
       <r>    0.7669    1.0000 </r>
       <r>    0.7857    1.0000 </r>
       <r>    0.7872    1.0000 </r>
       <r>    1.6244    1.0000 </r>
       <r>    1.6283    1.0000 </r>
       <r>    1.6374    1.0000 </r>
       <r>    1.6570    1.0000 </r>
       <r>    2.0348    1.0000 </r>
       <r>    2.0352    1.0000 </r>
       <r>    2.2873    1.0000 </r>
       <r>    2.2901    1.0000 </r>
       <r>    5.1366    1.0000 </r>
       <r>    7.9335    0.0000 </r>
       <r>   10.3077    0.0000 </r>
       <r>   10.3145    0.0000 </r>
       <r>   10.5797    0.0000 </r>
       <r>   10.7528    0.0000 </r>
       <r>   12.3291    0.0000 </r>
       <r>   12.3315    0.0000 </r>
       <r>   12.4508    0.0000 </r>
       <r>   12.4527    0.0000 </r>
       <r>   13.2820    0.0000 </r>
       <r>   13.9044    0.0000 </r>
       <r>   14.0813    0.0000 </r>
       <r>   14.0838    0.0000 </r>
       <r>   14.4085    0.0000 </r>
       <r>   15.1786    0.0000 </r>
       <r>   15.3242    0.0000 </r>
       <r>   15.5800    0.0000 </r>
       <r>   15.6001    0.0000 </r>
       <r>   15.8504    0.0000 </r>
      </set>
     </set>
     <set comment="spin 2">
      <set comment="kpoint 1">
       <r>  -14.3699    1.0000 </r>
       <r>  -13.2797    1.0000 </r>
       <r>  -13.2795    1.0000 </r>
       <r>  -13.2789    1.0000 </r>
       <r>  -13.1877    1.0000 </r>
       <r>  -13.0305    1.0000 </r>
       <r>  -13.0300    1.0000 </r>
       <r>   -1.8688    1.0000 </r>
       <r>   -1.6906    1.0000 </r>
       <r>   -1.6898    1.0000 </r>
       <r>   -1.6892    1.0000 </r>
       <r>   -0.9170    1.0000 </r>
       <r>   -0.9166    1.0000 </r>
       <r>   -0.9155    1.0000 </r>
       <r>    1.3225    1.0000 </r>
       <r>    1.3225    1.0000 </r>
       <r>    1.3227    1.0000 </r>
       <r>    1.5500    1.0000 </r>
       <r>    1.5519    1.0000 </r>
       <r>    1.5567    1.0000 </r>
       <r>    2.0083    1.0000 </r>
       <r>    2.0089    1.0000 </r>
       <r>    2.0092    1.0000 </r>
       <r>    2.0110    1.0000 </r>
       <r>    2.0114    1.0000 </r>
       <r>    2.4676    1.0000 </r>
       <r>    2.4689    1.0000 </r>
       <r>    2.4723    1.0000 </r>
       <r>    3.4383    1.0000 </r>
       <r>    8.3484    0.0000 </r>
       <r>   10.4338    0.0000 </r>
       <r>   10.4340    0.0000 </r>
       <r>   10.4341    0.0000 </r>
       <r>   11.2694    0.0000 </r>
       <r>   11.2727    0.0000 </r>
       <r>   11.2813    0.0000 </r>
       <r>   11.8364    0.0000 </r>
       <r>   11.8365    0.0000 </r>
       <r>   11.8367    0.0000 </r>
       <r>   11.9030    0.0000 </r>
       <r>   12.4761    0.0000 </r>
       <r>   12.4792    0.0000 </r>
       <r>   14.9896    0.0000 </r>
       <r>   15.2721    0.0000 </r>
       <r>   15.2772    0.0000 </r>
       <r>   15.2795    0.0000 </r>
       <r>   18.3978    0.0000 </r>
       <r>   18.4008    0.0000 </r>
      </set>
      <set comment="kpoint 2">
       <r>  -13.9540    1.0000 </r>
       <r>  -13.7624    1.0000 </r>
       <r>  -13.2082    1.0000 </r>
       <r>  -13.1651    1.0000 </r>
       <r>  -13.1643    1.0000 </r>
       <r>  -13.1640    1.0000 </r>
       <r>  -13.1633    1.0000 </r>
       <r>   -1.2968    1.0000 </r>
       <r>   -1.1182    1.0000 </r>
       <r>   -1.1160    1.0000 </r>
       <r>   -1.0910    1.0000 </r>
       <r>   -0.3236    1.0000 </r>
       <r>   -0.3206    1.0000 </r>
       <r>   -0.3075    1.0000 </r>
       <r>    0.1771    1.0000 </r>
       <r>    0.6681    1.0000 </r>
       <r>    0.7665    1.0000 </r>
       <r>    0.7671    1.0000 </r>
       <r>    0.7861    1.0000 </r>
       <r>    0.7875    1.0000 </r>
       <r>    1.6241    1.0000 </r>
       <r>    1.6279    1.0000 </r>
       <r>    1.6374    1.0000 </r>
       <r>    1.6566    1.0000 </r>
       <r>    2.0349    1.0000 </r>
       <r>    2.0356    1.0000 </r>
       <r>    2.2870    1.0000 </r>
       <r>    2.2898    1.0000 </r>
       <r>    5.1368    1.0000 </r>
       <r>    7.9333    0.0000 </r>
       <r>   10.3073    0.0000 </r>
       <r>   10.3142    0.0000 </r>
       <r>   10.5800    0.0000 </r>
       <r>   10.7525    0.0000 </r>
       <r>   12.3297    0.0000 </r>
       <r>   12.3317    0.0000 </r>
       <r>   12.4507    0.0000 </r>
       <r>   12.4527    0.0000 </r>
       <r>   13.2832    0.0000 </r>
       <r>   13.9044    0.0000 </r>
       <r>   14.0808    0.0000 </r>
       <r>   14.0834    0.0000 </r>
       <r>   14.4082    0.0000 </r>
       <r>   15.1784    0.0000 </r>
       <r>   15.3245    0.0000 </r>
       <r>   15.5792    0.0000 </r>
       <r>   15.5998    0.0000 </r>
       <r>   15.8754    0.0000 </r>
      </set>
      <set comment="kpoint 3">
       <r>  -13.9533    1.0000 </r>
       <r>  -13.7635    1.0000 </r>
       <r>  -13.2079    1.0000 </r>
       <r>  -13.1656    1.0000 </r>
       <r>  -13.1652    1.0000 </r>
       <r>  -13.1636    1.0000 </r>
       <r>  -13.1623    1.0000 </r>
       <r>   -1.2955    1.0000 </r>
       <r>   -1.1172    1.0000 </r>
       <r>   -1.1160    1.0000 </r>
       <r>   -1.0924    1.0000 </r>
       <r>   -0.3238    1.0000 </r>
       <r>   -0.3222    1.0000 </r>
       <r>   -0.3069    1.0000 </r>
       <r>    0.1766    1.0000 </r>
       <r>    0.6683    1.0000 </r>
       <r>    0.7650    1.0000 </r>
       <r>    0.7675    1.0000 </r>
       <r>    0.7857    1.0000 </r>
       <r>    0.7890    1.0000 </r>
       <r>    1.6247    1.0000 </r>
       <r>    1.6293    1.0000 </r>
       <r>    1.6380    1.0000 </r>
       <r>    1.6560    1.0000 </r>
       <r>    2.0327    1.0000 </r>
       <r>    2.0345    1.0000 </r>
       <r>    2.2875    1.0000 </r>
       <r>    2.2911    1.0000 </r>
       <r>    5.1368    1.0000 </r>
       <r>    7.9341    0.0000 </r>
       <r>   10.3068    0.0000 </r>
       <r>   10.3148    0.0000 </r>
       <r>   10.5801    0.0000 </r>
       <r>   10.7525    0.0000 </r>
       <r>   12.3284    0.0000 </r>
       <r>   12.3314    0.0000 </r>
       <r>   12.4508    0.0000 </r>
       <r>   12.4538    0.0000 </r>
       <r>   13.2811    0.0000 </r>
       <r>   13.9037    0.0000 </r>
       <r>   14.0809    0.0000 </r>
       <r>   14.0838    0.0000 </r>
       <r>   14.4088    0.0000 </r>
       <r>   15.1788    0.0000 </r>
       <r>   15.3233    0.0000 </r>
       <r>   15.5799    0.0000 </r>
       <r>   15.6009    0.0000 </r>
       <r>   15.8520    0.0000 </r>
      </set>
      <set comment="kpoint 4">
       <r>  -13.7800    1.0000 </r>
       <r>  -13.6947    1.0000 </r>
       <r>  -13.3465    1.0000 </r>
       <r>  -13.3441    1.0000 </r>
       <r>  -13.3435    1.0000 </r>
       <r>  -13.1269    1.0000 </r>
       <r>  -12.9838    1.0000 </r>
       <r>   -1.2283    1.0000 </r>
       <r>   -0.7809    1.0000 </r>
       <r>   -0.6061    1.0000 </r>
       <r>   -0.6047    1.0000 </r>
       <r>   -0.2384    1.0000 </r>
       <r>   -0.2383    1.0000 </r>
       <r>   -0.2156    1.0000 </r>
       <r>    0.1770    1.0000 </r>
       <r>    0.4887    1.0000 </r>
       <r>    0.4890    1.0000 </r>
       <r>    0.6972    1.0000 </r>
       <r>    0.6997    1.0000 </r>
       <r>    0.7005    1.0000 </r>
       <r>    0.8017    1.0000 </r>
       <r>    0.9110    1.0000 </r>
       <r>    1.9198    1.0000 </r>
       <r>    1.9201    1.0000 </r>
       <r>    1.9266    1.0000 </r>
       <r>    1.9328    1.0000 </r>
       <r>    2.0093    1.0000 </r>
       <r>    2.0102    1.0000 </r>
       <r>    5.6369    1.0000 </r>
       <r>    8.1860    0.0000 </r>
       <r>    9.5499    0.0000 </r>
       <r>    9.5552    0.0000 </r>
       <r>   11.0431    0.0000 </r>
       <r>   11.9537    0.0000 </r>
       <r>   11.9543    0.0000 </r>
       <r>   12.9867    0.0000 </r>
       <r>   12.9879    0.0000 </r>
       <r>   13.7474    0.0000 </r>
       <r>   13.9489    0.0000 </r>
       <r>   14.1540    0.0000 </r>
       <r>   14.1555    0.0000 </r>
       <r>   14.2905    0.0000 </r>
       <r>   14.4530    0.0000 </r>
       <r>   14.4604    0.0000 </r>
       <r>   14.4623    0.0000 </r>
       <r>   14.6761    0.0000 </r>
       <r>   15.8595    0.0000 </r>
       <r>   15.9246    0.0000 </r>
      </set>
      <set comment="kpoint 5">
       <r>  -13.9533    1.0000 </r>
       <r>  -13.7634    1.0000 </r>
       <r>  -13.2079    1.0000 </r>
       <r>  -13.1656    1.0000 </r>
       <r>  -13.1650    1.0000 </r>
       <r>  -13.1638    1.0000 </r>
       <r>  -13.1624    1.0000 </r>
       <r>   -1.2957    1.0000 </r>
       <r>   -1.1172    1.0000 </r>
       <r>   -1.1159    1.0000 </r>
       <r>   -1.0922    1.0000 </r>
       <r>   -0.3237    1.0000 </r>
       <r>   -0.3222    1.0000 </r>
       <r>   -0.3070    1.0000 </r>
       <r>    0.1765    1.0000 </r>
       <r>    0.6681    1.0000 </r>
       <r>    0.7649    1.0000 </r>
       <r>    0.7675    1.0000 </r>
       <r>    0.7856    1.0000 </r>
       <r>    0.7891    1.0000 </r>
       <r>    1.6244    1.0000 </r>
       <r>    1.6292    1.0000 </r>
       <r>    1.6382    1.0000 </r>
       <r>    1.6558    1.0000 </r>
       <r>    2.0332    1.0000 </r>
       <r>    2.0349    1.0000 </r>
       <r>    2.2873    1.0000 </r>
       <r>    2.2912    1.0000 </r>
       <r>    5.1369    1.0000 </r>
       <r>    7.9340    0.0000 </r>
       <r>   10.3067    0.0000 </r>
       <r>   10.3145    0.0000 </r>
       <r>   10.5803    0.0000 </r>
       <r>   10.7521    0.0000 </r>
       <r>   12.3286    0.0000 </r>
       <r>   12.3317    0.0000 </r>
       <r>   12.4507    0.0000 </r>
       <r>   12.4538    0.0000 </r>
       <r>   13.2823    0.0000 </r>
       <r>   13.9040    0.0000 </r>
       <r>   14.0808    0.0000 </r>
       <r>   14.0837    0.0000 </r>
       <r>   14.4086    0.0000 </r>
       <r>   15.1786    0.0000 </r>
       <r>   15.3237    0.0000 </r>
       <r>   15.5791    0.0000 </r>
       <r>   15.6005    0.0000 </r>
       <r>   15.8511    0.0000 </r>
      </set>
      <set comment="kpoint 6">
       <r>  -13.7801    1.0000 </r>
       <r>  -13.6946    1.0000 </r>
       <r>  -13.3463    1.0000 </r>
       <r>  -13.3443    1.0000 </r>
       <r>  -13.3434    1.0000 </r>
       <r>  -13.1267    1.0000 </r>
       <r>  -12.9840    1.0000 </r>
       <r>   -1.2287    1.0000 </r>
       <r>   -0.7810    1.0000 </r>
       <r>   -0.6072    1.0000 </r>
       <r>   -0.6053    1.0000 </r>
       <r>   -0.2386    1.0000 </r>
       <r>   -0.2384    1.0000 </r>
       <r>   -0.2154    1.0000 </r>
       <r>    0.1781    1.0000 </r>
       <r>    0.4899    1.0000 </r>
       <r>    0.4904    1.0000 </r>
       <r>    0.6971    1.0000 </r>
       <r>    0.6996    1.0000 </r>
       <r>    0.7009    1.0000 </r>
       <r>    0.8031    1.0000 </r>
       <r>    0.9110    1.0000 </r>
       <r>    1.9197    1.0000 </r>
       <r>    1.9200    1.0000 </r>
       <r>    1.9240    1.0000 </r>
       <r>    1.9326    1.0000 </r>
       <r>    2.0090    1.0000 </r>
       <r>    2.0101    1.0000 </r>
       <r>    5.6366    1.0000 </r>
       <r>    8.1889    0.0000 </r>
       <r>    9.5473    0.0000 </r>
       <r>    9.5546    0.0000 </r>
       <r>   11.0442    0.0000 </r>
       <r>   11.9536    0.0000 </r>
       <r>   11.9552    0.0000 </r>
       <r>   12.9862    0.0000 </r>
       <r>   12.9879    0.0000 </r>
       <r>   13.7473    0.0000 </r>
       <r>   13.9489    0.0000 </r>
       <r>   14.1538    0.0000 </r>
       <r>   14.1561    0.0000 </r>
       <r>   14.2904    0.0000 </r>
       <r>   14.4513    0.0000 </r>
       <r>   14.4603    0.0000 </r>
       <r>   14.4615    0.0000 </r>
       <r>   14.6770    0.0000 </r>
       <r>   15.8537    0.0000 </r>
       <r>   15.9244    0.0000 </r>
      </set>
      <set comment="kpoint 7">
       <r>  -13.7804    1.0000 </r>
       <r>  -13.6944    1.0000 </r>
       <r>  -13.3456    1.0000 </r>
       <r>  -13.3443    1.0000 </r>
       <r>  -13.3440    1.0000 </r>
       <r>  -13.1264    1.0000 </r>
       <r>  -12.9842    1.0000 </r>
       <r>   -1.2297    1.0000 </r>
       <r>   -0.7812    1.0000 </r>
       <r>   -0.6088    1.0000 </r>
       <r>   -0.6077    1.0000 </r>
       <r>   -0.2390    1.0000 </r>
       <r>   -0.2388    1.0000 </r>
       <r>   -0.2148    1.0000 </r>
       <r>    0.1808    1.0000 </r>
       <r>    0.4922    1.0000 </r>
       <r>    0.4946    1.0000 </r>
       <r>    0.6977    1.0000 </r>
       <r>    0.6998    1.0000 </r>
       <r>    0.7003    1.0000 </r>
       <r>    0.8068    1.0000 </r>
       <r>    0.9110    1.0000 </r>
       <r>    1.9193    1.0000 </r>
       <r>    1.9196    1.0000 </r>
       <r>    1.9235    1.0000 </r>
       <r>    1.9261    1.0000 </r>
       <r>    2.0085    1.0000 </r>
       <r>    2.0098    1.0000 </r>
       <r>    5.6358    1.0000 </r>
       <r>    8.1965    0.0000 </r>
       <r>    9.5456    0.0000 </r>
       <r>    9.5478    0.0000 </r>
       <r>   11.0469    0.0000 </r>
       <r>   11.9532    0.0000 </r>
       <r>   11.9577    0.0000 </r>
       <r>   12.9861    0.0000 </r>
       <r>   12.9869    0.0000 </r>
       <r>   13.7469    0.0000 </r>
       <r>   13.9486    0.0000 </r>
       <r>   14.1546    0.0000 </r>
       <r>   14.1563    0.0000 </r>
       <r>   14.2906    0.0000 </r>
       <r>   14.4448    0.0000 </r>
       <r>   14.4597    0.0000 </r>
       <r>   14.4614    0.0000 </r>
       <r>   14.6796    0.0000 </r>
       <r>   15.8380    0.0000 </r>
       <r>   15.9258    0.0000 </r>
      </set>
      <set comment="kpoint 8">
       <r>  -13.9539    1.0000 </r>
       <r>  -13.7626    1.0000 </r>
       <r>  -13.2081    1.0000 </r>
       <r>  -13.1653    1.0000 </r>
       <r>  -13.1642    1.0000 </r>
       <r>  -13.1641    1.0000 </r>
       <r>  -13.1631    1.0000 </r>
       <r>   -1.2966    1.0000 </r>
       <r>   -1.1182    1.0000 </r>
       <r>   -1.1159    1.0000 </r>
       <r>   -1.0913    1.0000 </r>
       <r>   -0.3236    1.0000 </r>
       <r>   -0.3205    1.0000 </r>
       <r>   -0.3075    1.0000 </r>
       <r>    0.1769    1.0000 </r>
       <r>    0.6681    1.0000 </r>
       <r>    0.7661    1.0000 </r>
       <r>    0.7669    1.0000 </r>
       <r>    0.7857    1.0000 </r>
       <r>    0.7872    1.0000 </r>
       <r>    1.6244    1.0000 </r>
       <r>    1.6283    1.0000 </r>
       <r>    1.6374    1.0000 </r>
       <r>    1.6571    1.0000 </r>
       <r>    2.0349    1.0000 </r>
       <r>    2.0352    1.0000 </r>
       <r>    2.2873    1.0000 </r>
       <r>    2.2901    1.0000 </r>
       <r>    5.1366    1.0000 </r>
       <r>    7.9334    0.0000 </r>
       <r>   10.3076    0.0000 </r>
       <r>   10.3145    0.0000 </r>
       <r>   10.5796    0.0000 </r>
       <r>   10.7527    0.0000 </r>
       <r>   12.3290    0.0000 </r>
       <r>   12.3315    0.0000 </r>
       <r>   12.4507    0.0000 </r>
       <r>   12.4525    0.0000 </r>
       <r>   13.2820    0.0000 </r>
       <r>   13.9043    0.0000 </r>
       <r>   14.0812    0.0000 </r>
       <r>   14.0837    0.0000 </r>
       <r>   14.4084    0.0000 </r>
       <r>   15.1785    0.0000 </r>
       <r>   15.3241    0.0000 </r>
       <r>   15.5800    0.0000 </r>
       <r>   15.6002    0.0000 </r>
       <r>   15.8514    0.0000 </r>
      </set>
     </set>
    </set>
   </array>
  </eigenvalues>
  <separator name="orbital magnetization" >
   <v name="MAGDIPOLOUT">      0.00000000      0.00000000      0.00000000</v>
  </separator>
  <dos>
   <i name="efermi">      5.87552618 </i>
   <total>
    <array>
     <dimension dim="1">gridpoints</dimension>
     <dimension dim="2">spin</dimension>
     <field>energy</field>
     <field>total</field>
     <field>integrated</field>
     <set>
      <set comment="spin 1">
       <r>   -16.0085     0.0000     0.0000 </r>
       <r>   -15.8883     0.0000     0.0000 </r>
       <r>   -15.7682     0.0000     0.0000 </r>
       <r>   -15.6480     0.0000     0.0000 </r>
       <r>   -15.5279     0.0000     0.0000 </r>
       <r>   -15.4077     0.0000     0.0000 </r>
       <r>   -15.2875     0.0000     0.0000 </r>
       <r>   -15.1674     0.0000     0.0000 </r>
       <r>   -15.0472     0.0000     0.0000 </r>
       <r>   -14.9271     0.0000     0.0000 </r>
       <r>   -14.8069     0.0000     0.0000 </r>
       <r>   -14.6867     0.0000     0.0000 </r>
       <r>   -14.5666     0.0000     0.0000 </r>
       <r>   -14.4464     0.0159     0.0019 </r>
       <r>   -14.3263     0.9118     0.1115 </r>
       <r>   -14.2061     0.1126     0.1250 </r>
       <r>   -14.0860     0.0004     0.1250 </r>
       <r>   -13.9658     1.5204     0.3077 </r>
       <r>   -13.8456     2.7762     0.6413 </r>
       <r>   -13.7255     6.9531     1.4768 </r>
       <r>   -13.6053     3.2959     1.8728 </r>
       <r>   -13.4852     0.0184     1.8750 </r>
       <r>   -13.3650     2.6723     2.1961 </r>
       <r>   -13.2448    10.1419     3.4148 </r>
       <r>   -13.1247    20.8826     5.9240 </r>
       <r>   -13.0045     6.2254     6.6721 </r>
       <r>   -12.8844     2.7217     6.9991 </r>
       <r>   -12.7642     0.0075     7.0000 </r>
       <r>   -12.6440     0.0000     7.0000 </r>
       <r>   -12.5239     0.0000     7.0000 </r>
       <r>   -12.4037     0.0000     7.0000 </r>
       <r>   -12.2836     0.0000     7.0000 </r>
       <r>   -12.1634     0.0000     7.0000 </r>
       <r>   -12.0432     0.0000     7.0000 </r>
       <r>   -11.9231     0.0000     7.0000 </r>
       <r>   -11.8029     0.0000     7.0000 </r>
       <r>   -11.6828     0.0000     7.0000 </r>
       <r>   -11.5626     0.0000     7.0000 </r>
       <r>   -11.4424     0.0000     7.0000 </r>
       <r>   -11.3223     0.0000     7.0000 </r>
       <r>   -11.2021     0.0000     7.0000 </r>
       <r>   -11.0820     0.0000     7.0000 </r>
       <r>   -10.9618     0.0000     7.0000 </r>
       <r>   -10.8416     0.0000     7.0000 </r>
       <r>   -10.7215     0.0000     7.0000 </r>
       <r>   -10.6013     0.0000     7.0000 </r>
       <r>   -10.4812     0.0000     7.0000 </r>
       <r>   -10.3610     0.0000     7.0000 </r>
       <r>   -10.2409     0.0000     7.0000 </r>
       <r>   -10.1207     0.0000     7.0000 </r>
       <r>   -10.0005     0.0000     7.0000 </r>
       <r>    -9.8804     0.0000     7.0000 </r>
       <r>    -9.7602     0.0000     7.0000 </r>
       <r>    -9.6401     0.0000     7.0000 </r>
       <r>    -9.5199     0.0000     7.0000 </r>
       <r>    -9.3997     0.0000     7.0000 </r>
       <r>    -9.2796     0.0000     7.0000 </r>
       <r>    -9.1594     0.0000     7.0000 </r>
       <r>    -9.0393     0.0000     7.0000 </r>
       <r>    -8.9191     0.0000     7.0000 </r>
       <r>    -8.7989     0.0000     7.0000 </r>
       <r>    -8.6788     0.0000     7.0000 </r>
       <r>    -8.5586     0.0000     7.0000 </r>
       <r>    -8.4385     0.0000     7.0000 </r>
       <r>    -8.3183     0.0000     7.0000 </r>
       <r>    -8.1981     0.0000     7.0000 </r>
       <r>    -8.0780     0.0000     7.0000 </r>
       <r>    -7.9578     0.0000     7.0000 </r>
       <r>    -7.8377     0.0000     7.0000 </r>
       <r>    -7.7175     0.0000     7.0000 </r>
       <r>    -7.5973     0.0000     7.0000 </r>
       <r>    -7.4772     0.0000     7.0000 </r>
       <r>    -7.3570     0.0000     7.0000 </r>
       <r>    -7.2369     0.0000     7.0000 </r>
       <r>    -7.1167     0.0000     7.0000 </r>
       <r>    -6.9965     0.0000     7.0000 </r>
       <r>    -6.8764     0.0000     7.0000 </r>
       <r>    -6.7562     0.0000     7.0000 </r>
       <r>    -6.6361     0.0000     7.0000 </r>
       <r>    -6.5159     0.0000     7.0000 </r>
       <r>    -6.3958     0.0000     7.0000 </r>
       <r>    -6.2756     0.0000     7.0000 </r>
       <r>    -6.1554     0.0000     7.0000 </r>
       <r>    -6.0353     0.0000     7.0000 </r>
       <r>    -5.9151     0.0000     7.0000 </r>
       <r>    -5.7950     0.0000     7.0000 </r>
       <r>    -5.6748     0.0000     7.0000 </r>
       <r>    -5.5546     0.0000     7.0000 </r>
       <r>    -5.4345     0.0000     7.0000 </r>
       <r>    -5.3143     0.0000     7.0000 </r>
       <r>    -5.1942     0.0000     7.0000 </r>
       <r>    -5.0740     0.0000     7.0000 </r>
       <r>    -4.9538     0.0000     7.0000 </r>
       <r>    -4.8337     0.0000     7.0000 </r>
       <r>    -4.7135     0.0000     7.0000 </r>
       <r>    -4.5934     0.0000     7.0000 </r>
       <r>    -4.4732     0.0000     7.0000 </r>
       <r>    -4.3530     0.0000     7.0000 </r>
       <r>    -4.2329     0.0000     7.0000 </r>
       <r>    -4.1127     0.0000     7.0000 </r>
       <r>    -3.9926     0.0000     7.0000 </r>
       <r>    -3.8724     0.0000     7.0000 </r>
       <r>    -3.7522     0.0000     7.0000 </r>
       <r>    -3.6321     0.0000     7.0000 </r>
       <r>    -3.5119     0.0000     7.0000 </r>
       <r>    -3.3918     0.0000     7.0000 </r>
       <r>    -3.2716     0.0000     7.0000 </r>
       <r>    -3.1514     0.0000     7.0000 </r>
       <r>    -3.0313     0.0000     7.0000 </r>
       <r>    -2.9111     0.0000     7.0000 </r>
       <r>    -2.7910     0.0000     7.0000 </r>
       <r>    -2.6708     0.0000     7.0000 </r>
       <r>    -2.5507     0.0000     7.0000 </r>
       <r>    -2.4305     0.0000     7.0000 </r>
       <r>    -2.3103     0.0000     7.0000 </r>
       <r>    -2.1902     0.0000     7.0000 </r>
       <r>    -2.0700     0.0000     7.0000 </r>
       <r>    -1.9499     0.0114     7.0014 </r>
       <r>    -1.8297     0.8891     7.1082 </r>
       <r>    -1.7095     1.0416     7.2334 </r>
       <r>    -1.5894     2.2121     7.4992 </r>
       <r>    -1.4692     0.0070     7.5000 </r>
       <r>    -1.3491     0.2811     7.5338 </r>
       <r>    -1.2289     5.3286     8.1741 </r>
       <r>    -1.1087     7.8979     9.1231 </r>
       <r>    -0.9886     6.3136     9.8817 </r>
       <r>    -0.8684     2.8132    10.2197 </r>
       <r>    -0.7483     2.8215    10.5588 </r>
       <r>    -0.6281     2.2501    10.8291 </r>
       <r>    -0.5079     4.5263    11.3730 </r>
       <r>    -0.3878     0.3350    11.4133 </r>
       <r>    -0.2676    12.6185    12.9295 </r>
       <r>    -0.1475     8.7920    13.9860 </r>
       <r>    -0.0273     0.1169    14.0000 </r>
       <r>     0.0929     0.0607    14.0073 </r>
       <r>     0.2130     6.0696    14.7366 </r>
       <r>     0.3332     1.1517    14.8750 </r>
       <r>     0.4533     0.9063    14.9839 </r>
       <r>     0.5735     5.2917    15.6198 </r>
       <r>     0.6937     7.5301    16.5246 </r>
       <r>     0.8138    21.9760    19.1652 </r>
       <r>     0.9340     6.1427    19.9033 </r>
       <r>     1.0541     0.8047    20.0000 </r>
       <r>     1.1743     0.0001    20.0000 </r>
       <r>     1.2944     0.6660    20.0800 </r>
       <r>     1.4146     2.4406    20.3733 </r>
       <r>     1.5348     1.0148    20.4952 </r>
       <r>     1.6549    13.5523    22.1237 </r>
       <r>     1.7751     5.2108    22.7498 </r>
       <r>     1.8952     2.6695    23.0706 </r>
       <r>     2.0154    18.6797    25.3151 </r>
       <r>     2.1356    10.8817    26.6226 </r>
       <r>     2.2557     1.4709    26.7994 </r>
       <r>     2.3759     6.8257    27.6195 </r>
       <r>     2.4960     2.4575    27.9148 </r>
       <r>     2.6162     0.7087    28.0000 </r>
       <r>     2.7364     0.0001    28.0000 </r>
       <r>     2.8565     0.0000    28.0000 </r>
       <r>     2.9767     0.0000    28.0000 </r>
       <r>     3.0968     0.0000    28.0000 </r>
       <r>     3.2170     0.0000    28.0000 </r>
       <r>     3.3372     0.0022    28.0003 </r>
       <r>     3.4573     0.7300    28.0880 </r>
       <r>     3.5775     0.3080    28.1250 </r>
       <r>     3.6976     0.0000    28.1250 </r>
       <r>     3.8178     0.0000    28.1250 </r>
       <r>     3.9380     0.0000    28.1250 </r>
       <r>     4.0581     0.0000    28.1250 </r>
       <r>     4.1783     0.0000    28.1250 </r>
       <r>     4.2984     0.0000    28.1250 </r>
       <r>     4.4186     0.0000    28.1250 </r>
       <r>     4.5388     0.0000    28.1250 </r>
       <r>     4.6589     0.0000    28.1250 </r>
       <r>     4.7791     0.0000    28.1250 </r>
       <r>     4.8992     0.0000    28.1250 </r>
       <r>     5.0194     0.0019    28.1252 </r>
       <r>     5.1395     2.2076    28.3905 </r>
       <r>     5.2597     1.9506    28.6249 </r>
       <r>     5.3799     0.0011    28.6250 </r>
       <r>     5.5000     0.0002    28.6250 </r>
       <r>     5.6202     1.0063    28.7459 </r>
       <r>     5.7403     2.1092    28.9994 </r>
       <r>     5.8605     0.0052    29.0000 </r>
       <r>     5.9807     0.0000    29.0000 </r>
       <r>     6.1008     0.0000    29.0000 </r>
       <r>     6.2210     0.0000    29.0000 </r>
       <r>     6.3411     0.0000    29.0000 </r>
       <r>     6.4613     0.0000    29.0000 </r>
       <r>     6.5815     0.0000    29.0000 </r>
       <r>     6.7016     0.0000    29.0000 </r>
       <r>     6.8218     0.0000    29.0000 </r>
       <r>     6.9419     0.0000    29.0000 </r>
       <r>     7.0621     0.0000    29.0000 </r>
       <r>     7.1823     0.0000    29.0000 </r>
       <r>     7.3024     0.0000    29.0000 </r>
       <r>     7.4226     0.0000    29.0000 </r>
       <r>     7.5427     0.0000    29.0000 </r>
       <r>     7.6629     0.0000    29.0000 </r>
       <r>     7.7831     0.0000    29.0000 </r>
       <r>     7.9032     0.8064    29.0969 </r>
       <r>     8.0234     3.3313    29.4972 </r>
       <r>     8.1435     0.3158    29.5351 </r>
       <r>     8.2637     2.7746    29.8685 </r>
       <r>     8.3839     0.9288    29.9801 </r>
       <r>     8.5040     0.1654    30.0000 </r>
       <r>     8.6242     0.0000    30.0000 </r>
       <r>     8.7443     0.0000    30.0000 </r>
       <r>     8.8645     0.0000    30.0000 </r>
       <r>     8.9847     0.0000    30.0000 </r>
       <r>     9.1048     0.0000    30.0000 </r>
       <r>     9.2250     0.0000    30.0000 </r>
       <r>     9.3451     0.0000    30.0000 </r>
       <r>     9.4653     0.0530    30.0064 </r>
       <r>     9.5854     5.1894    30.6299 </r>
       <r>     9.7056     0.9992    30.7500 </r>
       <r>     9.8258     0.0000    30.7500 </r>
       <r>     9.9459     0.0000    30.7500 </r>
       <r>    10.0661     0.0000    30.7500 </r>
       <r>    10.1862     0.0019    30.7502 </r>
       <r>    10.3064     3.7450    31.2002 </r>
       <r>    10.4266     5.8682    31.9053 </r>
       <r>    10.5467     2.5445    32.2111 </r>
       <r>    10.6669     3.4476    32.6253 </r>
       <r>    10.7870     3.4740    33.0428 </r>
       <r>    10.9072     0.6845    33.1250 </r>
       <r>    11.0274     0.9706    33.2416 </r>
       <r>    11.1475     2.1449    33.4994 </r>
       <r>    11.2677     1.3277    33.6589 </r>
       <r>    11.3878     1.7960    33.8747 </r>
       <r>    11.5080     0.0024    33.8750 </r>
       <r>    11.6282     0.0000    33.8750 </r>
       <r>    11.7483     0.0195    33.8773 </r>
       <r>    11.8685     2.7441    34.2071 </r>
       <r>    11.9886     6.5779    34.9975 </r>
       <r>    12.1088     1.0613    35.1250 </r>
       <r>    12.2290     0.0174    35.1271 </r>
       <r>    12.3491     5.8444    35.8294 </r>
       <r>    12.4693     9.0192    36.9131 </r>
       <r>    12.5894     3.8420    37.3748 </r>
       <r>    12.7096     0.0021    37.3750 </r>
       <r>    12.8298     0.0000    37.3750 </r>
       <r>    12.9499     0.9151    37.4850 </r>
       <r>    13.0701     5.2675    38.1179 </r>
       <r>    13.1902     0.0785    38.1273 </r>
       <r>    13.3104     3.2572    38.5187 </r>
       <r>    13.4305     0.8845    38.6250 </r>
       <r>    13.5507     0.0001    38.6250 </r>
       <r>    13.6709     0.0477    38.6307 </r>
       <r>    13.7910     2.7384    38.9598 </r>
       <r>    13.9112     3.1871    39.3427 </r>
       <r>    14.0313     5.0201    39.9459 </r>
       <r>    14.1515    10.3815    41.1934 </r>
       <r>    14.2717     4.5125    41.7356 </r>
       <r>    14.3918     3.8334    42.1962 </r>
       <r>    14.5120    11.2924    43.5531 </r>
       <r>    14.6321     0.9094    43.6624 </r>
       <r>    14.7523     2.7555    43.9935 </r>
       <r>    14.8725     0.0546    44.0001 </r>
       <r>    14.9926     0.5546    44.0667 </r>
       <r>    15.1128     0.6146    44.1406 </r>
       <r>    15.2329     4.1377    44.6377 </r>
       <r>    15.3531     6.2743    45.3917 </r>
       <r>    15.4733     0.9078    45.5007 </r>
       <r>    15.5934     4.4685    46.0377 </r>
       <r>    15.7136     3.8450    46.4997 </r>
       <r>    15.8337     2.3606    46.7833 </r>
       <r>    15.9539     7.3847    47.6707 </r>
       <r>    16.0741     0.6602    47.7500 </r>
       <r>    16.1942     0.0000    47.7500 </r>
       <r>    16.3144     0.0000    47.7500 </r>
       <r>    16.4345     0.0000    47.7500 </r>
       <r>    16.5547     0.0000    47.7500 </r>
       <r>    16.6749     0.0000    47.7500 </r>
       <r>    16.7950     0.0000    47.7500 </r>
       <r>    16.9152     0.0000    47.7500 </r>
       <r>    17.0353     0.0000    47.7500 </r>
       <r>    17.1555     0.0000    47.7500 </r>
       <r>    17.2756     0.0000    47.7500 </r>
       <r>    17.3958     0.0000    47.7500 </r>
       <r>    17.5160     0.0000    47.7500 </r>
       <r>    17.6361     0.0000    47.7500 </r>
       <r>    17.7563     0.0000    47.7500 </r>
       <r>    17.8764     0.0000    47.7500 </r>
       <r>    17.9966     0.0000    47.7500 </r>
       <r>    18.1168     0.0000    47.7500 </r>
       <r>    18.2369     0.0000    47.7500 </r>
       <r>    18.3571     0.2678    47.7822 </r>
       <r>    18.4772     1.7879    47.9970 </r>
       <r>    18.5974     0.0249    48.0000 </r>
       <r>    18.7176     0.0000    48.0000 </r>
       <r>    18.8377     0.0000    48.0000 </r>
       <r>    18.9579     0.0000    48.0000 </r>
       <r>    19.0780     0.0000    48.0000 </r>
       <r>    19.1982     0.0000    48.0000 </r>
       <r>    19.3184     0.0000    48.0000 </r>
       <r>    19.4385     0.0000    48.0000 </r>
       <r>    19.5587     0.0000    48.0000 </r>
       <r>    19.6788     0.0000    48.0000 </r>
       <r>    19.7990     0.0000    48.0000 </r>
       <r>    19.9192     0.0000    48.0000 </r>
       <r>    20.0393     0.0000    48.0000 </r>
      </set>
      <set comment="spin 2">
       <r>   -16.0085     0.0000     0.0000 </r>
       <r>   -15.8883     0.0000     0.0000 </r>
       <r>   -15.7682     0.0000     0.0000 </r>
       <r>   -15.6480     0.0000     0.0000 </r>
       <r>   -15.5279     0.0000     0.0000 </r>
       <r>   -15.4077     0.0000     0.0000 </r>
       <r>   -15.2875     0.0000     0.0000 </r>
       <r>   -15.1674     0.0000     0.0000 </r>
       <r>   -15.0472     0.0000     0.0000 </r>
       <r>   -14.9271     0.0000     0.0000 </r>
       <r>   -14.8069     0.0000     0.0000 </r>
       <r>   -14.6867     0.0000     0.0000 </r>
       <r>   -14.5666     0.0000     0.0000 </r>
       <r>   -14.4464     0.0159     0.0019 </r>
       <r>   -14.3263     0.9117     0.1115 </r>
       <r>   -14.2061     0.1127     0.1250 </r>
       <r>   -14.0860     0.0004     0.1250 </r>
       <r>   -13.9658     1.5194     0.3076 </r>
       <r>   -13.8456     2.7769     0.6413 </r>
       <r>   -13.7255     6.9518     1.4766 </r>
       <r>   -13.6053     3.2974     1.8728 </r>
       <r>   -13.4852     0.0184     1.8750 </r>
       <r>   -13.3650     2.6695     2.1958 </r>
       <r>   -13.2448    10.1429     3.4146 </r>
       <r>   -13.1247    20.8802     5.9235 </r>
       <r>   -13.0045     6.2279     6.6719 </r>
       <r>   -12.8844     2.7232     6.9991 </r>
       <r>   -12.7642     0.0076     7.0000 </r>
       <r>   -12.6440     0.0000     7.0000 </r>
       <r>   -12.5239     0.0000     7.0000 </r>
       <r>   -12.4037     0.0000     7.0000 </r>
       <r>   -12.2836     0.0000     7.0000 </r>
       <r>   -12.1634     0.0000     7.0000 </r>
       <r>   -12.0432     0.0000     7.0000 </r>
       <r>   -11.9231     0.0000     7.0000 </r>
       <r>   -11.8029     0.0000     7.0000 </r>
       <r>   -11.6828     0.0000     7.0000 </r>
       <r>   -11.5626     0.0000     7.0000 </r>
       <r>   -11.4424     0.0000     7.0000 </r>
       <r>   -11.3223     0.0000     7.0000 </r>
       <r>   -11.2021     0.0000     7.0000 </r>
       <r>   -11.0820     0.0000     7.0000 </r>
       <r>   -10.9618     0.0000     7.0000 </r>
       <r>   -10.8416     0.0000     7.0000 </r>
       <r>   -10.7215     0.0000     7.0000 </r>
       <r>   -10.6013     0.0000     7.0000 </r>
       <r>   -10.4812     0.0000     7.0000 </r>
       <r>   -10.3610     0.0000     7.0000 </r>
       <r>   -10.2409     0.0000     7.0000 </r>
       <r>   -10.1207     0.0000     7.0000 </r>
       <r>   -10.0005     0.0000     7.0000 </r>
       <r>    -9.8804     0.0000     7.0000 </r>
       <r>    -9.7602     0.0000     7.0000 </r>
       <r>    -9.6401     0.0000     7.0000 </r>
       <r>    -9.5199     0.0000     7.0000 </r>
       <r>    -9.3997     0.0000     7.0000 </r>
       <r>    -9.2796     0.0000     7.0000 </r>
       <r>    -9.1594     0.0000     7.0000 </r>
       <r>    -9.0393     0.0000     7.0000 </r>
       <r>    -8.9191     0.0000     7.0000 </r>
       <r>    -8.7989     0.0000     7.0000 </r>
       <r>    -8.6788     0.0000     7.0000 </r>
       <r>    -8.5586     0.0000     7.0000 </r>
       <r>    -8.4385     0.0000     7.0000 </r>
       <r>    -8.3183     0.0000     7.0000 </r>
       <r>    -8.1981     0.0000     7.0000 </r>
       <r>    -8.0780     0.0000     7.0000 </r>
       <r>    -7.9578     0.0000     7.0000 </r>
       <r>    -7.8377     0.0000     7.0000 </r>
       <r>    -7.7175     0.0000     7.0000 </r>
       <r>    -7.5973     0.0000     7.0000 </r>
       <r>    -7.4772     0.0000     7.0000 </r>
       <r>    -7.3570     0.0000     7.0000 </r>
       <r>    -7.2369     0.0000     7.0000 </r>
       <r>    -7.1167     0.0000     7.0000 </r>
       <r>    -6.9965     0.0000     7.0000 </r>
       <r>    -6.8764     0.0000     7.0000 </r>
       <r>    -6.7562     0.0000     7.0000 </r>
       <r>    -6.6361     0.0000     7.0000 </r>
       <r>    -6.5159     0.0000     7.0000 </r>
       <r>    -6.3958     0.0000     7.0000 </r>
       <r>    -6.2756     0.0000     7.0000 </r>
       <r>    -6.1554     0.0000     7.0000 </r>
       <r>    -6.0353     0.0000     7.0000 </r>
       <r>    -5.9151     0.0000     7.0000 </r>
       <r>    -5.7950     0.0000     7.0000 </r>
       <r>    -5.6748     0.0000     7.0000 </r>
       <r>    -5.5546     0.0000     7.0000 </r>
       <r>    -5.4345     0.0000     7.0000 </r>
       <r>    -5.3143     0.0000     7.0000 </r>
       <r>    -5.1942     0.0000     7.0000 </r>
       <r>    -5.0740     0.0000     7.0000 </r>
       <r>    -4.9538     0.0000     7.0000 </r>
       <r>    -4.8337     0.0000     7.0000 </r>
       <r>    -4.7135     0.0000     7.0000 </r>
       <r>    -4.5934     0.0000     7.0000 </r>
       <r>    -4.4732     0.0000     7.0000 </r>
       <r>    -4.3530     0.0000     7.0000 </r>
       <r>    -4.2329     0.0000     7.0000 </r>
       <r>    -4.1127     0.0000     7.0000 </r>
       <r>    -3.9926     0.0000     7.0000 </r>
       <r>    -3.8724     0.0000     7.0000 </r>
       <r>    -3.7522     0.0000     7.0000 </r>
       <r>    -3.6321     0.0000     7.0000 </r>
       <r>    -3.5119     0.0000     7.0000 </r>
       <r>    -3.3918     0.0000     7.0000 </r>
       <r>    -3.2716     0.0000     7.0000 </r>
       <r>    -3.1514     0.0000     7.0000 </r>
       <r>    -3.0313     0.0000     7.0000 </r>
       <r>    -2.9111     0.0000     7.0000 </r>
       <r>    -2.7910     0.0000     7.0000 </r>
       <r>    -2.6708     0.0000     7.0000 </r>
       <r>    -2.5507     0.0000     7.0000 </r>
       <r>    -2.4305     0.0000     7.0000 </r>
       <r>    -2.3103     0.0000     7.0000 </r>
       <r>    -2.1902     0.0000     7.0000 </r>
       <r>    -2.0700     0.0000     7.0000 </r>
       <r>    -1.9499     0.0113     7.0014 </r>
       <r>    -1.8297     0.8891     7.1082 </r>
       <r>    -1.7095     1.0415     7.2333 </r>
       <r>    -1.5894     2.2122     7.4992 </r>
       <r>    -1.4692     0.0070     7.5000 </r>
       <r>    -1.3491     0.2809     7.5338 </r>
       <r>    -1.2289     5.3283     8.1740 </r>
       <r>    -1.1087     7.8975     9.1230 </r>
       <r>    -0.9886     6.3144     9.8817 </r>
       <r>    -0.8684     2.8131    10.2197 </r>
       <r>    -0.7483     2.8214    10.5587 </r>
       <r>    -0.6281     2.2501    10.8291 </r>
       <r>    -0.5079     4.5266    11.3730 </r>
       <r>    -0.3878     0.3347    11.4132 </r>
       <r>    -0.2676    12.6173    12.9293 </r>
       <r>    -0.1475     8.7935    13.9859 </r>
       <r>    -0.0273     0.1170    14.0000 </r>
       <r>     0.0929     0.0606    14.0073 </r>
       <r>     0.2130     6.0690    14.7365 </r>
       <r>     0.3332     1.1523    14.8750 </r>
       <r>     0.4533     0.9057    14.9838 </r>
       <r>     0.5735     5.2923    15.6197 </r>
       <r>     0.6937     7.5272    16.5242 </r>
       <r>     0.8138    21.9756    19.1648 </r>
       <r>     0.9340     6.1451    19.9032 </r>
       <r>     1.0541     0.8058    20.0000 </r>
       <r>     1.1743     0.0001    20.0000 </r>
       <r>     1.2944     0.6652    20.0799 </r>
       <r>     1.4146     2.4414    20.3733 </r>
       <r>     1.5348     1.0140    20.4951 </r>
       <r>     1.6549    13.5484    22.1231 </r>
       <r>     1.7751     5.2156    22.7498 </r>
       <r>     1.8952     2.6660    23.0701 </r>
       <r>     2.0154    18.6749    25.3141 </r>
       <r>     2.1356    10.8899    26.6226 </r>
       <r>     2.2557     1.4688    26.7991 </r>
       <r>     2.3759     6.8276    27.6195 </r>
       <r>     2.4960     2.4568    27.9147 </r>
       <r>     2.6162     0.7097    28.0000 </r>
       <r>     2.7364     0.0001    28.0000 </r>
       <r>     2.8565     0.0000    28.0000 </r>
       <r>     2.9767     0.0000    28.0000 </r>
       <r>     3.0968     0.0000    28.0000 </r>
       <r>     3.2170     0.0000    28.0000 </r>
       <r>     3.3372     0.0022    28.0003 </r>
       <r>     3.4573     0.7306    28.0880 </r>
       <r>     3.5775     0.3075    28.1250 </r>
       <r>     3.6976     0.0000    28.1250 </r>
       <r>     3.8178     0.0000    28.1250 </r>
       <r>     3.9380     0.0000    28.1250 </r>
       <r>     4.0581     0.0000    28.1250 </r>
       <r>     4.1783     0.0000    28.1250 </r>
       <r>     4.2984     0.0000    28.1250 </r>
       <r>     4.4186     0.0000    28.1250 </r>
       <r>     4.5388     0.0000    28.1250 </r>
       <r>     4.6589     0.0000    28.1250 </r>
       <r>     4.7791     0.0000    28.1250 </r>
       <r>     4.8992     0.0000    28.1250 </r>
       <r>     5.0194     0.0019    28.1252 </r>
       <r>     5.1395     2.2095    28.3907 </r>
       <r>     5.2597     1.9487    28.6249 </r>
       <r>     5.3799     0.0011    28.6250 </r>
       <r>     5.5000     0.0002    28.6250 </r>
       <r>     5.6202     1.0076    28.7461 </r>
       <r>     5.7403     2.1079    28.9994 </r>
       <r>     5.8605     0.0051    29.0000 </r>
       <r>     5.9807     0.0000    29.0000 </r>
       <r>     6.1008     0.0000    29.0000 </r>
       <r>     6.2210     0.0000    29.0000 </r>
       <r>     6.3411     0.0000    29.0000 </r>
       <r>     6.4613     0.0000    29.0000 </r>
       <r>     6.5815     0.0000    29.0000 </r>
       <r>     6.7016     0.0000    29.0000 </r>
       <r>     6.8218     0.0000    29.0000 </r>
       <r>     6.9419     0.0000    29.0000 </r>
       <r>     7.0621     0.0000    29.0000 </r>
       <r>     7.1823     0.0000    29.0000 </r>
       <r>     7.3024     0.0000    29.0000 </r>
       <r>     7.4226     0.0000    29.0000 </r>
       <r>     7.5427     0.0000    29.0000 </r>
       <r>     7.6629     0.0000    29.0000 </r>
       <r>     7.7831     0.0000    29.0000 </r>
       <r>     7.9032     0.8082    29.0971 </r>
       <r>     8.0234     3.3296    29.4972 </r>
       <r>     8.1435     0.3164    29.5352 </r>
       <r>     8.2637     2.7742    29.8686 </r>
       <r>     8.3839     0.9293    29.9802 </r>
       <r>     8.5040     0.1646    30.0000 </r>
       <r>     8.6242     0.0000    30.0000 </r>
       <r>     8.7443     0.0000    30.0000 </r>
       <r>     8.8645     0.0000    30.0000 </r>
       <r>     8.9847     0.0000    30.0000 </r>
       <r>     9.1048     0.0000    30.0000 </r>
       <r>     9.2250     0.0000    30.0000 </r>
       <r>     9.3451     0.0000    30.0000 </r>
       <r>     9.4653     0.0533    30.0064 </r>
       <r>     9.5854     5.1916    30.6302 </r>
       <r>     9.7056     0.9968    30.7500 </r>
[...]
        <r>  0.0000  0.0035  0.0151  0.0023  0.0000  0.0000  0.0000  0.0000  0.0000 </r>
        <r>  0.0207  0.0000  0.0000  0.0000  0.0000  0.0000  0.0000  0.0000  0.0000 </r>
        <r>  0.0409  0.0000  0.0000  0.0000  0.0000  0.0000  0.0000  0.0000  0.0000 </r>
        <r>  0.0000  0.0058  0.0115  0.0010  0.0000  0.0000  0.0000  0.0000  0.0000 </r>
       </set>
       <set comment="band 36">
        <r>  0.0000  0.0052  0.0005  0.0090  0.0002  0.0024  0.0001  0.0013  0.0011 </r>
        <r>  0.0011  0.0093  0.0000  0.0038  0.0002  0.0020  0.0000  0.0009  0.0010 </r>
        <r>  0.0104  0.0002  0.0115  0.0000  0.0000  0.0023  0.0006  0.0017  0.0000 </r>
        <r>  0.0187  0.0018  0.0081  0.0002  0.0004  0.0031  0.0002  0.0016  0.0001 </r>
        <r>  0.0183  0.0021  0.0081  0.0003  0.0003  0.0030  0.0002  0.0016  0.0000 </r>
        <r>  0.0105  0.0002  0.0112  0.0000  0.0000  0.0024  0.0006  0.0017  0.0000 </r>
        <r>  0.0011  0.0089  0.0000  0.0040  0.0002  0.0020  0.0000  0.0009  0.0010 </r>
        <r>  0.0000  0.0051  0.0006  0.0092  0.0001  0.0023  0.0001  0.0014  0.0011 </r>
        <r>  0.0000  0.0042  0.0017  0.0141  0.0000  0.0000  0.0000  0.0000  0.0000 </r>
        <r>  0.0000  0.0154  0.0003  0.0217  0.0000  0.0000  0.0000  0.0000  0.0000 </r>
        <r>  0.0400  0.0000  0.0000  0.0000  0.0000  0.0000  0.0000  0.0000  0.0000 </r>
        <r>  0.0000  0.0183  0.0067  0.0270  0.0000  0.0000  0.0000  0.0000  0.0000 </r>
        <r>  0.0226  0.0000  0.0000  0.0000  0.0000  0.0000  0.0000  0.0000  0.0000 </r>
        <r>  0.0024  0.0000  0.0000  0.0000  0.0000  0.0000  0.0000  0.0000  0.0000 </r>
        <r>  0.0000  0.0064  0.0007  0.0113  0.0000  0.0000  0.0000  0.0000  0.0000 </r>
       </set>
       <set comment="band 37">
        <r>  0.0000  0.0034  0.0004  0.0062  0.0002  0.0051  0.0000  0.0031  0.0006 </r>
        <r>  0.0001  0.0055  0.0002  0.0020  0.0003  0.0070  0.0000  0.0048  0.0005 </r>
        <r>  0.0005  0.0026  0.0089  0.0002  0.0011  0.0056  0.0006  0.0027  0.0001 </r>
        <r>  0.0008  0.0028  0.0073  0.0045  0.0000  0.0044  0.0004  0.0026  0.0003 </r>
        <r>  0.0010  0.0024  0.0077  0.0044  0.0000  0.0047  0.0003  0.0025  0.0004 </r>
        <r>  0.0006  0.0026  0.0090  0.0001  0.0010  0.0054  0.0005  0.0028  0.0001 </r>
        <r>  0.0000  0.0061  0.0003  0.0018  0.0002  0.0067  0.0000  0.0050  0.0005 </r>
        <r>  0.0000  0.0036  0.0003  0.0059  0.0003  0.0053  0.0000  0.0030  0.0006 </r>
        <r>  0.0010  0.0000  0.0000  0.0000  0.0000  0.0000  0.0000  0.0000  0.0000 </r>
        <r>  0.0114  0.0000  0.0000  0.0000  0.0000  0.0000  0.0000  0.0000  0.0000 </r>
        <r>  0.0000  0.0165  0.0250  0.0172  0.0000  0.0000  0.0000  0.0000  0.0000 </r>
        <r>  0.0193  0.0000  0.0000  0.0000  0.0000  0.0000  0.0000  0.0000  0.0000 </r>
        <r>  0.0000  0.0103  0.0208  0.0057  0.0000  0.0000  0.0000  0.0000  0.0000 </r>
        <r>  0.0000  0.0067  0.0009  0.0003  0.0000  0.0000  0.0000  0.0000  0.0000 </r>
        <r>  0.0000  0.0000  0.0000  0.0000  0.0000  0.0000  0.0000  0.0000  0.0000 </r>
       </set>
       <set comment="band 38">
        <r>  0.0000  0.0030  0.0066  0.0006  0.0053  0.0004  0.0006  0.0026  0.0000 </r>
        <r>  0.0011  0.0030  0.0045  0.0070  0.0049  0.0001  0.0007  0.0021  0.0000 </r>
        <r>  0.0005  0.0022  0.0000  0.0085  0.0060  0.0015  0.0000  0.0024  0.0006 </r>
        <r>  0.0001  0.0065  0.0013  0.0004  0.0067  0.0004  0.0002  0.0044  0.0003 </r>
        <r>  0.0001  0.0059  0.0014  0.0004  0.0070  0.0005  0.0002  0.0044  0.0003 </r>
        <r>  0.0004  0.0022  0.0000  0.0091  0.0057  0.0014  0.0000  0.0023  0.0006 </r>
        <r>  0.0008  0.0035  0.0045  0.0072  0.0048  0.0001  0.0007  0.0020  0.0000 </r>
        <r>  0.0000  0.0031  0.0060  0.0005  0.0056  0.0006  0.0007  0.0026  0.0000 </r>
        <r>  0.0201  0.0000  0.0000  0.0000  0.0000  0.0000  0.0000  0.0000  0.0000 </r>
        <r>  0.0098  0.0000  0.0000  0.0000  0.0000  0.0000  0.0000  0.0000  0.0000 </r>
        <r>  0.0000  0.0086  0.0000  0.0016  0.0000  0.0000  0.0000  0.0000  0.0000 </r>
        <r>  0.0019  0.0000  0.0000  0.0000  0.0000  0.0000  0.0000  0.0000  0.0000 </r>
        <r>  0.0000  0.0088  0.0043  0.0194  0.0000  0.0000  0.0000  0.0000  0.0000 </r>
        <r>  0.0000  0.0183  0.0182  0.0247  0.0000  0.0000  0.0000  0.0000  0.0000 </r>
        <r>  0.0000  0.0000  0.0000  0.0000  0.0000  0.0000  0.0000  0.0000  0.0000 </r>
       </set>
       <set comment="band 39">
        <r>  0.0875  0.0050  0.0049  0.0048  0.0009  0.0009  0.0000  0.0009  0.0000 </r>
        <r>  0.0129  0.0004  0.0002  0.0004  0.0001  0.0006  0.0015  0.0006  0.0000 </r>
        <r>  0.0127  0.0003  0.0004  0.0004  0.0006  0.0006  0.0004  0.0001  0.0011 </r>
        <r>  0.0132  0.0004  0.0004  0.0003  0.0006  0.0001  0.0004  0.0006  0.0011 </r>
        <r>  0.0127  0.0004  0.0004  0.0003  0.0006  0.0001  0.0004  0.0006  0.0011 </r>
        <r>  0.0130  0.0003  0.0004  0.0005  0.0006  0.0006  0.0004  0.0001  0.0011 </r>
        <r>  0.0126  0.0004  0.0003  0.0004  0.0001  0.0006  0.0015  0.0006  0.0000 </r>
        <r>  0.0874  0.0049  0.0050  0.0050  0.0009  0.0009  0.0000  0.0009  0.0000 </r>
        <r>  0.0067  0.0000  0.0000  0.0000  0.0000  0.0000  0.0000  0.0000  0.0000 </r>
        <r>  0.0066  0.0000  0.0000  0.0000  0.0000  0.0000  0.0000  0.0000  0.0000 </r>
        <r>  0.0000  0.0130  0.0130  0.0289  0.0000  0.0000  0.0000  0.0000  0.0000 </r>
        <r>  0.0066  0.0000  0.0000  0.0000  0.0000  0.0000  0.0000  0.0000  0.0000 </r>
        <r>  0.0000  0.0287  0.0132  0.0131  0.0000  0.0000  0.0000  0.0000  0.0000 </r>
        <r>  0.0000  0.0133  0.0286  0.0132  0.0000  0.0000  0.0000  0.0000  0.0000 </r>
        <r>  0.0242  0.0000  0.0000  0.0000  0.0000  0.0000  0.0000  0.0000  0.0000 </r>
       </set>
       <set comment="band 40">
        <r>  0.0355  0.0009  0.0008  0.0008  0.0022  0.0021  0.0000  0.0022  0.0000 </r>
        <r>  0.0013  0.0000  0.0006  0.0000  0.0064  0.0029  0.0001  0.0030  0.0000 </r>
        <r>  0.0013  0.0006  0.0000  0.0000  0.0031  0.0029  0.0000  0.0064  0.0001 </r>
        <r>  0.0015  0.0000  0.0000  0.0006  0.0031  0.0061  0.0000  0.0031  0.0001 </r>
        <r>  0.0014  0.0000  0.0000  0.0006  0.0031  0.0062  0.0000  0.0030  0.0001 </r>
        <r>  0.0013  0.0006  0.0000  0.0000  0.0030  0.0030  0.0000  0.0062  0.0001 </r>
        <r>  0.0012  0.0000  0.0005  0.0000  0.0063  0.0030  0.0001  0.0030  0.0000 </r>
        <r>  0.0359  0.0007  0.0008  0.0008  0.0022  0.0021  0.0000  0.0022  0.0000 </r>
        <r>  0.0000  0.0017  0.0710  0.0015  0.0000  0.0000  0.0000  0.0000  0.0000 </r>
        <r>  0.0000  0.0711  0.0017  0.0014  0.0000  0.0000  0.0000  0.0000  0.0000 </r>
        <r>  0.0010  0.0000  0.0000  0.0000  0.0000  0.0000  0.0000  0.0000  0.0000 </r>
        <r>  0.0000  0.0014  0.0015  0.0710  0.0000  0.0000  0.0000  0.0000  0.0000 </r>
        <r>  0.0010  0.0000  0.0000  0.0000  0.0000  0.0000  0.0000  0.0000  0.0000 </r>
        <r>  0.0009  0.0000  0.0000  0.0000  0.0000  0.0000  0.0000  0.0000  0.0000 </r>
        <r>  0.0000  0.0121  0.0118  0.0128  0.0000  0.0000  0.0000  0.0000  0.0000 </r>
       </set>
       <set comment="band 41">
        <r>  0.0000  0.0000  0.0000  0.0001  0.0009  0.0080  0.0000  0.0036  0.0001 </r>
        <r>  0.0036  0.0000  0.0001  0.0004  0.0003  0.0056  0.0000  0.0045  0.0001 </r>
        <r>  0.0150  0.0005  0.0000  0.0006  0.0024  0.0041  0.0001  0.0014  0.0000 </r>
        <r>  0.0341  0.0007  0.0005  0.0013  0.0000  0.0035  0.0000  0.0007  0.0000 </r>
        <r>  0.0337  0.0007  0.0004  0.0012  0.0000  0.0034  0.0000  0.0007  0.0000 </r>
        <r>  0.0157  0.0006  0.0000  0.0007  0.0024  0.0042  0.0001  0.0015  0.0000 </r>
        <r>  0.0037  0.0000  0.0001  0.0004  0.0003  0.0057  0.0000  0.0045  0.0001 </r>
        <r>  0.0000  0.0000  0.0000  0.0001  0.0008  0.0081  0.0000  0.0035  0.0001 </r>
        <r>  0.0000  0.0664  0.0000  0.0314  0.0000  0.0000  0.0000  0.0000  0.0000 </r>
        <r>  0.0000  0.0000  0.0651  0.0081  0.0000  0.0000  0.0000  0.0000  0.0000 </r>
        <r>  0.0043  0.0000  0.0000  0.0000  0.0000  0.0000  0.0000  0.0000  0.0000 </r>
        <r>  0.0000  0.0061  0.0282  0.0000  0.0000  0.0000  0.0000  0.0000  0.0000 </r>
        <r>  0.0020  0.0000  0.0000  0.0000  0.0000  0.0000  0.0000  0.0000  0.0000 </r>
        <r>  0.0005  0.0000  0.0000  0.0000  0.0000  0.0000  0.0000  0.0000  0.0000 </r>
        <r>  0.0000  0.0309  0.0074  0.0680  0.0000  0.0000  0.0000  0.0000  0.0000 </r>
       </set>
       <set comment="band 42">
        <r>  0.0000  0.0001  0.0001  0.0000  0.0074  0.0003  0.0001  0.0047  0.0000 </r>
        <r>  0.0316  0.0007  0.0011  0.0003  0.0030  0.0002  0.0000  0.0012  0.0000 </r>
        <r>  0.0201  0.0007  0.0007  0.0001  0.0034  0.0017  0.0000  0.0020  0.0001 </r>
        <r>  0.0013  0.0000  0.0003  0.0001  0.0058  0.0001  0.0001  0.0051  0.0000 </r>
        <r>  0.0013  0.0000  0.0003  0.0000  0.0057  0.0001  0.0001  0.0051  0.0000 </r>
        <r>  0.0199  0.0007  0.0007  0.0001  0.0034  0.0017  0.0000  0.0020  0.0001 </r>
        <r>  0.0319  0.0007  0.0011  0.0004  0.0031  0.0002  0.0001  0.0012  0.0000 </r>
        <r>  0.0000  0.0000  0.0001  0.0000  0.0073  0.0003  0.0001  0.0048  0.0000 </r>
        <r>  0.0000  0.0020  0.0000  0.0372  0.0000  0.0000  0.0000  0.0000  0.0000 </r>
        <r>  0.0000  0.0000  0.0032  0.0605  0.0000  0.0000  0.0000  0.0000  0.0000 </r>
        <r>  0.0002  0.0000  0.0000  0.0000  0.0000  0.0000  0.0000  0.0000  0.0000 </r>
        <r>  0.0000  0.0624  0.0403  0.0000  0.0000  0.0000  0.0000  0.0000  0.0000 </r>
        <r>  0.0025  0.0000  0.0000  0.0000  0.0000  0.0000  0.0000  0.0000  0.0000 </r>
        <r>  0.0041  0.0000  0.0000  0.0000  0.0000  0.0000  0.0000  0.0000  0.0000 </r>
        <r>  0.0000  0.0397  0.0632  0.0027  0.0000  0.0000  0.0000  0.0000  0.0000 </r>
       </set>
       <set comment="band 43">
        <r>  0.0032  0.0078  0.0078  0.0079  0.0038  0.0039  0.0000  0.0039  0.0000 </r>
        <r>  0.0006  0.0001  0.0014  0.0001  0.0117  0.0002  0.0000  0.0002  0.0000 </r>
        <r>  0.0005  0.0014  0.0001  0.0001  0.0002  0.0002  0.0000  0.0116  0.0000 </r>
        <r>  0.0005  0.0001  0.0001  0.0015  0.0002  0.0117  0.0000  0.0002  0.0000 </r>
        <r>  0.0005  0.0001  0.0001  0.0014  0.0002  0.0117  0.0000  0.0002  0.0000 </r>
        <r>  0.0005  0.0015  0.0001  0.0001  0.0002  0.0002  0.0000  0.0116  0.0000 </r>
        <r>  0.0004  0.0001  0.0015  0.0001  0.0115  0.0002  0.0000  0.0002  0.0000 </r>
        <r>  0.0030  0.0078  0.0077  0.0078  0.0040  0.0039  0.0000  0.0039  0.0000 </r>
        <r>  0.0000  0.0000  0.0000  0.0000  0.0000  0.0000  0.0000  0.0000  0.0000 </r>
        <r>  0.0000  0.0000  0.0000  0.0000  0.0000  0.0000  0.0000  0.0000  0.0000 </r>
        <r>  0.0000  0.0006  0.0006  0.0647  0.0000  0.0000  0.0000  0.0000  0.0000 </r>
        <r>  0.0000  0.0000  0.0000  0.0000  0.0000  0.0000  0.0000  0.0000  0.0000 </r>
        <r>  0.0000  0.0645  0.0006  0.0006  0.0000  0.0000  0.0000  0.0000  0.0000 </r>
        <r>  0.0000  0.0006  0.0644  0.0006  0.0000  0.0000  0.0000  0.0000  0.0000 </r>
        <r>  0.0008  0.0000  0.0000  0.0000  0.0000  0.0000  0.0000  0.0000  0.0000 </r>
       </set>
       <set comment="band 44">
        <r>  0.0000  0.0034  0.0035  0.0034  0.0038  0.0037  0.0000  0.0038  0.0000 </r>
        <r>  0.0071  0.0006  0.0031  0.0007  0.0046  0.0040  0.0000  0.0039  0.0000 </r>
        <r>  0.0073  0.0032  0.0006  0.0007  0.0039  0.0040  0.0000  0.0046  0.0000 </r>
        <r>  0.0071  0.0005  0.0005  0.0033  0.0043  0.0047  0.0000  0.0043  0.0000 </r>
        <r>  0.0068  0.0006  0.0006  0.0030  0.0039  0.0044  0.0000  0.0040  0.0000 </r>
        <r>  0.0067  0.0030  0.0005  0.0005  0.0042  0.0043  0.0000  0.0048  0.0000 </r>
        <r>  0.0069  0.0005  0.0030  0.0005  0.0049  0.0043  0.0000  0.0042  0.0000 </r>
        <r>  0.0002  0.0033  0.0033  0.0032  0.0036  0.0035  0.0000  0.0035  0.0000 </r>
        <r>  0.0000  0.0092  0.0095  0.0094  0.0000  0.0000  0.0000  0.0000  0.0000 </r>
        <r>  0.0000  0.0095  0.0091  0.0095  0.0000  0.0000  0.0000  0.0000  0.0000 </r>
        <r>  0.0000  0.0000  0.0000  0.0000  0.0000  0.0000  0.0000  0.0000  0.0000 </r>
        <r>  0.0000  0.0093  0.0092  0.0094  0.0000  0.0000  0.0000  0.0000  0.0000 </r>
        <r>  0.0000  0.0000  0.0000  0.0000  0.0000  0.0000  0.0000  0.0000  0.0000 </r>
        <r>  0.0000  0.0000  0.0000  0.0000  0.0000  0.0000  0.0000  0.0000  0.0000 </r>
        <r>  0.0000  0.0242  0.0242  0.0240  0.0000  0.0000  0.0000  0.0000  0.0000 </r>
       </set>
       <set comment="band 45">
        <r>  0.0502  0.0024  0.0022  0.0023  0.0017  0.0018  0.0000  0.0018  0.0000 </r>
        <r>  0.0002  0.0063  0.0002  0.0062  0.0000  0.0044  0.0000  0.0043  0.0000 </r>
        <r>  0.0001  0.0002  0.0066  0.0063  0.0044  0.0044  0.0000  0.0000  0.0000 </r>
        <r>  0.0003  0.0066  0.0066  0.0001  0.0039  0.0000  0.0000  0.0039  0.0000 </r>
        <r>  0.0002  0.0064  0.0065  0.0002  0.0043  0.0000  0.0000  0.0043  0.0000 </r>
        <r>  0.0003  0.0001  0.0066  0.0066  0.0039  0.0039  0.0000  0.0000  0.0000 </r>
        <r>  0.0002  0.0068  0.0001  0.0068  0.0000  0.0040  0.0000  0.0040  0.0000 </r>
        <r>  0.0510  0.0024  0.0025  0.0024  0.0020  0.0020  0.0000  0.0020  0.0000 </r>
        <r>  0.0001  0.0000  0.0000  0.0000  0.0000  0.0000  0.0000  0.0000  0.0000 </r>
        <r>  0.0001  0.0000  0.0000  0.0000  0.0000  0.0000  0.0000  0.0000  0.0000 </r>
        <r>  0.0000  0.0213  0.0213  0.0021  0.0000  0.0000  0.0000  0.0000  0.0000 </r>
        <r>  0.0001  0.0000  0.0000  0.0000  0.0000  0.0000  0.0000  0.0000  0.0000 </r>
        <r>  0.0000  0.0021  0.0213  0.0212  0.0000  0.0000  0.0000  0.0000  0.0000 </r>
        <r>  0.0000  0.0210  0.0020  0.0210  0.0000  0.0000  0.0000  0.0000  0.0000 </r>
        <r>  0.0001  0.0000  0.0000  0.0000  0.0000  0.0000  0.0000  0.0000  0.0000 </r>
       </set>
       <set comment="band 46">
        <r>  0.0000  0.0021  0.0006  0.0051  0.0000  0.0002  0.0000  0.0000  0.0000 </r>
        <r>  0.0099  0.0018  0.0023  0.0080  0.0000  0.0002  0.0000  0.0006  0.0000 </r>
        <r>  0.0359  0.0072  0.0002  0.0094  0.0007  0.0000  0.0000  0.0000  0.0000 </r>
        <r>  0.0791  0.0066  0.0030  0.0185  0.0004  0.0001  0.0000  0.0002  0.0001 </r>
        <r>  0.0822  0.0062  0.0032  0.0178  0.0006  0.0001  0.0000  0.0002  0.0001 </r>
        <r>  0.0327  0.0079  0.0001  0.0102  0.0008  0.0000  0.0000  0.0000  0.0000 </r>
        <r>  0.0105  0.0019  0.0021  0.0084  0.0000  0.0002  0.0000  0.0007  0.0000 </r>
        <r>  0.0000  0.0021  0.0007  0.0049  0.0000  0.0001  0.0000  0.0001  0.0000 </r>
        <r>  0.0001  0.0000  0.0000  0.0000  0.0000  0.0000  0.0000  0.0000  0.0000 </r>
        <r>  0.0002  0.0000  0.0000  0.0000  0.0000  0.0000  0.0000  0.0000  0.0000 </r>
        <r>  0.0000  0.0241  0.0233  0.0208  0.0000  0.0000  0.0000  0.0000  0.0000 </r>
        <r>  0.0006  0.0000  0.0000  0.0000  0.0000  0.0000  0.0000  0.0000  0.0000 </r>
        <r>  0.0000  0.0090  0.0090  0.0110  0.0000  0.0000  0.0000  0.0000  0.0000 </r>
        <r>  0.0000  0.0023  0.0027  0.0036  0.0000  0.0000  0.0000  0.0000  0.0000 </r>
        <r>  0.0000  0.0000  0.0000  0.0000  0.0000  0.0000  0.0000  0.0000  0.0000 </r>
       </set>
       <set comment="band 47">
        <r>  0.0000  0.0032  0.0042  0.0002  0.0002  0.0000  0.0000  0.0001  0.0000 </r>
        <r>  0.0731  0.0081  0.0162  0.0016  0.0001  0.0006  0.0001  0.0001  0.0000 </r>
        <r>  0.0483  0.0106  0.0104  0.0001  0.0000  0.0008  0.0000  0.0000  0.0000 </r>
        <r>  0.0025  0.0036  0.0064  0.0005  0.0003  0.0000  0.0000  0.0006  0.0000 </r>
        <r>  0.0022  0.0035  0.0071  0.0005  0.0003  0.0000  0.0000  0.0006  0.0000 </r>
        <r>  0.0508  0.0107  0.0093  0.0000  0.0000  0.0008  0.0000  0.0001  0.0000 </r>
        <r>  0.0751  0.0081  0.0152  0.0017  0.0001  0.0006  0.0001  0.0001  0.0000 </r>
        <r>  0.0000  0.0030  0.0049  0.0001  0.0001  0.0000  0.0000  0.0001  0.0000 </r>
        <r>  0.0005  0.0000  0.0000  0.0000  0.0000  0.0000  0.0000  0.0000  0.0000 </r>
        <r>  0.0003  0.0000  0.0000  0.0000  0.0000  0.0000  0.0000  0.0000  0.0000 </r>
        <r>  0.0000  0.0003  0.0011  0.0006  0.0000  0.0000  0.0000  0.0000  0.0000 </r>
        <r>  0.0000  0.0000  0.0000  0.0000  0.0000  0.0000  0.0000  0.0000  0.0000 </r>
        <r>  0.0000  0.0128  0.0153  0.0132  0.0000  0.0000  0.0000  0.0000  0.0000 </r>
        <r>  0.0000  0.0221  0.0192  0.0206  0.0000  0.0000  0.0000  0.0000  0.0000 </r>
        <r>  0.0000  0.0000  0.0000  0.0000  0.0000  0.0000  0.0000  0.0000  0.0000 </r>
       </set>
       <set comment="band 48">
        <r>  0.0680  0.0100  0.0065  0.0062  0.0006  0.0005  0.0000  0.0002  0.0000 </r>
        <r>  0.0103  0.0108  0.0010  0.0068  0.0008  0.0009  0.0001  0.0015  0.0000 </r>
        <r>  0.0017  0.0031  0.0050  0.0051  0.0014  0.0014  0.0000  0.0010  0.0000 </r>
        <r>  0.0084  0.0102  0.0065  0.0009  0.0009  0.0009  0.0000  0.0016  0.0001 </r>
        <r>  0.0093  0.0105  0.0063  0.0011  0.0009  0.0009  0.0000  0.0015  0.0001 </r>
        <r>  0.0014  0.0030  0.0053  0.0050  0.0014  0.0015  0.0000  0.0010  0.0000 </r>
        <r>  0.0119  0.0103  0.0012  0.0062  0.0008  0.0009  0.0001  0.0015  0.0000 </r>
        <r>  0.0669  0.0107  0.0062  0.0064  0.0005  0.0005  0.0000  0.0002  0.0000 </r>
        <r>  0.0000  0.0155  0.0009  0.0121  0.0000  0.0000  0.0000  0.0000  0.0000 </r>
        <r>  0.0000  0.0014  0.0070  0.0068  0.0000  0.0000  0.0000  0.0000  0.0000 </r>
        <r>  0.0001  0.0000  0.0000  0.0000  0.0000  0.0000  0.0000  0.0000  0.0000 </r>
        <r>  0.0000  0.0145  0.0114  0.0002  0.0000  0.0000  0.0000  0.0000  0.0000 </r>
        <r>  0.0000  0.0000  0.0000  0.0000  0.0000  0.0000  0.0000  0.0000  0.0000 </r>
        <r>  0.0000  0.0000  0.0000  0.0000  0.0000  0.0000  0.0000  0.0000  0.0000 </r>
        <r>  0.0000  0.0141  0.0111  0.0113  0.0000  0.0000  0.0000  0.0000  0.0000 </r>
       </set>
      </set>
     </set>
    </set>
   </array>
  </projected>
 </calculation>
 <structure name="finalpos" >
  <crystal>
   <varray name="basis" >
    <v>       0.00000000       4.24689300       4.24689300 </v>
    <v>       4.24689300       0.00000000       4.24689300 </v>
    <v>       4.24689300       4.24689300       0.00000000 </v>
   </varray>
   <i name="volume">    153.19477498 </i>
   <varray name="rec_basis" >
    <v>      -0.11773313       0.11773313       0.11773313 </v>
    <v>       0.11773313      -0.11773313       0.11773313 </v>
    <v>       0.11773313       0.11773313      -0.11773313 </v>
   </varray>
  </crystal>
  <varray name="positions" >
   <v>       0.99917582       0.99897852       0.00386781 </v>
   <v>       0.99857360       0.99753002       0.50503979 </v>
   <v>       0.99863696       0.49963912       0.00317705 </v>
   <v>       0.99931158       0.49862354       0.50403571 </v>
   <v>       0.49932439       0.99852638       0.00406210 </v>
   <v>       0.50002972       0.99801926       0.50483584 </v>
   <v>       0.50070633       0.49961992       0.00308265 </v>
   <v>       0.49938847       0.49876609       0.50388228 </v>
   <v>       0.24932556       0.24856908       0.75428780 </v>
   <v>       0.24921292       0.74860550       0.25443922 </v>
   <v>       0.24947783       0.74875966       0.75405483 </v>
   <v>       0.74930996       0.24833559       0.25444375 </v>
   <v>       0.74942355       0.24867453       0.75418738 </v>
   <v>       0.74946960       0.74846508       0.25444913 </v>
   <v>       0.74921670       0.74873169       0.75468865 </v>
  </varray>
 </structure>
</modeling>
