   16   16   20    2
  0.9574673E+01  0.6006014E-09  0.6006014E-09  0.6006014E-09  0.5000000E-15
  1.000000000000000E-004
  CAR 
 unknown system                          
     60     16     48
 
  0.2500000E+00  0.2500000E+00  0.2500000E+00  0.6250000E-01
    1      -14.868146    -14.868181   1.000000   1.000000
    2      -13.208027    -13.208044   1.000000   1.000000
    3      -12.669791    -12.669805   1.000000   1.000000
    4      -12.490598    -12.490612   1.000000   1.000000
    5      -12.489226    -12.489240   1.000000   1.000000
    6      -12.310222    -12.310236   1.000000   1.000000
    7      -12.308942    -12.308956   1.000000   1.000000
    8       -1.721581     -1.721574   1.000000   1.000000
    9       -1.720702     -1.720695   1.000000   1.000000
   10       -1.527063     -1.527061   1.000000   1.000000
   11       -0.769987     -0.769978   1.000000   1.000000
   12       -0.386948     -0.387006   1.000000   1.000000
   13        0.028800      0.028747   1.000000   1.000000
   14        0.030133      0.030079   1.000000   1.000000
   15        0.739061      0.739053   1.000000   1.000000
   16        1.222125      1.222120   1.000000   1.000000
   17        1.223005      1.223001   1.000000   1.000000
   18        1.704997      1.704994   1.000000   1.000000
   19        1.708451      1.708447   1.000000   1.000000
   20        1.935302      1.935283   1.000000   1.000000
   21        2.060347      2.060351   1.000000   1.000000
   22        2.312246      2.312226   1.000000   1.000000
   23        2.315996      2.315977   1.000000   1.000000
   24        2.690828      2.690794   1.000000   1.000000
   25        2.790804      2.790804   1.000000   1.000000
   26        2.794026      2.794026   1.000000   1.000000
   27        2.931026      2.931026   1.000000   1.000000
   28        2.934607      2.934606   1.000000   1.000000
   29        4.160303      4.160151   1.000000   1.000000
   30        8.589543      8.589451   0.990540   0.990606
   31        9.513644      9.513646   0.000000   0.000000
   32        9.809417      9.809269   0.000000   0.000000
   33        9.813160      9.813003   0.000000   0.000000
   34       11.027507     11.027545   0.000000   0.000000
   35       11.283127     11.283152   0.000000   0.000000
   36       11.288396     11.288421   0.000000   0.000000
   37       12.059058     12.059001   0.000000   0.000000
   38       12.059510     12.059452   0.000000   0.000000
   39       12.779019     12.778932   0.000000   0.000000
   40       12.926124     12.926049   0.000000   0.000000
   41       12.928850     12.928775   0.000000   0.000000
   42       13.074991     13.075047   0.000000   0.000000
   43       15.097741     15.097817   0.000000   0.000000
   44       15.146373     15.146433   0.000000   0.000000
   45       15.148300     15.148360   0.000000   0.000000
   46       15.350056     15.350112   0.000000   0.000000
   47       16.716718     16.716701   0.000000   0.000000
   48       17.185946     17.191017   0.000000   0.000000
 
  0.2500000E+00  0.0000000E+00  0.0000000E+00  0.6250000E-01
    1      -14.868143    -14.868178   1.000000   1.000000
    2      -13.208037    -13.208054   1.000000   1.000000
    3      -12.669784    -12.669798   1.000000   1.000000
    4      -12.490707    -12.490721   1.000000   1.000000
    5      -12.489112    -12.489126   1.000000   1.000000
    6      -12.310370    -12.310384   1.000000   1.000000
    7      -12.308801    -12.308815   1.000000   1.000000
    8       -1.721655     -1.721649   1.000000   1.000000
    9       -1.720397     -1.720392   1.000000   1.000000
   10       -1.527255     -1.527252   1.000000   1.000000
   11       -0.769983     -0.769975   1.000000   1.000000
   12       -0.386796     -0.386855   1.000000   1.000000
   13        0.028720      0.028667   1.000000   1.000000
   14        0.029938      0.029885   1.000000   1.000000
   15        0.739006      0.738999   1.000000   1.000000
   16        1.221728      1.221722   1.000000   1.000000
   17        1.223380      1.223376   1.000000   1.000000
   18        1.705028      1.705025   1.000000   1.000000
   19        1.708552      1.708549   1.000000   1.000000
   20        1.935427      1.935410   1.000000   1.000000
   21        2.060413      2.060415   1.000000   1.000000
   22        2.312203      2.312186   1.000000   1.000000
   23        2.316600      2.316583   1.000000   1.000000
   24        2.690412      2.690377   1.000000   1.000000
   25        2.790943      2.790942   1.000000   1.000000
   26        2.793543      2.793540   1.000000   1.000000
   27        2.930365      2.930362   1.000000   1.000000
   28        2.935054      2.935054   1.000000   1.000000
   29        4.160458      4.160307   1.000000   1.000000
   30        8.589780      8.589684   0.990368   0.990438
   31        9.513953      9.513953   0.000000   0.000000
   32        9.809347      9.809195   0.000000   0.000000
   33        9.812513      9.812364   0.000000   0.000000
   34       11.027517     11.027556   0.000000   0.000000
   35       11.283337     11.283362   0.000000   0.000000
   36       11.288418     11.288445   0.000000   0.000000
   37       12.058558     12.058505   0.000000   0.000000
   38       12.060355     12.060305   0.000000   0.000000
   39       12.779161     12.779067   0.000000   0.000000
   40       12.925612     12.925536   0.000000   0.000000
   41       12.929115     12.929039   0.000000   0.000000
   42       13.075115     13.075170   0.000000   0.000000
   43       15.098268     15.098342   0.000000   0.000000
   44       15.145563     15.145623   0.000000   0.000000
   45       15.148222     15.148283   0.000000   0.000000
   46       15.350074     15.350131   0.000000   0.000000
   47       16.716822     16.716804   0.000000   0.000000
   48       17.185417     17.183922   0.000000   0.000000
 
  0.0000000E+00  0.0000000E+00 -0.2500000E+00  0.6250000E-01
    1      -14.868153    -14.868187   1.000000   1.000000
    2      -13.207981    -13.207998   1.000000   1.000000
    3      -12.669802    -12.669816   1.000000   1.000000
    4      -12.491255    -12.491269   1.000000   1.000000
    5      -12.488618    -12.488632   1.000000   1.000000
    6      -12.310932    -12.310946   1.000000   1.000000
    7      -12.308214    -12.308228   1.000000   1.000000
    8       -1.722165     -1.722158   1.000000   1.000000
    9       -1.720790     -1.720784   1.000000   1.000000
   10       -1.526436     -1.526433   1.000000   1.000000
   11       -0.770017     -0.770008   1.000000   1.000000
   12       -0.386725     -0.386781   1.000000   1.000000
   13        0.028787      0.028732   1.000000   1.000000
   14        0.029937      0.029883   1.000000   1.000000
   15        0.739510      0.739503   1.000000   1.000000
   16        1.221184      1.221180   1.000000   1.000000
   17        1.223837      1.223832   1.000000   1.000000
   18        1.703991      1.703988   1.000000   1.000000
   19        1.709529      1.709526   1.000000   1.000000
   20        1.935608      1.935590   1.000000   1.000000
   21        2.059777      2.059780   1.000000   1.000000
   22        2.310926      2.310909   1.000000   1.000000
   23        2.317794      2.317777   1.000000   1.000000
   24        2.690443      2.690407   1.000000   1.000000
   25        2.791073      2.791070   1.000000   1.000000
   26        2.793883      2.793882   1.000000   1.000000
   27        2.930246      2.930247   1.000000   1.000000
   28        2.934817      2.934814   1.000000   1.000000
   29        4.160471      4.160320   1.000000   1.000000
   30        8.589364      8.589276   0.990667   0.990730
   31        9.512992      9.512997   0.000000   0.000000
   32        9.809655      9.809499   0.000000   0.000000
   33        9.814272      9.814119   0.000000   0.000000
   34       11.027731     11.027771   0.000000   0.000000
   35       11.282195     11.282219   0.000000   0.000000
   36       11.288667     11.288693   0.000000   0.000000
   37       12.057967     12.057909   0.000000   0.000000
   38       12.060640     12.060582   0.000000   0.000000
   39       12.778242     12.778157   0.000000   0.000000
   40       12.922989     12.922913   0.000000   0.000000
   41       12.932136     12.932061   0.000000   0.000000
   42       13.075309     13.075364   0.000000   0.000000
   43       15.096784     15.096857   0.000000   0.000000
   44       15.146653     15.146714   0.000000   0.000000
   45       15.149569     15.149630   0.000000   0.000000
   46       15.350409     15.350465   0.000000   0.000000
   47       16.716313     16.716295   0.000000   0.000000
   48       17.186729     17.186501   0.000000   0.000000
 
  0.0000000E+00  0.2500000E+00  0.0000000E+00  0.6250000E-01
    1      -14.868148    -14.868182   1.000000   1.000000
    2      -13.208010    -13.208027   1.000000   1.000000
    3      -12.669779    -12.669793   1.000000   1.000000
    4      -12.491394    -12.491408   1.000000   1.000000
    5      -12.488484    -12.488498   1.000000   1.000000
    6      -12.311087    -12.311101   1.000000   1.000000
    7      -12.308053    -12.308066   1.000000   1.000000
    8       -1.722160     -1.722154   1.000000   1.000000
    9       -1.720436     -1.720430   1.000000   1.000000
   10       -1.526757     -1.526754   1.000000   1.000000
   11       -0.769934     -0.769925   1.000000   1.000000
   12       -0.386549     -0.386606   1.000000   1.000000
   13        0.028599      0.028544   1.000000   1.000000
   14        0.029738      0.029684   1.000000   1.000000
   15        0.739196      0.739189   1.000000   1.000000
   16        1.221424      1.221419   1.000000   1.000000
   17        1.223748      1.223744   1.000000   1.000000
   18        1.703742      1.703739   1.000000   1.000000
   19        1.709677      1.709674   1.000000   1.000000
   20        1.935472      1.935454   1.000000   1.000000
   21        2.060244      2.060247   1.000000   1.000000
   22        2.310543      2.310526   1.000000   1.000000
   23        2.318290      2.318273   1.000000   1.000000
   24        2.690242      2.690207   1.000000   1.000000
   25        2.792086      2.792082   1.000000   1.000000
   26        2.792827      2.792826   1.000000   1.000000
   27        2.931919      2.931917   1.000000   1.000000
   28        2.933302      2.933301   1.000000   1.000000
   29        4.160535      4.160384   1.000000   1.000000
   30        8.589498      8.589409   0.990572   0.990636
   31        9.513097      9.513101   0.000000   0.000000
   32        9.810212      9.810063   0.000000   0.000000
   33        9.813347      9.813188   0.000000   0.000000
   34       11.027471     11.027511   0.000000   0.000000
   35       11.282394     11.282419   0.000000   0.000000
   36       11.288654     11.288679   0.000000   0.000000
   37       12.057998     12.057941   0.000000   0.000000
   38       12.060461     12.060405   0.000000   0.000000
   39       12.778328     12.778242   0.000000   0.000000
   40       12.922581     12.922506   0.000000   0.000000
   41       12.932715     12.932639   0.000000   0.000000
   42       13.075506     13.075560   0.000000   0.000000
   43       15.096482     15.096554   0.000000   0.000000
   44       15.147163     15.147224   0.000000   0.000000
   45       15.149518     15.149579   0.000000   0.000000
   46       15.350457     15.350513   0.000000   0.000000
   47       16.716289     16.716271   0.000000   0.000000
   48       17.190704     17.192135   0.000000   0.000000
 
 -0.2500000E+00  0.2500000E+00  0.2500000E+00  0.6250000E-01
    1      -14.828308    -14.828344   1.000000   1.000000
    2      -13.029679    -13.029693   1.000000   1.000000
    3      -12.818084    -12.818098   1.000000   1.000000
    4      -12.536593    -12.536607   1.000000   1.000000
    5      -12.526582    -12.526596   1.000000   1.000000
    6      -12.412647    -12.412660   1.000000   1.000000
    7      -12.272996    -12.273009   1.000000   1.000000
    8       -1.369797     -1.369795   1.000000   1.000000
    9       -1.304078     -1.304077   1.000000   1.000000
   10       -0.968482     -0.968497   1.000000   1.000000
   11       -0.569566     -0.569635   1.000000   1.000000
   12       -0.172026     -0.172016   1.000000   1.000000
   13        0.024948      0.024944   1.000000   1.000000
   14        0.535894      0.535850   1.000000   1.000000
   15        0.580821      0.580814   1.000000   1.000000
   16        0.886576      0.886574   1.000000   1.000000
   17        0.919787      0.919761   1.000000   1.000000
   18        1.307541      1.307539   1.000000   1.000000
   19        1.467391      1.467382   1.000000   1.000000
   20        1.489096      1.489078   1.000000   1.000000
   21        1.764289      1.764272   1.000000   1.000000
   22        1.779289      1.779279   1.000000   1.000000
   23        2.052004      2.052002   1.000000   1.000000
   24        2.300078      2.300070   1.000000   1.000000
   25        2.581228      2.581199   1.000000   1.000000
   26        2.626764      2.626764   1.000000   1.000000
   27        2.723241      2.723242   1.000000   1.000000
   28        2.832981      2.832981   1.000000   1.000000
   29        5.441864      5.441710   1.000000   1.000000
   30        7.868254      7.868102   1.000000   1.000000
   31        8.770387      8.770239   0.002821   0.002857
   32        9.193041      9.192893   0.000000   0.000000
   33       10.733475     10.733526   0.000000   0.000000
   34       11.666032     11.666074   0.000000   0.000000
   35       12.321819     12.321827   0.000000   0.000000
   36       12.504232     12.504278   0.000000   0.000000
   37       12.575446     12.575497   0.000000   0.000000
   38       13.106926     13.106876   0.000000   0.000000
   39       13.202210     13.202175   0.000000   0.000000
   40       14.032089     14.032019   0.000000   0.000000
   41       14.080134     14.080060   0.000000   0.000000
   42       14.123614     14.123606   0.000000   0.000000
   43       14.364991     14.365003   0.000000   0.000000
   44       14.547616     14.547653   0.000000   0.000000
   45       14.601679     14.601716   0.000000   0.000000
   46       15.063480     15.063445   0.000000   0.000000
   47       15.322218     15.322179   0.000000   0.000000
   48       15.884687     15.884698   0.000000   0.000000
 
  0.2500000E+00 -0.2500000E+00  0.2500000E+00  0.6250000E-01
    1      -14.828312    -14.828347   1.000000   1.000000
    2      -13.029630    -13.029645   1.000000   1.000000
    3      -12.818063    -12.818077   1.000000   1.000000
    4      -12.538370    -12.538384   1.000000   1.000000
    5      -12.524833    -12.524848   1.000000   1.000000
    6      -12.412714    -12.412728   1.000000   1.000000
    7      -12.272963    -12.272977   1.000000   1.000000
    8       -1.370329     -1.370326   1.000000   1.000000
    9       -1.304156     -1.304155   1.000000   1.000000
   10       -0.968130     -0.968145   1.000000   1.000000
   11       -0.569335     -0.569402   1.000000   1.000000
   12       -0.171576     -0.171568   1.000000   1.000000
   13        0.026170      0.026166   1.000000   1.000000
   14        0.535159      0.535113   1.000000   1.000000
   15        0.579254      0.579247   1.000000   1.000000
   16        0.885500      0.885497   1.000000   1.000000
   17        0.919806      0.919780   1.000000   1.000000
   18        1.305696      1.305695   1.000000   1.000000
   19        1.467577      1.467568   1.000000   1.000000
   20        1.493695      1.493677   1.000000   1.000000
   21        1.764447      1.764430   1.000000   1.000000
   22        1.779388      1.779377   1.000000   1.000000
   23        2.050162      2.050160   1.000000   1.000000
   24        2.300525      2.300517   1.000000   1.000000
   25        2.581440      2.581411   1.000000   1.000000
   26        2.626791      2.626792   1.000000   1.000000
   27        2.725403      2.725403   1.000000   1.000000
   28        2.830530      2.830530   1.000000   1.000000
   29        5.441753      5.441598   1.000000   1.000000
   30        7.869037      7.868895   1.000000   1.000000
   31        8.769426      8.769279   0.003065   0.003104
   32        9.193474      9.193319   0.000000   0.000000
   33       10.732624     10.732676   0.000000   0.000000
   34       11.666854     11.666896   0.000000   0.000000
   35       12.320276     12.320281   0.000000   0.000000
   36       12.504265     12.504312   0.000000   0.000000
   37       12.576653     12.576705   0.000000   0.000000
   38       13.106908     13.106854   0.000000   0.000000
   39       13.203605     13.203568   0.000000   0.000000
   40       14.026621     14.026550   0.000000   0.000000
   41       14.079104     14.079038   0.000000   0.000000
   42       14.124665     14.124654   0.000000   0.000000
   43       14.368137     14.368150   0.000000   0.000000
   44       14.547281     14.547317   0.000000   0.000000
   45       14.601138     14.601176   0.000000   0.000000
   46       15.069007     15.068972   0.000000   0.000000
   47       15.322947     15.322909   0.000000   0.000000
   48       15.880664     15.880677   0.000000   0.000000
 
  0.2500000E+00  0.2500000E+00 -0.2500000E+00  0.6250000E-01
    1      -14.828306    -14.828342   1.000000   1.000000
    2      -13.029990    -13.030005   1.000000   1.000000
    3      -12.817839    -12.817853   1.000000   1.000000
    4      -12.536817    -12.536831   1.000000   1.000000
    5      -12.526104    -12.526118   1.000000   1.000000
    6      -12.412295    -12.412308   1.000000   1.000000
    7      -12.273532    -12.273545   1.000000   1.000000
    8       -1.370699     -1.370695   1.000000   1.000000
    9       -1.304334     -1.304333   1.000000   1.000000
   10       -0.967883     -0.967898   1.000000   1.000000
   11       -0.569711     -0.569778   1.000000   1.000000
   12       -0.171374     -0.171367   1.000000   1.000000
   13        0.026930      0.026926   1.000000   1.000000
   14        0.535453      0.535407   1.000000   1.000000
   15        0.577653      0.577646   1.000000   1.000000
   16        0.885229      0.885227   1.000000   1.000000
   17        0.919891      0.919865   1.000000   1.000000
   18        1.304518      1.304518   1.000000   1.000000
   19        1.471399      1.471390   1.000000   1.000000
   20        1.494477      1.494459   1.000000   1.000000
   21        1.765046      1.765029   1.000000   1.000000
   22        1.779090      1.779079   1.000000   1.000000
   23        2.048858      2.048857   1.000000   1.000000
   24        2.301343      2.301335   1.000000   1.000000
   25        2.581729      2.581699   1.000000   1.000000
   26        2.625945      2.625946   1.000000   1.000000
   27        2.726945      2.726944   1.000000   1.000000
   28        2.827394      2.827394   1.000000   1.000000
   29        5.441178      5.441021   1.000000   1.000000
   30        7.871027      7.870886   1.000000   1.000000
   31        8.768794      8.768647   0.003236   0.003277
   32        9.192193      9.192038   0.000000   0.000000
   33       10.732743     10.732795   0.000000   0.000000
   34       11.667342     11.667384   0.000000   0.000000
   35       12.318940     12.318945   0.000000   0.000000
   36       12.507235     12.507283   0.000000   0.000000
   37       12.575479     12.575531   0.000000   0.000000
   38       13.108237     13.108181   0.000000   0.000000
   39       13.204492     13.204455   0.000000   0.000000
   40       14.026076     14.026003   0.000000   0.000000
   41       14.071053     14.070995   0.000000   0.000000
   42       14.130491     14.130475   0.000000   0.000000
   43       14.368819     14.368832   0.000000   0.000000
   44       14.542541     14.542577   0.000000   0.000000
   45       14.600816     14.600855   0.000000   0.000000
   46       15.075744     15.075708   0.000000   0.000000
   47       15.324202     15.324165   0.000000   0.000000
   48       15.878085     15.878098   0.000000   0.000000
 
  0.2500000E+00  0.0000000E+00  0.5000000E+00  0.6250000E-01
    1      -14.828316    -14.828352   1.000000   1.000000
    2      -13.029556    -13.029571   1.000000   1.000000
    3      -12.818109    -12.818123   1.000000   1.000000
    4      -12.538113    -12.538127   1.000000   1.000000
    5      -12.525148    -12.525162   1.000000   1.000000
    6      -12.412667    -12.412681   1.000000   1.000000
    7      -12.272965    -12.272979   1.000000   1.000000
    8       -1.370323     -1.370320   1.000000   1.000000
    9       -1.304349     -1.304347   1.000000   1.000000
   10       -0.968042     -0.968057   1.000000   1.000000
   11       -0.569457     -0.569524   1.000000   1.000000
   12       -0.171403     -0.171395   1.000000   1.000000
   13        0.024952      0.024949   1.000000   1.000000
   14        0.535845      0.535799   1.000000   1.000000
   15        0.580913      0.580904   1.000000   1.000000
   16        0.886621      0.886618   1.000000   1.000000
   17        0.919794      0.919767   1.000000   1.000000
   18        1.307385      1.307382   1.000000   1.000000
   19        1.466202      1.466194   1.000000   1.000000
   20        1.489748      1.489730   1.000000   1.000000
   21        1.764417      1.764401   1.000000   1.000000
   22        1.779635      1.779624   1.000000   1.000000
   23        2.051430      2.051428   1.000000   1.000000
   24        2.300157      2.300151   1.000000   1.000000
   25        2.581511      2.581483   1.000000   1.000000
   26        2.627065      2.627068   1.000000   1.000000
   27        2.723164      2.723163   1.000000   1.000000
   28        2.832701      2.832699   1.000000   1.000000
   29        5.441918      5.441761   1.000000   1.000000
   30        7.867453      7.867315   1.000000   1.000000
   31        8.770774      8.770619   0.002727   0.002764
   32        9.193783      9.193632   0.000000   0.000000
   33       10.732765     10.732817   0.000000   0.000000
   34       11.666838     11.666880   0.000000   0.000000
   35       12.321943     12.321949   0.000000   0.000000
   36       12.503541     12.503590   0.000000   0.000000
   37       12.575260     12.575311   0.000000   0.000000
   38       13.106262     13.106207   0.000000   0.000000
   39       13.202642     13.202602   0.000000   0.000000
   40       14.030307     14.030240   0.000000   0.000000
   41       14.078802     14.078734   0.000000   0.000000
   42       14.125115     14.125104   0.000000   0.000000
   43       14.365415     14.365428   0.000000   0.000000
   44       14.551148     14.551184   0.000000   0.000000
   45       14.600802     14.600841   0.000000   0.000000
   46       15.062500     15.062466   0.000000   0.000000
   47       15.322135     15.322099   0.000000   0.000000
   48       15.884166     15.884177   0.000000   0.000000
 
 -0.2500000E+00  0.5000000E+00  0.5000000E+00  0.6250000E-01
    1      -14.828307    -14.828342   1.000000   1.000000
    2      -13.029640    -13.029655   1.000000   1.000000
    3      -12.818113    -12.818127   1.000000   1.000000
    4      -12.536593    -12.536607   1.000000   1.000000
    5      -12.526581    -12.526595   1.000000   1.000000
    6      -12.412637    -12.412651   1.000000   1.000000
    7      -12.272999    -12.273013   1.000000   1.000000
    8       -1.370041     -1.370039   1.000000   1.000000
    9       -1.304364     -1.304362   1.000000   1.000000
   10       -0.968206     -0.968223   1.000000   1.000000
   11       -0.569572     -0.569640   1.000000   1.000000
   12       -0.171647     -0.171639   1.000000   1.000000
   13        0.027534      0.027530   1.000000   1.000000
   14        0.535158      0.535114   1.000000   1.000000
   15        0.577735      0.577727   1.000000   1.000000
   16        0.885168      0.885165   1.000000   1.000000
   17        0.919420      0.919393   1.000000   1.000000
   18        1.303893      1.303889   1.000000   1.000000
   19        1.470732      1.470724   1.000000   1.000000
   20        1.494719      1.494700   1.000000   1.000000
   21        1.764165      1.764148   1.000000   1.000000
   22        1.778833      1.778821   1.000000   1.000000
   23        2.049218      2.049218   1.000000   1.000000
   24        2.301076      2.301070   1.000000   1.000000
   25        2.582495      2.582467   1.000000   1.000000
   26        2.626278      2.626280   1.000000   1.000000
   27        2.727232      2.727231   1.000000   1.000000
   28        2.828153      2.828154   1.000000   1.000000
   29        5.441283      5.441127   1.000000   1.000000
   30        7.870769      7.870627   1.000000   1.000000
   31        8.768906      8.768751   0.003205   0.003248
   32        9.192146      9.191998   0.000000   0.000000
   33       10.732631     10.732681   0.000000   0.000000
   34       11.667099     11.667140   0.000000   0.000000
   35       12.318403     12.318409   0.000000   0.000000
   36       12.507779     12.507827   0.000000   0.000000
   37       12.575032     12.575083   0.000000   0.000000
   38       13.109021     13.108966   0.000000   0.000000
   39       13.203885     13.203848   0.000000   0.000000
   40       14.026175     14.026107   0.000000   0.000000
   41       14.077414     14.077346   0.000000   0.000000
   42       14.124044     14.124035   0.000000   0.000000
   43       14.369283     14.369295   0.000000   0.000000
   44       14.541612     14.541649   0.000000   0.000000
   45       14.601454     14.601492   0.000000   0.000000
   46       15.074787     15.074750   0.000000   0.000000
   47       15.324803     15.324768   0.000000   0.000000
   48       15.878970     15.878982   0.000000   0.000000
 
  0.2500000E+00  0.5000000E+00  0.0000000E+00  0.6250000E-01
    1      -14.828300    -14.828336   1.000000   1.000000
    2      -13.030043    -13.030058   1.000000   1.000000
    3      -12.817822    -12.817836   1.000000   1.000000
    4      -12.536686    -12.536700   1.000000   1.000000
    5      -12.526146    -12.526160   1.000000   1.000000
    6      -12.412346    -12.412360   1.000000   1.000000
    7      -12.273528    -12.273542   1.000000   1.000000
    8       -1.370126     -1.370124   1.000000   1.000000
    9       -1.304415     -1.304412   1.000000   1.000000
   10       -0.968257     -0.968272   1.000000   1.000000
   11       -0.569604     -0.569672   1.000000   1.000000
   12       -0.171725     -0.171717   1.000000   1.000000
   13        0.025917      0.025913   1.000000   1.000000
   14        0.535479      0.535435   1.000000   1.000000
   15        0.578967      0.578959   1.000000   1.000000
   16        0.885607      0.885604   1.000000   1.000000
   17        0.920309      0.920283   1.000000   1.000000
   18        1.306286      1.306284   1.000000   1.000000
   19        1.469837      1.469830   1.000000   1.000000
   20        1.491635      1.491616   1.000000   1.000000
   21        1.765140      1.765125   1.000000   1.000000
   22        1.779260      1.779249   1.000000   1.000000
   23        2.050342      2.050340   1.000000   1.000000
   24        2.301162      2.301156   1.000000   1.000000
   25        2.580998      2.580971   1.000000   1.000000
   26        2.626913      2.626916   1.000000   1.000000
   27        2.724645      2.724643   1.000000   1.000000
   28        2.829509      2.829507   1.000000   1.000000
   29        5.441399      5.441243   1.000000   1.000000
   30        7.869943      7.869803   1.000000   1.000000
   31        8.770002      8.769848   0.002916   0.002955
   32        9.191949      9.191799   0.000000   0.000000
   33       10.733056     10.733108   0.000000   0.000000
   34       11.666837     11.666878   0.000000   0.000000
   35       12.320465     12.320471   0.000000   0.000000
   36       12.506193     12.506242   0.000000   0.000000
   37       12.574880     12.574931   0.000000   0.000000
   38       13.107448     13.107394   0.000000   0.000000
   39       13.203395     13.203356   0.000000   0.000000
   40       14.028999     14.028931   0.000000   0.000000
   41       14.070966     14.070905   0.000000   0.000000
   42       14.131285     14.131268   0.000000   0.000000
   43       14.367237     14.367250   0.000000   0.000000
   44       14.546429     14.546465   0.000000   0.000000
   45       14.600752     14.600790   0.000000   0.000000
   46       15.070304     15.070268   0.000000   0.000000
   47       15.322591     15.322555   0.000000   0.000000
   48       15.881288     15.881299   0.000000   0.000000
 
  0.0000000E+00  0.5000000E+00 -0.2500000E+00  0.6250000E-01
    1      -14.828310    -14.828346   1.000000   1.000000
    2      -13.029646    -13.029661   1.000000   1.000000
    3      -12.817971    -12.817985   1.000000   1.000000
    4      -12.539768    -12.539782   1.000000   1.000000
    5      -12.523479    -12.523493   1.000000   1.000000
    6      -12.412708    -12.412722   1.000000   1.000000
    7      -12.272994    -12.273008   1.000000   1.000000
    8       -1.370784     -1.370782   1.000000   1.000000
    9       -1.303621     -1.303619   1.000000   1.000000
   10       -0.968074     -0.968090   1.000000   1.000000
   11       -0.569428     -0.569495   1.000000   1.000000
   12       -0.171633     -0.171626   1.000000   1.000000
   13        0.026079      0.026076   1.000000   1.000000
   14        0.535040      0.534993   1.000000   1.000000
   15        0.579427      0.579420   1.000000   1.000000
   16        0.885468      0.885466   1.000000   1.000000
   17        0.920166      0.920140   1.000000   1.000000
   18        1.305712      1.305711   1.000000   1.000000
   19        1.464652      1.464642   1.000000   1.000000
   20        1.496411      1.496393   1.000000   1.000000
   21        1.763790      1.763775   1.000000   1.000000