   16   16   20    2
  0.9574673E+01  0.6006014E-09  0.6006014E-09  0.6006014E-09  0.5000000E-15
  1.000000000000000E-004
  CAR 
 unknown system                          
     60      8     48
 
  0.0000000E+00  0.0000000E+00  0.0000000E+00  0.1250000E+00
    1      -14.834701    -14.834686   1.000000   1.000000
    2      -13.296172    -13.296131   1.000000   1.000000
    3      -12.545981    -12.545930   1.000000   1.000000
    4      -12.545788    -12.545737   1.000000   1.000000
    5      -12.544980    -12.544930   1.000000   1.000000
    6      -12.291268    -12.291214   1.000000   1.000000
    7      -12.290772    -12.290719   1.000000   1.000000
    8       -1.863492     -1.863484   1.000000   1.000000
    9       -1.863080     -1.863072   1.000000   1.000000
   10       -1.862839     -1.862831   1.000000   1.000000
   11       -1.088772     -1.088770   1.000000   1.000000
   12       -0.249261     -0.249231   1.000000   1.000000
   13       -0.248435     -0.248406   1.000000   1.000000
   14       -0.248054     -0.248025   1.000000   1.000000
   15        1.230605      1.230627   1.000000   1.000000
   16        1.231322      1.231345   1.000000   1.000000
   17        1.231855      1.231878   1.000000   1.000000
   18        1.962545      1.962584   1.000000   1.000000
   19        1.962867      1.962906   1.000000   1.000000
   20        1.963022      1.963062   1.000000   1.000000
   21        2.759200      2.759254   1.000000   1.000000
   22        2.759982      2.760037   1.000000   1.000000
   23        2.760736      2.760792   1.000000   1.000000
   24        2.794500      2.794541   1.000000   1.000000
   25        2.794755      2.794796   1.000000   1.000000
   26        2.975733      2.975781   1.000000   1.000000
   27        2.978404      2.978450   1.000000   1.000000
   28        2.978618      2.978664   1.000000   1.000000
   29        3.020116      3.020190   1.000000   1.000000
   30        8.556389      8.556383   0.999990   0.999990
   31       10.296431     10.296523   0.000000   0.000000
   32       10.296759     10.296847   0.000000   0.000000
   33       10.298477     10.298564   0.000000   0.000000
   34       10.499320     10.499308   0.000000   0.000000
   35       10.499666     10.499653   0.000000   0.000000
   36       10.499858     10.499846   0.000000   0.000000
   37       11.694991     11.694997   0.000000   0.000000
   38       11.695656     11.695660   0.000000   0.000000
   39       11.695817     11.695821   0.000000   0.000000
   40       11.893976     11.893988   0.000000   0.000000
   41       11.894979     11.894990   0.000000   0.000000
   42       12.621733     12.621687   0.000000   0.000000
   43       15.359733     15.359748   0.000000   0.000000
   44       15.360228     15.360243   0.000000   0.000000
   45       15.360723     15.360739   0.000000   0.000000
   46       15.592623     15.592627   0.000000   0.000000
   47       18.035103     18.035108   0.000000   0.000000
   48       18.041280     18.041282   0.000000   0.000000
 
  0.5000000E+00  0.0000000E+00  0.0000000E+00  0.1250000E+00
    1      -14.769457    -14.769443   1.000000   1.000000
    2      -13.039125    -13.039080   1.000000   1.000000
    3      -12.953321    -12.953275   1.000000   1.000000
    4      -12.432464    -12.432412   1.000000   1.000000
    5      -12.429699    -12.429648   1.000000   1.000000
    6      -12.426428    -12.426376   1.000000   1.000000
    7      -12.425009    -12.424958   1.000000   1.000000
    8       -1.468064     -1.468056   1.000000   1.000000
    9       -1.467811     -1.467803   1.000000   1.000000
   10       -0.834348     -0.834323   1.000000   1.000000
   11       -0.572814     -0.572799   1.000000   1.000000
   12       -0.476093     -0.476081   1.000000   1.000000
   13        0.336361      0.336398   1.000000   1.000000
   14        0.339016      0.339052   1.000000   1.000000
   15        0.516709      0.516736   1.000000   1.000000
   16        0.754543      0.754564   1.000000   1.000000
   17        1.326989      1.327016   1.000000   1.000000
   18        1.327947      1.327974   1.000000   1.000000
   19        1.466427      1.466452   1.000000   1.000000
   20        1.469765      1.469791   1.000000   1.000000
   21        1.575792      1.575831   1.000000   1.000000
   22        1.578123      1.578162   1.000000   1.000000
   23        2.161657      2.161695   1.000000   1.000000
   24        2.521716      2.521772   1.000000   1.000000
   25        2.746625      2.746669   1.000000   1.000000
   26        2.750719      2.750763   1.000000   1.000000
   27        2.865070      2.865117   1.000000   1.000000
   28        2.870414      2.870462   1.000000   1.000000
   29        5.174008      5.174089   1.000000   1.000000
   30        7.344331      7.344387   1.000000   1.000000
   31        9.511069      9.511151   0.000000   0.000000
   32        9.513829      9.513906   0.000000   0.000000
   33       10.418354     10.418361   0.000000   0.000000
   34       11.034350     11.034338   0.000000   0.000000
   35       12.176582     12.176606   0.000000   0.000000
   36       12.184154     12.184179   0.000000   0.000000
   37       12.283485     12.283475   0.000000   0.000000
   38       12.287840     12.287829   0.000000   0.000000
   39       13.671974     13.671965   0.000000   0.000000
   40       13.890751     13.890784   0.000000   0.000000
   41       13.891344     13.891374   0.000000   0.000000
   42       13.963456     13.963486   0.000000   0.000000
   43       14.791756     14.791733   0.000000   0.000000
   44       14.823273     14.823289   0.000000   0.000000
   45       14.824068     14.824084   0.000000   0.000000
   46       14.971281     14.971281   0.000000   0.000000
   47       15.555356     15.555336   0.000000   0.000000
   48       15.966874     15.966854   0.000000   0.000000
 
  0.0000000E+00  0.5000000E+00  0.0000000E+00  0.1250000E+00
    1      -14.769454    -14.769439   1.000000   1.000000
    2      -13.039213    -13.039167   1.000000   1.000000
    3      -12.953232    -12.953186   1.000000   1.000000
    4      -12.433366    -12.433315   1.000000   1.000000
    5      -12.430532    -12.430480   1.000000   1.000000
    6      -12.425409    -12.425357   1.000000   1.000000
    7      -12.424295    -12.424244   1.000000   1.000000
    8       -1.468127     -1.468119   1.000000   1.000000
    9       -1.467673     -1.467664   1.000000   1.000000
   10       -0.834174     -0.834149   1.000000   1.000000
   11       -0.572377     -0.572362   1.000000   1.000000
   12       -0.476611     -0.476600   1.000000   1.000000
   13        0.336548      0.336584   1.000000   1.000000
   14        0.338024      0.338061   1.000000   1.000000
   15        0.517004      0.517031   1.000000   1.000000
   16        0.754204      0.754225   1.000000   1.000000
   17        1.327067      1.327095   1.000000   1.000000
   18        1.328349      1.328376   1.000000   1.000000
   19        1.467412      1.467438   1.000000   1.000000
   20        1.467800      1.467825   1.000000   1.000000
   21        1.576921      1.576961   1.000000   1.000000
   22        1.578053      1.578092   1.000000   1.000000
   23        2.162163      2.162200   1.000000   1.000000
   24        2.521094      2.521150   1.000000   1.000000
   25        2.748550      2.748594   1.000000   1.000000
   26        2.748722      2.748766   1.000000   1.000000
   27        2.867316      2.867363   1.000000   1.000000
   28        2.868544      2.868591   1.000000   1.000000
   29        5.174324      5.174405   1.000000   1.000000
   30        7.343824      7.343881   1.000000   1.000000
   31        9.511814      9.511896   0.000000   0.000000
   32        9.513822      9.513899   0.000000   0.000000
   33       10.417916     10.417923   0.000000   0.000000
   34       11.033997     11.033984   0.000000   0.000000
   35       12.179506     12.179531   0.000000   0.000000
   36       12.180583     12.180606   0.000000   0.000000
   37       12.285045     12.285033   0.000000   0.000000
   38       12.285760     12.285751   0.000000   0.000000
   39       13.673092     13.673083   0.000000   0.000000
   40       13.890466     13.890499   0.000000   0.000000
   41       13.890842     13.890873   0.000000   0.000000
   42       13.963667     13.963698   0.000000   0.000000
   43       14.797448     14.797427   0.000000   0.000000
   44       14.824148     14.824165   0.000000   0.000000
   45       14.826241     14.826255   0.000000   0.000000
   46       14.966421     14.966421   0.000000   0.000000
   47       15.555166     15.555146   0.000000   0.000000
   48       15.963940     15.963957   0.000000   0.000000
 
  0.5000000E+00  0.5000000E+00  0.0000000E+00  0.1250000E+00
    1      -14.749417    -14.749403   1.000000   1.000000
    2      -13.054022    -13.053977   1.000000   1.000000
    3      -12.629457    -12.629408   1.000000   1.000000
    4      -12.613758    -12.613708   1.000000   1.000000
    5      -12.612300    -12.612249   1.000000   1.000000
    6      -12.610280    -12.610231   1.000000   1.000000
    7      -12.244425    -12.244370   1.000000   1.000000
    8       -1.153278     -1.153268   1.000000   1.000000
    9       -1.153122     -1.153112   1.000000   1.000000
   10       -0.813938     -0.813901   1.000000   1.000000
   11       -0.664220     -0.664210   1.000000   1.000000
   12       -0.008319     -0.008308   1.000000   1.000000
   13        0.164425      0.164452   1.000000   1.000000
   14        0.423441      0.423462   1.000000   1.000000
   15        0.423572      0.423594   1.000000   1.000000
   16        1.153455      1.153499   1.000000   1.000000
   17        1.154043      1.154087   1.000000   1.000000
   18        1.275433      1.275455   1.000000   1.000000
   19        1.338719      1.338756   1.000000   1.000000
   20        1.339337      1.339374   1.000000   1.000000
   21        1.471696      1.471720   1.000000   1.000000
   22        1.524893      1.524929   1.000000   1.000000
   23        1.812239      1.812268   1.000000   1.000000
   24        1.812666      1.812695   1.000000   1.000000
   25        2.657513      2.657557   1.000000   1.000000
   26        2.657588      2.657633   1.000000   1.000000
   27        2.733183      2.733237   1.000000   1.000000
   28        2.791762      2.791804   1.000000   1.000000
   29        5.787297      5.787383   1.000000   1.000000
   30        7.415500      7.415559   1.000000   1.000000
   31        8.870449      8.870525   0.000002   0.000002
   32        8.870938      8.871011   0.000002   0.000002
   33       11.239376     11.239391   0.000000   0.000000
   34       11.940939     11.940939   0.000000   0.000000
   35       12.030111     12.030124   0.000000   0.000000
   36       12.933016     12.933013   0.000000   0.000000
   37       12.933057     12.933055   0.000000   0.000000
   38       13.201426     13.201453   0.000000   0.000000
   39       13.837712     13.837749   0.000000   0.000000
   40       13.981983     13.981982   0.000000   0.000000
   41       13.983209     13.983208   0.000000   0.000000
   42       14.027710     14.027676   0.000000   0.000000
   43       14.364162     14.364211   0.000000   0.000000
   44       14.365268     14.365317   0.000000   0.000000
   45       14.778352     14.778385   0.000000   0.000000
   46       14.853834     14.853820   0.000000   0.000000
   47       15.037696     15.037675   0.000000   0.000000
   48       16.204657     16.204566   0.000000   0.000000
 
  0.0000000E+00  0.0000000E+00  0.5000000E+00  0.1250000E+00
    1      -14.769445    -14.769431   1.000000   1.000000
    2      -13.039461    -13.039416   1.000000   1.000000
    3      -12.952992    -12.952946   1.000000   1.000000
    4      -12.433332    -12.433281   1.000000   1.000000
    5      -12.430757    -12.430706   1.000000   1.000000
    6      -12.425421    -12.425369   1.000000   1.000000
    7      -12.424090    -12.424038   1.000000   1.000000
    8       -1.467986     -1.467977   1.000000   1.000000
    9       -1.467537     -1.467528   1.000000   1.000000
   10       -0.834168     -0.834143   1.000000   1.000000
   11       -0.572390     -0.572375   1.000000   1.000000
   12       -0.476871     -0.476860   1.000000   1.000000
   13        0.336543      0.336580   1.000000   1.000000
   14        0.337711      0.337747   1.000000   1.000000
   15        0.517078      0.517105   1.000000   1.000000
   16        0.754051      0.754072   1.000000   1.000000
   17        1.326265      1.326292   1.000000   1.000000
   18        1.328624      1.328651   1.000000   1.000000
   19        1.466880      1.466906   1.000000   1.000000
   20        1.469027      1.469052   1.000000   1.000000
   21        1.576710      1.576750   1.000000   1.000000
   22        1.578460      1.578500   1.000000   1.000000
   23        2.162445      2.162482   1.000000   1.000000
   24        2.520836      2.520891   1.000000   1.000000
   25        2.746273      2.746317   1.000000   1.000000
   26        2.750579      2.750622   1.000000   1.000000
   27        2.865429      2.865476   1.000000   1.000000
   28        2.870837      2.870884   1.000000   1.000000
   29        5.174359      5.174441   1.000000   1.000000
   30        7.343979      7.344035   1.000000   1.000000
   31        9.510999      9.511077   0.000000   0.000000
   32        9.514368      9.514449   0.000000   0.000000
   33       10.418099     10.418107   0.000000   0.000000
   34       11.033685     11.033671   0.000000   0.000000
   35       12.176799     12.176824   0.000000   0.000000
   36       12.183304     12.183328   0.000000   0.000000
   37       12.283495     12.283485   0.000000   0.000000
   38       12.287699     12.287690   0.000000   0.000000
   39       13.673154     13.673144   0.000000   0.000000
   40       13.889833     13.889865   0.000000   0.000000
   41       13.891461     13.891494   0.000000   0.000000
   42       13.963502     13.963532   0.000000   0.000000
   43       14.796565     14.796544   0.000000   0.000000
   44       14.822935     14.822952   0.000000   0.000000
   45       14.827825     14.827839   0.000000   0.000000
   46       14.966881     14.966882   0.000000   0.000000
   47       15.555019     15.554998   0.000000   0.000000
   48       15.963990     15.964001   0.000000   0.000000
 
  0.5000000E+00  0.0000000E+00  0.5000000E+00  0.1250000E+00
    1      -14.749434    -14.749420   1.000000   1.000000
    2      -13.053408    -13.053363   1.000000   1.000000
    3      -12.633323    -12.633274   1.000000   1.000000
    4      -12.612616    -12.612567   1.000000   1.000000
    5      -12.611438    -12.611388   1.000000   1.000000
    6      -12.609462    -12.609412   1.000000   1.000000
    7      -12.243980    -12.243926   1.000000   1.000000
    8       -1.153401     -1.153392   1.000000   1.000000
    9       -1.152948     -1.152938   1.000000   1.000000
   10       -0.812485     -0.812446   1.000000   1.000000
   11       -0.665298     -0.665288   1.000000   1.000000
   12       -0.007852     -0.007841   1.000000   1.000000
   13        0.164525      0.164551   1.000000   1.000000
   14        0.423902      0.423923   1.000000   1.000000
   15        0.424142      0.424164   1.000000   1.000000
   16        1.151379      1.151423   1.000000   1.000000
   17        1.152568      1.152612   1.000000   1.000000
   18        1.273030      1.273053   1.000000   1.000000
   19        1.339571      1.339607   1.000000   1.000000
   20        1.340544      1.340580   1.000000   1.000000
   21        1.470990      1.471014   1.000000   1.000000
   22        1.524517      1.524553   1.000000   1.000000
   23        1.812160      1.812190   1.000000   1.000000
   24        1.813365      1.813396   1.000000   1.000000
   25        2.657714      2.657758   1.000000   1.000000
   26        2.658432      2.658477   1.000000   1.000000
   27        2.734374      2.734427   1.000000   1.000000
   28        2.792104      2.792145   1.000000   1.000000
   29        5.788188      5.788272   1.000000   1.000000
   30        7.413100      7.413163   1.000000   1.000000
   31        8.870791      8.870868   0.000002   0.000002
   32        8.872641      8.872713   0.000001   0.000001
   33       11.238755     11.238769   0.000000   0.000000
   34       11.940085     11.940085   0.000000   0.000000
   35       12.029788     12.029801   0.000000   0.000000
   36       12.931035     12.931033   0.000000   0.000000
   37       12.933452     12.933450   0.000000   0.000000
   38       13.202966     13.202991   0.000000   0.000000
   39       13.838625     13.838659   0.000000   0.000000
   40       13.981267     13.981267   0.000000   0.000000
   41       13.982248     13.982247   0.000000   0.000000
   42       14.028053     14.028021   0.000000   0.000000
   43       14.364598     14.364647   0.000000   0.000000
   44       14.365849     14.365898   0.000000   0.000000
   45       14.786423     14.786468   0.000000   0.000000
   46       14.844338     14.844316   0.000000   0.000000
   47       15.038162     15.038141   0.000000   0.000000
   48       16.204273     16.205161   0.000000   0.000000
 
  0.0000000E+00  0.5000000E+00  0.5000000E+00  0.1250000E+00
    1      -14.749430    -14.749416   1.000000   1.000000
    2      -13.053517    -13.053472   1.000000   1.000000
    3      -12.633496    -12.633447   1.000000   1.000000
    4      -12.612349    -12.612300   1.000000   1.000000
    5      -12.611681    -12.611632   1.000000   1.000000
    6      -12.609085    -12.609035   1.000000   1.000000
    7      -12.244105    -12.244051   1.000000   1.000000
    8       -1.153468     -1.153459   1.000000   1.000000
    9       -1.152949     -1.152939   1.000000   1.000000
   10       -0.812631     -0.812593   1.000000   1.000000
   11       -0.665136     -0.665126   1.000000   1.000000
   12       -0.007960     -0.007949   1.000000   1.000000
   13        0.164646      0.164673   1.000000   1.000000
   14        0.423770      0.423791   1.000000   1.000000
   15        0.423961      0.423982   1.000000   1.000000
   16        1.151288      1.151332   1.000000   1.000000
   17        1.153681      1.153725   1.000000   1.000000
   18        1.272923      1.272946   1.000000   1.000000
   19        1.339393      1.339429   1.000000   1.000000
   20        1.340933      1.340969   1.000000   1.000000
   21        1.471337      1.471361   1.000000   1.000000
   22        1.524321      1.524357   1.000000   1.000000
   23        1.811710      1.811740   1.000000   1.000000
   24        1.813537      1.813567   1.000000   1.000000
   25        2.657805      2.657850   1.000000   1.000000
   26        2.658061      2.658105   1.000000   1.000000
   27        2.733875      2.733928   1.000000   1.000000
   28        2.792026      2.792067   1.000000   1.000000
   29        5.788303      5.788387   1.000000   1.000000
   30        7.413141      7.413204   1.000000   1.000000
   31        8.870973      8.871048   0.000002   0.000002
   32        8.872330      8.872403   0.000001   0.000001
   33       11.239093     11.239107   0.000000   0.000000
   34       11.940087     11.940087   0.000000   0.000000
   35       12.029780     12.029792   0.000000   0.000000
   36       12.929028     12.929027   0.000000   0.000000
   37       12.933057     12.933054   0.000000   0.000000
   38       13.205934     13.205959   0.000000   0.000000
   39       13.837838     13.837872   0.000000   0.000000
   40       13.982132     13.982131   0.000000   0.000000
   41       13.982793     13.982792   0.000000   0.000000
   42       14.026422     14.026389   0.000000   0.000000
   43       14.364141     14.364189   0.000000   0.000000
   44       14.366365     14.366414   0.000000   0.000000
   45       14.791124     14.791173   0.000000   0.000000
   46       14.840950     14.840925   0.000000   0.000000
   47       15.037820     15.037799   0.000000   0.000000
   48       16.204054     16.204718   0.000000   0.000000
 
  0.5000000E+00  0.5000000E+00  0.5000000E+00  0.1250000E+00
    1      -14.769466    -14.769451   1.000000   1.000000
    2      -13.038846    -13.038800   1.000000   1.000000
    3      -12.953583    -12.953537   1.000000   1.000000
    4      -12.432334    -12.432282   1.000000   1.000000
    5      -12.429754    -12.429703   1.000000   1.000000
    6      -12.426571    -12.426520   1.000000   1.000000
    7      -12.424933    -12.424881   1.000000   1.000000
    8       -1.468436     -1.468427   1.000000   1.000000
    9       -1.467806     -1.467796   1.000000   1.000000
   10       -0.834427     -0.834402   1.000000   1.000000
   11       -0.572716     -0.572700   1.000000   1.000000
   12       -0.475884     -0.475872   1.000000   1.000000
   13        0.337108      0.337144   1.000000   1.000000
   14        0.338992      0.339029   1.000000   1.000000
   15        0.516593      0.516619   1.000000   1.000000
   16        0.754588      0.754608   1.000000   1.000000
   17        1.327344      1.327371   1.000000   1.000000
   18        1.328123      1.328150   1.000000   1.000000
   19        1.467159      1.467185   1.000000   1.000000
   20        1.468439      1.468465   1.000000   1.000000
   21        1.574597      1.574635   1.000000   1.000000
   22        1.578149      1.578187   1.000000   1.000000
   23        2.161347      2.161384   1.000000   1.000000
   24        2.522444      2.522501   1.000000   1.000000
   25        2.746956      2.747000   1.000000   1.000000
   26        2.751091      2.751134   1.000000   1.000000
   27        2.865398      2.865445   1.000000   1.000000
   28        2.869951      2.869998   1.000000   1.000000
   29        5.173785      5.173863   1.000000   1.000000
   30        7.343962      7.344025   1.000000   1.000000
   31        9.511906      9.511984   0.000000   0.000000
   32        9.513837      9.513916   0.000000   0.000000
   33       10.417731     10.417740   0.000000   0.000000
   34       11.034623     11.034612   0.000000   0.000000
   35       12.176376     12.176398   0.000000   0.000000
   36       12.184161     12.184183   0.000000   0.000000
   37       12.283003     12.282992   0.000000   0.000000
   38       12.287334     12.287325   0.000000   0.000000
   39       13.672027     13.672019   0.000000   0.000000
   40       13.890218     13.890249   0.000000   0.000000
   41       13.891910     13.891941   0.000000   0.000000
   42       13.963942     13.963976   0.000000   0.000000
   43       14.793079     14.793058   0.000000   0.000000
   44       14.821879     14.821893   0.000000   0.000000
   45       14.825327     14.825343   0.000000   0.000000
   46       14.969430     14.969429   0.000000   0.000000
   47       15.555672     15.555652   0.000000   0.000000
   48       15.966462     15.966441   0.000000   0.000000
