 vasp.5.4.1 05Feb16 (build Mar 31 2016 13:39:20) complex                        
  
 executed on           IFC91_ompi date 2018.04.28  12:47:01
 running on   16 total cores
 distrk:  each k-point on   16 cores,    1 groups
 distr:  one band on NCORES_PER_BAND=   4 cores,    4 groups


--------------------------------------------------------------------------------------------------------


 INCAR:
 POTCAR:    PAW_PBE Mg 13Apr2007                  
 POTCAR:    PAW_PBE O 08Apr2002                   
 POTCAR:    PAW_PBE Mg 13Apr2007                  
   VRHFIN =Mg: s2p0                                                             
   LEXCH  = PE                                                                  
   EATOM  =    23.0369 eV,    1.6932 Ry                                         
                                                                                
   TITEL  = PAW_PBE Mg 13Apr2007                                                
   LULTRA =        F    use ultrasoft PP ?                                      
   IUNSCR =        1    unscreen: 0-lin 1-nonlin 2-no                           
   RPACOR =    1.500    partial core radius                                     
   POMASS =   24.305; ZVAL   =    2.000    mass and valenz                      
   RCORE  =    2.000    outmost cutoff radius                                   
   RWIGS  =    2.880; RWIGS  =    1.524    wigner-seitz radius (au A)           
   ENMAX  =  126.143; ENMIN  =   94.607 eV                                      
   RCLOC  =    1.506    cutoff for local pot                                    
   LCOR   =        T    correct aug charges                                     
   LPAW   =        T    paw PP                                                  
   EAUG   =  454.734                                                            
   DEXC   =    0.000                                                            
   RMAX   =    2.045    core radius for proj-oper                               
   RAUG   =    1.300    factor for augmentation sphere                          
   RDEP   =    2.025    radius for radial grids                                 
   RDEPT  =    1.942    core radius for aug-charge                              
                                                                                
   Atomic configuration                                                         
    6 entries                                                                   
     n  l   j            E        occ.                                          
     1  0  0.50     -1259.6230   2.0000                                         
     2  0  0.50       -79.8442   2.0000                                         
     2  1  1.50       -46.6121   6.0000                                         
     3  0  0.50        -4.7055   2.0000                                         
     3  1  0.50        -1.3660   0.0000                                         
     3  2  1.50        -1.3606   0.0000                                         
   Description                                                                  
     l       E           TYP  RCUT    TYP  RCUT                                 
     0     -4.7054661     23  2.000                                             
     0     27.2116520     23  2.000                                             
     1      1.3605826     23  2.000                                             
     1     27.2116520     23  2.000                                             
     2     -1.3605826     23  2.000                                             
  local pseudopotential read in
  partial core-charges read in
  partial kinetic energy density read in
  atomic valenz-charges read in
  non local Contribution for L=           0  read in
    real space projection operators read in
  non local Contribution for L=           0  read in
    real space projection operators read in
  non local Contribution for L=           1  read in
    real space projection operators read in
  non local Contribution for L=           1  read in
    real space projection operators read in
  non local Contribution for L=           2  read in
    real space projection operators read in
    PAW grid and wavefunctions read in
 
   number of l-projection  operators is LMAX  =           5
   number of lm-projection operators is LMMAX =          13
 
 POTCAR:    PAW_PBE O 08Apr2002                   
   VRHFIN =O: s2p4                                                              
   LEXCH  = PE                                                                  
   EATOM  =   432.3788 eV,   31.7789 Ry                                         
                                                                                
   TITEL  = PAW_PBE O 08Apr2002                                                 
   LULTRA =        F    use ultrasoft PP ?                                      
   IUNSCR =        1    unscreen: 0-lin 1-nonlin 2-no                           
   RPACOR =    1.200    partial core radius                                     
   POMASS =   16.000; ZVAL   =    6.000    mass and valenz                      
   RCORE  =    1.520    outmost cutoff radius                                   
   RWIGS  =    1.550; RWIGS  =    0.820    wigner-seitz radius (au A)           
   ENMAX  =  400.000; ENMIN  =  300.000 eV                                      
   ICORE  =        2    local potential                                         
   LCOR   =        T    correct aug charges                                     
   LPAW   =        T    paw PP                                                  
   EAUG   =  605.392                                                            
   DEXC   =    0.000                                                            
   RMAX   =    1.553    core radius for proj-oper                               
   RAUG   =    1.300    factor for augmentation sphere                          
   RDEP   =    1.550    radius for radial grids                                 
   RDEPT  =    1.329    core radius for aug-charge                              
                                                                                
   Atomic configuration                                                         
    4 entries                                                                   
     n  l   j            E        occ.                                          
     1  0  0.50      -514.6923   2.0000                                         
     2  0  0.50       -23.9615   2.0000                                         
     2  1  0.50        -9.0305   4.0000                                         
     3  2  1.50        -9.5241   0.0000                                         
   Description                                                                  
     l       E           TYP  RCUT    TYP  RCUT                                 
     0    -23.9615318     23  1.200                                             
     0     -9.5240782     23  1.200                                             
     1     -9.0304911     23  1.520                                             
     1      8.1634956     23  1.520                                             
     2     -9.5240782      7  1.500                                             
  local pseudopotential read in
  partial core-charges read in
  partial kinetic energy density read in
  kinetic energy density of atom read in
  atomic valenz-charges read in
  non local Contribution for L=           0  read in
    real space projection operators read in
  non local Contribution for L=           0  read in
    real space projection operators read in
  non local Contribution for L=           1  read in
    real space projection operators read in
  non local Contribution for L=           1  read in
    real space projection operators read in
    PAW grid and wavefunctions read in
 
   number of l-projection  operators is LMAX  =           4
   number of lm-projection operators is LMMAX =           8
 
 Optimization of the real space projectors (new method)

 maximal supplied QI-value         = 18.90
 optimisation between [QCUT,QGAM] = [ 10.20, 20.41] = [ 29.16,116.64] Ry 
 Optimized for a Real-space Cutoff    1.30 Angstroem

   l    n(q)    QCUT    max X(q) W(low)/X(q) W(high)/X(q)  e(spline) 
   0      8    10.205    28.265    0.22E-03    0.17E-03    0.53E-07
   0      8    10.205    10.429    0.17E-03    0.15E-03    0.43E-07
   1      7    10.205    13.073    0.71E-04    0.41E-03    0.76E-07
   1      7    10.205     9.625    0.71E-04    0.33E-03    0.63E-07
   2      7    10.205     4.652    0.24E-03    0.41E-03    0.55E-07
 Optimization of the real space projectors (new method)

 maximal supplied QI-value         = 24.76
 optimisation between [QCUT,QGAM] = [ 10.15, 20.30] = [ 28.85,115.39] Ry 
 Optimized for a Real-space Cutoff    1.38 Angstroem

   l    n(q)    QCUT    max X(q) W(low)/X(q) W(high)/X(q)  e(spline) 
   0      8    10.150    20.381    0.22E-03    0.32E-03    0.29E-06
   0      8    10.150    15.268    0.23E-03    0.35E-03    0.30E-06
   1      8    10.150     5.964    0.46E-03    0.53E-03    0.21E-06
   1      8    10.150     5.382    0.38E-03    0.45E-03    0.19E-06
  PAW_PBE Mg 13Apr2007                  :
 energy of atom  1       EATOM=  -23.0369
 kinetic energy error for atom=    0.0001 (will be added to EATOM!!)
  PAW_PBE O 08Apr2002                   :
 energy of atom  2       EATOM= -432.3788
 kinetic energy error for atom=    0.1156 (will be added to EATOM!!)
 
 
 POSCAR: Mg9 O7                                  
  positions in direct lattice
  velocities in cartesian coordinates
 exchange correlation table for  LEXCH =        8
   RHO(1)=    0.500       N(1)  =     2000
   RHO(2)=  100.500       N(2)  =     4000
 


--------------------------------------------------------------------------------------------------------


 ion  position               nearest neighbor table
   1  0.253  0.255  0.248-   8 2.27   7 2.28   5 2.28   6 2.28   4 2.29   3 2.29   2 3.65   9 3.66

   2  0.998  0.003  0.000-  12 2.12  15 2.12  11 2.12  14 2.12  10 2.12  13 2.13   3 3.00   7 3.00
                             6 3.00   5 3.01   4 3.01   4 3.01   8 3.01   5 3.01   8 3.01   6 3.01
   3  0.981  0.986  0.518-  16 1.97  12 2.13  14 2.13  11 2.14  13 2.14   1 2.29   7 2.78   5 2.79
                             6 2.79   4 2.79   2 3.00   9 3.00   9 3.01   2 3.01   4 3.21   6 3.22
   4  0.979  0.521  0.983-  16 1.96  13 2.13  15 2.13  10 2.13  12 2.14   1 2.29   8 2.77   6 2.78
                             5 2.78   3 2.79   9 3.00   2 3.01   2 3.01   9 3.01   3 3.21   5 3.23
   5  0.980  0.521  0.519-  16 1.96  10 2.13  11 2.13  14 2.13  15 2.13   1 2.28   8 2.76   7 2.77
                             4 2.78   3 2.79   9 3.00   2 3.01   2 3.01   9 3.01   3 3.22   4 3.23
   6  0.516  0.983  0.981-  16 1.96  11 2.12  10 2.13  15 2.13  14 2.13   1 2.28   8 2.76   7 2.77
                             4 2.78   3 2.79   2 3.00   9 3.01   9 3.01   2 3.01   3 3.22   4 3.23
   7  0.519  0.983  0.519-  16 1.96  15 2.12  13 2.13  12 2.13  10 2.13   1 2.28   8 2.76   6 2.77
                             5 2.77   3 2.78   2 3.00   9 3.01   9 3.01   2 3.01   3 3.22   5 3.23
   8  0.519  0.523  0.979-  16 1.96  14 2.12  12 2.12  13 2.13  11 2.13   1 2.27   7 2.76   6 2.76
                             5 2.76   4 2.77   9 3.00   2 3.01   2 3.01   9 3.01   4 3.24   5 3.24
   9  0.498  0.503  0.500-  10 2.12  13 2.12  14 2.12  11 2.12  12 2.12  15 2.12   5 3.00   4 3.00
                             8 3.00   3 3.00   6 3.01   7 3.01   3 3.01   7 3.01   6 3.01   4 3.01
  10  0.248  0.252  0.750-   9 2.12   2 2.12   6 2.13   5 2.13   4 2.13   7 2.13
  11  0.249  0.752  0.249-   2 2.12   9 2.12   6 2.12   5 2.13   8 2.13   3 2.14
  12  0.248  0.753  0.751-   2 2.12   8 2.12   9 2.12   3 2.13   7 2.13   4 2.14
  13  0.747  0.253  0.250-   9 2.12   2 2.13   7 2.13   8 2.13   4 2.13   3 2.14
  14  0.747  0.254  0.751-   8 2.12   9 2.12   2 2.12   5 2.13   3 2.13   6 2.13
  15  0.748  0.753  0.251-   2 2.12   7 2.12   9 2.12   4 2.13   5 2.13   6 2.13
  16  0.750  0.753  0.749-   8 1.96   7 1.96   6 1.96   5 1.96   4 1.96   3 1.97
 
  LATTYP: Found a face centered cubic cell.
 ALAT       =     8.4937860000
  
  Lattice vectors:
  
 A1 = (   0.0000000000,   4.2468930000,   4.2468930000)
 A2 = (   4.2468930000,   0.0000000000,   4.2468930000)
 A3 = (   4.2468930000,   4.2468930000,   0.0000000000)


Analysis of symmetry for initial positions (statically):
=====================================================================
 Subroutine PRICEL returns:
 Original cell was already a primitive cell.
 

 Routine SETGRP: Setting up the symmetry group for a 
 face centered cubic supercell.


 Subroutine GETGRP returns: Found  1 space group operations
 (whereof  1 operations were pure point group operations)
 out of a pool of 48 trial point group operations.


The static configuration has the point symmetry C_1 .


Analysis of symmetry for dynamics (positions and initial velocities):
=====================================================================
 Subroutine PRICEL returns:
 Original cell was already a primitive cell.
 

 Routine SETGRP: Setting up the symmetry group for a 
 face centered cubic supercell.


 Subroutine GETGRP returns: Found  1 space group operations
 (whereof  1 operations were pure point group operations)
 out of a pool of 48 trial point group operations.


The dynamic configuration has the point symmetry C_1 .


Analysis of structural, dynamic, and magnetic symmetry:
=====================================================================
 Subroutine PRICEL returns:
 Original cell was already a primitive cell.
 

 Routine SETGRP: Setting up the symmetry group for a 
 face centered cubic supercell.


 Subroutine GETGRP returns: Found  1 space group operations
 (whereof  1 operations were pure point group operations)
 out of a pool of 48 trial point group operations.


The magnetic configuration has the point symmetry C_1 .


 Subroutine INISYM returns: Found  1 space group operations
 (whereof  1 operations are pure point group operations),
 and found     1 'primitive' translations

 
 
 KPOINTS: k-point mesh                            

Automatic generation of k-mesh.
Space group operators:
 irot       det(A)        alpha          n_x          n_y          n_z        tau_x        tau_y        tau_z
    1     1.000000     0.000000     1.000000     0.000000     0.000000     0.000000     0.000000     0.000000
 
 Subroutine IBZKPT returns following result:
 ===========================================
 
 Found      8 irreducible k-points:
 
 Following reciprocal coordinates:
            Coordinates               Weight
  0.000000  0.000000  0.000000      1.000000
  0.500000  0.000000  0.000000      1.000000
  0.000000  0.500000  0.000000      1.000000
  0.500000  0.500000  0.000000      1.000000
  0.000000  0.000000  0.500000      1.000000
  0.500000  0.000000  0.500000      1.000000
  0.000000  0.500000  0.500000      1.000000
  0.500000  0.500000  0.500000      1.000000
 
 Following cartesian coordinates:
            Coordinates               Weight
  0.000000  0.000000  0.000000      1.000000
 -0.058867  0.058867  0.058867      1.000000
  0.058867 -0.058867  0.058867      1.000000
  0.000000  0.000000  0.117733      1.000000
  0.058867  0.058867 -0.058867      1.000000
  0.000000  0.117733  0.000000      1.000000
  0.117733  0.000000  0.000000      1.000000
  0.058867  0.058867  0.058867      1.000000
 


--------------------------------------------------------------------------------------------------------




 Dimension of arrays:
   k-points           NKPTS =      8   k-points in BZ     NKDIM =      8   number of bands    NBANDS=     48
   number of dos      NEDOS =    301   number of ions     NIONS =     16
   non local maximal  LDIM  =      5   non local SUM 2l+1 LMDIM =     13
   total plane-waves  NPLWV =  27000
   max r-space proj   IRMAX =   1992   max aug-charges    IRDMAX=   7686
   dimension x,y,z NGX =    30 NGY =   30 NGZ =   30
   dimension x,y,z NGXF=    60 NGYF=   60 NGZF=   60
   support grid    NGXF=    60 NGYF=   60 NGZF=   60
   ions per type =               9   7
 NGX,Y,Z   is equivalent  to a cutoff of   8.30,  8.30,  8.30 a.u.
 NGXF,Y,Z  is equivalent  to a cutoff of  16.61, 16.61, 16.61 a.u.


 I would recommend the setting:
   dimension x,y,z NGX =    29 NGY =   29 NGZ =   29
 SYSTEM =  unknown system                          
 POSCAR =  Mg9 O7                                  

 Startparameter for this run:
   NWRITE =      2    write-flag & timer
   PREC   = n         normal or accurate (medium, high low for compatibility)
   ISTART =      0    job   : 0-new  1-cont  2-samecut
   ICHARG =      2    charge: 1-file 2-atom 10-const
   ISPIN  =      2    spin polarized calculation?
   LNONCOLLINEAR =      F non collinear calculations
   LSORBIT =      F    spin-orbit coupling
   INIWAV =      1    electr: 0-lowe 1-rand  2-diag
   LASPH  =      T    aspherical Exc in radial PAW
   METAGGA=      F    non-selfconsistent MetaGGA calc.

 Electronic Relaxation 1
   ENCUT  =  400.0 eV  29.40 Ry    5.42 a.u.   9.79  9.79  9.79*2*pi/ulx,y,z
   ENINI  =  400.0     initial cutoff
   ENAUG  =  605.4 eV  augmentation charge cutoff
   NELM   =    100;   NELMIN=  4; NELMDL=  0     # of ELM steps 
   EDIFF  = 0.1E-05   stopping-criterion for ELM
   LREAL  =      T    real-space projection
   NLSPLINE    = F    spline interpolate recip. space projectors
   LCOMPAT=      F    compatible to vasp.4.4
   GGA_COMPAT  = T    GGA compatible to vasp.4.4-vasp.4.6
   LMAXPAW     = -100 max onsite density
   LMAXMIX     =    2 max onsite mixed and CHGCAR
   VOSKOWN=      0    Vosko Wilk Nusair interpolation
   ROPT   =   -0.00050  -0.00050
 Ionic relaxation
   EDIFFG = -.5E-01   stopping-criterion for IOM
   NSW    =     20    number of steps for IOM
   NBLOCK =      1;   KBLOCK =     20    inner block; outer block 
   IBRION =      2    ionic relax: 0-MD 1-quasi-New 2-CG
   NFREE  =      1    steps in history (QN), initial steepest desc. (CG)
   ISIF   =      2    stress and relaxation
   IWAVPR =     11    prediction:  0-non 1-charg 2-wave 3-comb
   ISYM   =      2    0-nonsym 1-usesym 2-fastsym
   LCORR  =      T    Harris-Foulkes like correction to forces

   POTIM  = 0.5000    time-step for ionic-motion
   TEIN   =    0.0    initial temperature
   TEBEG  =    0.0;   TEEND  =   0.0 temperature during run
   SMASS  =  -3.00    Nose mass-parameter (am)
   estimated Nose-frequenzy (Omega)   =  0.10E-29 period in steps =****** mass=  -0.824E-27a.u.
   SCALEE = 1.0000    scale energy and forces
   NPACO  =    256;   APACO  = 16.0  distance and # of slots for P.C.
   PSTRESS=    0.0 pullay stress

  Mass of Ions in am
   POMASS =  24.30 16.00
  Ionic Valenz
   ZVAL   =   2.00  6.00
  Atomic Wigner-Seitz radii
   RWIGS  =  -1.00 -1.00
  virtual crystal weights 
   VCA    =   1.00  1.00
   NELECT =      60.0000    total number of electrons
   NUPDOWN=      -1.0000    fix difference up-down

 DOS related values:
   EMIN   =  10.00;   EMAX   =-10.00  energy-range for DOS
   EFERMI =   0.00
   ISMEAR =     0;   SIGMA  =   0.05  broadening in eV -4-tet -1-fermi 0-gaus

 Electronic relaxation 2 (details)
   IALGO  =     38    algorithm
   LDIAG  =      T    sub-space diagonalisation (order eigenvalues)
   LSUBROT=      F    optimize rotation matrix (better conditioning)
   TURBO    =      0    0=normal 1=particle mesh
   IRESTART =      0    0=no restart 2=restart with 2 vectors
   NREBOOT  =      0    no. of reboots
   NMIN     =      0    reboot dimension
   EREF     =   0.00    reference energy to select bands
   IMIX   =      4    mixing-type and parameters
     AMIX     =   0.40;   BMIX     =  1.00
     AMIX_MAG =   1.60;   BMIX_MAG =  1.00
     AMIN     =   0.10
     WC   =   100.;   INIMIX=   1;  MIXPRE=   1;  MAXMIX= -45

 Intra band minimization:
   WEIMIN = 0.0010     energy-eigenvalue tresh-hold
   EBREAK =  0.52E-08  absolut break condition
   DEPER  =   0.30     relativ break condition  

   TIME   =   0.40     timestep for ELM

  volume/ion in A,a.u.               =       9.57        64.61
  Fermi-wavevector in a.u.,A,eV,Ry     =   1.197781  2.263477 19.519983  1.434678
  Thomas-Fermi vector in A             =   2.333687
 
 Write flags
   LWAVE  =      F    write WAVECAR
   LCHARG =      F    write CHGCAR
   LVTOT  =      F    write LOCPOT, total local potential
   LVHAR  =      F    write LOCPOT, Hartree potential only
   LELF   =      F    write electronic localiz. function (ELF)
   LORBIT =     12    0 simple, 1 ext, 2 COOP (PROOUT)


 Dipole corrections
   LMONO  =      F    monopole corrections only (constant potential shift)
   LDIPOL =      F    correct potential (dipole corrections)
   IDIPOL =      0    1-x, 2-y, 3-z, 4-all directions 
   EPSILON=  1.0000000 bulk dielectric constant

 Exchange correlation treatment:
   GGA     =    --    GGA type
   LEXCH   =     8    internal setting for exchange type
   VOSKOWN=      0    Vosko Wilk Nusair interpolation
   LHFCALC =     F    Hartree Fock is set to
   LHFONE  =     F    Hartree Fock one center treatment
   AEXX    =    0.0000 exact exchange contribution

 Linear response parameters
   LEPSILON=     F    determine dielectric tensor
   LRPA    =     F    only Hartree local field effects (RPA)
   LNABLA  =     F    use nabla operator in PAW spheres
   LVEL    =     F    velocity operator in full k-point grid
   LINTERFAST=   F  fast interpolation
   KINTER  =     0    interpolate to denser k-point grid
   CSHIFT  =0.1000    complex shift for real part using Kramers Kronig
   OMEGAMAX=  -1.0    maximum frequency
   DEG_THRESHOLD= 0.2000000E-02 threshold for treating states as degnerate
   RTIME   =    0.100 relaxation time in fs

 Orbital magnetization related:
   ORBITALMAG=     F  switch on orbital magnetization
   LCHIMAG   =     F  perturbation theory with respect to B field
   DQ        =  0.001000  dq finite difference perturbation B field



--------------------------------------------------------------------------------------------------------


 conjugate gradient relaxation of ions
 charge density and potential will be updated during run
 spin polarized calculation
 Variant of blocked Davidson
 Davidson routine will perform the subspace rotation
 perform sub-space diagonalisation
    after iterative eigenvector-optimisation
 modified Broyden-mixing scheme, WC =      100.0
 initial mixing is a Kerker type mixing with AMIX =  0.4000 and BMIX =      1.0000
 Hartree-type preconditioning will be used
 using additional bands           18
 real space projection scheme for non local part
 use partial core corrections
 calculate Harris-corrections to forces 
   (improved forces if not selfconsistent)
 use gradient corrections 
 use of overlap-Matrix (Vanderbilt PP)
 Gauss-broadening in eV      SIGMA  =   0.05


--------------------------------------------------------------------------------------------------------


  energy-cutoff  :      400.00
  volume of cell :      153.19
      direct lattice vectors                 reciprocal lattice vectors
     0.000000000  4.246893000  4.246893000    -0.117733129  0.117733129  0.117733129
     4.246893000  0.000000000  4.246893000     0.117733129 -0.117733129  0.117733129
     4.246893000  4.246893000  0.000000000     0.117733129  0.117733129 -0.117733129

  length of vectors
     6.006013679  6.006013679  6.006013679     0.203919761  0.203919761  0.203919761


 
 k-points in units of 2pi/SCALE and weight: k-point mesh                            
   0.00000000  0.00000000  0.00000000       0.125
  -0.05886656  0.05886656  0.05886656       0.125
   0.05886656 -0.05886656  0.05886656       0.125
   0.00000000  0.00000000  0.11773313       0.125
   0.05886656  0.05886656 -0.05886656       0.125
   0.00000000  0.11773313  0.00000000       0.125
   0.11773313  0.00000000  0.00000000       0.125
   0.05886656  0.05886656  0.05886656       0.125
 
 k-points in reciprocal lattice and weights: k-point mesh                            
   0.00000000  0.00000000  0.00000000       0.125
   0.50000000  0.00000000  0.00000000       0.125
   0.00000000  0.50000000  0.00000000       0.125
   0.50000000  0.50000000  0.00000000       0.125
   0.00000000  0.00000000  0.50000000       0.125
   0.50000000  0.00000000  0.50000000       0.125
   0.00000000  0.50000000  0.50000000       0.125
   0.50000000  0.50000000  0.50000000       0.125
 
 position of ions in fractional coordinates (direct lattice) 
   0.25259584  0.25458086  0.24815957
   0.99782043  0.00263697  0.00020854
   0.98120224  0.98569800  0.51765859
   0.97895327  0.52063092  0.98285638
   0.97991186  0.52127667  0.51930738
   0.51634475  0.98341636  0.98142088
   0.51853636  0.98271562  0.51937202
   0.51883131  0.52344904  0.97860392
   0.49775446  0.50273831  0.50032643
   0.24827540  0.25245166  0.75032927
   0.24860354  0.75233893  0.24935937
   0.24844800  0.75275797  0.75052223
   0.74657310  0.25348198  0.24973766
   0.74721733  0.25368323  0.75076773
   0.74784475  0.75288524  0.25066257
   0.75019837  0.75338122  0.74934145
 
 position of ions in cartesian coordinates  (Angst):
   2.13508484  2.12665466  2.15392518
   0.01208458  4.23852223  4.24883556
   6.38459457  6.36550154  8.35321485
   6.38514967  8.33159567  6.36857358
   4.41924912  6.36702368  6.37538708
   8.34445355  6.36085041  6.36932499
   6.37920550  4.40788583  6.37565650
   6.37905820  6.35944719  4.42645313
   4.25990861  4.23874273  4.24898572
   4.25870332  4.24096719  2.12653423
   4.25410548  2.11479520  4.25089557
   6.38427018  4.24251968  4.25201464
   2.13711999  4.23122521  4.24712695
   4.26579578  6.36178227  4.25071759
   4.26196018  4.24055372  6.37343969
   6.38190241  6.36838516  6.38554163
 


--------------------------------------------------------------------------------------------------------


 k-point  1 :   0.0000 0.0000 0.0000  plane waves:    2733
 k-point  2 :   0.5000 0.0000 0.0000  plane waves:    2788
 k-point  3 :   0.0000 0.5000 0.0000  plane waves:    2788
 k-point  4 :   0.5000 0.5000 0.0000  plane waves:    2778
 k-point  5 :   0.0000 0.0000 0.5000  plane waves:    2788
 k-point  6 :   0.5000 0.0000 0.5000  plane waves:    2778
 k-point  7 :   0.0000 0.5000 0.5000  plane waves:    2778
 k-point  8 :   0.5000 0.5000 0.5000  plane waves:    2788

 maximum and minimum number of plane-waves per node :       715      668

 maximum number of plane-waves:      2788
 maximum index in each direction: 
   IXMAX=    9   IYMAX=    9   IZMAX=    9
   IXMIN=  -10   IYMIN=  -10   IZMIN=  -10

 WARNING: aliasing errors must be expected set NGX to  40 to avoid them
 WARNING: aliasing errors must be expected set NGY to  40 to avoid them
 WARNING: aliasing errors must be expected set NGZ to  40 to avoid them
 aliasing errors are usually negligible using standard VASP settings
 and one can safely disregard these warnings

 real space projection operators:
  total allocation   :       2273.41 KBytes
  max/ min on nodes  :        610.42        526.43


 parallel 3D FFT for wavefunctions:
    minimum data exchange during FFTs selected (reduces bandwidth)
 parallel 3D FFT for charge:
    minimum data exchange during FFTs selected (reduces bandwidth)


 total amount of memory used by VASP on root node    36160. kBytes
========================================================================

   base      :      30000. kBytes
   nonlr-proj:       1275. kBytes
   fftplans  :        708. kBytes
   grid      :       1766. kBytes
   one-center:         64. kBytes
   wavefun   :       2347. kBytes
 
     INWAV:  cpu time    0.0000: real time    0.0004
 Broyden mixing: mesh for mixing (old mesh)
   NGX = 19   NGY = 19   NGZ = 19
  (NGX  = 60   NGY  = 60   NGZ  = 60)
  gives a total of   6859 points

 initial charge density was supplied:
 charge density of overlapping atoms calculated
 number of electron      60.0000000 magnetization      16.0000000
 keeping initial charge density in first step


--------------------------------------------------------------------------------------------------------


 Maximum index for non-local projection operator          518
 Maximum index for augmentation-charges          549 (set IRDMAX)


--------------------------------------------------------------------------------------------------------


 First call to EWALD:  gamma=   0.331
 Maximum number of real-space cells 3x 3x 3
 Maximum number of reciprocal cells 3x 3x 3

 FEWALD executed in parallel
    FEWALD:  cpu time    0.0000: real time    0.0017


----------------------------------------- Iteration    1(   1)  ---------------------------------------


    POTLOK:  cpu time    0.0200: real time    0.0210
    SETDIJ:  cpu time    0.6800: real time    0.6811
     EDDAV:  cpu time    0.5280: real time    0.5310
       DOS:  cpu time    0.0000: real time    0.0008
    --------------------------------------------
      LOOP:  cpu time    1.2320: real time    1.2370

 eigenvalue-minimisations  :  1600
 total energy-change (2. order) : 0.2471830E+03  (-0.2520515E+04)
 number of electron      60.0000000 magnetization      16.0000000
 augmentation part       60.0000000 magnetization      16.0000000

 Free energy of the ion-electron system (eV)
  ---------------------------------------------------
  alpha Z        PSCENC =       142.81396753
  Ewald energy   TEWEN  =     -2478.62074761
  -Hartree energ DENC   =      -951.51444330
  -exchange      EXHF   =         0.00000000
  -V(xc)+E(xc)   XCENC  =      -236.46498365
  PAW double counting   =      3011.45132117    -2557.24446474
  entropy T*S    EENTRO =        -0.00004138
  eigenvalues    EBANDS =        83.58906771
  atomic energy  EATOM  =      3233.17333345
  Solvation  Ediel_sol  =         0.00000000
  ---------------------------------------------------
  free energy    TOTEN  =       247.18300919 eV

  energy without entropy =      247.18305057  energy(sigma->0) =      247.18302988


--------------------------------------------------------------------------------------------------------




----------------------------------------- Iteration    1(   2)  ---------------------------------------


     EDDAV:  cpu time    0.6000: real time    0.5985
       DOS:  cpu time    0.0000: real time    0.0005
    --------------------------------------------
      LOOP:  cpu time    0.6000: real time    0.6033

 eigenvalue-minimisations  :  1928
 total energy-change (2. order) :-0.3087061E+03  (-0.2978917E+03)
 number of electron      60.0000000 magnetization      16.0000000
 augmentation part       60.0000000 magnetization      16.0000000

 Free energy of the ion-electron system (eV)
  ---------------------------------------------------
  alpha Z        PSCENC =       142.81396753
  Ewald energy   TEWEN  =     -2478.62074761
  -Hartree energ DENC   =      -951.51444330
  -exchange      EXHF   =         0.00000000
  -V(xc)+E(xc)   XCENC  =      -236.46498365
  PAW double counting   =      3011.45132117    -2557.24446474
  entropy T*S    EENTRO =        -0.00641832
  eigenvalues    EBANDS =      -225.11069188
  atomic energy  EATOM  =      3233.17333345
  Solvation  Ediel_sol  =         0.00000000
  ---------------------------------------------------
  free energy    TOTEN  =       -61.52312735 eV

  energy without entropy =      -61.51670903  energy(sigma->0) =      -61.51991819


--------------------------------------------------------------------------------------------------------




----------------------------------------- Iteration    1(   3)  ---------------------------------------


     EDDAV:  cpu time    0.6040: real time    0.6048
       DOS:  cpu time    0.0000: real time    0.0006
    --------------------------------------------
      LOOP:  cpu time    0.6040: real time    0.6084

 eigenvalue-minimisations  :  1904
 total energy-change (2. order) :-0.1802294E+02  (-0.1788682E+02)
 number of electron      60.0000000 magnetization      16.0000000
 augmentation part       60.0000000 magnetization      16.0000000

 Free energy of the ion-electron system (eV)
  ---------------------------------------------------
  alpha Z        PSCENC =       142.81396753
  Ewald energy   TEWEN  =     -2478.62074761
  -Hartree energ DENC   =      -951.51444330
  -exchange      EXHF   =         0.00000000
  -V(xc)+E(xc)   XCENC  =      -236.46498365
  PAW double counting   =      3011.45132117    -2557.24446474
  entropy T*S    EENTRO =        -0.00773994
  eigenvalues    EBANDS =      -243.13231014
  atomic energy  EATOM  =      3233.17333345
  Solvation  Ediel_sol  =         0.00000000
  ---------------------------------------------------
  free energy    TOTEN  =       -79.54606723 eV

  energy without entropy =      -79.53832729  energy(sigma->0) =      -79.54219726


--------------------------------------------------------------------------------------------------------




----------------------------------------- Iteration    1(   4)  ---------------------------------------


     EDDAV:  cpu time    0.5640: real time    0.5640
       DOS:  cpu time    0.0000: real time    0.0005
    --------------------------------------------
      LOOP:  cpu time    0.5680: real time    0.5678

 eigenvalue-minimisations  :  1792
 total energy-change (2. order) :-0.1147261E+00  (-0.1145891E+00)
 number of electron      60.0000000 magnetization      16.0000000
 augmentation part       60.0000000 magnetization      16.0000000

 Free energy of the ion-electron system (eV)
  ---------------------------------------------------
  alpha Z        PSCENC =       142.81396753
  Ewald energy   TEWEN  =     -2478.62074761
  -Hartree energ DENC   =      -951.51444330
  -exchange      EXHF   =         0.00000000
  -V(xc)+E(xc)   XCENC  =      -236.46498365
  PAW double counting   =      3011.45132117    -2557.24446474
  entropy T*S    EENTRO =        -0.00787816
  eigenvalues    EBANDS =      -243.24689804
  atomic energy  EATOM  =      3233.17333345
  Solvation  Ediel_sol  =         0.00000000
  ---------------------------------------------------
  free energy    TOTEN  =       -79.66079334 eV

  energy without entropy =      -79.65291519  energy(sigma->0) =      -79.65685426


--------------------------------------------------------------------------------------------------------




----------------------------------------- Iteration    1(   5)  ---------------------------------------


     EDDAV:  cpu time    0.5720: real time    0.5745
       DOS:  cpu time    0.0000: real time    0.0006
    CHARGE:  cpu time    0.0240: real time    0.0211
    MIXING:  cpu time    0.0000: real time    0.0004
    --------------------------------------------
      LOOP:  cpu time    0.5960: real time    0.5997

 eigenvalue-minimisations  :  1832
 total energy-change (2. order) :-0.6201344E-03  (-0.6200793E-03)
 number of electron      59.9999863 magnetization       1.5995862
 augmentation part        5.5530894 magnetization       0.1677974

 Broyden mixing:
  rms(total) = 0.26637E+01    rms(broyden)= 0.26631E+01
  rms(prec ) = 0.44470E+01
  weight for this iteration     100.00

 Free energy of the ion-electron system (eV)
  ---------------------------------------------------
  alpha Z        PSCENC =       142.81396753
  Ewald energy   TEWEN  =     -2478.62074761
  -Hartree energ DENC   =      -951.51444330
  -exchange      EXHF   =         0.00000000
  -V(xc)+E(xc)   XCENC  =      -236.46498365
  PAW double counting   =      3011.45132117    -2557.24446474
  entropy T*S    EENTRO =        -0.00788286
  eigenvalues    EBANDS =      -243.24751347
  atomic energy  EATOM  =      3233.17333345
  Solvation  Ediel_sol  =         0.00000000
  ---------------------------------------------------
  free energy    TOTEN  =       -79.66141347 eV

  energy without entropy =      -79.65353061  energy(sigma->0) =      -79.65747204


--------------------------------------------------------------------------------------------------------




----------------------------------------- Iteration    1(   6)  ---------------------------------------


    POTLOK:  cpu time    0.0200: real time    0.0207
    SETDIJ:  cpu time    0.6840: real time    0.6830
     EDDAV:  cpu time    0.5600: real time    0.5612
       DOS:  cpu time    0.0000: real time    0.0006
    CHARGE:  cpu time    0.0200: real time    0.0212
    MIXING:  cpu time    0.0040: real time    0.0006
    --------------------------------------------
      LOOP:  cpu time    1.2880: real time    1.2903

 eigenvalue-minimisations  :  1752
 total energy-change (2. order) : 0.4836741E+01  (-0.3891111E+01)
 number of electron      59.9999890 magnetization       0.3822241
 augmentation part        4.5394932 magnetization       0.0285219

 Broyden mixing:
  rms(total) = 0.73726E+00    rms(broyden)= 0.73562E+00
  rms(prec ) = 0.10646E+01
  weight for this iteration     100.00

 eigenvalues of (default mixing * dielectric matrix)
  average eigenvalue GAMMA=   0.8530
  0.8530

 Free energy of the ion-electron system (eV)
  ---------------------------------------------------
  alpha Z        PSCENC =       142.81396753
  Ewald energy   TEWEN  =     -2478.62074761
  -Hartree energ DENC   =     -1083.01157063
  -exchange      EXHF   =         0.00000000
  -V(xc)+E(xc)   XCENC  =      -230.06457120
  PAW double counting   =      3571.36083930    -3119.37598984
  entropy T*S    EENTRO =        -0.00997466
  eigenvalues    EBANDS =      -111.08995894
  atomic energy  EATOM  =      3233.17333345
  Solvation  Ediel_sol  =         0.00000000
  ---------------------------------------------------
  free energy    TOTEN  =       -74.82467259 eV

  energy without entropy =      -74.81469793  energy(sigma->0) =      -74.81968526


--------------------------------------------------------------------------------------------------------




----------------------------------------- Iteration    1(   7)  ---------------------------------------


    POTLOK:  cpu time    0.0200: real time    0.0214
    SETDIJ:  cpu time    0.6840: real time    0.6833
     EDDAV:  cpu time    0.5200: real time    0.5214
       DOS:  cpu time    0.0000: real time    0.0005
    CHARGE:  cpu time    0.0240: real time    0.0211
    MIXING:  cpu time    0.0000: real time    0.0006
    --------------------------------------------
      LOOP:  cpu time    1.2480: real time    1.2517

 eigenvalue-minimisations  :  1616
 total energy-change (2. order) :-0.2122983E+00  (-0.1371247E+00)
 number of electron      59.9999889 magnetization      -0.2410411
 augmentation part        4.5603588 magnetization      -0.2824614

 Broyden mixing:
  rms(total) = 0.37023E+00    rms(broyden)= 0.37017E+00
  rms(prec ) = 0.57118E+00
  weight for this iteration     100.00

 eigenvalues of (default mixing * dielectric matrix)
  average eigenvalue GAMMA=   1.0576
  0.9332  1.1820

 Free energy of the ion-electron system (eV)
  ---------------------------------------------------
  alpha Z        PSCENC =       142.81396753
  Ewald energy   TEWEN  =     -2478.62074761
  -Hartree energ DENC   =     -1076.36891281
  -exchange      EXHF   =         0.00000000
  -V(xc)+E(xc)   XCENC  =      -230.29614127
  PAW double counting   =      3744.62744874    -3292.32885647
  entropy T*S    EENTRO =        -0.00127320
  eigenvalues    EBANDS =      -118.03578924
  atomic energy  EATOM  =      3233.17333345
  Solvation  Ediel_sol  =         0.00000000
  ---------------------------------------------------
  free energy    TOTEN  =       -75.03697088 eV

  energy without entropy =      -75.03569767  energy(sigma->0) =      -75.03633427


--------------------------------------------------------------------------------------------------------




----------------------------------------- Iteration    1(   8)  ---------------------------------------


    POTLOK:  cpu time    0.0200: real time    0.0208
    SETDIJ:  cpu time    0.6840: real time    0.6825
     EDDAV:  cpu time    0.5680: real time    0.5677
       DOS:  cpu time    0.0000: real time    0.0005
    CHARGE:  cpu time    0.0200: real time    0.0208
    MIXING:  cpu time    0.0000: real time    0.0006
    --------------------------------------------
      LOOP:  cpu time    1.2920: real time    1.2963

 eigenvalue-minimisations  :  1800
 total energy-change (2. order) : 0.8458348E-01  (-0.2343278E-01)
 number of electron      59.9999888 magnetization      -0.1003201
 augmentation part        4.5901141 magnetization      -0.0972188

 Broyden mixing:
  rms(total) = 0.12846E+00    rms(broyden)= 0.12843E+00
  rms(prec ) = 0.20383E+00
  weight for this iteration     100.00

 eigenvalues of (default mixing * dielectric matrix)
  average eigenvalue GAMMA=   1.1910
  1.8351  0.9628  0.7749

 Free energy of the ion-electron system (eV)
  ---------------------------------------------------
  alpha Z        PSCENC =       142.81396753
  Ewald energy   TEWEN  =     -2478.62074761
  -Hartree energ DENC   =     -1079.01722784
  -exchange      EXHF   =         0.00000000
  -V(xc)+E(xc)   XCENC  =      -229.60661355
  PAW double counting   =      3987.69844749    -3535.12236342
  entropy T*S    EENTRO =        -0.00017636
  eigenvalues    EBANDS =      -116.27100709
  atomic energy  EATOM  =      3233.17333345
  Solvation  Ediel_sol  =         0.00000000
  ---------------------------------------------------
  free energy    TOTEN  =       -74.95238740 eV

  energy without entropy =      -74.95221103  energy(sigma->0) =      -74.95229921


--------------------------------------------------------------------------------------------------------




----------------------------------------- Iteration    1(   9)  ---------------------------------------


    POTLOK:  cpu time    0.0200: real time    0.0210
    SETDIJ:  cpu time    0.6840: real time    0.6825
     EDDAV:  cpu time    0.5560: real time    0.5559
       DOS:  cpu time    0.0000: real time    0.0005
    CHARGE:  cpu time    0.0200: real time    0.0208
    MIXING:  cpu time    0.0040: real time    0.0006
    --------------------------------------------
      LOOP:  cpu time    1.2840: real time    1.2848

 eigenvalue-minimisations  :  1760
 total energy-change (2. order) : 0.3097367E-02  (-0.3636085E-02)
 number of electron      59.9999889 magnetization       0.0009408
 augmentation part        4.5751879 magnetization       0.0062295

 Broyden mixing:
  rms(total) = 0.45642E-01    rms(broyden)= 0.45633E-01
  rms(prec ) = 0.58438E-01
  weight for this iteration     100.00

 eigenvalues of (default mixing * dielectric matrix)
  average eigenvalue GAMMA=   1.2516
  2.3000  1.1017  0.9354  0.6693

 Free energy of the ion-electron system (eV)
  ---------------------------------------------------
  alpha Z        PSCENC =       142.81396753
  Ewald energy   TEWEN  =     -2478.62074761
  -Hartree energ DENC   =     -1083.22505408
  -exchange      EXHF   =         0.00000000
  -V(xc)+E(xc)   XCENC  =      -229.11138094
  PAW double counting   =      4071.90253407    -3619.29542988
  entropy T*S    EENTRO =        -0.00000540
  eigenvalues    EBANDS =      -112.58650717
  atomic energy  EATOM  =      3233.17333345
  Solvation  Ediel_sol  =         0.00000000
  ---------------------------------------------------
  free energy    TOTEN  =       -74.94929003 eV

  energy without entropy =      -74.94928463  energy(sigma->0) =      -74.94928733


--------------------------------------------------------------------------------------------------------




----------------------------------------- Iteration    1(  10)  ---------------------------------------


    POTLOK:  cpu time    0.0200: real time    0.0203
    SETDIJ:  cpu time    0.6800: real time    0.6826
     EDDAV:  cpu time    0.5840: real time    0.5846
       DOS:  cpu time    0.0040: real time    0.0004
    CHARGE:  cpu time    0.0200: real time    0.0208
    MIXING:  cpu time    0.0000: real time    0.0007
    --------------------------------------------
      LOOP:  cpu time    1.3080: real time    1.3128

 eigenvalue-minimisations  :  1880
 total energy-change (2. order) :-0.1907484E-02  (-0.5510824E-03)
 number of electron      59.9999889 magnetization      -0.0032636
 augmentation part        4.5702144 magnetization      -0.0010724

 Broyden mixing:
  rms(total) = 0.15825E-01    rms(broyden)= 0.15819E-01
  rms(prec ) = 0.22238E-01
  weight for this iteration     100.00

 eigenvalues of (default mixing * dielectric matrix)
  average eigenvalue GAMMA=   1.2024
  2.4983  1.1002  0.9946  0.7615  0.6574

 Free energy of the ion-electron system (eV)
  ---------------------------------------------------
  alpha Z        PSCENC =       142.81396753
  Ewald energy   TEWEN  =     -2478.62074761
  -Hartree energ DENC   =     -1084.21534560
  -exchange      EXHF   =         0.00000000
  -V(xc)+E(xc)   XCENC  =      -228.98079309
  PAW double counting   =      4080.99829098    -3628.39170189
  entropy T*S    EENTRO =        -0.00000113
  eigenvalues    EBANDS =      -111.72820015
  atomic energy  EATOM  =      3233.17333345
  Solvation  Ediel_sol  =         0.00000000
  ---------------------------------------------------
  free energy    TOTEN  =       -74.95119751 eV

  energy without entropy =      -74.95119638  energy(sigma->0) =      -74.95119695


--------------------------------------------------------------------------------------------------------




----------------------------------------- Iteration    1(  11)  ---------------------------------------


    POTLOK:  cpu time    0.0200: real time    0.0203
    SETDIJ:  cpu time    0.6840: real time    0.6833
     EDDAV:  cpu time    0.5680: real time    0.5687
       DOS:  cpu time    0.0000: real time    0.0004
    CHARGE:  cpu time    0.0200: real time    0.0208
    MIXING:  cpu time    0.0040: real time    0.0007
    --------------------------------------------
      LOOP:  cpu time    1.2960: real time    1.2975

 eigenvalue-minimisations  :  1800
 total energy-change (2. order) :-0.1270063E-03  (-0.5404065E-04)
 number of electron      59.9999889 magnetization      -0.0037563
 augmentation part        4.5719730 magnetization      -0.0035701

 Broyden mixing:
  rms(total) = 0.83427E-02    rms(broyden)= 0.83404E-02
  rms(prec ) = 0.11244E-01
  weight for this iteration     100.00

 eigenvalues of (default mixing * dielectric matrix)
  average eigenvalue GAMMA=   1.2462
  2.5365  1.3873  1.1680  0.9519  0.8003  0.6332

 Free energy of the ion-electron system (eV)
  ---------------------------------------------------
  alpha Z        PSCENC =       142.81396753
  Ewald energy   TEWEN  =     -2478.62074761
  -Hartree energ DENC   =     -1084.04775873
  -exchange      EXHF   =         0.00000000
  -V(xc)+E(xc)   XCENC  =      -228.97490843
  PAW double counting   =      4076.52697293    -3623.91877411
  entropy T*S    EENTRO =        -0.00000107
  eigenvalues    EBANDS =      -111.90340849
  atomic energy  EATOM  =      3233.17333345
  Solvation  Ediel_sol  =         0.00000000
  ---------------------------------------------------
  free energy    TOTEN  =       -74.95132452 eV

  energy without entropy =      -74.95132345  energy(sigma->0) =      -74.95132399


--------------------------------------------------------------------------------------------------------




----------------------------------------- Iteration    1(  12)  ---------------------------------------


    POTLOK:  cpu time    0.0200: real time    0.0205
    SETDIJ:  cpu time    0.6840: real time    0.6844
     EDDAV:  cpu time    0.5760: real time    0.5747
       DOS:  cpu time    0.0000: real time    0.0004
    CHARGE:  cpu time    0.0200: real time    0.0208
    MIXING:  cpu time    0.0000: real time    0.0007
    --------------------------------------------
      LOOP:  cpu time    1.3000: real time    1.3050

 eigenvalue-minimisations  :  1816
 total energy-change (2. order) :-0.1073888E-03  (-0.1587808E-04)
 number of electron      59.9999889 magnetization       0.0000579
 augmentation part        4.5722225 magnetization      -0.0000934

 Broyden mixing:
  rms(total) = 0.39304E-02    rms(broyden)= 0.39289E-02
  rms(prec ) = 0.56615E-02
  weight for this iteration     100.00

 eigenvalues of (default mixing * dielectric matrix)
  average eigenvalue GAMMA=   1.2308
  2.5211  1.7830  1.0312  1.0312  0.8101  0.8101  0.6290

 Free energy of the ion-electron system (eV)
  ---------------------------------------------------
  alpha Z        PSCENC =       142.81396753
  Ewald energy   TEWEN  =     -2478.62074761
  -Hartree energ DENC   =     -1084.02027834
  -exchange      EXHF   =         0.00000000
  -V(xc)+E(xc)   XCENC  =      -228.96013767
  PAW double counting   =      4069.06004049    -3616.45581661
  entropy T*S    EENTRO =        -0.00000092
  eigenvalues    EBANDS =      -111.94179224
  atomic energy  EATOM  =      3233.17333345
  Solvation  Ediel_sol  =         0.00000000
  ---------------------------------------------------
  free energy    TOTEN  =       -74.95143191 eV

  energy without entropy =      -74.95143099  energy(sigma->0) =      -74.95143145


--------------------------------------------------------------------------------------------------------




----------------------------------------- Iteration    1(  13)  ---------------------------------------


    POTLOK:  cpu time    0.0200: real time    0.0202
    SETDIJ:  cpu time    0.6840: real time    0.6839
     EDDAV:  cpu time    0.6040: real time    0.6035
       DOS:  cpu time    0.0000: real time    0.0005
    CHARGE:  cpu time    0.0200: real time    0.0213
    MIXING:  cpu time    0.0040: real time    0.0008
    --------------------------------------------
      LOOP:  cpu time    1.3320: real time    1.3339

 eigenvalue-minimisations  :  1936
 total energy-change (2. order) :-0.3787948E-05  (-0.2899916E-05)
 number of electron      59.9999889 magnetization       0.0004363
 augmentation part        4.5718735 magnetization       0.0003057

 Broyden mixing:
  rms(total) = 0.14550E-02    rms(broyden)= 0.14547E-02
  rms(prec ) = 0.18182E-02
  weight for this iteration     100.00

 eigenvalues of (default mixing * dielectric matrix)
  average eigenvalue GAMMA=   1.3164
  2.7239  2.4944  1.0977  1.0977  0.8996  0.8996  0.6924  0.6259

 Free energy of the ion-electron system (eV)
  ---------------------------------------------------
  alpha Z        PSCENC =       142.81396753
  Ewald energy   TEWEN  =     -2478.62074761
  -Hartree energ DENC   =     -1084.05623269
  -exchange      EXHF   =         0.00000000
  -V(xc)+E(xc)   XCENC  =      -228.95382004
  PAW double counting   =      4066.16370853    -3613.56184644
  entropy T*S    EENTRO =        -0.00000085
  eigenvalues    EBANDS =      -111.90979756
  atomic energy  EATOM  =      3233.17333345
  Solvation  Ediel_sol  =         0.00000000
  ---------------------------------------------------
  free energy    TOTEN  =       -74.95143570 eV

  energy without entropy =      -74.95143485  energy(sigma->0) =      -74.95143527


--------------------------------------------------------------------------------------------------------




----------------------------------------- Iteration    1(  14)  ---------------------------------------


    POTLOK:  cpu time    0.0200: real time    0.0204
    SETDIJ:  cpu time    0.6840: real time    0.6842
     EDDAV:  cpu time    0.5760: real time    0.5751
       DOS:  cpu time    0.0000: real time    0.0005
    CHARGE:  cpu time    0.0200: real time    0.0209
    MIXING:  cpu time    0.0000: real time    0.0009
    --------------------------------------------
      LOOP:  cpu time    1.3000: real time    1.3051

 eigenvalue-minimisations  :  1808
 total energy-change (2. order) :-0.5187740E-05  (-0.1697782E-05)
 number of electron      59.9999889 magnetization       0.0002028
 augmentation part        4.5716883 magnetization       0.0002025

 Broyden mixing:
  rms(total) = 0.56530E-03    rms(broyden)= 0.56463E-03
  rms(prec ) = 0.96579E-03
  weight for this iteration     100.00

 eigenvalues of (default mixing * dielectric matrix)
  average eigenvalue GAMMA=   1.2434
  2.7760  2.4806  1.0983  1.0983  0.8594  0.8594  0.7293  0.6600  0.6291

 Free energy of the ion-electron system (eV)
  ---------------------------------------------------
  alpha Z        PSCENC =       142.81396753
  Ewald energy   TEWEN  =     -2478.62074761
  -Hartree energ DENC   =     -1084.07067475
  -exchange      EXHF   =         0.00000000
  -V(xc)+E(xc)   XCENC  =      -228.95098292
  PAW double counting   =      4064.55997312    -3611.95926688
  entropy T*S    EENTRO =        -0.00000083
  eigenvalues    EBANDS =      -111.89704200
  atomic energy  EATOM  =      3233.17333345
  Solvation  Ediel_sol  =         0.00000000
  ---------------------------------------------------
  free energy    TOTEN  =       -74.95144088 eV

  energy without entropy =      -74.95144006  energy(sigma->0) =      -74.95144047


--------------------------------------------------------------------------------------------------------




----------------------------------------- Iteration    1(  15)  ---------------------------------------


    POTLOK:  cpu time    0.0200: real time    0.0204
    SETDIJ:  cpu time    0.6840: real time    0.6829
     EDDAV:  cpu time    0.4240: real time    0.4224
       DOS:  cpu time    0.0000: real time    0.0004
    --------------------------------------------
      LOOP:  cpu time    1.1280: real time    1.1290

 eigenvalue-minimisations  :  1136
 total energy-change (2. order) : 0.3233290E-06  (-0.5106842E-07)
 number of electron      59.9999889 magnetization       0.0002028
 augmentation part        4.5716883 magnetization       0.0002025

 Free energy of the ion-electron system (eV)
  ---------------------------------------------------
  alpha Z        PSCENC =       142.81396753
  Ewald energy   TEWEN  =     -2478.62074761
  -Hartree energ DENC   =     -1084.06901522
  -exchange      EXHF   =         0.00000000
  -V(xc)+E(xc)   XCENC  =      -228.95112720
  PAW double counting   =      4064.61379390    -3612.01301025
  entropy T*S    EENTRO =        -0.00000083
  eigenvalues    EBANDS =      -111.89863432
  atomic energy  EATOM  =      3233.17333345
  Solvation  Ediel_sol  =         0.00000000
  ---------------------------------------------------
  free energy    TOTEN  =       -74.95144056 eV

  energy without entropy =      -74.95143973  energy(sigma->0) =      -74.95144014


--------------------------------------------------------------------------------------------------------




 average (electrostatic) potential at core
  the test charge radii are     1.0714  0.7215
  (the norm of the test charge is              1.0000)
       1 -34.3980       2 -34.7114       3 -34.9500       4 -34.9610       5 -34.9711
       6 -34.9751       7 -34.9844       8 -34.9989       9 -34.7124      10 -69.5062
      11 -69.5073      12 -69.5063      13 -69.5077      14 -69.5070      15 -69.5063
      16 -70.9700
 
 
 
 E-fermi :   8.7071     XC(G=0): -11.1230     alpha+bet :-13.4669


 spin component 1

 k-point     1 :       0.0000    0.0000    0.0000
  band No.  band energies     occupation 
      1     -14.8347      1.00000
      2     -13.2962      1.00000
      3     -12.5460      1.00000
      4     -12.5458      1.00000
      5     -12.5450      1.00000
      6     -12.2913      1.00000
      7     -12.2908      1.00000
      8      -1.8635      1.00000
      9      -1.8631      1.00000
     10      -1.8628      1.00000
     11      -1.0888      1.00000
     12      -0.2493      1.00000
     13      -0.2484      1.00000
     14      -0.2481      1.00000
     15       1.2306      1.00000
     16       1.2313      1.00000
     17       1.2319      1.00000
     18       1.9625      1.00000
     19       1.9629      1.00000
     20       1.9630      1.00000
     21       2.7592      1.00000
     22       2.7600      1.00000
     23       2.7607      1.00000
     24       2.7945      1.00000
     25       2.7948      1.00000
     26       2.9757      1.00000
     27       2.9784      1.00000
     28       2.9786      1.00000
     29       3.0201      1.00000
     30       8.5564      0.99999
     31      10.2964      0.00000
     32      10.2968      0.00000
     33      10.2985      0.00000
     34      10.4993      0.00000
     35      10.4997      0.00000
     36      10.4999      0.00000
     37      11.6950      0.00000
     38      11.6957      0.00000
     39      11.6958      0.00000
     40      11.8940      0.00000
     41      11.8950      0.00000
     42      12.6217      0.00000
     43      15.3597      0.00000
     44      15.3602      0.00000
     45      15.3607      0.00000
     46      15.5926      0.00000
     47      18.0351      0.00000
     48      18.0413      0.00000

 k-point     2 :       0.5000    0.0000    0.0000
  band No.  band energies     occupation 
      1     -14.7695      1.00000
      2     -13.0391      1.00000
      3     -12.9533      1.00000
      4     -12.4325      1.00000
      5     -12.4297      1.00000
      6     -12.4264      1.00000
      7     -12.4250      1.00000
      8      -1.4681      1.00000
      9      -1.4678      1.00000
     10      -0.8343      1.00000
     11      -0.5728      1.00000
     12      -0.4761      1.00000
     13       0.3364      1.00000
     14       0.3390      1.00000
     15       0.5167      1.00000
     16       0.7545      1.00000
     17       1.3270      1.00000
     18       1.3279      1.00000
     19       1.4664      1.00000
     20       1.4698      1.00000
     21       1.5758      1.00000
     22       1.5781      1.00000
     23       2.1617      1.00000
     24       2.5217      1.00000
     25       2.7466      1.00000
     26       2.7507      1.00000
     27       2.8651      1.00000
     28       2.8704      1.00000
     29       5.1740      1.00000
     30       7.3443      1.00000
     31       9.5111      0.00000
     32       9.5138      0.00000
     33      10.4184      0.00000
     34      11.0344      0.00000
     35      12.1766      0.00000
     36      12.1842      0.00000
     37      12.2835      0.00000
     38      12.2878      0.00000
     39      13.6720      0.00000
     40      13.8908      0.00000
     41      13.8913      0.00000
     42      13.9635      0.00000
     43      14.7918      0.00000
     44      14.8233      0.00000
     45      14.8241      0.00000
     46      14.9713      0.00000
     47      15.5554      0.00000
     48      15.9669      0.00000

 k-point     3 :       0.0000    0.5000    0.0000
  band No.  band energies     occupation 
      1     -14.7695      1.00000
      2     -13.0392      1.00000
      3     -12.9532      1.00000
      4     -12.4334      1.00000
      5     -12.4305      1.00000
      6     -12.4254      1.00000
      7     -12.4243      1.00000
      8      -1.4681      1.00000
      9      -1.4677      1.00000
     10      -0.8342      1.00000
     11      -0.5724      1.00000
     12      -0.4766      1.00000
     13       0.3365      1.00000
     14       0.3380      1.00000
     15       0.5170      1.00000
     16       0.7542      1.00000
     17       1.3271      1.00000
     18       1.3283      1.00000
     19       1.4674      1.00000
     20       1.4678      1.00000
     21       1.5769      1.00000
     22       1.5781      1.00000
     23       2.1622      1.00000
     24       2.5211      1.00000
     25       2.7486      1.00000
     26       2.7487      1.00000
     27       2.8673      1.00000
     28       2.8685      1.00000
     29       5.1743      1.00000
     30       7.3438      1.00000
     31       9.5118      0.00000
     32       9.5138      0.00000
     33      10.4179      0.00000
     34      11.0340      0.00000
     35      12.1795      0.00000
     36      12.1806      0.00000
     37      12.2850      0.00000
     38      12.2858      0.00000
     39      13.6731      0.00000
     40      13.8905      0.00000
     41      13.8908      0.00000
     42      13.9637      0.00000
     43      14.7974      0.00000
     44      14.8241      0.00000
     45      14.8262      0.00000
     46      14.9664      0.00000
     47      15.5552      0.00000
     48      15.9639      0.00000

 k-point     4 :       0.5000    0.5000    0.0000
  band No.  band energies     occupation 
      1     -14.7494      1.00000
      2     -13.0540      1.00000
      3     -12.6295      1.00000
      4     -12.6138      1.00000
      5     -12.6123      1.00000
      6     -12.6103      1.00000
      7     -12.2444      1.00000
      8      -1.1533      1.00000
      9      -1.1531      1.00000
     10      -0.8139      1.00000
     11      -0.6642      1.00000
     12      -0.0083      1.00000
     13       0.1644      1.00000
     14       0.4234      1.00000
     15       0.4236      1.00000
     16       1.1535      1.00000
     17       1.1540      1.00000
     18       1.2754      1.00000
     19       1.3387      1.00000
     20       1.3393      1.00000
     21       1.4717      1.00000
     22       1.5249      1.00000
     23       1.8122      1.00000
     24       1.8127      1.00000
     25       2.6575      1.00000
     26       2.6576      1.00000
     27       2.7332      1.00000
     28       2.7918      1.00000
     29       5.7873      1.00000
     30       7.4155      1.00000
     31       8.8704      0.00000
     32       8.8709      0.00000
     33      11.2394      0.00000
     34      11.9409      0.00000
     35      12.0301      0.00000
     36      12.9330      0.00000
     37      12.9331      0.00000
     38      13.2014      0.00000
     39      13.8377      0.00000
     40      13.9820      0.00000
     41      13.9832      0.00000
     42      14.0277      0.00000
     43      14.3642      0.00000
     44      14.3653      0.00000
     45      14.7784      0.00000
     46      14.8538      0.00000
     47      15.0377      0.00000
     48      16.2047      0.00000

 k-point     5 :       0.0000    0.0000    0.5000
  band No.  band energies     occupation 
      1     -14.7694      1.00000
      2     -13.0395      1.00000
      3     -12.9530      1.00000
      4     -12.4333      1.00000
      5     -12.4308      1.00000
      6     -12.4254      1.00000
      7     -12.4241      1.00000
      8      -1.4680      1.00000
      9      -1.4675      1.00000
     10      -0.8342      1.00000
     11      -0.5724      1.00000
     12      -0.4769      1.00000
     13       0.3365      1.00000
     14       0.3377      1.00000
     15       0.5171      1.00000
     16       0.7541      1.00000
     17       1.3263      1.00000
     18       1.3286      1.00000
     19       1.4669      1.00000
     20       1.4690      1.00000
     21       1.5767      1.00000
     22       1.5785      1.00000
     23       2.1624      1.00000
     24       2.5208      1.00000
     25       2.7463      1.00000
     26       2.7506      1.00000
     27       2.8654      1.00000
     28       2.8708      1.00000
     29       5.1744      1.00000
     30       7.3440      1.00000
     31       9.5110      0.00000
     32       9.5144      0.00000
     33      10.4181      0.00000
     34      11.0337      0.00000
     35      12.1768      0.00000
     36      12.1833      0.00000
     37      12.2835      0.00000
     38      12.2877      0.00000
     39      13.6732      0.00000
     40      13.8898      0.00000
     41      13.8915      0.00000
     42      13.9635      0.00000
     43      14.7966      0.00000
     44      14.8229      0.00000
     45      14.8278      0.00000
     46      14.9669      0.00000
     47      15.5550      0.00000
     48      15.9640      0.00000

 k-point     6 :       0.5000    0.0000    0.5000
  band No.  band energies     occupation 
      1     -14.7494      1.00000
      2     -13.0534      1.00000
      3     -12.6333      1.00000
      4     -12.6126      1.00000
      5     -12.6114      1.00000
      6     -12.6095      1.00000
      7     -12.2440      1.00000
      8      -1.1534      1.00000
      9      -1.1529      1.00000
     10      -0.8125      1.00000
     11      -0.6653      1.00000
     12      -0.0079      1.00000
     13       0.1645      1.00000
     14       0.4239      1.00000
     15       0.4241      1.00000
     16       1.1514      1.00000
     17       1.1526      1.00000
     18       1.2730      1.00000
     19       1.3396      1.00000
     20       1.3405      1.00000
     21       1.4710      1.00000
     22       1.5245      1.00000
     23       1.8122      1.00000
     24       1.8134      1.00000
     25       2.6577      1.00000
     26       2.6584      1.00000
     27       2.7344      1.00000
     28       2.7921      1.00000
     29       5.7882      1.00000
     30       7.4131      1.00000
     31       8.8708      0.00000
     32       8.8726      0.00000
     33      11.2388      0.00000
     34      11.9401      0.00000
     35      12.0298      0.00000
     36      12.9310      0.00000
     37      12.9335      0.00000
     38      13.2030      0.00000
     39      13.8386      0.00000
     40      13.9813      0.00000
     41      13.9822      0.00000
     42      14.0281      0.00000
     43      14.3646      0.00000
     44      14.3658      0.00000
     45      14.7864      0.00000
     46      14.8443      0.00000
     47      15.0382      0.00000
     48      16.2043      0.00000

 k-point     7 :       0.0000    0.5000    0.5000
  band No.  band energies     occupation 
      1     -14.7494      1.00000
      2     -13.0535      1.00000
      3     -12.6335      1.00000
      4     -12.6123      1.00000
      5     -12.6117      1.00000
      6     -12.6091      1.00000
      7     -12.2441      1.00000
      8      -1.1535      1.00000
      9      -1.1529      1.00000
     10      -0.8126      1.00000
     11      -0.6651      1.00000
     12      -0.0080      1.00000
     13       0.1646      1.00000
     14       0.4238      1.00000
     15       0.4240      1.00000
     16       1.1513      1.00000
     17       1.1537      1.00000
     18       1.2729      1.00000
     19       1.3394      1.00000
     20       1.3409      1.00000
     21       1.4713      1.00000
     22       1.5243      1.00000
     23       1.8117      1.00000
     24       1.8135      1.00000
     25       2.6578      1.00000
     26       2.6581      1.00000
     27       2.7339      1.00000
     28       2.7920      1.00000
     29       5.7883      1.00000
     30       7.4131      1.00000
     31       8.8710      0.00000
     32       8.8723      0.00000
     33      11.2391      0.00000
     34      11.9401      0.00000
     35      12.0298      0.00000
     36      12.9290      0.00000
     37      12.9331      0.00000
     38      13.2059      0.00000
     39      13.8378      0.00000
     40      13.9821      0.00000
     41      13.9828      0.00000
     42      14.0264      0.00000
     43      14.3641      0.00000
     44      14.3664      0.00000
     45      14.7911      0.00000
     46      14.8410      0.00000
     47      15.0378      0.00000
     48      16.2041      0.00000

 k-point     8 :       0.5000    0.5000    0.5000
  band No.  band energies     occupation 
      1     -14.7695      1.00000
      2     -13.0388      1.00000
      3     -12.9536      1.00000
      4     -12.4323      1.00000
      5     -12.4298      1.00000
      6     -12.4266      1.00000
      7     -12.4249      1.00000
      8      -1.4684      1.00000
      9      -1.4678      1.00000
     10      -0.8344      1.00000
     11      -0.5727      1.00000
     12      -0.4759      1.00000
     13       0.3371      1.00000
     14       0.3390      1.00000
     15       0.5166      1.00000
     16       0.7546      1.00000
     17       1.3273      1.00000
     18       1.3281      1.00000
     19       1.4672      1.00000
     20       1.4684      1.00000
     21       1.5746      1.00000
     22       1.5781      1.00000
     23       2.1613      1.00000
     24       2.5224      1.00000
     25       2.7470      1.00000
     26       2.7511      1.00000
     27       2.8654      1.00000
     28       2.8700      1.00000
     29       5.1738      1.00000
     30       7.3440      1.00000
     31       9.5119      0.00000
     32       9.5138      0.00000
     33      10.4177      0.00000
     34      11.0346      0.00000
     35      12.1764      0.00000
     36      12.1842      0.00000
     37      12.2830      0.00000
     38      12.2873      0.00000
     39      13.6720      0.00000
     40      13.8902      0.00000
     41      13.8919      0.00000
     42      13.9639      0.00000
     43      14.7931      0.00000
     44      14.8219      0.00000
     45      14.8253      0.00000
     46      14.9694      0.00000
     47      15.5557      0.00000
     48      15.9665      0.00000

 spin component 2

 k-point     1 :       0.0000    0.0000    0.0000
  band No.  band energies     occupation 
      1     -14.8347      1.00000
      2     -13.2961      1.00000
      3     -12.5459      1.00000
      4     -12.5457      1.00000
      5     -12.5449      1.00000
      6     -12.2912      1.00000
      7     -12.2907      1.00000
      8      -1.8635      1.00000
      9      -1.8631      1.00000
     10      -1.8628      1.00000
     11      -1.0888      1.00000
     12      -0.2492      1.00000
     13      -0.2484      1.00000
     14      -0.2480      1.00000
     15       1.2306      1.00000
     16       1.2313      1.00000
     17       1.2319      1.00000
     18       1.9626      1.00000
     19       1.9629      1.00000
     20       1.9631      1.00000
     21       2.7593      1.00000
     22       2.7600      1.00000
     23       2.7608      1.00000
     24       2.7945      1.00000
     25       2.7948      1.00000
     26       2.9758      1.00000
     27       2.9784      1.00000
     28       2.9787      1.00000
     29       3.0202      1.00000
     30       8.5564      0.99999
     31      10.2965      0.00000
     32      10.2968      0.00000
     33      10.2986      0.00000
     34      10.4993      0.00000
     35      10.4997      0.00000
     36      10.4998      0.00000
     37      11.6950      0.00000
     38      11.6957      0.00000
     39      11.6958      0.00000
     40      11.8940      0.00000
     41      11.8950      0.00000
     42      12.6217      0.00000
     43      15.3597      0.00000
     44      15.3602      0.00000
     45      15.3607      0.00000
     46      15.5926      0.00000
     47      18.0351      0.00000
     48      18.0413      0.00000

 k-point     2 :       0.5000    0.0000    0.0000
  band No.  band energies     occupation 
      1     -14.7694      1.00000
      2     -13.0391      1.00000
      3     -12.9533      1.00000
      4     -12.4324      1.00000
      5     -12.4296      1.00000
      6     -12.4264      1.00000
      7     -12.4250      1.00000
      8      -1.4681      1.00000
      9      -1.4678      1.00000
     10      -0.8343      1.00000
     11      -0.5728      1.00000
     12      -0.4761      1.00000
     13       0.3364      1.00000
     14       0.3391      1.00000
     15       0.5167      1.00000
     16       0.7546      1.00000
     17       1.3270      1.00000
     18       1.3280      1.00000
     19       1.4665      1.00000
     20       1.4698      1.00000
     21       1.5758      1.00000
     22       1.5782      1.00000
     23       2.1617      1.00000
     24       2.5218      1.00000
     25       2.7467      1.00000
     26       2.7508      1.00000
     27       2.8651      1.00000
     28       2.8705      1.00000
     29       5.1741      1.00000
     30       7.3444      1.00000
     31       9.5112      0.00000
     32       9.5139      0.00000
     33      10.4184      0.00000
     34      11.0343      0.00000
     35      12.1766      0.00000
     36      12.1842      0.00000
     37      12.2835      0.00000
     38      12.2878      0.00000
     39      13.6720      0.00000
     40      13.8908      0.00000
     41      13.8914      0.00000
     42      13.9635      0.00000
     43      14.7917      0.00000
     44      14.8233      0.00000
     45      14.8241      0.00000
     46      14.9713      0.00000
     47      15.5553      0.00000
     48      15.9669      0.00000

 k-point     3 :       0.0000    0.5000    0.0000
  band No.  band energies     occupation 
      1     -14.7694      1.00000
      2     -13.0392      1.00000
      3     -12.9532      1.00000
      4     -12.4333      1.00000
      5     -12.4305      1.00000
      6     -12.4254      1.00000
      7     -12.4242      1.00000
      8      -1.4681      1.00000
      9      -1.4677      1.00000
     10      -0.8341      1.00000
     11      -0.5724      1.00000
     12      -0.4766      1.00000
     13       0.3366      1.00000
     14       0.3381      1.00000
     15       0.5170      1.00000
     16       0.7542      1.00000
     17       1.3271      1.00000
     18       1.3284      1.00000
     19       1.4674      1.00000
     20       1.4678      1.00000
     21       1.5770      1.00000
     22       1.5781      1.00000
     23       2.1622      1.00000
     24       2.5212      1.00000
     25       2.7486      1.00000
     26       2.7488      1.00000
     27       2.8674      1.00000
     28       2.8686      1.00000
     29       5.1744      1.00000
     30       7.3439      1.00000
     31       9.5119      0.00000
     32       9.5139      0.00000
     33      10.4179      0.00000
     34      11.0340      0.00000
     35      12.1795      0.00000
     36      12.1806      0.00000
     37      12.2850      0.00000
     38      12.2858      0.00000
     39      13.6731      0.00000
     40      13.8905      0.00000
     41      13.8909      0.00000
     42      13.9637      0.00000
     43      14.7974      0.00000
     44      14.8242      0.00000
     45      14.8263      0.00000
     46      14.9664      0.00000
     47      15.5551      0.00000
     48      15.9640      0.00000

 k-point     4 :       0.5000    0.5000    0.0000
  band No.  band energies     occupation 
      1     -14.7494      1.00000
      2     -13.0540      1.00000
      3     -12.6294      1.00000
      4     -12.6137      1.00000
      5     -12.6122      1.00000
      6     -12.6102      1.00000
      7     -12.2444      1.00000
      8      -1.1533      1.00000
      9      -1.1531      1.00000
     10      -0.8139      1.00000
     11      -0.6642      1.00000
     12      -0.0083      1.00000
     13       0.1645      1.00000
     14       0.4235      1.00000
     15       0.4236      1.00000
     16       1.1535      1.00000
     17       1.1541      1.00000
     18       1.2755      1.00000
     19       1.3388      1.00000
     20       1.3394      1.00000
     21       1.4717      1.00000
     22       1.5249      1.00000
     23       1.8123      1.00000
     24       1.8127      1.00000
     25       2.6576      1.00000
     26       2.6576      1.00000
     27       2.7332      1.00000
     28       2.7918      1.00000
     29       5.7874      1.00000
     30       7.4156      1.00000
     31       8.8705      0.00000
     32       8.8710      0.00000
     33      11.2394      0.00000
     34      11.9409      0.00000
     35      12.0301      0.00000
     36      12.9330      0.00000
     37      12.9331      0.00000
     38      13.2015      0.00000
     39      13.8377      0.00000
     40      13.9820      0.00000
     41      13.9832      0.00000
     42      14.0277      0.00000
     43      14.3642      0.00000
     44      14.3653      0.00000
     45      14.7784      0.00000
     46      14.8538      0.00000
     47      15.0377      0.00000
     48      16.2046      0.00000

 k-point     5 :       0.0000    0.0000    0.5000
  band No.  band energies     occupation 
      1     -14.7694      1.00000
      2     -13.0394      1.00000
      3     -12.9529      1.00000
      4     -12.4333      1.00000
      5     -12.4307      1.00000
      6     -12.4254      1.00000
      7     -12.4240      1.00000
      8      -1.4680      1.00000
      9      -1.4675      1.00000
     10      -0.8341      1.00000
     11      -0.5724      1.00000
     12      -0.4769      1.00000
     13       0.3366      1.00000
     14       0.3377      1.00000
     15       0.5171      1.00000
     16       0.7541      1.00000
     17       1.3263      1.00000
     18       1.3287      1.00000
     19       1.4669      1.00000
     20       1.4691      1.00000
     21       1.5768      1.00000
     22       1.5785      1.00000
     23       2.1625      1.00000
     24       2.5209      1.00000
     25       2.7463      1.00000
     26       2.7506      1.00000
     27       2.8655      1.00000
     28       2.8709      1.00000
     29       5.1744      1.00000
     30       7.3440      1.00000
     31       9.5111      0.00000
     32       9.5144      0.00000
     33      10.4181      0.00000
     34      11.0337      0.00000
     35      12.1768      0.00000
     36      12.1833      0.00000
     37      12.2835      0.00000
     38      12.2877      0.00000
     39      13.6731      0.00000
     40      13.8899      0.00000
     41      13.8915      0.00000
     42      13.9635      0.00000
     43      14.7965      0.00000
     44      14.8230      0.00000
     45      14.8278      0.00000
     46      14.9669      0.00000
     47      15.5550      0.00000
     48      15.9640      0.00000

 k-point     6 :       0.5000    0.0000    0.5000
  band No.  band energies     occupation 
      1     -14.7494      1.00000
      2     -13.0534      1.00000
      3     -12.6333      1.00000
      4     -12.6126      1.00000
      5     -12.6114      1.00000
      6     -12.6094      1.00000
      7     -12.2439      1.00000
      8      -1.1534      1.00000
      9      -1.1529      1.00000
     10      -0.8124      1.00000
     11      -0.6653      1.00000
     12      -0.0078      1.00000
     13       0.1646      1.00000
     14       0.4239      1.00000
     15       0.4242      1.00000
     16       1.1514      1.00000
     17       1.1526      1.00000
     18       1.2731      1.00000
     19       1.3396      1.00000
     20       1.3406      1.00000
     21       1.4710      1.00000
     22       1.5246      1.00000
     23       1.8122      1.00000
     24       1.8134      1.00000
     25       2.6578      1.00000
     26       2.6585      1.00000
     27       2.7344      1.00000
     28       2.7921      1.00000
     29       5.7883      1.00000
     30       7.4132      1.00000
     31       8.8709      0.00000
     32       8.8727      0.00000
     33      11.2388      0.00000
     34      11.9401      0.00000
     35      12.0298      0.00000
     36      12.9310      0.00000
     37      12.9334      0.00000
     38      13.2030      0.00000
     39      13.8387      0.00000
     40      13.9813      0.00000
     41      13.9822      0.00000
     42      14.0280      0.00000
     43      14.3646      0.00000
     44      14.3659      0.00000
     45      14.7865      0.00000
     46      14.8443      0.00000
     47      15.0381      0.00000
     48      16.2052      0.00000

 k-point     7 :       0.0000    0.5000    0.5000
  band No.  band energies     occupation 
      1     -14.7494      1.00000
      2     -13.0535      1.00000
      3     -12.6334      1.00000
      4     -12.6123      1.00000
      5     -12.6116      1.00000
      6     -12.6090      1.00000
      7     -12.2441      1.00000
      8      -1.1535      1.00000
      9      -1.1529      1.00000
     10      -0.8126      1.00000
     11      -0.6651      1.00000
     12      -0.0079      1.00000
     13       0.1647      1.00000
[...]
     15       0.4240      1.00000
     16       1.1513      1.00000
     17       1.1537      1.00000
     18       1.2729      1.00000
     19       1.3394      1.00000
     20       1.3410      1.00000
     21       1.4714      1.00000
     22       1.5244      1.00000
     23       1.8117      1.00000
     24       1.8136      1.00000
     25       2.6579      1.00000
     26       2.6581      1.00000
     27       2.7339      1.00000
     28       2.7921      1.00000
     29       5.7884      1.00000
     30       7.4132      1.00000
     31       8.8710      0.00000
     32       8.8724      0.00000
     33      11.2391      0.00000
     34      11.9401      0.00000
     35      12.0298      0.00000
     36      12.9290      0.00000
     37      12.9331      0.00000
     38      13.2060      0.00000
     39      13.8379      0.00000
     40      13.9821      0.00000
     41      13.9828      0.00000
     42      14.0264      0.00000
     43      14.3642      0.00000
     44      14.3664      0.00000
     45      14.7912      0.00000
     46      14.8409      0.00000
     47      15.0378      0.00000
     48      16.2047      0.00000

 k-point     8 :       0.5000    0.5000    0.5000
  band No.  band energies     occupation 
      1     -14.7695      1.00000
      2     -13.0388      1.00000
      3     -12.9535      1.00000
      4     -12.4323      1.00000
      5     -12.4297      1.00000
      6     -12.4265      1.00000
      7     -12.4249      1.00000
      8      -1.4684      1.00000
      9      -1.4678      1.00000
     10      -0.8344      1.00000
     11      -0.5727      1.00000
     12      -0.4759      1.00000
     13       0.3371      1.00000
     14       0.3390      1.00000
     15       0.5166      1.00000
     16       0.7546      1.00000
     17       1.3274      1.00000
     18       1.3281      1.00000
     19       1.4672      1.00000
     20       1.4685      1.00000
     21       1.5746      1.00000
     22       1.5782      1.00000
     23       2.1614      1.00000
     24       2.5225      1.00000
     25       2.7470      1.00000
     26       2.7511      1.00000
     27       2.8654      1.00000
     28       2.8700      1.00000
     29       5.1739      1.00000
     30       7.3440      1.00000
     31       9.5120      0.00000
     32       9.5139      0.00000
     33      10.4177      0.00000
     34      11.0346      0.00000
     35      12.1764      0.00000
     36      12.1842      0.00000
     37      12.2830      0.00000
     38      12.2873      0.00000
     39      13.6720      0.00000
     40      13.8902      0.00000
     41      13.8919      0.00000
     42      13.9640      0.00000
     43      14.7931      0.00000
     44      14.8219      0.00000
     45      14.8253      0.00000
     46      14.9694      0.00000
     47      15.5557      0.00000
     48      15.9664      0.00000


--------------------------------------------------------------------------------------------------------


 soft charge-density along one line, spin component           1
         0         1         2         3         4         5         6         7         8         9
 total charge-density along one line
 
 soft charge-density along one line, spin component           2
         0         1         2         3         4         5         6         7         8         9
 total charge-density along one line
 
 pseudopotential strength for first ion, spin component:           1
  3.016   9.558   0.000   0.000  -0.000   0.000   0.001  -0.000
  9.558  30.147   0.001   0.002  -0.000   0.002   0.005  -0.000
  0.000   0.001   7.542  -0.000   0.000  10.856  -0.000   0.000
  0.000   0.002  -0.000   7.542   0.000  -0.000  10.857   0.000
 -0.000  -0.000   0.000   0.000   7.542   0.000   0.000  10.856
  0.000   0.002  10.856  -0.000   0.000  14.873  -0.000   0.000
  0.001   0.005  -0.000  10.857   0.000  -0.000  14.874   0.000
 -0.000  -0.000   0.000   0.000  10.856   0.000   0.000  14.873
  0.000   0.000  -0.000  -0.000   0.001  -0.000  -0.000   0.001
 -0.000  -0.000   0.001   0.001  -0.000   0.002   0.001  -0.000
  0.000   0.000  -0.000   0.002   0.000  -0.000   0.002   0.000
  0.000   0.000  -0.000  -0.000   0.001  -0.000  -0.000   0.002
  0.000   0.000  -0.001   0.000  -0.000  -0.001   0.000  -0.000
 pseudopotential strength for first ion, spin component:           2
  3.016   9.558   0.000   0.000  -0.000   0.000   0.001  -0.000
  9.558  30.147   0.001   0.002  -0.000   0.002   0.005  -0.000
  0.000   0.001   7.542  -0.000   0.000  10.856  -0.000   0.000
  0.000   0.002  -0.000   7.542   0.000  -0.000  10.857   0.000
 -0.000  -0.000   0.000   0.000   7.542   0.000   0.000  10.856
  0.000   0.002  10.856  -0.000   0.000  14.873  -0.000   0.000
  0.001   0.005  -0.000  10.857   0.000  -0.000  14.874   0.000
 -0.000  -0.000   0.000   0.000  10.856   0.000   0.000  14.873
  0.000   0.000  -0.000  -0.000   0.001  -0.000  -0.000   0.001
 -0.000  -0.000   0.001   0.001  -0.000   0.002   0.001  -0.000
  0.000   0.000  -0.000   0.002   0.000  -0.000   0.002   0.000
  0.000   0.000  -0.000  -0.000   0.001  -0.000  -0.000   0.002
  0.000   0.000  -0.001   0.000  -0.000  -0.001   0.000  -0.000
 total augmentation occupancy for first ion, spin component:           1
  2.863  -0.056  -0.004  -0.010   0.000   0.001   0.002  -0.000  -0.000  -0.000   0.000   0.000   0.000
 -0.056   0.002   0.000   0.000  -0.000  -0.000  -0.000   0.000   0.000  -0.000  -0.000  -0.000  -0.000
 -0.004   0.000   0.151  -0.000   0.000  -0.008  -0.000  -0.000   0.000  -0.001   0.000   0.000   0.000
 -0.010   0.000  -0.000   0.151  -0.000  -0.000  -0.008   0.000   0.000  -0.000  -0.000   0.000   0.000
  0.000  -0.000   0.000  -0.000   0.151  -0.000   0.000  -0.008  -0.000   0.000  -0.000  -0.001   0.000
  0.001  -0.000  -0.008  -0.000  -0.000   0.000   0.000   0.000  -0.000   0.000  -0.000  -0.000  -0.000
  0.002  -0.000  -0.000  -0.008   0.000   0.000   0.000  -0.000  -0.000   0.000   0.000  -0.000   0.000
 -0.000   0.000  -0.000   0.000  -0.008   0.000  -0.000   0.000   0.000  -0.000  -0.000   0.000   0.000
 -0.000   0.000   0.000   0.000  -0.000  -0.000  -0.000   0.000   0.006   0.000   0.000   0.000  -0.000
 -0.000  -0.000  -0.001  -0.000   0.000   0.000   0.000  -0.000   0.000   0.006   0.000   0.000  -0.000
  0.000  -0.000   0.000  -0.000  -0.000  -0.000   0.000  -0.000   0.000   0.000   0.004   0.000  -0.000
  0.000  -0.000   0.000   0.000  -0.001  -0.000  -0.000   0.000   0.000   0.000   0.000   0.006  -0.000
  0.000  -0.000   0.000   0.000   0.000  -0.000   0.000   0.000  -0.000  -0.000  -0.000  -0.000   0.004
 total augmentation occupancy for first ion, spin component:           2
 -0.000   0.000   0.000   0.000   0.000  -0.000  -0.000  -0.000   0.000   0.000  -0.000   0.000   0.000
  0.000  -0.000  -0.000  -0.000  -0.000   0.000   0.000   0.000  -0.000  -0.000   0.000  -0.000  -0.000
  0.000  -0.000  -0.000   0.000   0.000   0.000  -0.000  -0.000   0.000   0.000  -0.000  -0.000  -0.000
  0.000  -0.000   0.000  -0.000   0.000  -0.000   0.000  -0.000   0.000   0.000   0.000   0.000  -0.000
  0.000  -0.000   0.000   0.000  -0.000  -0.000  -0.000   0.000   0.000  -0.000   0.000   0.000   0.000
 -0.000   0.000   0.000  -0.000  -0.000  -0.000   0.000   0.000   0.000  -0.000   0.000   0.000   0.000
 -0.000   0.000  -0.000   0.000  -0.000   0.000  -0.000   0.000  -0.000  -0.000  -0.000  -0.000   0.000
 -0.000   0.000  -0.000  -0.000   0.000   0.000   0.000  -0.000  -0.000   0.000  -0.000  -0.000   0.000
  0.000  -0.000   0.000   0.000   0.000   0.000  -0.000  -0.000   0.000   0.000  -0.000   0.000  -0.000
  0.000  -0.000   0.000   0.000  -0.000  -0.000  -0.000   0.000   0.000   0.000   0.000   0.000  -0.000
 -0.000   0.000  -0.000   0.000   0.000   0.000  -0.000  -0.000  -0.000   0.000   0.000   0.000  -0.000
  0.000  -0.000  -0.000   0.000   0.000   0.000  -0.000  -0.000   0.000   0.000   0.000   0.000   0.000
  0.000  -0.000  -0.000  -0.000   0.000   0.000   0.000   0.000  -0.000  -0.000  -0.000   0.000   0.000


------------------------ aborting loop because EDIFF is reached ----------------------------------------


 


 total charge     
 
# of ion     s       p       d       tot
----------------------------------------
  1        0.472   0.256   0.014   0.742
  2        0.149   0.169   0.074   0.392
  3        0.191   0.204   0.080   0.476
  4        0.192   0.205   0.081   0.478
  5        0.192   0.206   0.082   0.480
  6        0.192   0.206   0.082   0.480
  7        0.192   0.207   0.082   0.481
  8        0.193   0.208   0.083   0.484
  9        0.149   0.169   0.074   0.392
 10        1.593   3.513   0.000   5.106
 11        1.593   3.513   0.000   5.106
 12        1.593   3.513   0.000   5.106
 13        1.593   3.513   0.000   5.106
 14        1.593   3.513   0.000   5.106
 15        1.593   3.513   0.000   5.106
 16        1.593   3.668   0.000   5.261
------------------------------------------------
tot       13.071  26.579   0.652  40.303
 


 magnetization (x)
 
# of ion     s       p       d       tot
----------------------------------------
  1        0.000   0.000   0.000   0.000
  2       -0.000  -0.000  -0.000  -0.000
  3       -0.000  -0.000  -0.000  -0.000
  4       -0.000  -0.000  -0.000  -0.000
  5       -0.000  -0.000  -0.000  -0.000
  6       -0.000  -0.000  -0.000  -0.000
  7       -0.000  -0.000  -0.000  -0.000
  8       -0.000  -0.000  -0.000  -0.000
  9       -0.000  -0.000  -0.000  -0.000
 10        0.000   0.000   0.000   0.000
 11        0.000   0.000   0.000   0.000
 12        0.000   0.000   0.000   0.000
 13        0.000   0.000   0.000   0.000
 14        0.000   0.000   0.000   0.000
 15        0.000   0.000   0.000   0.000
 16       -0.000   0.000   0.000   0.000
------------------------------------------------
tot        0.000   0.000  -0.000   0.000
 
    CHARGE:  cpu time    0.0200: real time    0.0207
    FORLOC:  cpu time    0.0040: real time    0.0015
    FORNL :  cpu time    0.1360: real time    0.1399
    STRESS:  cpu time    0.4200: real time    0.4197
    FORCOR:  cpu time    0.0200: real time    0.0212
    FORHAR:  cpu time    0.0040: real time    0.0031
    MIXING:  cpu time    0.0000: real time    0.0009
    OFIELD:  cpu time    0.0000: real time    0.0000

  FORCE on cell =-STRESS in cart. coord.  units (eV):
  Direction    XX          YY          ZZ          XY          YZ          ZX
  --------------------------------------------------------------------------------------
  Alpha Z   142.81397   142.81397   142.81397
  Ewald    -826.21753  -826.10056  -826.30777    -0.00743    -0.02403    -0.01726
  Hartree   361.36067   361.36355   361.33333    -0.00369    -0.00407    -0.00624
  E(xc)    -268.12584  -268.12661  -268.12518    -0.00101    -0.00091    -0.00105
  Local    -350.85650  -350.98101  -350.71470     0.02011     0.03321     0.03225
  n-local  -100.18151  -100.18007  -100.18367     0.00596     0.00403     0.00754
  augment    46.86013    46.85933    46.85930     0.00045     0.00073     0.00098
  Kinetic  1017.58137  1017.57326  1017.58165     0.00733     0.00706     0.00866
  Fock        0.00000     0.00000     0.00000     0.00000     0.00000     0.00000
  -------------------------------------------------------------------------------------
  Total      23.23476    23.22185    23.25693     0.02171     0.01601     0.02488
  in kB     242.99914   242.86421   243.23103     0.22702     0.16745     0.26021
  external pressure =      243.03 kB  Pullay stress =        0.00 kB


 VOLUME and BASIS-vectors are now :
 -----------------------------------------------------------------------------
  energy-cutoff  :      400.00
  volume of cell :      153.19
      direct lattice vectors                 reciprocal lattice vectors
     0.000000000  4.246893000  4.246893000    -0.117733129  0.117733129  0.117733129
     4.246893000  0.000000000  4.246893000     0.117733129 -0.117733129  0.117733129
     4.246893000  4.246893000  0.000000000     0.117733129  0.117733129 -0.117733129

  length of vectors
     6.006013679  6.006013679  6.006013679     0.203919761  0.203919761  0.203919761


 FORCES acting on ions
    electron-ion (+dipol)            ewald-force                    non-local-force                 convergence-correction
 -----------------------------------------------------------------------------------------------
   -.393E-01 0.362E+00 0.931E+00   0.483E-01 -.471E+00 -.121E+01   -.131E-01 0.107E+00 0.270E+00   -.104E-05 0.110E-04 0.248E-04
   -.815E-01 0.248E-02 -.768E-01   0.653E-01 0.318E-02 0.711E-01   0.204E-01 -.286E-02 0.115E-01   0.202E-04 0.297E-04 -.129E-04
   0.388E-01 0.357E+00 -.276E+02   -.309E-01 -.326E+00 0.284E+02   -.550E-02 -.487E-01 -.815E+00   -.311E-04 -.174E-04 0.502E-03
   0.401E-01 -.275E+02 -.110E+00   -.323E-01 0.282E+02 0.763E-01   -.415E-02 -.745E+00 0.488E-01   0.307E-05 0.519E-03 -.105E-04
   0.273E+02 0.151E+00 0.124E+00   -.280E+02 -.142E+00 -.130E+00   0.731E+00 -.277E-01 0.158E-02   -.526E-03 0.204E-05 0.440E-04
   -.272E+02 -.147E+00 -.172E+00   0.279E+02 0.120E+00 0.131E+00   -.718E+00 0.296E-01 0.555E-01   0.526E-03 0.384E-05 -.222E-04
   -.244E+00 0.271E+02 0.224E+00   0.218E+00 -.278E+02 -.219E+00   0.483E-01 0.685E+00 -.115E-01   -.170E-05 -.533E-03 0.319E-04
   -.225E+00 0.628E-01 0.269E+02   0.199E+00 -.694E-01 -.275E+02   0.437E-01 0.600E-02 0.651E+00   0.329E-04 0.221E-04 -.542E-03
   -.402E-01 0.848E-02 -.717E-01   0.319E-01 -.406E-03 0.670E-01   0.864E-02 -.549E-02 0.103E-01   -.212E-04 -.359E-04 -.943E-05
   -.256E+00 -.586E-01 0.115E+00   0.263E+00 0.487E-01 -.154E+00   -.128E-01 0.217E-02 0.420E-01   0.273E-07 -.276E-04 0.622E-04
   -.921E+00 0.265E-01 0.602E-01   0.991E+00 -.495E-01 -.173E+00   -.613E-01 0.311E-01 0.109E+00   0.704E-04 0.283E-04 -.116E-03
   0.576E-01 0.795E+00 0.197E+00   -.588E-01 -.896E+00 -.331E+00   -.777E-02 0.107E+00 0.135E+00   -.271E-04 -.821E-04 -.128E-03
   0.554E-02 -.107E+01 -.138E+00   -.673E-02 0.115E+01 0.578E-01   -.734E-02 -.550E-01 0.885E-01   -.547E-05 0.103E-03 -.839E-04
   0.106E+01 0.695E-01 0.150E+00   -.120E+01 -.907E-01 -.273E+00   0.120E+00 0.284E-01 0.115E+00   -.134E-03 0.194E-04 -.135E-03
   0.405E+00 0.616E-01 0.154E+00   -.467E+00 -.804E-01 -.191E+00   0.574E-01 0.851E-02 0.394E-01   -.455E-04 -.512E-04 0.416E-04
   -.111E+00 -.182E+00 -.967E+00   0.100E+00 0.351E+00 0.140E+01   0.192E-01 -.177E+00 -.424E+00   0.276E-04 0.102E-03 0.342E-03
 -----------------------------------------------------------------------------------------------
   -.185E+00 0.424E-01 -.309E+00   0.652E-15 0.305E-14 0.666E-15   0.218E+00 -.571E-01 0.327E+00   -.113E-03 0.929E-04 -.115E-04
 
 
 POSITION                                       TOTAL-FORCE (eV/Angst)
 -----------------------------------------------------------------------------------
      2.13508      2.12665      2.15393        -0.006080     -0.000775     -0.010867
      0.01208      4.23852      4.24884         0.002156      0.003742      0.004669
      6.38459      6.36550      8.35321         0.000306     -0.016787     -0.029396
      6.38515      8.33160      6.36857         0.001644     -0.004278      0.014321
      4.41925      6.36702      6.37539         0.014952     -0.017636     -0.005723
      8.34445      6.36085      6.36932        -0.006369      0.003524      0.013502
      6.37921      4.40789      6.37566         0.019520     -0.002378     -0.007424
      6.37906      6.35945      4.42645         0.016195      0.000371      0.014172
      4.25991      4.23874      4.24899        -0.001728      0.003458      0.004435
      4.25870      4.24097      2.12653        -0.008011     -0.006746      0.001636
      4.25411      2.11480      4.25090         0.007736      0.009012     -0.004198
      6.38427      4.24252      4.25201        -0.011017      0.006622     -0.000247
      2.13712      4.23123      4.24713        -0.010593      0.030347      0.006836
      4.26580      6.36178      4.25072        -0.018445      0.008186     -0.008565
      4.26196      4.24055      6.37344        -0.006408     -0.009426      0.000784
      6.38190      6.36839      6.38554         0.006143     -0.007237      0.006066
 -----------------------------------------------------------------------------------
    total drift:                                0.032766     -0.014630      0.018386


--------------------------------------------------------------------------------------------------------



  FREE ENERGIE OF THE ION-ELECTRON SYSTEM (eV)
  ---------------------------------------------------
  free  energy   TOTEN  =       -74.95144056 eV

  energy  without entropy=      -74.95143973  energy(sigma->0) =      -74.95144014
 


--------------------------------------------------------------------------------------------------------


    POTLOK:  cpu time    0.6960: real time    0.6958


--------------------------------------------------------------------------------------------------------




--------------------------------------------------------------------------------------------------------


  
 reached required accuracy - stopping structural energy minimisation
     LOOP+:  cpu time   18.3600: real time   18.4239
    4ORBIT:  cpu time    0.0000: real time    0.0000
 


 total charge     
 
# of ion     s       p       d       tot
----------------------------------------
  1        0.472   0.256   0.014   0.742
  2        0.149   0.169   0.074   0.392
  3        0.191   0.204   0.080   0.476
  4        0.192   0.205   0.081   0.478
  5        0.192   0.206   0.082   0.480
  6        0.192   0.206   0.082   0.480
  7        0.192   0.207   0.082   0.481
  8        0.193   0.208   0.083   0.484
  9        0.149   0.169   0.074   0.392
 10        1.593   3.513   0.000   5.106
 11        1.593   3.513   0.000   5.106
 12        1.593   3.513   0.000   5.106
 13        1.593   3.513   0.000   5.106
 14        1.593   3.513   0.000   5.106
 15        1.593   3.513   0.000   5.106
 16        1.593   3.668   0.000   5.261
------------------------------------------------
tot       13.071  26.579   0.652  40.303
 


 magnetization (x)
 
# of ion     s       p       d       tot
----------------------------------------
  1        0.000   0.000   0.000   0.000
  2       -0.000  -0.000  -0.000  -0.000
  3       -0.000  -0.000  -0.000  -0.000
  4       -0.000  -0.000  -0.000  -0.000
  5       -0.000  -0.000  -0.000  -0.000
  6       -0.000  -0.000  -0.000  -0.000
  7       -0.000  -0.000  -0.000  -0.000
  8       -0.000  -0.000  -0.000  -0.000
  9       -0.000  -0.000  -0.000  -0.000
 10        0.000   0.000   0.000   0.000
 11        0.000   0.000   0.000   0.000
 12        0.000   0.000   0.000   0.000
 13        0.000   0.000   0.000   0.000
 14        0.000   0.000   0.000   0.000
 15        0.000   0.000   0.000   0.000
 16       -0.000   0.000   0.000   0.000
------------------------------------------------
tot        0.000   0.000  -0.000   0.000
 

 total amount of memory used by VASP on root node    36160. kBytes
========================================================================

   base      :      30000. kBytes
   nonlr-proj:       1275. kBytes
   fftplans  :        708. kBytes
   grid      :       1766. kBytes
   one-center:         64. kBytes
   wavefun   :       2347. kBytes
 
  
  
 General timing and accounting informations for this job:
 ========================================================
  
                  Total CPU time used (sec):       19.552
                            User time (sec):       19.392
                          System time (sec):        0.160
                         Elapsed time (sec):       19.816
  
                   Maximum memory used (kb):       64640.
                   Average memory used (kb):           0.
  
                          Minor page faults:        18557
                          Major page faults:            7
                 Voluntary context switches:         1498
