 vasp.5.4.1 05Feb16 (build Mar 31 2016 13:39:20) complex                        
  
 executed on           IFC91_ompi date 2018.04.12  14:14:35
 running on   36 total cores
 distrk:  each k-point on   36 cores,    1 groups
 distr:  one band on NCORES_PER_BAND=   9 cores,    4 groups


--------------------------------------------------------------------------------------------------------


 INCAR:
 POTCAR:    PAW_PBE Mg 13Apr2007                  
 POTCAR:    PAW_PBE O 08Apr2002                   
 POTCAR:    PAW_PBE Mg 13Apr2007                  
   VRHFIN =Mg: s2p0                                                             
   LEXCH  = PE                                                                  
   EATOM  =    23.0369 eV,    1.6932 Ry                                         
                                                                                
   TITEL  = PAW_PBE Mg 13Apr2007                                                
   LULTRA =        F    use ultrasoft PP ?                                      
   IUNSCR =        1    unscreen: 0-lin 1-nonlin 2-no                           
   RPACOR =    1.500    partial core radius                                     
   POMASS =   24.305; ZVAL   =    2.000    mass and valenz                      
   RCORE  =    2.000    outmost cutoff radius                                   
   RWIGS  =    2.880; RWIGS  =    1.524    wigner-seitz radius (au A)           
   ENMAX  =  126.143; ENMIN  =   94.607 eV                                      
   RCLOC  =    1.506    cutoff for local pot                                    
   LCOR   =        T    correct aug charges                                     
   LPAW   =        T    paw PP                                                  
   EAUG   =  454.734                                                            
   DEXC   =    0.000                                                            
   RMAX   =    2.045    core radius for proj-oper                               
   RAUG   =    1.300    factor for augmentation sphere                          
   RDEP   =    2.025    radius for radial grids                                 
   RDEPT  =    1.942    core radius for aug-charge                              
                                                                                
   Atomic configuration                                                         
    6 entries                                                                   
     n  l   j            E        occ.                                          
     1  0  0.50     -1259.6230   2.0000                                         
     2  0  0.50       -79.8442   2.0000                                         
     2  1  1.50       -46.6121   6.0000                                         
     3  0  0.50        -4.7055   2.0000                                         
     3  1  0.50        -1.3660   0.0000                                         
     3  2  1.50        -1.3606   0.0000                                         
   Description                                                                  
     l       E           TYP  RCUT    TYP  RCUT                                 
     0     -4.7054661     23  2.000                                             
     0     27.2116520     23  2.000                                             
     1      1.3605826     23  2.000                                             
     1     27.2116520     23  2.000                                             
     2     -1.3605826     23  2.000                                             
  local pseudopotential read in
  partial core-charges read in
  partial kinetic energy density read in
  atomic valenz-charges read in
  non local Contribution for L=           0  read in
    real space projection operators read in
  non local Contribution for L=           0  read in
    real space projection operators read in
  non local Contribution for L=           1  read in
    real space projection operators read in
  non local Contribution for L=           1  read in
    real space projection operators read in
  non local Contribution for L=           2  read in
    real space projection operators read in
    PAW grid and wavefunctions read in
 
   number of l-projection  operators is LMAX  =           5
   number of lm-projection operators is LMMAX =          13
 
 POTCAR:    PAW_PBE O 08Apr2002                   
   VRHFIN =O: s2p4                                                              
   LEXCH  = PE                                                                  
   EATOM  =   432.3788 eV,   31.7789 Ry                                         
                                                                                
   TITEL  = PAW_PBE O 08Apr2002                                                 
   LULTRA =        F    use ultrasoft PP ?                                      
   IUNSCR =        1    unscreen: 0-lin 1-nonlin 2-no                           
   RPACOR =    1.200    partial core radius                                     
   POMASS =   16.000; ZVAL   =    6.000    mass and valenz                      
   RCORE  =    1.520    outmost cutoff radius                                   
   RWIGS  =    1.550; RWIGS  =    0.820    wigner-seitz radius (au A)           
   ENMAX  =  400.000; ENMIN  =  300.000 eV                                      
   ICORE  =        2    local potential                                         
   LCOR   =        T    correct aug charges                                     
   LPAW   =        T    paw PP                                                  
   EAUG   =  605.392                                                            
   DEXC   =    0.000                                                            
   RMAX   =    1.553    core radius for proj-oper                               
   RAUG   =    1.300    factor for augmentation sphere                          
   RDEP   =    1.550    radius for radial grids                                 
   RDEPT  =    1.329    core radius for aug-charge                              
                                                                                
   Atomic configuration                                                         
    4 entries                                                                   
     n  l   j            E        occ.                                          
     1  0  0.50      -514.6923   2.0000                                         
     2  0  0.50       -23.9615   2.0000                                         
     2  1  0.50        -9.0305   4.0000                                         
     3  2  1.50        -9.5241   0.0000                                         
   Description                                                                  
     l       E           TYP  RCUT    TYP  RCUT                                 
     0    -23.9615318     23  1.200                                             
     0     -9.5240782     23  1.200                                             
     1     -9.0304911     23  1.520                                             
     1      8.1634956     23  1.520                                             
     2     -9.5240782      7  1.500                                             
  local pseudopotential read in
  partial core-charges read in
  partial kinetic energy density read in
  kinetic energy density of atom read in
  atomic valenz-charges read in
  non local Contribution for L=           0  read in
    real space projection operators read in
  non local Contribution for L=           0  read in
    real space projection operators read in
  non local Contribution for L=           1  read in
    real space projection operators read in
  non local Contribution for L=           1  read in
    real space projection operators read in
    PAW grid and wavefunctions read in
 
   number of l-projection  operators is LMAX  =           4
   number of lm-projection operators is LMMAX =           8
 
 Optimization of the real space projectors (new method)

 maximal supplied QI-value         = 18.90
 optimisation between [QCUT,QGAM] = [ 10.20, 20.41] = [ 29.16,116.64] Ry 
 Optimized for a Real-space Cutoff    1.30 Angstroem

   l    n(q)    QCUT    max X(q) W(low)/X(q) W(high)/X(q)  e(spline) 
   0      8    10.205    28.265    0.22E-03    0.17E-03    0.53E-07
   0      8    10.205    10.429    0.17E-03    0.15E-03    0.43E-07
   1      7    10.205    13.073    0.71E-04    0.41E-03    0.76E-07
   1      7    10.205     9.625    0.71E-04    0.33E-03    0.63E-07
   2      7    10.205     4.652    0.24E-03    0.41E-03    0.55E-07
 Optimization of the real space projectors (new method)

 maximal supplied QI-value         = 24.76
 optimisation between [QCUT,QGAM] = [ 10.15, 20.30] = [ 28.85,115.39] Ry 
 Optimized for a Real-space Cutoff    1.38 Angstroem

   l    n(q)    QCUT    max X(q) W(low)/X(q) W(high)/X(q)  e(spline) 
   0      8    10.150    20.381    0.22E-03    0.32E-03    0.29E-06
   0      8    10.150    15.268    0.23E-03    0.35E-03    0.30E-06
   1      8    10.150     5.964    0.46E-03    0.53E-03    0.21E-06
   1      8    10.150     5.382    0.38E-03    0.45E-03    0.19E-06
  PAW_PBE Mg 13Apr2007                  :
 energy of atom  1       EATOM=  -23.0369
 kinetic energy error for atom=    0.0001 (will be added to EATOM!!)
  PAW_PBE O 08Apr2002                   :
 energy of atom  2       EATOM= -432.3788
 kinetic energy error for atom=    0.1156 (will be added to EATOM!!)
 
 
 POSCAR: Mg9 O7                                  
  positions in direct lattice
  velocities in cartesian coordinates
 exchange correlation table for  LEXCH =        8
   RHO(1)=    0.500       N(1)  =     2000
   RHO(2)=  100.500       N(2)  =     4000
 


--------------------------------------------------------------------------------------------------------


 ion  position               nearest neighbor table
   1  0.253  0.255  0.248-   8 2.27   7 2.27   5 2.28   6 2.28   4 2.28   3 2.29   2 3.65   9 3.65

   2  0.998  0.003  0.000-  15 2.12  12 2.12  14 2.12  11 2.12  13 2.12  10 2.12   7 3.00   3 3.00
                             6 3.00   5 3.00   4 3.01   8 3.01   4 3.01   8 3.01   5 3.01   6 3.01
   3  0.982  0.987  0.517-  16 1.98  12 2.13  14 2.13  11 2.14  13 2.14   1 2.29   7 2.79   6 2.80
                             5 2.80   4 2.81   2 3.00   9 3.01   9 3.01   2 3.01   4 3.20   5 3.21
   4  0.979  0.520  0.984-  16 1.97  13 2.12  15 2.13  10 2.13  12 2.14   1 2.28   8 2.78   6 2.79
                             5 2.79   3 2.81   9 3.00   2 3.01   2 3.01   9 3.01   3 3.20   5 3.22
   5  0.981  0.520  0.519-  16 1.97  10 2.12  11 2.13  14 2.13  15 2.13   1 2.28   8 2.77   7 2.78
                             4 2.79   3 2.80   9 3.00   2 3.00   2 3.01   9 3.02   3 3.21   4 3.22
   6  0.516  0.984  0.982-  16 1.97  11 2.12  10 2.12  15 2.13  14 2.14   1 2.28   8 2.77   7 2.78
                             4 2.79   3 2.80   2 3.00   9 3.01   9 3.01   2 3.01   3 3.21   4 3.22
   7  0.518  0.983  0.518-  16 1.97  15 2.12  13 2.12  12 2.13  10 2.13   1 2.27   8 2.76   6 2.78
                             5 2.78   3 2.79   2 3.00   9 3.01   9 3.01   2 3.01   3 3.21   5 3.22
   8  0.518  0.523  0.978-  16 1.96  14 2.12  12 2.12  13 2.13  11 2.13   1 2.27   7 2.76   6 2.77
                             5 2.77   4 2.78   9 3.00   2 3.01   2 3.01   9 3.02   4 3.23   5 3.23
   9  0.498  0.503  0.500-  10 2.12  13 2.12  11 2.12  14 2.12  12 2.12  15 2.12   5 3.00   8 3.00
                             4 3.00   6 3.01   3 3.01   7 3.01   3 3.01   7 3.01   6 3.01   4 3.01
  10  0.249  0.252  0.751-   9 2.12   6 2.12   5 2.12   2 2.12   7 2.13   4 2.13
  11  0.249  0.752  0.249-   6 2.12   9 2.12   2 2.12   5 2.13   8 2.13   3 2.14
  12  0.248  0.753  0.750-   8 2.12   2 2.12   9 2.12   3 2.13   7 2.13   4 2.14
  13  0.746  0.254  0.250-   9 2.12   2 2.12   7 2.12   4 2.12   8 2.13   3 2.14
  14  0.747  0.254  0.751-   8 2.12   2 2.12   9 2.12   5 2.13   3 2.13   6 2.14
  15  0.748  0.753  0.251-   7 2.12   2 2.12   9 2.12   4 2.13   5 2.13   6 2.13
  16  0.750  0.753  0.749-   8 1.96   7 1.97   6 1.97   4 1.97   5 1.97   3 1.98
 
  LATTYP: Found a face centered cubic cell.
 ALAT       =     8.4937860000
  
  Lattice vectors:
  
 A1 = (   0.0000000000,   4.2468930000,   4.2468930000)
 A2 = (   4.2468930000,   0.0000000000,   4.2468930000)
 A3 = (   4.2468930000,   4.2468930000,   0.0000000000)


Analysis of symmetry for initial positions (statically):
=====================================================================
 Subroutine PRICEL returns:
 Original cell was already a primitive cell.
 

 Routine SETGRP: Setting up the symmetry group for a 
 face centered cubic supercell.


 Subroutine GETGRP returns: Found  1 space group operations
 (whereof  1 operations were pure point group operations)
 out of a pool of 48 trial point group operations.


The static configuration has the point symmetry C_1 .


Analysis of symmetry for dynamics (positions and initial velocities):
=====================================================================
 Subroutine PRICEL returns:
 Original cell was already a primitive cell.
 

 Routine SETGRP: Setting up the symmetry group for a 
 face centered cubic supercell.


 Subroutine GETGRP returns: Found  1 space group operations
 (whereof  1 operations were pure point group operations)
 out of a pool of 48 trial point group operations.


The dynamic configuration has the point symmetry C_1 .


Analysis of structural, dynamic, and magnetic symmetry:
=====================================================================
 Subroutine PRICEL returns:
 Original cell was already a primitive cell.
 

 Routine SETGRP: Setting up the symmetry group for a 
 face centered cubic supercell.


 Subroutine GETGRP returns: Found  1 space group operations
 (whereof  1 operations were pure point group operations)
 out of a pool of 48 trial point group operations.


The magnetic configuration has the point symmetry C_1 .


 Subroutine INISYM returns: Found  1 space group operations
 (whereof  1 operations are pure point group operations),
 and found     1 'primitive' translations

 
 
 KPOINTS: k-point mesh                            

Automatic generation of k-mesh.
Space group operators:
 irot       det(A)        alpha          n_x          n_y          n_z        tau_x        tau_y        tau_z
    1     1.000000     0.000000     1.000000     0.000000     0.000000     0.000000     0.000000     0.000000
 
 Subroutine IBZKPT returns following result:
 ===========================================
 
 Found     16 irreducible k-points:
 
 Following reciprocal coordinates:
            Coordinates               Weight
  0.250000  0.250000  0.250000     24.000000
  0.250000  0.000000  0.000000     24.000000
  0.000000  0.000000 -0.250000     24.000000
  0.000000  0.250000  0.000000     24.000000
 -0.250000  0.250000  0.250000     24.000000
  0.250000 -0.250000  0.250000     24.000000
  0.250000  0.250000 -0.250000     24.000000
  0.250000  0.000000  0.500000     24.000000
 -0.250000  0.500000  0.500000     24.000000
  0.250000  0.500000  0.000000     24.000000
  0.000000  0.500000 -0.250000     24.000000
  0.500000  0.000000 -0.250000     24.000000
  0.500000  0.500000  0.250000     24.000000
  0.500000 -0.250000  0.500000     24.000000
  0.000000  0.250000  0.500000     24.000000
  0.500000  0.250000  0.000000     24.000000
 
 Following cartesian coordinates:
            Coordinates               Weight
  0.029433  0.029433  0.029433     24.000000
 -0.029433  0.029433  0.029433     24.000000
 -0.029433 -0.029433  0.029433     24.000000
  0.029433 -0.029433  0.029433     24.000000
  0.088300 -0.029433 -0.029433     24.000000
 -0.029433  0.088300 -0.029433     24.000000
 -0.029433 -0.029433  0.088300     24.000000
  0.029433  0.088300 -0.029433     24.000000
  0.147166 -0.029433 -0.029433     24.000000
  0.029433 -0.029433  0.088300     24.000000
  0.029433 -0.088300  0.088300     24.000000
 -0.088300  0.029433  0.088300     24.000000
  0.029433  0.029433  0.088300     24.000000
 -0.029433  0.147166 -0.029433     24.000000
  0.088300  0.029433 -0.029433     24.000000
 -0.029433  0.029433  0.088300     24.000000
 


--------------------------------------------------------------------------------------------------------




 Dimension of arrays:
   k-points           NKPTS =     16   k-points in BZ     NKDIM =     16   number of bands    NBANDS=     48
   number of dos      NEDOS =    301   number of ions     NIONS =     16
   non local maximal  LDIM  =      5   non local SUM 2l+1 LMDIM =     13
   total plane-waves  NPLWV =  27000
   max r-space proj   IRMAX =   1992   max aug-charges    IRDMAX=   7686
   dimension x,y,z NGX =    30 NGY =   30 NGZ =   30
   dimension x,y,z NGXF=    60 NGYF=   60 NGZF=   60
   support grid    NGXF=    60 NGYF=   60 NGZF=   60
   ions per type =               9   7
 NGX,Y,Z   is equivalent  to a cutoff of   8.30,  8.30,  8.30 a.u.
 NGXF,Y,Z  is equivalent  to a cutoff of  16.61, 16.61, 16.61 a.u.


 I would recommend the setting:
   dimension x,y,z NGX =    29 NGY =   29 NGZ =   29
 SYSTEM =  unknown system                          
 POSCAR =  Mg9 O7                                  

 Startparameter for this run:
   NWRITE =      2    write-flag & timer
   PREC   = n         normal or accurate (medium, high low for compatibility)
   ISTART =      0    job   : 0-new  1-cont  2-samecut
   ICHARG =      2    charge: 1-file 2-atom 10-const
   ISPIN  =      2    spin polarized calculation?
   LNONCOLLINEAR =      F non collinear calculations
   LSORBIT =      F    spin-orbit coupling
   INIWAV =      1    electr: 0-lowe 1-rand  2-diag
   LASPH  =      T    aspherical Exc in radial PAW
   METAGGA=      F    non-selfconsistent MetaGGA calc.

 Electronic Relaxation 1
   ENCUT  =  400.0 eV  29.40 Ry    5.42 a.u.   9.79  9.79  9.79*2*pi/ulx,y,z
   ENINI  =  400.0     initial cutoff
   ENAUG  =  605.4 eV  augmentation charge cutoff
   NELM   =    100;   NELMIN=  4; NELMDL=  0     # of ELM steps 
   EDIFF  = 0.1E-05   stopping-criterion for ELM
   LREAL  =      T    real-space projection
   NLSPLINE    = F    spline interpolate recip. space projectors
   LCOMPAT=      F    compatible to vasp.4.4
   GGA_COMPAT  = T    GGA compatible to vasp.4.4-vasp.4.6
   LMAXPAW     = -100 max onsite density
   LMAXMIX     =    2 max onsite mixed and CHGCAR
   VOSKOWN=      0    Vosko Wilk Nusair interpolation
   ROPT   =   -0.00050  -0.00050
 Ionic relaxation
   EDIFFG = -.5E-01   stopping-criterion for IOM
   NSW    =     20    number of steps for IOM
   NBLOCK =      1;   KBLOCK =     20    inner block; outer block 
   IBRION =      2    ionic relax: 0-MD 1-quasi-New 2-CG
   NFREE  =      1    steps in history (QN), initial steepest desc. (CG)
   ISIF   =      2    stress and relaxation
   IWAVPR =     11    prediction:  0-non 1-charg 2-wave 3-comb
   ISYM   =      2    0-nonsym 1-usesym 2-fastsym
   LCORR  =      T    Harris-Foulkes like correction to forces

   POTIM  = 0.5000    time-step for ionic-motion
   TEIN   =    0.0    initial temperature
   TEBEG  =    0.0;   TEEND  =   0.0 temperature during run
   SMASS  =  -3.00    Nose mass-parameter (am)
   estimated Nose-frequenzy (Omega)   =  0.10E-29 period in steps =****** mass=  -0.824E-27a.u.
   SCALEE = 1.0000    scale energy and forces
   NPACO  =    256;   APACO  = 16.0  distance and # of slots for P.C.
   PSTRESS=    0.0 pullay stress

  Mass of Ions in am
   POMASS =  24.30 16.00
  Ionic Valenz
   ZVAL   =   2.00  6.00
  Atomic Wigner-Seitz radii
   RWIGS  =  -1.00 -1.00
  virtual crystal weights 
   VCA    =   1.00  1.00
   NELECT =      60.0000    total number of electrons
   NUPDOWN=      -1.0000    fix difference up-down

 DOS related values:
   EMIN   =  10.00;   EMAX   =-10.00  energy-range for DOS
   EFERMI =   0.00
   ISMEAR =     0;   SIGMA  =   0.05  broadening in eV -4-tet -1-fermi 0-gaus

 Electronic relaxation 2 (details)
   IALGO  =     38    algorithm
   LDIAG  =      T    sub-space diagonalisation (order eigenvalues)
   LSUBROT=      F    optimize rotation matrix (better conditioning)
   TURBO    =      0    0=normal 1=particle mesh
   IRESTART =      0    0=no restart 2=restart with 2 vectors
   NREBOOT  =      0    no. of reboots
   NMIN     =      0    reboot dimension
   EREF     =   0.00    reference energy to select bands
   IMIX   =      4    mixing-type and parameters
     AMIX     =   0.40;   BMIX     =  1.00
     AMIX_MAG =   1.60;   BMIX_MAG =  1.00
     AMIN     =   0.10
     WC   =   100.;   INIMIX=   1;  MIXPRE=   1;  MAXMIX= -45

 Intra band minimization:
   WEIMIN = 0.0010     energy-eigenvalue tresh-hold
   EBREAK =  0.52E-08  absolut break condition
   DEPER  =   0.30     relativ break condition  

   TIME   =   0.40     timestep for ELM

  volume/ion in A,a.u.               =       9.57        64.61
  Fermi-wavevector in a.u.,A,eV,Ry     =   1.197781  2.263477 19.519983  1.434678
  Thomas-Fermi vector in A             =   2.333687
 
 Write flags
   LWAVE  =      F    write WAVECAR
   LCHARG =      F    write CHGCAR
   LVTOT  =      F    write LOCPOT, total local potential
   LVHAR  =      F    write LOCPOT, Hartree potential only
   LELF   =      F    write electronic localiz. function (ELF)
   LORBIT =     12    0 simple, 1 ext, 2 COOP (PROOUT)


 Dipole corrections
   LMONO  =      F    monopole corrections only (constant potential shift)
   LDIPOL =      F    correct potential (dipole corrections)
   IDIPOL =      0    1-x, 2-y, 3-z, 4-all directions 
   EPSILON=  1.0000000 bulk dielectric constant

 Exchange correlation treatment:
   GGA     =    --    GGA type
   LEXCH   =     8    internal setting for exchange type
   VOSKOWN=      0    Vosko Wilk Nusair interpolation
   LHFCALC =     F    Hartree Fock is set to
   LHFONE  =     F    Hartree Fock one center treatment
   AEXX    =    0.0000 exact exchange contribution

 Linear response parameters
   LEPSILON=     F    determine dielectric tensor
   LRPA    =     F    only Hartree local field effects (RPA)
   LNABLA  =     F    use nabla operator in PAW spheres
   LVEL    =     F    velocity operator in full k-point grid
   LINTERFAST=   F  fast interpolation
   KINTER  =     0    interpolate to denser k-point grid
   CSHIFT  =0.1000    complex shift for real part using Kramers Kronig
   OMEGAMAX=  -1.0    maximum frequency
   DEG_THRESHOLD= 0.2000000E-02 threshold for treating states as degnerate
   RTIME   =    0.100 relaxation time in fs

 Orbital magnetization related:
   ORBITALMAG=     F  switch on orbital magnetization
   LCHIMAG   =     F  perturbation theory with respect to B field
   DQ        =  0.001000  dq finite difference perturbation B field



--------------------------------------------------------------------------------------------------------


 conjugate gradient relaxation of ions
 charge density and potential will be updated during run
 spin polarized calculation
 Variant of blocked Davidson
 Davidson routine will perform the subspace rotation
 perform sub-space diagonalisation
    after iterative eigenvector-optimisation
 modified Broyden-mixing scheme, WC =      100.0
 initial mixing is a Kerker type mixing with AMIX =  0.4000 and BMIX =      1.0000
 Hartree-type preconditioning will be used
 using additional bands           18
 real space projection scheme for non local part
 use partial core corrections
 calculate Harris-corrections to forces 
   (improved forces if not selfconsistent)
 use gradient corrections 
 use of overlap-Matrix (Vanderbilt PP)
 Gauss-broadening in eV      SIGMA  =   0.05


--------------------------------------------------------------------------------------------------------


  energy-cutoff  :      400.00
  volume of cell :      153.19
      direct lattice vectors                 reciprocal lattice vectors
     0.000000000  4.246893000  4.246893000    -0.117733129  0.117733129  0.117733129
     4.246893000  0.000000000  4.246893000     0.117733129 -0.117733129  0.117733129
     4.246893000  4.246893000  0.000000000     0.117733129  0.117733129 -0.117733129

  length of vectors
     6.006013679  6.006013679  6.006013679     0.203919761  0.203919761  0.203919761


 
 k-points in units of 2pi/SCALE and weight: k-point mesh                            
   0.02943328  0.02943328  0.02943328       0.062
  -0.02943328  0.02943328  0.02943328       0.062
  -0.02943328 -0.02943328  0.02943328       0.062
   0.02943328 -0.02943328  0.02943328       0.062
   0.08829985 -0.02943328 -0.02943328       0.062
  -0.02943328  0.08829985 -0.02943328       0.062
  -0.02943328 -0.02943328  0.08829985       0.062
   0.02943328  0.08829985 -0.02943328       0.062
   0.14716641 -0.02943328 -0.02943328       0.062
   0.02943328 -0.02943328  0.08829985       0.062
   0.02943328 -0.08829985  0.08829985       0.062
  -0.08829985  0.02943328  0.08829985       0.062
   0.02943328  0.02943328  0.08829985       0.062
  -0.02943328  0.14716641 -0.02943328       0.062
   0.08829985  0.02943328 -0.02943328       0.062
  -0.02943328  0.02943328  0.08829985       0.062
 
 k-points in reciprocal lattice and weights: k-point mesh                            
   0.25000000  0.25000000  0.25000000       0.062
   0.25000000  0.00000000  0.00000000       0.062
   0.00000000  0.00000000 -0.25000000       0.062
   0.00000000  0.25000000  0.00000000       0.062
  -0.25000000  0.25000000  0.25000000       0.062
   0.25000000 -0.25000000  0.25000000       0.062
   0.25000000  0.25000000 -0.25000000       0.062
   0.25000000  0.00000000  0.50000000       0.062
  -0.25000000  0.50000000  0.50000000       0.062
   0.25000000  0.50000000  0.00000000       0.062
   0.00000000  0.50000000 -0.25000000       0.062
   0.50000000  0.00000000 -0.25000000       0.062
   0.50000000  0.50000000  0.25000000       0.062
   0.50000000 -0.25000000  0.50000000       0.062
   0.00000000  0.25000000  0.50000000       0.062
   0.50000000  0.25000000  0.00000000       0.062
 
 position of ions in fractional coordinates (direct lattice) 
   0.25274616  0.25461943  0.24821262
   0.99766785  0.00265878  0.00033117
   0.98186474  0.98677939  0.51696459
   0.97913237  0.51977757  0.98417944
   0.98133943  0.52020808  0.51881558
   0.51560042  0.98384567  0.98211463
   0.51801849  0.98318832  0.51849683
   0.51795999  0.52320493  0.97843908
   0.49771412  0.50270959  0.50029103
   0.24850726  0.25216844  0.75053324
   0.24891650  0.75227140  0.24911248
   0.24824610  0.75295738  0.75024847
   0.74612206  0.25359607  0.24956201
   0.74717066  0.25396561  0.75088233
   0.74787041  0.75281065  0.25101915
   0.75023443  0.75336169  0.74943137
 
 position of ions in cartesian coordinates  (Angst):
   2.13547388  2.12751833  2.15472737
   0.01269800  4.23839507  4.24828020
   6.38623979  6.36536777  8.36062098
   6.38714448  8.33797516  6.36571012
   4.41262234  6.37099782  6.37691161
   8.34922302  6.36063554  6.36798708
   6.37749616  4.40196965  6.37546470
   6.37732142  6.35504674  4.42171602
   4.25963630  4.23842109  4.24869247
   4.25836673  4.24281810  2.12631613
   4.25277019  2.11507577  4.25193788
   6.38395441  4.24049960  4.25200404
   2.13685850  4.22856371  4.24569591
   4.26748167  6.36207074  4.25171860
   4.26315776  4.24217709  6.37323193
   6.38220133  6.36892022  6.38561184
 


--------------------------------------------------------------------------------------------------------


 k-point  1 :   0.2500 0.2500 0.2500  plane waves:    2782
 k-point  2 :   0.2500 0.0000 0.0000  plane waves:    2782
 k-point  3 :   0.0000 0.0000-0.2500  plane waves:    2782
 k-point  4 :   0.0000 0.2500 0.0000  plane waves:    2782
 k-point  5 :  -0.2500 0.2500 0.2500  plane waves:    2788
 k-point  6 :   0.2500-0.2500 0.2500  plane waves:    2788
 k-point  7 :   0.2500 0.2500-0.2500  plane waves:    2788
 k-point  8 :   0.2500 0.0000 0.5000  plane waves:    2788
 k-point  9 :  -0.2500 0.5000 0.5000  plane waves:    2788
 k-point 10 :   0.2500 0.5000 0.0000  plane waves:    2788
 k-point 11 :   0.0000 0.5000-0.2500  plane waves:    2788
 k-point 12 :   0.5000 0.0000-0.2500  plane waves:    2788
 k-point 13 :   0.5000 0.5000 0.2500  plane waves:    2788
 k-point 14 :   0.5000-0.2500 0.5000  plane waves:    2788
 k-point 15 :   0.0000 0.2500 0.5000  plane waves:    2788
 k-point 16 :   0.5000 0.2500 0.0000  plane waves:    2788

 maximum and minimum number of plane-waves per node :       326      286

 maximum number of plane-waves:      2788
 maximum index in each direction: 
   IXMAX=   10   IYMAX=   10   IZMAX=   10
   IXMIN=  -10   IYMIN=  -10   IZMIN=  -10

 WARNING: aliasing errors must be expected set NGX to  42 to avoid them
 WARNING: aliasing errors must be expected set NGY to  42 to avoid them
 WARNING: aliasing errors must be expected set NGZ to  42 to avoid them
 aliasing errors are usually negligible using standard VASP settings
 and one can safely disregard these warnings

 real space projection operators:
  total allocation   :       2273.99 KBytes
  max/ min on nodes  :        319.23        209.38


 parallel 3D FFT for wavefunctions:
    minimum data exchange during FFTs selected (reduces bandwidth)
 parallel 3D FFT for charge:
    minimum data exchange during FFTs selected (reduces bandwidth)


 total amount of memory used by VASP on root node    34274. kBytes
========================================================================

   base      :      30000. kBytes
   nonlr-proj:        918. kBytes
   fftplans  :        353. kBytes
   grid      :        883. kBytes
   one-center:         32. kBytes
   wavefun   :       2088. kBytes
 
     INWAV:  cpu time    0.0000: real time    0.0003
 Broyden mixing: mesh for mixing (old mesh)
   NGX = 19   NGY = 19   NGZ = 19
  (NGX  = 60   NGY  = 60   NGZ  = 60)
  gives a total of   6859 points

 initial charge density was supplied:
 charge density of overlapping atoms calculated
 number of electron      60.0000000 magnetization      16.0000000
 keeping initial charge density in first step


--------------------------------------------------------------------------------------------------------


 Maximum index for non-local projection operator          286
 Maximum index for augmentation-charges          421 (set IRDMAX)


--------------------------------------------------------------------------------------------------------


 First call to EWALD:  gamma=   0.331
 Maximum number of real-space cells 3x 3x 3
 Maximum number of reciprocal cells 3x 3x 3

 FEWALD executed in parallel
    FEWALD:  cpu time    0.0000: real time    0.0013


----------------------------------------- Iteration    1(   1)  ---------------------------------------


    POTLOK:  cpu time    0.0080: real time    0.0104
    SETDIJ:  cpu time    0.3560: real time    0.3598
     EDDAV:  cpu time    0.6960: real time    0.7019
       DOS:  cpu time    0.0000: real time    0.0009
    --------------------------------------------
      LOOP:  cpu time    1.0640: real time    1.0759

 eigenvalue-minimisations  :  3272
 total energy-change (2. order) : 0.2401103E+03  (-0.2533600E+04)
 number of electron      60.0000000 magnetization      16.0000000
 augmentation part       60.0000000 magnetization      16.0000000

 Free energy of the ion-electron system (eV)
  ---------------------------------------------------
  alpha Z        PSCENC =       142.81396753
  Ewald energy   TEWEN  =     -2479.60861587
  -Hartree energ DENC   =      -950.92785724
  -exchange      EXHF   =         0.00000000
  -V(xc)+E(xc)   XCENC  =      -236.47756804
  PAW double counting   =      3011.45132117    -2557.24446474
  entropy T*S    EENTRO =        -0.00120260
  eigenvalues    EBANDS =        76.93135261
  atomic energy  EATOM  =      3233.17333345
  Solvation  Ediel_sol  =         0.00000000
  ---------------------------------------------------
  free energy    TOTEN  =       240.11026628 eV

  energy without entropy =      240.11146887  energy(sigma->0) =      240.11086757


--------------------------------------------------------------------------------------------------------




----------------------------------------- Iteration    1(   2)  ---------------------------------------


     EDDAV:  cpu time    0.7280: real time    0.7263
       DOS:  cpu time    0.0000: real time    0.0009
    --------------------------------------------
      LOOP:  cpu time    0.7280: real time    0.7323

 eigenvalue-minimisations  :  3856
 total energy-change (2. order) :-0.3021127E+03  (-0.2919504E+03)
 number of electron      60.0000000 magnetization      16.0000000
 augmentation part       60.0000000 magnetization      16.0000000

 Free energy of the ion-electron system (eV)
  ---------------------------------------------------
  alpha Z        PSCENC =       142.81396753
  Ewald energy   TEWEN  =     -2479.60861587
  -Hartree energ DENC   =      -950.92785724
  -exchange      EXHF   =         0.00000000
  -V(xc)+E(xc)   XCENC  =      -236.47756804
  PAW double counting   =      3011.45132117    -2557.24446474
  entropy T*S    EENTRO =        -0.00350633
  eigenvalues    EBANDS =      -225.17907632
  atomic energy  EATOM  =      3233.17333345
  Solvation  Ediel_sol  =         0.00000000
  ---------------------------------------------------
  free energy    TOTEN  =       -62.00246639 eV

  energy without entropy =      -61.99896006  energy(sigma->0) =      -62.00071322


--------------------------------------------------------------------------------------------------------




----------------------------------------- Iteration    1(   3)  ---------------------------------------


     EDDAV:  cpu time    0.7440: real time    0.7437
       DOS:  cpu time    0.0000: real time    0.0010
    --------------------------------------------
      LOOP:  cpu time    0.7440: real time    0.7479

 eigenvalue-minimisations  :  3760
 total energy-change (2. order) :-0.1749891E+02  (-0.1736666E+02)
 number of electron      60.0000000 magnetization      16.0000000
 augmentation part       60.0000000 magnetization      16.0000000

 Free energy of the ion-electron system (eV)
  ---------------------------------------------------
  alpha Z        PSCENC =       142.81396753
  Ewald energy   TEWEN  =     -2479.60861587
  -Hartree energ DENC   =      -950.92785724
  -exchange      EXHF   =         0.00000000
  -V(xc)+E(xc)   XCENC  =      -236.47756804
  PAW double counting   =      3011.45132117    -2557.24446474
  entropy T*S    EENTRO =        -0.00954347
  eigenvalues    EBANDS =      -242.67194942
  atomic energy  EATOM  =      3233.17333345
  Solvation  Ediel_sol  =         0.00000000
  ---------------------------------------------------
  free energy    TOTEN  =       -79.50137663 eV

  energy without entropy =      -79.49183316  energy(sigma->0) =      -79.49660490


--------------------------------------------------------------------------------------------------------




----------------------------------------- Iteration    1(   4)  ---------------------------------------


     EDDAV:  cpu time    0.6800: real time    0.6802
       DOS:  cpu time    0.0000: real time    0.0009
    --------------------------------------------
      LOOP:  cpu time    0.6800: real time    0.6841

 eigenvalue-minimisations  :  3472
 total energy-change (2. order) :-0.1123403E+00  (-0.1121048E+00)
 number of electron      60.0000000 magnetization      16.0000000
 augmentation part       60.0000000 magnetization      16.0000000

 Free energy of the ion-electron system (eV)
  ---------------------------------------------------
  alpha Z        PSCENC =       142.81396753
  Ewald energy   TEWEN  =     -2479.60861587
  -Hartree energ DENC   =      -950.92785724
  -exchange      EXHF   =         0.00000000
  -V(xc)+E(xc)   XCENC  =      -236.47756804
  PAW double counting   =      3011.45132117    -2557.24446474
  entropy T*S    EENTRO =        -0.00963823
  eigenvalues    EBANDS =      -242.78419496
  atomic energy  EATOM  =      3233.17333345
  Solvation  Ediel_sol  =         0.00000000
  ---------------------------------------------------
  free energy    TOTEN  =       -79.61371693 eV

  energy without entropy =      -79.60407870  energy(sigma->0) =      -79.60889781


--------------------------------------------------------------------------------------------------------




----------------------------------------- Iteration    1(   5)  ---------------------------------------


     EDDAV:  cpu time    0.7080: real time    0.7061
       DOS:  cpu time    0.0000: real time    0.0009
    CHARGE:  cpu time    0.0200: real time    0.0177
    MIXING:  cpu time    0.0000: real time    0.0003
    --------------------------------------------
      LOOP:  cpu time    0.7280: real time    0.7278

 eigenvalue-minimisations  :  3688
 total energy-change (2. order) :-0.6035795E-03  (-0.6035296E-03)
 number of electron      59.9999866 magnetization       2.0795754
 augmentation part        5.5670455 magnetization       0.1921633

 Broyden mixing:
  rms(total) = 0.26378E+01    rms(broyden)= 0.26371E+01
  rms(prec ) = 0.44370E+01
  weight for this iteration     100.00

 Free energy of the ion-electron system (eV)
  ---------------------------------------------------
  alpha Z        PSCENC =       142.81396753
  Ewald energy   TEWEN  =     -2479.60861587
  -Hartree energ DENC   =      -950.92785724
  -exchange      EXHF   =         0.00000000
  -V(xc)+E(xc)   XCENC  =      -236.47756804
  PAW double counting   =      3011.45132117    -2557.24446474
  entropy T*S    EENTRO =        -0.00963818
  eigenvalues    EBANDS =      -242.78479859
  atomic energy  EATOM  =      3233.17333345
  Solvation  Ediel_sol  =         0.00000000
  ---------------------------------------------------
  free energy    TOTEN  =       -79.61432051 eV

  energy without entropy =      -79.60468233  energy(sigma->0) =      -79.60950142


--------------------------------------------------------------------------------------------------------




----------------------------------------- Iteration    1(   6)  ---------------------------------------


    POTLOK:  cpu time    0.0080: real time    0.0087
    SETDIJ:  cpu time    0.3760: real time    0.3761
     EDDAV:  cpu time    0.6280: real time    0.6280
       DOS:  cpu time    0.0000: real time    0.0011
    CHARGE:  cpu time    0.0200: real time    0.0185
    MIXING:  cpu time    0.0000: real time    0.0003
    --------------------------------------------
      LOOP:  cpu time    1.0320: real time    1.0356

 eigenvalue-minimisations  :  3168
 total energy-change (2. order) : 0.5470680E+01  (-0.3915112E+01)
 number of electron      59.9999892 magnetization       0.9904564
 augmentation part        4.5581665 magnetization       0.0426424

 Broyden mixing:
  rms(total) = 0.72433E+00    rms(broyden)= 0.72271E+00
  rms(prec ) = 0.10526E+01
  weight for this iteration     100.00

 eigenvalues of (default mixing * dielectric matrix)
  average eigenvalue GAMMA=   0.8544
  0.8544

 Free energy of the ion-electron system (eV)
  ---------------------------------------------------
  alpha Z        PSCENC =       142.81396753
  Ewald energy   TEWEN  =     -2479.60861587
  -Hartree energ DENC   =     -1082.52681201
  -exchange      EXHF   =         0.00000000
  -V(xc)+E(xc)   XCENC  =      -229.99577748
  PAW double counting   =      3571.28448942    -3119.33225188
  entropy T*S    EENTRO =        -0.01878631
  eigenvalues    EBANDS =      -109.93318719
  atomic energy  EATOM  =      3233.17333345
  Solvation  Ediel_sol  =         0.00000000
  ---------------------------------------------------
  free energy    TOTEN  =       -74.14364035 eV

  energy without entropy =      -74.12485404  energy(sigma->0) =      -74.13424719


--------------------------------------------------------------------------------------------------------




----------------------------------------- Iteration    1(   7)  ---------------------------------------


    POTLOK:  cpu time    0.0080: real time    0.0085
    SETDIJ:  cpu time    0.3760: real time    0.3752
     EDDAV:  cpu time    0.6400: real time    0.6404
       DOS:  cpu time    0.0000: real time    0.0009
    CHARGE:  cpu time    0.0160: real time    0.0178
    MIXING:  cpu time    0.0000: real time    0.0003
    --------------------------------------------
      LOOP:  cpu time    1.0400: real time    1.0462

 eigenvalue-minimisations  :  3200
 total energy-change (2. order) :-0.2218007E+00  (-0.1356231E+00)
 number of electron      59.9999891 magnetization       0.0541586
 augmentation part        4.5907118 magnetization      -0.4520107

 Broyden mixing:
  rms(total) = 0.37924E+00    rms(broyden)= 0.37918E+00
  rms(prec ) = 0.60375E+00
  weight for this iteration     100.00

 eigenvalues of (default mixing * dielectric matrix)
  average eigenvalue GAMMA=   1.0549
  0.9266  1.1832

 Free energy of the ion-electron system (eV)
  ---------------------------------------------------
  alpha Z        PSCENC =       142.81396753
  Ewald energy   TEWEN  =     -2479.60861587
  -Hartree energ DENC   =     -1076.13432096
  -exchange      EXHF   =         0.00000000
  -V(xc)+E(xc)   XCENC  =      -230.22612716
  PAW double counting   =      3745.72375625    -3293.48065141
  entropy T*S    EENTRO =        -0.00968742
  eigenvalues    EBANDS =      -116.61709544
  atomic energy  EATOM  =      3233.17333345
  Solvation  Ediel_sol  =         0.00000000
  ---------------------------------------------------
  free energy    TOTEN  =       -74.36544104 eV

  energy without entropy =      -74.35575362  energy(sigma->0) =      -74.36059733


--------------------------------------------------------------------------------------------------------




----------------------------------------- Iteration    1(   8)  ---------------------------------------


    POTLOK:  cpu time    0.0120: real time    0.0091
    SETDIJ:  cpu time    0.3760: real time    0.3754
     EDDAV:  cpu time    0.7040: real time    0.7071
       DOS:  cpu time    0.0000: real time    0.0009
    CHARGE:  cpu time    0.0200: real time    0.0179
    MIXING:  cpu time    0.0000: real time    0.0003
    --------------------------------------------
      LOOP:  cpu time    1.1120: real time    1.1140

 eigenvalue-minimisations  :  3728
 total energy-change (2. order) : 0.6181140E-01  (-0.3863809E-01)
 number of electron      59.9999890 magnetization      -0.1286305
 augmentation part        4.6118260 magnetization      -0.1314619

 Broyden mixing:
  rms(total) = 0.10842E+00    rms(broyden)= 0.10839E+00
  rms(prec ) = 0.18044E+00
  weight for this iteration     100.00

 eigenvalues of (default mixing * dielectric matrix)
  average eigenvalue GAMMA=   1.2697
  2.0844  0.8897  0.8351

 Free energy of the ion-electron system (eV)
  ---------------------------------------------------
  alpha Z        PSCENC =       142.81396753
  Ewald energy   TEWEN  =     -2479.60861587
  -Hartree energ DENC   =     -1078.17793306
  -exchange      EXHF   =         0.00000000
  -V(xc)+E(xc)   XCENC  =      -229.47870424
  PAW double counting   =      4014.78150452    -3562.32205962
  entropy T*S    EENTRO =        -0.00059015
  eigenvalues    EBANDS =      -115.48453219
  atomic energy  EATOM  =      3233.17333345
  Solvation  Ediel_sol  =         0.00000000
  ---------------------------------------------------
  free energy    TOTEN  =       -74.30362964 eV

  energy without entropy =      -74.30303948  energy(sigma->0) =      -74.30333456


--------------------------------------------------------------------------------------------------------




----------------------------------------- Iteration    1(   9)  ---------------------------------------


    POTLOK:  cpu time    0.0080: real time    0.0087
    SETDIJ:  cpu time    0.3760: real time    0.3763
     EDDAV:  cpu time    0.7120: real time    0.7110
       DOS:  cpu time    0.0000: real time    0.0010
    CHARGE:  cpu time    0.0200: real time    0.0188
    MIXING:  cpu time    0.0000: real time    0.0004
    --------------------------------------------
      LOOP:  cpu time    1.1160: real time    1.1191

 eigenvalue-minimisations  :  3728
 total energy-change (2. order) : 0.7426717E-02  (-0.4313795E-02)
 number of electron      59.9999891 magnetization      -0.0352747
 augmentation part        4.5966041 magnetization      -0.0118296

 Broyden mixing:
  rms(total) = 0.37891E-01    rms(broyden)= 0.37882E-01
  rms(prec ) = 0.53683E-01
  weight for this iteration     100.00

 eigenvalues of (default mixing * dielectric matrix)
  average eigenvalue GAMMA=   1.2146
  2.2948  0.9487  0.9487  0.6661

 Free energy of the ion-electron system (eV)
  ---------------------------------------------------
  alpha Z        PSCENC =       142.81396753
  Ewald energy   TEWEN  =     -2479.60861587
  -Hartree energ DENC   =     -1082.60869850
  -exchange      EXHF   =         0.00000000
  -V(xc)+E(xc)   XCENC  =      -229.02078935
  PAW double counting   =      4080.14778694    -3627.66781258
  entropy T*S    EENTRO =        -0.00191270
  eigenvalues    EBANDS =      -111.52346183
  atomic energy  EATOM  =      3233.17333345
  Solvation  Ediel_sol  =         0.00000000
  ---------------------------------------------------
  free energy    TOTEN  =       -74.29620292 eV

  energy without entropy =      -74.29429022  energy(sigma->0) =      -74.29524657


--------------------------------------------------------------------------------------------------------




----------------------------------------- Iteration    1(  10)  ---------------------------------------


    POTLOK:  cpu time    0.0080: real time    0.0089
    SETDIJ:  cpu time    0.3760: real time    0.3763
     EDDAV:  cpu time    0.7000: real time    0.6991
       DOS:  cpu time    0.0000: real time    0.0009
    CHARGE:  cpu time    0.0200: real time    0.0194
    MIXING:  cpu time    0.0000: real time    0.0004
    --------------------------------------------
      LOOP:  cpu time    1.1040: real time    1.1080

 eigenvalue-minimisations  :  3536
 total energy-change (2. order) :-0.1296273E-02  (-0.6566484E-03)
 number of electron      59.9999891 magnetization       0.0014659
 augmentation part        4.5892547 magnetization       0.0074788

 Broyden mixing:
  rms(total) = 0.17432E-01    rms(broyden)= 0.17424E-01
  rms(prec ) = 0.24488E-01
  weight for this iteration     100.00

 eigenvalues of (default mixing * dielectric matrix)
  average eigenvalue GAMMA=   1.2093
  2.4292  1.1858  0.8930  0.8930  0.6457

 Free energy of the ion-electron system (eV)
  ---------------------------------------------------
  alpha Z        PSCENC =       142.81396753
  Ewald energy   TEWEN  =     -2479.60861587
  -Hartree energ DENC   =     -1083.74377831
  -exchange      EXHF   =         0.00000000
  -V(xc)+E(xc)   XCENC  =      -228.92083161
  PAW double counting   =      4079.42900759    -3626.94657348
  entropy T*S    EENTRO =        -0.00089959
  eigenvalues    EBANDS =      -110.49310890
  atomic energy  EATOM  =      3233.17333345
  Solvation  Ediel_sol  =         0.00000000
  ---------------------------------------------------
  free energy    TOTEN  =       -74.29749919 eV

  energy without entropy =      -74.29659960  energy(sigma->0) =      -74.29704940


--------------------------------------------------------------------------------------------------------




----------------------------------------- Iteration    1(  11)  ---------------------------------------


    POTLOK:  cpu time    0.0080: real time    0.0084
    SETDIJ:  cpu time    0.3760: real time    0.3769
     EDDAV:  cpu time    0.7000: real time    0.6997
       DOS:  cpu time    0.0000: real time    0.0008
    CHARGE:  cpu time    0.0160: real time    0.0174
    MIXING:  cpu time    0.0000: real time    0.0004
    --------------------------------------------
      LOOP:  cpu time    1.1040: real time    1.1069

 eigenvalue-minimisations  :  3616
 total energy-change (2. order) :-0.2066595E-03  (-0.8013594E-04)
 number of electron      59.9999891 magnetization       0.0050776
 augmentation part        4.5905334 magnetization       0.0056960

 Broyden mixing:
  rms(total) = 0.71210E-02    rms(broyden)= 0.71197E-02
  rms(prec ) = 0.10092E-01
  weight for this iteration     100.00

 eigenvalues of (default mixing * dielectric matrix)
  average eigenvalue GAMMA=   1.2467
  2.5483  1.4799  0.9961  0.9114  0.9114  0.6326

 Free energy of the ion-electron system (eV)
  ---------------------------------------------------
  alpha Z        PSCENC =       142.81396753
  Ewald energy   TEWEN  =     -2479.60861587
  -Hartree energ DENC   =     -1083.71407693
  -exchange      EXHF   =         0.00000000
  -V(xc)+E(xc)   XCENC  =      -228.90355815
  PAW double counting   =      4075.76779654    -3623.27349513
  entropy T*S    EENTRO =        -0.00090563
  eigenvalues    EBANDS =      -110.55215165
  atomic energy  EATOM  =      3233.17333345
  Solvation  Ediel_sol  =         0.00000000
  ---------------------------------------------------
  free energy    TOTEN  =       -74.29770585 eV

  energy without entropy =      -74.29680023  energy(sigma->0) =      -74.29725304


--------------------------------------------------------------------------------------------------------




----------------------------------------- Iteration    1(  12)  ---------------------------------------


    POTLOK:  cpu time    0.0080: real time    0.0081
    SETDIJ:  cpu time    0.3760: real time    0.3752
     EDDAV:  cpu time    0.6880: real time    0.6894
       DOS:  cpu time    0.0000: real time    0.0008
    CHARGE:  cpu time    0.0200: real time    0.0173
    MIXING:  cpu time    0.0000: real time    0.0004
    --------------------------------------------
      LOOP:  cpu time    1.0920: real time    1.0941

 eigenvalue-minimisations  :  3608
 total energy-change (2. order) :-0.6504290E-04  (-0.1266596E-04)
 number of electron      59.9999891 magnetization       0.0010963
 augmentation part        4.5912646 magnetization       0.0001632

 Broyden mixing:
  rms(total) = 0.30328E-02    rms(broyden)= 0.30316E-02
  rms(prec ) = 0.38936E-02
  weight for this iteration     100.00

 eigenvalues of (default mixing * dielectric matrix)
  average eigenvalue GAMMA=   1.2355
  2.5573  1.7987  1.0603  0.8688  0.8688  0.8641  0.6307

 Free energy of the ion-electron system (eV)
  ---------------------------------------------------
  alpha Z        PSCENC =       142.81396753
  Ewald energy   TEWEN  =     -2479.60861587
  -Hartree energ DENC   =     -1083.69763711
  -exchange      EXHF   =         0.00000000
  -V(xc)+E(xc)   XCENC  =      -228.89387105
  PAW double counting   =      4071.25327196    -3618.75416154
  entropy T*S    EENTRO =        -0.00095045
  eigenvalues    EBANDS =      -110.58310782
  atomic energy  EATOM  =      3233.17333345
  Solvation  Ediel_sol  =         0.00000000
  ---------------------------------------------------
  free energy    TOTEN  =       -74.29777090 eV

  energy without entropy =      -74.29682044  energy(sigma->0) =      -74.29729567


--------------------------------------------------------------------------------------------------------




----------------------------------------- Iteration    1(  13)  ---------------------------------------


    POTLOK:  cpu time    0.0080: real time    0.0083
    SETDIJ:  cpu time    0.3760: real time    0.3774
     EDDAV:  cpu time    0.6880: real time    0.6892
       DOS:  cpu time    0.0040: real time    0.0010
    CHARGE:  cpu time    0.0160: real time    0.0174
    MIXING:  cpu time    0.0000: real time    0.0005
    --------------------------------------------
      LOOP:  cpu time    1.0920: real time    1.0969

 eigenvalue-minimisations  :  3544
 total energy-change (2. order) :-0.2166564E-04  (-0.2035128E-05)
 number of electron      59.9999891 magnetization      -0.0006065
 augmentation part        4.5913055 magnetization      -0.0008793

 Broyden mixing:
  rms(total) = 0.15164E-02    rms(broyden)= 0.15162E-02
  rms(prec ) = 0.19129E-02
  weight for this iteration     100.00

 eigenvalues of (default mixing * dielectric matrix)
  average eigenvalue GAMMA=   1.2860
  2.5622  2.3486  1.1362  1.0422  0.9440  0.9440  0.6827  0.6280

 Free energy of the ion-electron system (eV)
  ---------------------------------------------------
  alpha Z        PSCENC =       142.81396753
  Ewald energy   TEWEN  =     -2479.60861587
  -Hartree energ DENC   =     -1083.69884204
  -exchange      EXHF   =         0.00000000
  -V(xc)+E(xc)   XCENC  =      -228.88987195
  PAW double counting   =      4068.83096849    -3616.33232202
  entropy T*S    EENTRO =        -0.00095474
  eigenvalues    EBANDS =      -110.58545541
  atomic energy  EATOM  =      3233.17333345
  Solvation  Ediel_sol  =         0.00000000
  ---------------------------------------------------
  free energy    TOTEN  =       -74.29779256 eV

  energy without entropy =      -74.29683782  energy(sigma->0) =      -74.29731519


--------------------------------------------------------------------------------------------------------




----------------------------------------- Iteration    1(  14)  ---------------------------------------


    POTLOK:  cpu time    0.0080: real time    0.0090
    SETDIJ:  cpu time    0.3760: real time    0.3767
     EDDAV:  cpu time    0.6840: real time    0.6845
       DOS:  cpu time    0.0040: real time    0.0010
    CHARGE:  cpu time    0.0160: real time    0.0181
    MIXING:  cpu time    0.0000: real time    0.0005
    --------------------------------------------
      LOOP:  cpu time    1.0880: real time    1.0932

 eigenvalue-minimisations  :  3504
 total energy-change (2. order) :-0.4990158E-05  (-0.4675990E-06)
 number of electron      59.9999891 magnetization      -0.0003506
 augmentation part        4.5913169 magnetization      -0.0002766

 Broyden mixing:
  rms(total) = 0.57710E-03    rms(broyden)= 0.57704E-03
  rms(prec ) = 0.77045E-03
  weight for this iteration     100.00

 eigenvalues of (default mixing * dielectric matrix)
  average eigenvalue GAMMA=   1.2872
  2.7295  2.4118  1.3534  0.9270  0.9270  0.9754  0.9754  0.6255  0.6600

 Free energy of the ion-electron system (eV)
  ---------------------------------------------------
  alpha Z        PSCENC =       142.81396753
  Ewald energy   TEWEN  =     -2479.60861587
  -Hartree energ DENC   =     -1083.69500283
  -exchange      EXHF   =         0.00000000
  -V(xc)+E(xc)   XCENC  =      -228.88815424
  PAW double counting   =      4067.54545095    -3615.04749598
  entropy T*S    EENTRO =        -0.00095473
  eigenvalues    EBANDS =      -110.59032583
  atomic energy  EATOM  =      3233.17333345
  Solvation  Ediel_sol  =         0.00000000
  ---------------------------------------------------
  free energy    TOTEN  =       -74.29779755 eV

  energy without entropy =      -74.29684282  energy(sigma->0) =      -74.29732019


--------------------------------------------------------------------------------------------------------




----------------------------------------- Iteration    1(  15)  ---------------------------------------


    POTLOK:  cpu time    0.0120: real time    0.0090
    SETDIJ:  cpu time    0.3760: real time    0.3758
     EDDAV:  cpu time    0.5800: real time    0.5811
       DOS:  cpu time    0.0000: real time    0.0008
    --------------------------------------------
      LOOP:  cpu time    0.9680: real time    0.9697

 eigenvalue-minimisations  :  2720
 total energy-change (2. order) :-0.7162466E-06  (-0.1189491E-06)
 number of electron      59.9999891 magnetization      -0.0003506
 augmentation part        4.5913169 magnetization      -0.0002766

 Free energy of the ion-electron system (eV)
  ---------------------------------------------------
  alpha Z        PSCENC =       142.81396753
  Ewald energy   TEWEN  =     -2479.60861587
  -Hartree energ DENC   =     -1083.69724518
  -exchange      EXHF   =         0.00000000
  -V(xc)+E(xc)   XCENC  =      -228.88729192
  PAW double counting   =      4066.99393260    -3614.49662608
  entropy T*S    EENTRO =        -0.00095352
  eigenvalues    EBANDS =      -110.58829929
  atomic energy  EATOM  =      3233.17333345
  Solvation  Ediel_sol  =         0.00000000
  ---------------------------------------------------
  free energy    TOTEN  =       -74.29779827 eV

  energy without entropy =      -74.29684475  energy(sigma->0) =      -74.29732151


--------------------------------------------------------------------------------------------------------




 average (electrostatic) potential at core
  the test charge radii are     1.0714  0.7215
  (the norm of the test charge is              1.0000)
       1 -34.2362       2 -34.7173       3 -34.9757       4 -34.9862       5 -34.9973
       6 -35.0003       7 -35.0117       8 -35.0265       9 -34.7182      10 -69.4605
      11 -69.4613      12 -69.4615      13 -69.4617      14 -69.4617      15 -69.4602
      16 -71.0716
 
 
 
 E-fermi :   8.6725     XC(G=0): -11.1183     alpha+bet :-13.4669


 spin component 1

 k-point     1 :       0.2500    0.2500    0.2500
  band No.  band energies     occupation 
      1     -14.8681      1.00000
      2     -13.2080      1.00000
      3     -12.6698      1.00000
      4     -12.4906      1.00000
      5     -12.4892      1.00000
      6     -12.3102      1.00000
      7     -12.3089      1.00000
      8      -1.7216      1.00000
      9      -1.7207      1.00000
     10      -1.5271      1.00000
     11      -0.7700      1.00000
     12      -0.3869      1.00000
     13       0.0288      1.00000
     14       0.0301      1.00000
     15       0.7391      1.00000
     16       1.2221      1.00000
     17       1.2230      1.00000
     18       1.7050      1.00000
     19       1.7085      1.00000
     20       1.9353      1.00000
     21       2.0603      1.00000
     22       2.3122      1.00000
     23       2.3160      1.00000
     24       2.6908      1.00000
     25       2.7908      1.00000
     26       2.7940      1.00000
     27       2.9310      1.00000
     28       2.9346      1.00000
     29       4.1603      1.00000
     30       8.5895      0.99054
     31       9.5136      0.00000
     32       9.8094      0.00000
     33       9.8132      0.00000
     34      11.0275      0.00000
     35      11.2831      0.00000
     36      11.2884      0.00000
     37      12.0591      0.00000
     38      12.0595      0.00000
     39      12.7790      0.00000
     40      12.9261      0.00000
     41      12.9289      0.00000
     42      13.0750      0.00000
     43      15.0977      0.00000
     44      15.1464      0.00000
     45      15.1483      0.00000
     46      15.3501      0.00000
     47      16.7167      0.00000
     48      17.1859      0.00000

 k-point     2 :       0.2500    0.0000    0.0000
  band No.  band energies     occupation 
      1     -14.8681      1.00000
      2     -13.2080      1.00000
      3     -12.6698      1.00000
      4     -12.4907      1.00000
      5     -12.4891      1.00000
      6     -12.3104      1.00000
      7     -12.3088      1.00000
      8      -1.7217      1.00000
      9      -1.7204      1.00000
     10      -1.5273      1.00000
     11      -0.7700      1.00000
     12      -0.3868      1.00000
     13       0.0287      1.00000
     14       0.0299      1.00000
     15       0.7390      1.00000
     16       1.2217      1.00000
     17       1.2234      1.00000
     18       1.7050      1.00000
     19       1.7086      1.00000
     20       1.9354      1.00000
     21       2.0604      1.00000
     22       2.3122      1.00000
     23       2.3166      1.00000
     24       2.6904      1.00000
     25       2.7909      1.00000
     26       2.7935      1.00000
     27       2.9304      1.00000
     28       2.9351      1.00000
     29       4.1605      1.00000
     30       8.5898      0.99037
     31       9.5140      0.00000
     32       9.8093      0.00000
     33       9.8125      0.00000
     34      11.0275      0.00000
     35      11.2833      0.00000
     36      11.2884      0.00000
     37      12.0586      0.00000
     38      12.0604      0.00000
     39      12.7792      0.00000
     40      12.9256      0.00000
     41      12.9291      0.00000
     42      13.0751      0.00000
     43      15.0983      0.00000
     44      15.1456      0.00000
     45      15.1482      0.00000
     46      15.3501      0.00000
     47      16.7168      0.00000
     48      17.1854      0.00000

 k-point     3 :       0.0000    0.0000   -0.2500
  band No.  band energies     occupation 
      1     -14.8682      1.00000
      2     -13.2080      1.00000
      3     -12.6698      1.00000
      4     -12.4913      1.00000
      5     -12.4886      1.00000
      6     -12.3109      1.00000
      7     -12.3082      1.00000
      8      -1.7222      1.00000
      9      -1.7208      1.00000
     10      -1.5264      1.00000
     11      -0.7700      1.00000
     12      -0.3867      1.00000
     13       0.0288      1.00000
     14       0.0299      1.00000
     15       0.7395      1.00000
     16       1.2212      1.00000
     17       1.2238      1.00000
     18       1.7040      1.00000
     19       1.7095      1.00000
     20       1.9356      1.00000
     21       2.0598      1.00000
     22       2.3109      1.00000
     23       2.3178      1.00000
     24       2.6904      1.00000
     25       2.7911      1.00000
     26       2.7939      1.00000
     27       2.9302      1.00000
     28       2.9348      1.00000
     29       4.1605      1.00000
     30       8.5894      0.99067
     31       9.5130      0.00000
     32       9.8097      0.00000
     33       9.8143      0.00000
     34      11.0277      0.00000
     35      11.2822      0.00000
     36      11.2887      0.00000
     37      12.0580      0.00000
     38      12.0606      0.00000
     39      12.7782      0.00000
     40      12.9230      0.00000
     41      12.9321      0.00000
     42      13.0753      0.00000
     43      15.0968      0.00000
     44      15.1467      0.00000
     45      15.1496      0.00000
     46      15.3504      0.00000
     47      16.7163      0.00000
     48      17.1867      0.00000

 k-point     4 :       0.0000    0.2500    0.0000
  band No.  band energies     occupation 
      1     -14.8681      1.00000
      2     -13.2080      1.00000
      3     -12.6698      1.00000
      4     -12.4914      1.00000
      5     -12.4885      1.00000
      6     -12.3111      1.00000
      7     -12.3081      1.00000
      8      -1.7222      1.00000
      9      -1.7204      1.00000
     10      -1.5268      1.00000
     11      -0.7699      1.00000
     12      -0.3865      1.00000
     13       0.0286      1.00000
     14       0.0297      1.00000
     15       0.7392      1.00000
     16       1.2214      1.00000
     17       1.2237      1.00000
     18       1.7037      1.00000
     19       1.7097      1.00000
     20       1.9355      1.00000
     21       2.0602      1.00000
     22       2.3105      1.00000
     23       2.3183      1.00000
     24       2.6902      1.00000
     25       2.7921      1.00000
     26       2.7928      1.00000
     27       2.9319      1.00000
     28       2.9333      1.00000
     29       4.1605      1.00000
     30       8.5895      0.99057
     31       9.5131      0.00000
     32       9.8102      0.00000
     33       9.8133      0.00000
     34      11.0275      0.00000
     35      11.2824      0.00000
     36      11.2887      0.00000
     37      12.0580      0.00000
     38      12.0605      0.00000
     39      12.7783      0.00000
     40      12.9226      0.00000
     41      12.9327      0.00000
     42      13.0755      0.00000
     43      15.0965      0.00000
     44      15.1472      0.00000
     45      15.1495      0.00000
     46      15.3505      0.00000
     47      16.7163      0.00000
     48      17.1907      0.00000

 k-point     5 :      -0.2500    0.2500    0.2500
  band No.  band energies     occupation 
      1     -14.8283      1.00000
      2     -13.0297      1.00000
      3     -12.8181      1.00000
      4     -12.5366      1.00000
      5     -12.5266      1.00000
      6     -12.4126      1.00000
      7     -12.2730      1.00000
      8      -1.3698      1.00000
      9      -1.3041      1.00000
     10      -0.9685      1.00000
     11      -0.5696      1.00000
     12      -0.1720      1.00000
     13       0.0249      1.00000
     14       0.5359      1.00000
     15       0.5808      1.00000
     16       0.8866      1.00000
     17       0.9198      1.00000
     18       1.3075      1.00000
     19       1.4674      1.00000
     20       1.4891      1.00000
     21       1.7643      1.00000
     22       1.7793      1.00000
     23       2.0520      1.00000
     24       2.3001      1.00000
     25       2.5812      1.00000
     26       2.6268      1.00000
     27       2.7232      1.00000
     28       2.8330      1.00000
     29       5.4419      1.00000
     30       7.8683      1.00000
     31       8.7704      0.00282
     32       9.1930      0.00000
     33      10.7335      0.00000
     34      11.6660      0.00000
     35      12.3218      0.00000
     36      12.5042      0.00000
     37      12.5754      0.00000
     38      13.1069      0.00000
     39      13.2022      0.00000
     40      14.0321      0.00000
     41      14.0801      0.00000
     42      14.1236      0.00000
     43      14.3650      0.00000
     44      14.5476      0.00000
     45      14.6017      0.00000
     46      15.0635      0.00000
     47      15.3222      0.00000
     48      15.8847      0.00000

 k-point     6 :       0.2500   -0.2500    0.2500
  band No.  band energies     occupation 
      1     -14.8283      1.00000
      2     -13.0296      1.00000
      3     -12.8181      1.00000
      4     -12.5384      1.00000
      5     -12.5248      1.00000
      6     -12.4127      1.00000
      7     -12.2730      1.00000
      8      -1.3703      1.00000
      9      -1.3042      1.00000
     10      -0.9681      1.00000
     11      -0.5693      1.00000
     12      -0.1716      1.00000
     13       0.0262      1.00000
     14       0.5352      1.00000
     15       0.5793      1.00000
     16       0.8855      1.00000
     17       0.9198      1.00000
     18       1.3057      1.00000
     19       1.4676      1.00000
     20       1.4937      1.00000
     21       1.7644      1.00000
     22       1.7794      1.00000
     23       2.0502      1.00000
     24       2.3005      1.00000
     25       2.5814      1.00000
     26       2.6268      1.00000
     27       2.7254      1.00000
     28       2.8305      1.00000
     29       5.4418      1.00000
     30       7.8690      1.00000
     31       8.7694      0.00306
     32       9.1935      0.00000
     33      10.7326      0.00000
     34      11.6669      0.00000
     35      12.3203      0.00000
     36      12.5043      0.00000
     37      12.5767      0.00000
     38      13.1069      0.00000
     39      13.2036      0.00000
     40      14.0266      0.00000
     41      14.0791      0.00000
     42      14.1247      0.00000
     43      14.3681      0.00000
     44      14.5473      0.00000
     45      14.6011      0.00000
     46      15.0690      0.00000
     47      15.3229      0.00000
     48      15.8807      0.00000

 k-point     7 :       0.2500    0.2500   -0.2500
  band No.  band energies     occupation 
      1     -14.8283      1.00000
      2     -13.0300      1.00000
      3     -12.8178      1.00000
      4     -12.5368      1.00000
      5     -12.5261      1.00000
      6     -12.4123      1.00000
      7     -12.2735      1.00000
      8      -1.3707      1.00000
      9      -1.3043      1.00000
     10      -0.9679      1.00000
     11      -0.5697      1.00000
     12      -0.1714      1.00000
     13       0.0269      1.00000
     14       0.5355      1.00000
     15       0.5777      1.00000
     16       0.8852      1.00000
     17       0.9199      1.00000
     18       1.3045      1.00000
     19       1.4714      1.00000
     20       1.4945      1.00000
     21       1.7650      1.00000
     22       1.7791      1.00000
     23       2.0489      1.00000
     24       2.3013      1.00000
     25       2.5817      1.00000
     26       2.6259      1.00000
     27       2.7269      1.00000
     28       2.8274      1.00000
     29       5.4412      1.00000
     30       7.8710      1.00000
     31       8.7688      0.00324
     32       9.1922      0.00000
     33      10.7327      0.00000
     34      11.6673      0.00000
     35      12.3189      0.00000
     36      12.5072      0.00000
     37      12.5755      0.00000
     38      13.1082      0.00000
     39      13.2045      0.00000
     40      14.0261      0.00000
     41      14.0711      0.00000
     42      14.1305      0.00000
     43      14.3688      0.00000
     44      14.5425      0.00000
     45      14.6008      0.00000
     46      15.0757      0.00000
     47      15.3242      0.00000
     48      15.8781      0.00000

 k-point     8 :       0.2500    0.0000    0.5000
  band No.  band energies     occupation 
      1     -14.8283      1.00000
      2     -13.0296      1.00000
      3     -12.8181      1.00000
      4     -12.5381      1.00000
      5     -12.5251      1.00000
      6     -12.4127      1.00000
      7     -12.2730      1.00000
      8      -1.3703      1.00000
      9      -1.3043      1.00000
     10      -0.9680      1.00000
     11      -0.5695      1.00000
     12      -0.1714      1.00000
     13       0.0250      1.00000
     14       0.5358      1.00000
     15       0.5809      1.00000
     16       0.8866      1.00000
     17       0.9198      1.00000
     18       1.3074      1.00000
     19       1.4662      1.00000
     20       1.4897      1.00000
     21       1.7644      1.00000
     22       1.7796      1.00000
     23       2.0514      1.00000
     24       2.3002      1.00000
     25       2.5815      1.00000
     26       2.6271      1.00000
     27       2.7232      1.00000
     28       2.8327      1.00000
     29       5.4419      1.00000
     30       7.8675      1.00000
     31       8.7708      0.00273
     32       9.1938      0.00000
     33      10.7328      0.00000
     34      11.6668      0.00000
     35      12.3219      0.00000
     36      12.5035      0.00000
     37      12.5753      0.00000
     38      13.1063      0.00000
     39      13.2026      0.00000
     40      14.0303      0.00000
     41      14.0788      0.00000
     42      14.1251      0.00000
     43      14.3654      0.00000
     44      14.5511      0.00000
     45      14.6008      0.00000
     46      15.0625      0.00000
     47      15.3221      0.00000
     48      15.8842      0.00000

 k-point     9 :      -0.2500    0.5000    0.5000
  band No.  band energies     occupation 
      1     -14.8283      1.00000
      2     -13.0296      1.00000
      3     -12.8181      1.00000
      4     -12.5366      1.00000
      5     -12.5266      1.00000
      6     -12.4126      1.00000
      7     -12.2730      1.00000
      8      -1.3700      1.00000
      9      -1.3044      1.00000
     10      -0.9682      1.00000
     11      -0.5696      1.00000
     12      -0.1716      1.00000
     13       0.0275      1.00000
     14       0.5352      1.00000
     15       0.5777      1.00000
     16       0.8852      1.00000
     17       0.9194      1.00000
     18       1.3039      1.00000
     19       1.4707      1.00000
     20       1.4947      1.00000
     21       1.7642      1.00000
     22       1.7788      1.00000
     23       2.0492      1.00000
     24       2.3011      1.00000
     25       2.5825      1.00000
     26       2.6263      1.00000
     27       2.7272      1.00000
     28       2.8282      1.00000
     29       5.4413      1.00000
     30       7.8708      1.00000
     31       8.7689      0.00320
     32       9.1921      0.00000
     33      10.7326      0.00000
     34      11.6671      0.00000
     35      12.3184      0.00000
     36      12.5078      0.00000
     37      12.5750      0.00000
     38      13.1090      0.00000
     39      13.2039      0.00000
     40      14.0262      0.00000
     41      14.0774      0.00000
     42      14.1240      0.00000
     43      14.3693      0.00000
     44      14.5416      0.00000
     45      14.6015      0.00000
     46      15.0748      0.00000
     47      15.3248      0.00000
     48      15.8790      0.00000

 k-point    10 :       0.2500    0.5000    0.0000
  band No.  band energies     occupation 
      1     -14.8283      1.00000
      2     -13.0300      1.00000
      3     -12.8178      1.00000
      4     -12.5367      1.00000
      5     -12.5261      1.00000
      6     -12.4123      1.00000
      7     -12.2735      1.00000
      8      -1.3701      1.00000
      9      -1.3044      1.00000
     10      -0.9683      1.00000
     11      -0.5696      1.00000
     12      -0.1717      1.00000
     13       0.0259      1.00000
     14       0.5355      1.00000
     15       0.5790      1.00000
     16       0.8856      1.00000
     17       0.9203      1.00000
     18       1.3063      1.00000
     19       1.4698      1.00000
     20       1.4916      1.00000
     21       1.7651      1.00000
     22       1.7793      1.00000
     23       2.0503      1.00000
     24       2.3012      1.00000
     25       2.5810      1.00000
     26       2.6269      1.00000
     27       2.7246      1.00000
     28       2.8295      1.00000
     29       5.4414      1.00000
     30       7.8699      1.00000
     31       8.7700      0.00292
     32       9.1919      0.00000
     33      10.7331      0.00000
     34      11.6668      0.00000
     35      12.3205      0.00000
     36      12.5062      0.00000
     37      12.5749      0.00000
     38      13.1074      0.00000
     39      13.2034      0.00000
     40      14.0290      0.00000
     41      14.0710      0.00000
     42      14.1313      0.00000
     43      14.3672      0.00000
     44      14.5464      0.00000
     45      14.6008      0.00000
     46      15.0703      0.00000
     47      15.3226      0.00000
     48      15.8813      0.00000

 k-point    11 :       0.0000    0.5000   -0.2500
  band No.  band energies     occupation 
      1     -14.8283      1.00000
      2     -13.0296      1.00000
      3     -12.8180      1.00000
      4     -12.5398      1.00000
      5     -12.5235      1.00000
      6     -12.4127      1.00000
      7     -12.2730      1.00000
      8      -1.3708      1.00000
      9      -1.3036      1.00000
     10      -0.9681      1.00000
     11      -0.5694      1.00000
     12      -0.1716      1.00000
     13       0.0261      1.00000
     14       0.5350      1.00000
     15       0.5794      1.00000
     16       0.8855      1.00000
     17       0.9202      1.00000
     18       1.3057      1.00000
     19       1.4647      1.00000
     20       1.4964      1.00000
     21       1.7638      1.00000
     22       1.7801      1.00000
     23       2.0499      1.00000
     24       2.3007      1.00000
     25       2.5816      1.00000
     26       2.6271      1.00000
     27       2.7249      1.00000
     28       2.8305      1.00000
     29       5.4418      1.00000
     30       7.8691      1.00000
     31       8.7686      0.00328
     32       9.1943      0.00000
     33      10.7327      0.00000
     34      11.6664      0.00000
     35      12.3208      0.00000
     36      12.5027      0.00000
     37      12.5779      0.00000
     38      13.1063      0.00000
     39      13.2037      0.00000
     40      14.0241      0.00000
     41      14.0830      0.00000
     42      14.1254      0.00000
     43      14.3672      0.00000
     44      14.5470      0.00000
     45      14.6014      0.00000
     46      15.0686      0.00000
     47      15.3228      0.00000
     48      15.8807      0.00000

 k-point    12 :       0.5000    0.0000   -0.2500
  band No.  band energies     occupation 
      1     -14.8283      1.00000
      2     -13.0297      1.00000
      3     -12.8180      1.00000
      4     -12.5381      1.00000
      5     -12.5251      1.00000
      6     -12.4127      1.00000
      7     -12.2730      1.00000
      8      -1.3705      1.00000
      9      -1.3037      1.00000
     10      -0.9683      1.00000
     11      -0.5696      1.00000
     12      -0.1718      1.00000
     13       0.0275      1.00000
     14       0.5348      1.00000
     15       0.5777      1.00000
     16       0.8845      1.00000
     17       0.9199      1.00000
     18       1.3038      1.00000
     19       1.4697      1.00000
     20       1.4969      1.00000
     21       1.7641      1.00000
     22       1.7792      1.00000
     23       2.0488      1.00000
     24       2.3010      1.00000
     25       2.5825      1.00000
     26       2.6263      1.00000
     27       2.7271      1.00000
     28       2.8279      1.00000
     29       5.4413      1.00000
     30       7.8714      1.00000
     31       8.7676      0.00359
     32       9.1927      0.00000
     33      10.7329      0.00000
     34      11.6668      0.00000
     35      12.3187      0.00000
     36      12.5091      0.00000
     37      12.5749      0.00000
     38      13.1089      0.00000
     39      13.2032      0.00000
     40      14.0254      0.00000
     41      14.0779      0.00000
     42      14.1249      0.00000
     43      14.3692      0.00000
     44      14.5395      0.00000
     45      14.6013      0.00000
     46      15.0754      0.00000
     47      15.3258      0.00000
     48      15.8785      0.00000

 k-point    13 :       0.5000    0.5000    0.2500
  band No.  band energies     occupation 
      1     -14.8283      1.00000
      2     -13.0301      1.00000
      3     -12.8177      1.00000
      4     -12.5368      1.00000
      5     -12.5260      1.00000
      6     -12.4123      1.00000
      7     -12.2735      1.00000
      8      -1.3704      1.00000
      9      -1.3037      1.00000
     10      -0.9685      1.00000
     11      -0.5699      1.00000
     12      -0.1720      1.00000
     13       0.0245      1.00000
     14       0.5364      1.00000
     15       0.5808      1.00000
     16       0.8862      1.00000
     17       0.9206      1.00000
     18       1.3080      1.00000
     19       1.4679      1.00000
     20       1.4888      1.00000
     21       1.7646      1.00000
     22       1.7795      1.00000
     23       2.0519      1.00000
     24       2.3006      1.00000
     25       2.5809      1.00000
     26       2.6269      1.00000
     27       2.7224      1.00000
     28       2.8325      1.00000
     29       5.4414      1.00000
     30       7.8691      1.00000
     31       8.7697      0.00300
     32       9.1931      0.00000
     33      10.7335      0.00000
     34      11.6659      0.00000
     35      12.3225      0.00000
     36      12.5042      0.00000
     37      12.5756      0.00000
     38      13.1061      0.00000
     39      13.2026      0.00000
     40      14.0322      0.00000
     41      14.0759      0.00000
     42      14.1286      0.00000
     43      14.3649      0.00000
     44      14.5469      0.00000
     45      14.6001      0.00000
     46      15.0641      0.00000
     47      15.3230      0.00000
     48      15.8843      0.00000

 k-point    14 :       0.5000   -0.2500    0.5000
  band No.  band energies     occupation 
      1     -14.8283      1.00000
      2     -13.0297      1.00000
      3     -12.8180      1.00000
      4     -12.5383      1.00000
      5     -12.5248      1.00000
      6     -12.4128      1.00000
[...]
     15       0.5794      1.00000
     16       0.8857      1.00000
     17       0.9199      1.00000
     18       1.3056      1.00000
     19       1.4648      1.00000
     20       1.4963      1.00000
     21       1.7634      1.00000
     22       1.7803      1.00000
     23       2.0495      1.00000
     24       2.3007      1.00000
     25       2.5820      1.00000
     26       2.6267      1.00000
     27       2.7254      1.00000
     28       2.8300      1.00000
     29       5.4415      1.00000
     30       7.8690      1.00000
     31       8.7686      0.00328
     32       9.1942      0.00000
     33      10.7326      0.00000
     34      11.6668      0.00000
     35      12.3207      0.00000
     36      12.5026      0.00000
     37      12.5781      0.00000
     38      13.1064      0.00000
     39      13.2039      0.00000
     40      14.0236      0.00000
     41      14.0826      0.00000
     42      14.1255      0.00000
     43      14.3674      0.00000
     44      14.5462      0.00000
     45      14.6012      0.00000
     46      15.0689      0.00000
     47      15.3231      0.00000
     48      15.8810      0.00000

 k-point    16 :       0.5000    0.2500    0.0000
  band No.  band energies     occupation 
      1     -14.8283      1.00000
      2     -13.0301      1.00000
      3     -12.8178      1.00000
      4     -12.5367      1.00000
      5     -12.5261      1.00000
      6     -12.4124      1.00000
      7     -12.2736      1.00000
      8      -1.3701      1.00000
      9      -1.3040      1.00000
     10      -0.9685      1.00000
     11      -0.5699      1.00000
     12      -0.1720      1.00000
     13       0.0256      1.00000
     14       0.5354      1.00000
     15       0.5794      1.00000
     16       0.8855      1.00000
     17       0.9205      1.00000
     18       1.3067      1.00000
     19       1.4697      1.00000
     20       1.4915      1.00000
     21       1.7645      1.00000
     22       1.7795      1.00000
     23       2.0505      1.00000
     24       2.3011      1.00000
     25       2.5813      1.00000
     26       2.6266      1.00000
     27       2.7242      1.00000
     28       2.8299      1.00000
     29       5.4411      1.00000
     30       7.8705      1.00000
     31       8.7689      0.00320
     32       9.1918      0.00000
     33      10.7336      0.00000
     34      11.6664      0.00000
     35      12.3207      0.00000
     36      12.5071      0.00000
     37      12.5753      0.00000
     38      13.1072      0.00000
     39      13.2029      0.00000
     40      14.0296      0.00000
     41      14.0753      0.00000
     42      14.1278      0.00000
     43      14.3667      0.00000
     44      14.5425      0.00000
     45      14.6010      0.00000
     46      15.0701      0.00000
     47      15.3237      0.00000
     48      15.8825      0.00000


--------------------------------------------------------------------------------------------------------


 soft charge-density along one line, spin component           1
         0         1         2         3         4         5         6         7         8         9
 total charge-density along one line
 
 soft charge-density along one line, spin component           2
         0         1         2         3         4         5         6         7         8         9
 total charge-density along one line
 
 pseudopotential strength for first ion, spin component:           1
  3.017   9.557   0.000   0.000   0.000   0.001   0.001   0.000
  9.557  30.134   0.001   0.003   0.000   0.002   0.006   0.000
  0.000   0.001   7.559  -0.000   0.000  10.871  -0.000   0.000
  0.000   0.003  -0.000   7.559   0.000  -0.000  10.871   0.000
  0.000   0.000   0.000   0.000   7.559   0.000   0.000  10.871
  0.001   0.002  10.871  -0.000   0.000  14.884  -0.000   0.000
  0.001   0.006  -0.000  10.871   0.000  -0.000  14.885   0.000
  0.000   0.000   0.000   0.000  10.871   0.000   0.000  14.885
  0.000   0.000  -0.000  -0.000   0.001   0.000  -0.000   0.001
 -0.000  -0.000   0.002   0.001  -0.000   0.002   0.001  -0.000
  0.000   0.000  -0.001   0.002  -0.000  -0.001   0.003  -0.000
  0.000   0.000  -0.000  -0.000   0.002  -0.000  -0.000   0.002
  0.000   0.000  -0.001   0.000   0.000  -0.001   0.000   0.000
 pseudopotential strength for first ion, spin component:           2
  3.017   9.557   0.000   0.000   0.000   0.001   0.001   0.000
  9.557  30.134   0.001   0.003   0.000   0.002   0.006   0.000
  0.000   0.001   7.559  -0.000   0.000  10.871  -0.000   0.000
  0.000   0.003  -0.000   7.559   0.000  -0.000  10.871   0.000
  0.000   0.000   0.000   0.000   7.559   0.000   0.000  10.871
  0.001   0.002  10.871  -0.000   0.000  14.885  -0.000   0.000
  0.001   0.006  -0.000  10.871   0.000  -0.000  14.885   0.000
  0.000   0.000   0.000   0.000  10.871   0.000   0.000  14.885
  0.000   0.000  -0.000  -0.000   0.001   0.000  -0.000   0.001
 -0.000  -0.000   0.002   0.001  -0.000   0.002   0.001  -0.000
  0.000   0.000  -0.001   0.002  -0.000  -0.001   0.003  -0.000
  0.000   0.000  -0.000  -0.000   0.002  -0.000  -0.000   0.002
  0.000   0.000  -0.001   0.000   0.000  -0.001   0.000   0.000
 total augmentation occupancy for first ion, spin component:           1
  2.856  -0.057  -0.005  -0.012   0.001   0.001   0.002  -0.000   0.000  -0.000   0.000  -0.000   0.000
 -0.057   0.002   0.000   0.000  -0.000  -0.000  -0.000   0.000  -0.000  -0.000  -0.000   0.000  -0.000
 -0.005   0.000   0.157  -0.000   0.000  -0.008  -0.000  -0.000   0.000  -0.001  -0.000   0.000   0.000
 -0.012   0.000  -0.000   0.157  -0.000  -0.000  -0.008   0.000   0.000  -0.001  -0.000   0.000   0.000
  0.001  -0.000   0.000  -0.000   0.157  -0.000   0.000  -0.008  -0.000   0.000  -0.000  -0.001   0.000
  0.001  -0.000  -0.008  -0.000  -0.000   0.000   0.000   0.000  -0.000   0.000   0.000  -0.000  -0.000
  0.002  -0.000  -0.000  -0.008   0.000   0.000   0.000  -0.000  -0.000   0.000   0.000  -0.000  -0.000
 -0.000   0.000  -0.000   0.000  -0.008   0.000  -0.000   0.000   0.000  -0.000  -0.000   0.000   0.000
  0.000  -0.000   0.000   0.000  -0.000  -0.000  -0.000   0.000   0.007  -0.000   0.000   0.000  -0.000
 -0.000  -0.000  -0.001  -0.001   0.000   0.000   0.000  -0.000  -0.000   0.007   0.000  -0.000  -0.000
  0.000  -0.000  -0.000  -0.000  -0.000   0.000   0.000  -0.000   0.000   0.000   0.003   0.000  -0.000
 -0.000   0.000   0.000   0.000  -0.001  -0.000  -0.000   0.000   0.000  -0.000   0.000   0.007  -0.000
  0.000  -0.000   0.000   0.000   0.000  -0.000  -0.000   0.000  -0.000  -0.000  -0.000  -0.000   0.003
 total augmentation occupancy for first ion, spin component:           2
 -0.000   0.000   0.000   0.000   0.000  -0.000  -0.000   0.000  -0.000  -0.000   0.000  -0.000   0.000
  0.000  -0.000  -0.000  -0.000   0.000   0.000   0.000  -0.000  -0.000   0.000   0.000  -0.000  -0.000
  0.000  -0.000  -0.000  -0.000   0.000   0.000  -0.000  -0.000  -0.000   0.000   0.000  -0.000  -0.000
  0.000  -0.000  -0.000  -0.000   0.000  -0.000   0.000  -0.000   0.000   0.000   0.000   0.000  -0.000
  0.000   0.000   0.000   0.000  -0.000  -0.000  -0.000   0.000   0.000  -0.000   0.000   0.000  -0.000
 -0.000   0.000   0.000  -0.000  -0.000  -0.000  -0.000   0.000   0.000  -0.000  -0.000   0.000   0.000
 -0.000   0.000  -0.000   0.000  -0.000  -0.000  -0.000   0.000  -0.000  -0.000  -0.000   0.000   0.000
  0.000  -0.000  -0.000  -0.000   0.000   0.000   0.000  -0.000  -0.000   0.000   0.000  -0.000  -0.000
 -0.000  -0.000  -0.000   0.000   0.000   0.000  -0.000  -0.000   0.000  -0.000   0.000  -0.000   0.000
 -0.000   0.000   0.000   0.000  -0.000  -0.000  -0.000   0.000  -0.000   0.000  -0.000  -0.000   0.000
  0.000   0.000   0.000   0.000   0.000  -0.000  -0.000   0.000   0.000  -0.000   0.000  -0.000   0.000
 -0.000  -0.000  -0.000   0.000   0.000   0.000   0.000  -0.000  -0.000  -0.000  -0.000   0.000  -0.000
  0.000  -0.000  -0.000  -0.000  -0.000   0.000   0.000  -0.000   0.000   0.000   0.000  -0.000   0.000


------------------------ aborting loop because EDIFF is reached ----------------------------------------


 


 total charge     
 
# of ion     s       p       d       tot
----------------------------------------
  1        0.469   0.269   0.015   0.753
  2        0.146   0.171   0.074   0.391
  3        0.189   0.203   0.081   0.473
  4        0.190   0.204   0.082   0.476
  5        0.190   0.205   0.082   0.478
  6        0.190   0.205   0.082   0.478
  7        0.191   0.206   0.083   0.479
  8        0.191   0.207   0.084   0.482
  9        0.146   0.171   0.074   0.391
 10        1.590   3.519   0.000   5.109
 11        1.590   3.519   0.000   5.109
 12        1.590   3.519   0.000   5.110
 13        1.590   3.519   0.000   5.109
 14        1.590   3.519   0.000   5.109
 15        1.590   3.519   0.000   5.109
 16        1.584   3.671   0.000   5.255
------------------------------------------------
tot       13.028  26.627   0.657  40.313
 


 magnetization (x)
 
# of ion     s       p       d       tot
----------------------------------------
  1       -0.000  -0.000  -0.000  -0.000
  2        0.000   0.000  -0.000   0.000
  3        0.000  -0.000  -0.000  -0.000
  4        0.000  -0.000  -0.000  -0.000
  5        0.000  -0.000  -0.000  -0.000
  6        0.000  -0.000  -0.000  -0.000
  7        0.000  -0.000  -0.000  -0.000
  8        0.000  -0.000  -0.000  -0.000
  9        0.000   0.000  -0.000   0.000
 10        0.000   0.000   0.000   0.000
 11        0.000   0.000   0.000   0.000
 12        0.000   0.000   0.000   0.000
 13        0.000   0.000   0.000   0.000
 14        0.000   0.000   0.000   0.000
 15        0.000   0.000   0.000   0.000
 16       -0.000  -0.000   0.000  -0.000
------------------------------------------------
tot        0.000  -0.000  -0.000  -0.000
 
    CHARGE:  cpu time    0.0200: real time    0.0189
    FORLOC:  cpu time    0.0000: real time    0.0005
    FORNL :  cpu time    0.1200: real time    0.1191
    STRESS:  cpu time    0.3720: real time    0.3734
    FORCOR:  cpu time    0.0080: real time    0.0083
    FORHAR:  cpu time    0.0040: real time    0.0014
    MIXING:  cpu time    0.0000: real time    0.0005
    OFIELD:  cpu time    0.0000: real time    0.0000

  FORCE on cell =-STRESS in cart. coord.  units (eV):
  Direction    XX          YY          ZZ          XY          YZ          ZX
  --------------------------------------------------------------------------------------
  Alpha Z   142.81397   142.81397   142.81397
  Ewald    -826.50518  -826.46049  -826.64805    -0.02675     0.02143     0.00172
  Hartree   361.24176   361.24332   361.21736    -0.00641     0.00173    -0.00202
  E(xc)    -268.18695  -268.18705  -268.18545    -0.00105    -0.00071    -0.00101
  Local    -350.42187  -350.46827  -350.22016     0.04269    -0.02172     0.00778
  n-local  -100.74677  -100.74305  -100.75707     0.00601     0.00214     0.00981
  augment    47.04867    47.04797    47.04780     0.00061     0.00047     0.00091
  Kinetic  1018.16675  1018.16115  1018.16266     0.01084    -0.00315     0.00634
  Fock        0.00000     0.00000     0.00000     0.00000     0.00000     0.00000
  -------------------------------------------------------------------------------------
  Total      23.41037    23.40754    23.43105     0.02594     0.00020     0.02353
  in kB     244.83574   244.80624   245.05209     0.27131     0.00212     0.24608
  external pressure =      244.90 kB  Pullay stress =        0.00 kB


 VOLUME and BASIS-vectors are now :
 -----------------------------------------------------------------------------
  energy-cutoff  :      400.00
  volume of cell :      153.19
      direct lattice vectors                 reciprocal lattice vectors
     0.000000000  4.246893000  4.246893000    -0.117733129  0.117733129  0.117733129
     4.246893000  0.000000000  4.246893000     0.117733129 -0.117733129  0.117733129
     4.246893000  4.246893000  0.000000000     0.117733129  0.117733129 -0.117733129

  length of vectors
     6.006013679  6.006013679  6.006013679     0.203919761  0.203919761  0.203919761


 FORCES acting on ions
    electron-ion (+dipol)            ewald-force                    non-local-force                 convergence-correction
 -----------------------------------------------------------------------------------------------
   -.273E-01 0.425E+00 0.939E+00   0.310E-01 -.563E+00 -.126E+01   -.323E-01 0.130E+00 0.326E+00   0.747E-06 0.975E-06 0.126E-05
   -.218E-01 -.462E-01 -.644E-01   0.144E-01 0.490E-01 0.576E-01   0.898E-02 0.226E-02 0.146E-01   -.115E-04 0.168E-04 0.220E-04
   0.106E+00 0.531E+00 -.270E+02   -.908E-01 -.486E+00 0.280E+02   -.178E-01 -.681E-01 -.111E+01   -.181E-04 0.123E-04 -.301E-03
   0.104E+00 -.269E+02 -.225E+00   -.883E-01 0.279E+02 0.175E+00   -.194E-01 -.101E+01 0.705E-01   -.242E-04 -.300E-03 0.148E-04
   0.267E+02 0.236E+00 0.854E-01   -.277E+02 -.221E+00 -.987E-01   0.102E+01 -.463E-01 0.527E-02   0.300E-03 0.246E-04 0.204E-04
   -.266E+02 -.270E+00 -.349E+00   0.276E+02 0.224E+00 0.283E+00   -.959E+00 0.450E-01 0.822E-01   -.300E-03 -.219E-04 -.142E-04
   -.360E+00 0.264E+02 0.231E+00   0.319E+00 -.274E+02 -.225E+00   0.642E-01 0.952E+00 -.112E-01   0.243E-04 0.299E-03 -.888E-05
   -.327E+00 0.234E-01 0.263E+02   0.289E+00 -.384E-01 -.272E+02   0.621E-01 0.284E-01 0.897E+00   0.183E-04 -.948E-05 0.299E-03
   -.125E-01 -.463E-01 -.494E-01   0.486E-02 0.489E-01 0.463E-01   0.819E-02 0.214E-02 0.941E-02   0.116E-04 -.190E-04 -.259E-04
   -.461E+00 -.424E-01 0.488E-01   0.484E+00 0.655E-01 -.102E+00   -.306E-01 -.381E-01 0.595E-01   0.154E-04 -.166E-04 0.110E-04
   -.118E+01 0.108E+00 0.253E+00   0.126E+01 -.143E+00 -.369E+00   -.751E-01 0.395E-01 0.105E+00   0.444E-04 0.948E-05 -.277E-04
   -.933E-02 0.901E+00 0.334E+00   0.153E-01 -.102E+01 -.491E+00   -.105E-01 0.144E+00 0.157E+00   -.284E-05 -.528E-04 -.401E-04
   -.541E-01 -.131E+01 -.106E+00   0.585E-01 0.135E+01 0.766E-03   -.978E-02 -.793E-02 0.114E+00   -.244E-05 0.364E-04 0.531E-06
   0.136E+01 0.147E+00 0.323E+00   -.151E+01 -.178E+00 -.457E+00   0.128E+00 0.367E-01 0.117E+00   -.496E-04 0.909E-05 -.200E-04
   0.659E+00 0.778E-01 0.829E-01   -.731E+00 -.701E-01 -.134E+00   0.616E-01 -.258E-01 0.568E-01   -.186E-04 -.622E-05 0.137E-04
   -.559E-01 -.240E+00 -.127E+01   0.596E-02 0.419E+00 0.175E+01   0.443E-01 -.196E+00 -.471E+00   -.123E-04 0.365E-04 0.902E-04
 -----------------------------------------------------------------------------------------------
   -.208E+00 -.890E-02 -.408E+00   -.436E-14 -.115E-13 0.160E-13   0.243E+00 -.119E-01 0.425E+00   -.251E-04 0.188E-04 0.354E-04
 
 
 POSITION                                       TOTAL-FORCE (eV/Angst)
 -----------------------------------------------------------------------------------
      2.13547      2.12752      2.15473        -0.030798     -0.007084      0.003293
      0.01270      4.23840      4.24828        -0.000610      0.006362      0.006751
      6.38624      6.36537      8.36062        -0.005178     -0.021394     -0.041296
      6.38714      8.33798      6.36571        -0.005521      0.006444      0.019237
      4.41262      6.37100      6.37691         0.035741     -0.030774     -0.009127
      8.34922      6.36064      6.36799         0.023914      0.000451      0.015254
      6.37750      4.40197      6.37546         0.020570      0.001398     -0.005541
      6.37732      6.35505      4.42172         0.022196      0.014757      0.003483
      4.25964      4.23842      4.24869        -0.001648      0.006007      0.005224
      4.25837      4.24282      2.12632        -0.009220     -0.013706      0.005564
      4.25277      2.11508      4.25194         0.007380      0.006440     -0.012753
      6.38395      4.24050      4.25200        -0.006655      0.021926     -0.001138
      2.13686      4.22856      4.24570        -0.007476      0.035118      0.007375
      4.26748      6.36207      4.25172        -0.022654      0.006120     -0.017440
      4.26316      4.24218      6.37323        -0.012189     -0.016785      0.004877
      6.38220      6.36892      6.38561        -0.007851     -0.015279      0.016239
 -----------------------------------------------------------------------------------
    total drift:                                0.034796     -0.020827      0.017303


--------------------------------------------------------------------------------------------------------



  FREE ENERGIE OF THE ION-ELECTRON SYSTEM (eV)
  ---------------------------------------------------
  free  energy   TOTEN  =       -74.29779827 eV

  energy  without entropy=      -74.29684475  energy(sigma->0) =      -74.29732151
 


--------------------------------------------------------------------------------------------------------


    POTLOK:  cpu time    0.3840: real time    0.3869


--------------------------------------------------------------------------------------------------------




--------------------------------------------------------------------------------------------------------


  
 reached required accuracy - stopping structural energy minimisation
     LOOP+:  cpu time   15.9840: real time   16.0533
    4ORBIT:  cpu time    0.0000: real time    0.0000
 


 total charge     
 
# of ion     s       p       d       tot
----------------------------------------
  1        0.469   0.269   0.015   0.753
  2        0.146   0.171   0.074   0.391
  3        0.189   0.203   0.081   0.473
  4        0.190   0.204   0.082   0.476
  5        0.190   0.205   0.082   0.478
  6        0.190   0.205   0.082   0.478
  7        0.191   0.206   0.083   0.479
  8        0.191   0.207   0.084   0.482
  9        0.146   0.171   0.074   0.391
 10        1.590   3.519   0.000   5.109
 11        1.590   3.519   0.000   5.109
 12        1.590   3.519   0.000   5.110
 13        1.590   3.519   0.000   5.109
 14        1.590   3.519   0.000   5.109
 15        1.590   3.519   0.000   5.109
 16        1.584   3.671   0.000   5.255
------------------------------------------------
tot       13.028  26.627   0.657  40.313
 


 magnetization (x)
 
# of ion     s       p       d       tot
----------------------------------------
  1       -0.000  -0.000  -0.000  -0.000
  2        0.000   0.000  -0.000   0.000
  3        0.000  -0.000  -0.000  -0.000
  4        0.000  -0.000  -0.000  -0.000
  5        0.000  -0.000  -0.000  -0.000
  6        0.000  -0.000  -0.000  -0.000
  7        0.000  -0.000  -0.000  -0.000
  8        0.000  -0.000  -0.000  -0.000
  9        0.000   0.000  -0.000   0.000
 10        0.000   0.000   0.000   0.000
 11        0.000   0.000   0.000   0.000
 12        0.000   0.000   0.000   0.000
 13        0.000   0.000   0.000   0.000
 14        0.000   0.000   0.000   0.000
 15        0.000   0.000   0.000   0.000
 16       -0.000  -0.000   0.000  -0.000
------------------------------------------------
tot        0.000  -0.000  -0.000  -0.000
 

 total amount of memory used by VASP on root node    34274. kBytes
========================================================================

   base      :      30000. kBytes
   nonlr-proj:        918. kBytes
   fftplans  :        353. kBytes
   grid      :        883. kBytes
   one-center:         32. kBytes
   wavefun   :       2088. kBytes
 
  
  
 General timing and accounting informations for this job:
 ========================================================
  
                  Total CPU time used (sec):       17.344
                            User time (sec):       17.040
                          System time (sec):        0.304
                         Elapsed time (sec):       17.723
  
                   Maximum memory used (kb):       83068.
                   Average memory used (kb):           0.
  
                          Minor page faults:        17766
                          Major page faults:            9
                 Voluntary context switches:         2203
