<?xml version="1.0" encoding="ISO-8859-1"?>
<modeling>
 <generator>
  <i name="program" type="string">vasp </i>
  <i name="version" type="string">5.4.1  </i>
  <i name="subversion" type="string">05Feb16 (build Mar 31 2016 13:39:20) complex                          parallel </i>
  <i name="platform" type="string">IFC91_ompi </i>
  <i name="date" type="string">2018 04 12 </i>
  <i name="time" type="string">14:14:35 </i>
 </generator>
 <incar>
  <i type="string" name="PREC">n</i>
  <i type="string" name="ALGO"> N</i>
  <i type="int" name="ISPIN">     2</i>
  <i type="int" name="NELM">   100</i>
  <i type="int" name="NELMIN">     4</i>
  <i type="int" name="IBRION">     2</i>
  <i name="EDIFF">      0.00000100</i>
  <i name="EDIFFG">     -0.05000000</i>
  <i type="int" name="NSW">    20</i>
  <i type="int" name="ISIF">     2</i>
  <i name="ENCUT">    400.00000000</i>
  <i name="NELECT">     60.00000000</i>
  <i type="string" name="LREAL"> A</i>
  <i type="int" name="ISMEAR">     0</i>
  <i name="SIGMA">      0.05000000</i>
  <i type="logical" name="LWAVE"> F  </i>
  <i type="logical" name="LCHARG"> F  </i>
  <i type="logical" name="LORBIT"> F  </i>
  <i type="logical" name="LASPH"> T  </i>
  <v type="int" name="KPOINT_BSE">    -1     0     0     0</v>
  <i type="int" name="NELM">   100</i>
  <i type="logical" name="LASPH"> T  </i>
 </incar>
 <kpoints>
  <generation param="Monkhorst-Pack">
   <v type="int" name="divisions">       2        2        2 </v>
   <v name="usershift">      0.00000000       0.00000000       0.00000000 </v>
   <v name="genvec1">      0.50000000       0.00000000       0.00000000 </v>
   <v name="genvec2">      0.00000000       0.50000000       0.00000000 </v>
   <v name="genvec3">      0.00000000       0.00000000       0.50000000 </v>
   <v name="shift">      0.50000000       0.50000000       0.50000000 </v>
  </generation>
  <varray name="kpointlist" >
   <v>       0.25000000       0.25000000       0.25000000 </v>
   <v>       0.25000000       0.00000000       0.00000000 </v>
   <v>       0.00000000       0.00000000      -0.25000000 </v>
   <v>       0.00000000       0.25000000       0.00000000 </v>
   <v>      -0.25000000       0.25000000       0.25000000 </v>
   <v>       0.25000000      -0.25000000       0.25000000 </v>
   <v>       0.25000000       0.25000000      -0.25000000 </v>
   <v>       0.25000000       0.00000000       0.50000000 </v>
   <v>      -0.25000000       0.50000000       0.50000000 </v>
   <v>       0.25000000       0.50000000       0.00000000 </v>
   <v>       0.00000000       0.50000000      -0.25000000 </v>
   <v>       0.50000000       0.00000000      -0.25000000 </v>
   <v>       0.50000000       0.50000000       0.25000000 </v>
   <v>       0.50000000      -0.25000000       0.50000000 </v>
   <v>       0.00000000       0.25000000       0.50000000 </v>
   <v>       0.50000000       0.25000000       0.00000000 </v>
  </varray>
  <varray name="weights" >
   <v>       0.06250000 </v>
   <v>       0.06250000 </v>
   <v>       0.06250000 </v>
   <v>       0.06250000 </v>
   <v>       0.06250000 </v>
   <v>       0.06250000 </v>
   <v>       0.06250000 </v>
   <v>       0.06250000 </v>
   <v>       0.06250000 </v>
   <v>       0.06250000 </v>
   <v>       0.06250000 </v>
   <v>       0.06250000 </v>
   <v>       0.06250000 </v>
   <v>       0.06250000 </v>
   <v>       0.06250000 </v>
   <v>       0.06250000 </v>
  </varray>
 </kpoints>
 <parameters>
  <separator name="general" >
   <i type="string" name="SYSTEM">unknown system</i>
   <i type="logical" name="LCOMPAT"> F  </i>
  </separator>
  <separator name="electronic" >
   <i type="string" name="PREC">n</i>
   <i name="ENMAX">    400.00000000</i>
   <i name="ENAUG">    605.39200000</i>
   <i name="EDIFF">      0.00000100</i>
   <i type="int" name="IALGO">    38</i>
   <i type="int" name="IWAVPR">    11</i>
   <i type="int" name="NBANDS">    48</i>
   <i name="NELECT">     60.00000000</i>
   <i type="int" name="TURBO">     0</i>
   <i type="int" name="IRESTART">     0</i>
   <i type="int" name="NREBOOT">     0</i>
   <i type="int" name="NMIN">     0</i>
   <i name="EREF">      0.00000000</i>
   <separator name="electronic smearing" >
    <i type="int" name="ISMEAR">     0</i>
    <i name="SIGMA">      0.05000000</i>
    <i name="KSPACING">      0.50000000</i>
    <i type="logical" name="KGAMMA"> T  </i>
   </separator>
   <separator name="electronic projectors" >
    <i type="logical" name="LREAL"> T  </i>
    <v name="ROPT">     -0.00050000     -0.00050000</v>
    <i type="int" name="LMAXPAW">  -100</i>
    <i type="int" name="LMAXMIX">     2</i>
    <i type="logical" name="NLSPLINE"> F  </i>
   </separator>
   <separator name="electronic startup" >
    <i type="int" name="ISTART">     0</i>
    <i type="int" name="ICHARG">     2</i>
    <i type="int" name="INIWAV">     1</i>
   </separator>
   <separator name="electronic spin" >
    <i type="int" name="ISPIN">     2</i>
    <i type="logical" name="LNONCOLLINEAR"> F  </i>
    <v name="MAGMOM">      1.00000000      1.00000000      1.00000000      1.00000000      1.00000000      1.00000000      1.00000000      1.00000000      1.00000000      1.00000000      1.00000000      1.00000000      1.00000000      1.00000000      1.00000000      1.00000000</v>
    <i name="NUPDOWN">     -1.00000000</i>
    <i type="logical" name="LSORBIT"> F  </i>
    <v name="SAXIS">      0.00000000      0.00000000      1.00000000</v>
    <i type="logical" name="LSPIRAL"> F  </i>
    <v name="QSPIRAL">      0.00000000      0.00000000      0.00000000</v>
    <i type="logical" name="LZEROZ"> F  </i>
   </separator>
   <separator name="electronic exchange-correlation" >
    <i type="logical" name="LASPH"> T  </i>
    <i type="logical" name="LMETAGGA"> F  </i>
   </separator>
   <separator name="electronic convergence" >
    <i type="int" name="NELM">   100</i>
    <i type="int" name="NELMDL">     0</i>
    <i type="int" name="NELMIN">     4</i>
    <i name="ENINI">    400.00000000</i>
    <separator name="electronic convergence detail" >
     <i type="logical" name="LDIAG"> T  </i>
     <i type="logical" name="LSUBROT"> F  </i>
     <i name="WEIMIN">      0.00100000</i>
     <i name="EBREAK">      0.00000001</i>
     <i name="DEPER">      0.30000000</i>
     <i type="int" name="NRMM">     4</i>
     <i name="TIME">      0.40000000</i>
    </separator>
   </separator>
   <separator name="electronic mixer" >
    <i name="AMIX">      0.40000000</i>
    <i name="BMIX">      1.00000000</i>
    <i name="AMIN">      0.10000000</i>
    <i name="AMIX_MAG">      1.60000000</i>
    <i name="BMIX_MAG">      1.00000000</i>
    <separator name="electronic mixer details" >
     <i type="int" name="IMIX">     4</i>
     <i type="logical" name="MIXFIRST"> F  </i>
     <i type="int" name="MAXMIX">   -45</i>
     <i name="WC">    100.00000000</i>
     <i type="int" name="INIMIX">     1</i>
     <i type="int" name="MIXPRE">     1</i>
     <i type="int" name="MREMOVE">     5</i>
    </separator>
   </separator>
   <separator name="electronic dipolcorrection" >
    <i type="logical" name="LDIPOL"> F  </i>
    <i type="logical" name="LMONO"> F  </i>
    <i type="int" name="IDIPOL">     0</i>
    <i name="EPSILON">      1.00000000</i>
    <v name="DIPOL">   -100.00000000   -100.00000000   -100.00000000</v>
    <i name="EFIELD">      0.00000000</i>
   </separator>
  </separator>
  <separator name="grids" >
   <i type="int" name="NGX">    30</i>
   <i type="int" name="NGY">    30</i>
   <i type="int" name="NGZ">    30</i>
   <i type="int" name="NGXF">    60</i>
   <i type="int" name="NGYF">    60</i>
   <i type="int" name="NGZF">    60</i>
   <i type="logical" name="ADDGRID"> F  </i>
  </separator>
  <separator name="ionic" >
   <i type="int" name="NSW">    20</i>
   <i type="int" name="IBRION">     2</i>
   <i type="int" name="ISIF">     2</i>
   <i name="PSTRESS">      0.00000000</i>
   <i name="EDIFFG">     -0.05000000</i>
   <i type="int" name="NFREE">     1</i>
   <i name="POTIM">      0.50000000</i>
   <i name="SMASS">     -3.00000000</i>
   <i name="SCALEE">      1.00000000</i>
  </separator>
  <separator name="ionic md" >
   <i name="TEBEG">      0.00010000</i>
   <i name="TEEND">      0.00010000</i>
   <i type="int" name="NBLOCK">     1</i>
   <i type="int" name="KBLOCK">    20</i>
   <i type="int" name="NPACO">   256</i>
   <i name="APACO">     16.00000000</i>
  </separator>
  <separator name="symmetry" >
   <i type="int" name="ISYM">     2</i>
   <i name="SYMPREC">      0.00001000</i>
  </separator>
  <separator name="dos" >
   <i type="logical" name="LORBIT"> F  </i>
   <v name="RWIGS">     -1.00000000     -1.00000000</v>
   <i type="int" name="NEDOS">   301</i>
   <i name="EMIN">     10.00000000</i>
   <i name="EMAX">    -10.00000000</i>
   <i name="EFERMI">      0.00000000</i>
  </separator>
  <separator name="writing" >
   <i type="int" name="NWRITE">     2</i>
   <i type="logical" name="LWAVE"> F  </i>
   <i type="logical" name="LCHARG"> F  </i>
   <i type="logical" name="LPARD"> F  </i>
   <i type="logical" name="LVTOT"> F  </i>
   <i type="logical" name="LVHAR"> F  </i>
   <i type="logical" name="LELF"> F  </i>
   <i type="logical" name="LOPTICS"> F  </i>
   <v name="STM">      0.00000000      0.00000000      0.00000000      0.00000000      0.00000000      0.00000000      0.00000000</v>
  </separator>
  <separator name="performance" >
   <i type="int" name="NPAR">     4</i>
   <i type="int" name="NSIM">     4</i>
   <i type="int" name="NBLK">    -1</i>
   <i type="logical" name="LPLANE"> T  </i>
   <i type="logical" name="LSCALAPACK"> T  </i>
   <i type="logical" name="LSCAAWARE"> F  </i>
   <i type="logical" name="LSCALU"> F  </i>
   <i type="logical" name="LASYNC"> F  </i>
   <i type="logical" name="LORBITALREAL"> F  </i>
  </separator>
  <separator name="miscellaneous" >
   <i type="int" name="IDIOT">     3</i>
   <i type="logical" name="LMUSIC"> F  </i>
   <v name="POMASS">     24.30500000     16.00000000</v>
   <v name="DARWINR">      0.00000000      0.00000000</v>
   <v name="DARWINV">      1.00000000      1.00000000</v>
   <i type="logical" name="LCORR"> T  </i>
  </separator>
  <i type="logical" name="GGA_COMPAT"> T  </i>
  <i type="logical" name="LBERRY"> F  </i>
  <i type="int" name="ICORELEVEL">     0</i>
  <i type="logical" name="LDAU"> F  </i>
  <i type="int" name="I_CONSTRAINED_M">     0</i>
  <separator name="electronic exchange-correlation" >
   <i type="string" name="GGA">--</i>
   <i type="int" name="VOSKOWN">     0</i>
   <i type="logical" name="LHFCALC"> F  </i>
   <i type="string" name="PRECFOCK"></i>
   <i type="logical" name="LSYMGRAD"> F  </i>
   <i type="logical" name="LHFONE"> F  </i>
   <i type="logical" name="LRHFCALC"> F  </i>
   <i type="logical" name="LTHOMAS"> F  </i>
   <i type="logical" name="LMODELHF"> F  </i>
   <i name="ENCUT4O">     -1.00000000</i>
   <i type="int" name="EXXOEP">     0</i>
   <i type="int" name="FOURORBIT">     0</i>
   <i name="AEXX">      0.00000000</i>
   <i name="HFALPHA">      0.00000000</i>
   <i name="MCALPHA">      0.00000000</i>
   <i name="ALDAX">      1.00000000</i>
   <i name="AGGAX">      1.00000000</i>
   <i name="ALDAC">      1.00000000</i>
   <i name="AGGAC">      1.00000000</i>
   <i type="int" name="NKREDX">     1</i>
   <i type="int" name="NKREDY">     1</i>
   <i type="int" name="NKREDZ">     1</i>
   <i type="logical" name="SHIFTRED"> F  </i>
   <i type="logical" name="ODDONLY"> F  </i>
   <i type="logical" name="EVENONLY"> F  </i>
   <i type="int" name="LMAXFOCK">     0</i>
   <i type="int" name="NMAXFOCKAE">     0</i>
   <i type="logical" name="LFOCKAEDFT"> F  </i>
   <i name="HFSCREEN">      0.00000000</i>
   <i name="HFSCREENC">      0.00000000</i>
   <i type="int" name="NBANDSGWLOW">     0</i>
  </separator>
  <separator name="vdW DFT" >
   <i type="logical" name="LUSE_VDW"> F  </i>
   <i name="Zab_VDW">     -0.84910000</i>
   <i name="PARAM1">      0.12340000</i>
   <i name="PARAM2">      1.00000000</i>
   <i name="PARAM3">      0.00000000</i>
  </separator>
  <separator name="model GW" >
   <i type="int" name="MODEL_GW">     0</i>
   <i name="MODEL_EPS0">      5.74480406</i>
   <i name="MODEL_ALPHA">      1.00000000</i>
  </separator>
  <separator name="linear response parameters" >
   <i type="logical" name="LEPSILON"> F  </i>
   <i type="logical" name="LRPA"> F  </i>
   <i type="logical" name="LNABLA"> F  </i>
   <i type="logical" name="LVEL"> F  </i>
   <i type="int" name="KINTER">     0</i>
   <i name="CSHIFT">      0.10000000</i>
   <i name="OMEGAMAX">     -1.00000000</i>
   <i name="DEG_THRESHOLD">      0.00200000</i>
  </separator>
  <separator name="orbital magnetization" >
   <i type="logical" name="NUCIND"> F  </i>
   <v name="MAGPOS">      0.00000000      0.00000000      0.00000000</v>
   <i type="logical" name="LNICSALL"> T  </i>
   <i type="logical" name="ORBITALMAG"> F  </i>
   <i type="logical" name="LMAGBLOCH"> F  </i>
   <i type="logical" name="LCHIMAG"> F  </i>
   <i type="logical" name="LGAUGE"> T  </i>
   <i type="int" name="MAGATOM">     0</i>
   <v name="MAGDIPOL">      0.00000000      0.00000000      0.00000000</v>
   <v name="AVECCONST">      0.00000000      0.00000000      0.00000000</v>
  </separator>
  <separator name="response functions" >
   <i type="logical" name="LADDER"> F  </i>
   <i type="logical" name="LFXC"> F  </i>
   <i type="logical" name="LHARTREE"> T  </i>
   <i type="int" name="IBSE">     0</i>
   <v type="int" name="KPOINT">    -1     0     0     0</v>
   <i type="logical" name="LTCTE"> F  </i>
   <i type="logical" name="LTETE"> F  </i>
   <i type="logical" name="LTRIPLET"> F  </i>
   <i type="logical" name="LFXCEPS"> F  </i>
   <i type="logical" name="LFXHEG"> F  </i>
   <i type="int" name="NATURALO">     0</i>
   <i type="logical" name="L2ORDER"> F  </i>
   <i type="logical" name="LUSEW"> F  </i>
   <i name="ENCUTGW">     -2.00000000</i>
   <i name="ENCUTGWSOFT">     -2.00000000</i>
   <i name="ENCUTLF">     -1.00000000</i>
   <i type="int" name="LMAXMP2">    -1</i>
   <i name="SCISSOR">      0.00000000</i>
   <i type="int" name="NOMEGA">     0</i>
   <i type="int" name="NOMEGAR">     0</i>
   <i type="int" name="NBANDSGW">    -1</i>
   <i type="int" name="NBANDSO">    -1</i>
   <i type="int" name="NBANDSV">    -1</i>
   <i type="int" name="NELM">   100</i>
   <i type="int" name="NELMHF">     1</i>
   <i type="int" name="DIM">     3</i>
   <i type="int" name="ANTIRES">     0</i>
   <i name="OMEGAMAX">    -30.00000000</i>
   <i name="OMEGAMIN">    -30.00000000</i>
   <i name="OMEGATL">   -200.00000000</i>
   <i type="int" name="OMEGAGRID">     0</i>
   <i name="CSHIFT">     -0.10000000</i>
   <i type="logical" name="SELFENERGY"> F  </i>
   <i type="logical" name="LSPECTRAL"> F  </i>
   <i type="logical" name="LSPECTRALGW"> F  </i>
   <i type="logical" name="LSINGLES"> F  </i>
   <i type="logical" name="LFERMIGW"> F  </i>
   <i type="logical" name="ODDONLYGW"> F  </i>
   <i type="logical" name="EVENONLYGW"> F  </i>
   <i type="int" name="NKREDLFX">     1</i>
   <i type="int" name="NKREDLFY">     1</i>
   <i type="int" name="NKREDLFZ">     1</i>
   <i type="int" name="MAXMEM">  1800</i>
   <i type="int" name="TELESCOPE">     0</i>
   <i type="int" name="TAUPAR">     1</i>
   <i type="int" name="OMEGAPAR">    -1</i>
   <i name="LAMBDA">      1.00000000</i>
  </separator>
  <separator name="External order field" >
   <i name="OFIELD_KAPPA">      0.00000000</i>
   <v name="OFIELD_K">      0.00000000      0.00000000      0.00000000</v>
   <i name="OFIELD_Q6_NEAR">      0.00000000</i>
   <i name="OFIELD_Q6_FAR">      0.00000000</i>
   <i name="OFIELD_A">      0.00000000</i>
  </separator>
 </parameters>
 <atominfo>
  <atoms>      16 </atoms>
  <types>       2 </types>
  <array name="atoms" >
   <dimension dim="1">ion</dimension>
   <field type="string">element</field>
   <field type="int">atomtype</field>
   <set>
    <rc><c>Mg</c><c>   1</c></rc>
    <rc><c>Mg</c><c>   1</c></rc>
    <rc><c>Mg</c><c>   1</c></rc>
    <rc><c>Mg</c><c>   1</c></rc>
    <rc><c>Mg</c><c>   1</c></rc>
    <rc><c>Mg</c><c>   1</c></rc>
    <rc><c>Mg</c><c>   1</c></rc>
    <rc><c>Mg</c><c>   1</c></rc>
    <rc><c>Mg</c><c>   1</c></rc>
    <rc><c>O </c><c>   2</c></rc>
    <rc><c>O </c><c>   2</c></rc>
    <rc><c>O </c><c>   2</c></rc>
    <rc><c>O </c><c>   2</c></rc>
    <rc><c>O </c><c>   2</c></rc>
    <rc><c>O </c><c>   2</c></rc>
    <rc><c>O </c><c>   2</c></rc>
   </set>
  </array>
  <array name="atomtypes" >
   <dimension dim="1">type</dimension>
   <field type="int">atomspertype</field>
   <field type="string">element</field>
   <field>mass</field>
   <field>valence</field>
   <field type="string">pseudopotential</field>
   <set>
    <rc><c>   9</c><c>Mg</c><c>     24.30500000</c><c>      2.00000000</c><c>  PAW_PBE Mg 13Apr2007                  </c></rc>
    <rc><c>   7</c><c>O </c><c>     16.00000000</c><c>      6.00000000</c><c>  PAW_PBE O 08Apr2002                   </c></rc>
   </set>
  </array>
 </atominfo>
 <structure name="initialpos" >
  <crystal>
   <varray name="basis" >
    <v>       0.00000000       4.24689300       4.24689300 </v>
    <v>       4.24689300       0.00000000       4.24689300 </v>
    <v>       4.24689300       4.24689300       0.00000000 </v>
   </varray>
   <i name="volume">    153.19477498 </i>
   <varray name="rec_basis" >
    <v>      -0.11773313       0.11773313       0.11773313 </v>
    <v>       0.11773313      -0.11773313       0.11773313 </v>
    <v>       0.11773313       0.11773313      -0.11773313 </v>
   </varray>
  </crystal>
  <varray name="positions" >
   <v>       0.25274616       0.25461943       0.24821262 </v>
   <v>       0.99766785       0.00265878       0.00033117 </v>
   <v>       0.98186474       0.98677939       0.51696459 </v>
   <v>       0.97913237       0.51977757       0.98417944 </v>
   <v>       0.98133943       0.52020808       0.51881558 </v>
   <v>       0.51560042       0.98384567       0.98211463 </v>
   <v>       0.51801849       0.98318832       0.51849683 </v>
   <v>       0.51795999       0.52320493       0.97843908 </v>
   <v>       0.49771412       0.50270959       0.50029103 </v>
   <v>       0.24850726       0.25216844       0.75053324 </v>
   <v>       0.24891650       0.75227140       0.24911248 </v>
   <v>       0.24824610       0.75295738       0.75024847 </v>
   <v>       0.74612206       0.25359607       0.24956201 </v>
   <v>       0.74717066       0.25396561       0.75088233 </v>
   <v>       0.74787041       0.75281065       0.25101915 </v>
   <v>       0.75023443       0.75336169       0.74943137 </v>
  </varray>
 </structure>
 <calculation>
  <scstep>
   <time name="dav">    0.70    0.70</time>
   <time name="total">    1.06    1.08</time>
   <energy>
    <i name="alphaZ">    142.81396753 </i>
    <i name="ewald">  -2479.60861587 </i>
    <i name="hartreedc">   -950.92785724 </i>
    <i name="XCdc">   -236.47756804 </i>
    <i name="pawpsdc">   3011.45132117 </i>
    <i name="pawaedc">  -2557.24446474 </i>
    <i name="eentropy">     -0.00120260 </i>
    <i name="bandstr">     76.93135261 </i>
    <i name="atom">   3233.17333345 </i>
    <i name="e_fr_energy">    240.11026628 </i>
    <i name="e_wo_entrp">    240.11146887 </i>
    <i name="e_0_energy">    240.11086757 </i>
   </energy>
  </scstep>
  <scstep>
   <time name="dav">    0.73    0.73</time>
   <time name="total">    0.73    0.73</time>
   <energy>
    <i name="e_fr_energy">    -62.00246639 </i>
    <i name="e_wo_entrp">    -61.99896006 </i>
    <i name="e_0_energy">    -62.00071322 </i>
   </energy>
  </scstep>
  <scstep>
   <time name="dav">    0.74    0.74</time>
   <time name="total">    0.74    0.75</time>
   <energy>
    <i name="e_fr_energy">    -79.50137663 </i>
    <i name="e_wo_entrp">    -79.49183316 </i>
    <i name="e_0_energy">    -79.49660490 </i>
   </energy>
  </scstep>
  <scstep>
   <time name="dav">    0.68    0.68</time>
   <time name="total">    0.68    0.68</time>
   <energy>
    <i name="e_fr_energy">    -79.61371693 </i>
    <i name="e_wo_entrp">    -79.60407870 </i>
    <i name="e_0_energy">    -79.60889781 </i>
   </energy>
  </scstep>
  <scstep>
   <time name="dav">    0.71    0.71</time>
   <time name="total">    0.73    0.73</time>
   <energy>
    <i name="e_fr_energy">    -79.61432051 </i>
    <i name="e_wo_entrp">    -79.60468233 </i>
    <i name="e_0_energy">    -79.60950142 </i>
   </energy>
  </scstep>
  <scstep>
   <time name="dav">    0.63    0.63</time>
   <time name="total">    1.03    1.04</time>
   <energy>
    <i name="e_fr_energy">    -74.14364035 </i>
    <i name="e_wo_entrp">    -74.12485404 </i>
    <i name="e_0_energy">    -74.13424719 </i>
   </energy>
  </scstep>
  <scstep>
   <time name="dav">    0.64    0.64</time>
   <time name="total">    1.04    1.05</time>
   <energy>
    <i name="e_fr_energy">    -74.36544104 </i>
    <i name="e_wo_entrp">    -74.35575362 </i>
    <i name="e_0_energy">    -74.36059733 </i>
   </energy>
  </scstep>
  <scstep>
   <time name="dav">    0.70    0.71</time>
   <time name="total">    1.11    1.11</time>
   <energy>
    <i name="e_fr_energy">    -74.30362964 </i>
    <i name="e_wo_entrp">    -74.30303948 </i>
    <i name="e_0_energy">    -74.30333456 </i>
   </energy>
  </scstep>
  <scstep>
   <time name="dav">    0.71    0.71</time>
   <time name="total">    1.12    1.12</time>
   <energy>
    <i name="e_fr_energy">    -74.29620292 </i>
    <i name="e_wo_entrp">    -74.29429022 </i>
    <i name="e_0_energy">    -74.29524657 </i>
   </energy>
  </scstep>
  <scstep>
   <time name="dav">    0.70    0.70</time>
   <time name="total">    1.10    1.11</time>
   <energy>
    <i name="e_fr_energy">    -74.29749919 </i>
    <i name="e_wo_entrp">    -74.29659960 </i>
    <i name="e_0_energy">    -74.29704940 </i>
   </energy>
  </scstep>
  <scstep>
   <time name="dav">    0.70    0.70</time>
   <time name="total">    1.10    1.11</time>
   <energy>
    <i name="e_fr_energy">    -74.29770585 </i>
    <i name="e_wo_entrp">    -74.29680023 </i>
    <i name="e_0_energy">    -74.29725304 </i>
   </energy>
  </scstep>
  <scstep>
   <time name="dav">    0.69    0.69</time>
   <time name="total">    1.09    1.09</time>
   <energy>
    <i name="e_fr_energy">    -74.29777090 </i>
    <i name="e_wo_entrp">    -74.29682044 </i>
    <i name="e_0_energy">    -74.29729567 </i>
   </energy>
  </scstep>
  <scstep>
   <time name="dav">    0.69    0.69</time>
   <time name="total">    1.09    1.10</time>
   <energy>
    <i name="e_fr_energy">    -74.29779256 </i>
    <i name="e_wo_entrp">    -74.29683782 </i>
    <i name="e_0_energy">    -74.29731519 </i>
   </energy>
  </scstep>
  <scstep>
   <time name="dav">    0.68    0.68</time>
   <time name="total">    1.09    1.09</time>
   <energy>
    <i name="e_fr_energy">    -74.29779755 </i>
    <i name="e_wo_entrp">    -74.29684282 </i>
    <i name="e_0_energy">    -74.29732019 </i>
   </energy>
  </scstep>
  <scstep>
   <time name="dav">    0.58    0.58</time>
   <time name="total">    0.97    0.97</time>
   <energy>
    <i name="alphaZ">    142.81396753 </i>
    <i name="ewald">  -2479.60861587 </i>
    <i name="hartreedc">  -1083.69724518 </i>
    <i name="XCdc">   -228.88729192 </i>
    <i name="pawpsdc">   4066.99393260 </i>
    <i name="pawaedc">  -3614.49662608 </i>
    <i name="eentropy">     -0.00095352 </i>
    <i name="bandstr">   -110.58829929 </i>
    <i name="atom">   3233.17333345 </i>
    <i name="e_fr_energy">    -74.29779827 </i>
    <i name="e_wo_entrp">    -74.29684475 </i>
    <i name="e_0_energy">    -74.29732151 </i>
   </energy>
  </scstep>
  <structure>
   <crystal>
    <varray name="basis" >
     <v>       0.00000000       4.24689300       4.24689300 </v>
     <v>       4.24689300       0.00000000       4.24689300 </v>
     <v>       4.24689300       4.24689300       0.00000000 </v>
    </varray>
    <i name="volume">    153.19477498 </i>
    <varray name="rec_basis" >
     <v>      -0.11773313       0.11773313       0.11773313 </v>
     <v>       0.11773313      -0.11773313       0.11773313 </v>
     <v>       0.11773313       0.11773313      -0.11773313 </v>
    </varray>
   </crystal>
   <varray name="positions" >
    <v>       0.25274616       0.25461943       0.24821262 </v>
    <v>       0.99766785       0.00265878       0.00033117 </v>
    <v>       0.98186474       0.98677939       0.51696459 </v>
    <v>       0.97913237       0.51977757       0.98417944 </v>
    <v>       0.98133943       0.52020808       0.51881558 </v>
    <v>       0.51560042       0.98384567       0.98211463 </v>
    <v>       0.51801849       0.98318832       0.51849683 </v>
    <v>       0.51795999       0.52320493       0.97843908 </v>
    <v>       0.49771412       0.50270959       0.50029103 </v>
    <v>       0.24850726       0.25216844       0.75053324 </v>
    <v>       0.24891650       0.75227140       0.24911248 </v>
    <v>       0.24824610       0.75295738       0.75024847 </v>
    <v>       0.74612206       0.25359607       0.24956201 </v>
    <v>       0.74717066       0.25396561       0.75088233 </v>
    <v>       0.74787041       0.75281065       0.25101915 </v>
    <v>       0.75023443       0.75336169       0.74943137 </v>
   </varray>
  </structure>
  <varray name="forces" >
   <v>      -0.03079780      -0.00708414       0.00329260 </v>
   <v>      -0.00060979       0.00636166       0.00675110 </v>
   <v>      -0.00517786      -0.02139407      -0.04129623 </v>
   <v>      -0.00552099       0.00644435       0.01923680 </v>
   <v>       0.03574111      -0.03077448      -0.00912717 </v>
   <v>       0.02391415       0.00045084       0.01525440 </v>
   <v>       0.02057029       0.00139754      -0.00554128 </v>
   <v>       0.02219564       0.01475676       0.00348282 </v>
   <v>      -0.00164787       0.00600687       0.00522375 </v>
   <v>      -0.00922049      -0.01370556       0.00556359 </v>
   <v>       0.00737970       0.00643983      -0.01275323 </v>
   <v>      -0.00665530       0.02192618      -0.00113795 </v>
   <v>      -0.00747595       0.03511775       0.00737504 </v>
   <v>      -0.02265415       0.00612024      -0.01744023 </v>
   <v>      -0.01218945      -0.01678506       0.00487733 </v>
   <v>      -0.00785124      -0.01527872       0.01623866 </v>
  </varray>
  <varray name="stress" >
   <v>     244.83574237       0.27131069       0.24607805 </v>
   <v>       0.27131034     244.80624201       0.00212159 </v>
   <v>       0.24607759       0.00212099     245.05209317 </v>
  </varray>
  <energy>
   <i name="e_fr_energy">    -74.29779827 </i>
   <i name="e_wo_entrp">    -74.29732151 </i>
   <i name="e_0_energy">     -0.00095352 </i>
  </energy>
  <time name="totalsc">   15.98   16.05</time>
  <eigenvalues>
   <array>
    <dimension dim="1">band</dimension>
    <dimension dim="2">kpoint</dimension>
    <dimension dim="3">spin</dimension>
    <field>eigene</field>
    <field>occ</field>
    <set>
     <set comment="spin 1">
      <set comment="kpoint 1">
       <r>  -14.8681    1.0000 </r>
       <r>  -13.2080    1.0000 </r>
       <r>  -12.6698    1.0000 </r>
       <r>  -12.4906    1.0000 </r>
       <r>  -12.4892    1.0000 </r>
       <r>  -12.3102    1.0000 </r>
       <r>  -12.3089    1.0000 </r>
       <r>   -1.7216    1.0000 </r>
       <r>   -1.7207    1.0000 </r>
       <r>   -1.5271    1.0000 </r>
       <r>   -0.7700    1.0000 </r>
       <r>   -0.3869    1.0000 </r>
       <r>    0.0288    1.0000 </r>
       <r>    0.0301    1.0000 </r>
       <r>    0.7391    1.0000 </r>
       <r>    1.2221    1.0000 </r>
       <r>    1.2230    1.0000 </r>
       <r>    1.7050    1.0000 </r>
       <r>    1.7085    1.0000 </r>
       <r>    1.9353    1.0000 </r>
       <r>    2.0603    1.0000 </r>
       <r>    2.3122    1.0000 </r>
       <r>    2.3160    1.0000 </r>
       <r>    2.6908    1.0000 </r>
       <r>    2.7908    1.0000 </r>
       <r>    2.7940    1.0000 </r>
       <r>    2.9310    1.0000 </r>
       <r>    2.9346    1.0000 </r>
       <r>    4.1603    1.0000 </r>
       <r>    8.5895    0.9905 </r>
       <r>    9.5136    0.0000 </r>
       <r>    9.8094    0.0000 </r>
       <r>    9.8132    0.0000 </r>
       <r>   11.0275    0.0000 </r>
       <r>   11.2831    0.0000 </r>
       <r>   11.2884    0.0000 </r>
       <r>   12.0591    0.0000 </r>
       <r>   12.0595    0.0000 </r>
       <r>   12.7790    0.0000 </r>
       <r>   12.9261    0.0000 </r>
       <r>   12.9289    0.0000 </r>
       <r>   13.0750    0.0000 </r>
       <r>   15.0977    0.0000 </r>
       <r>   15.1464    0.0000 </r>
       <r>   15.1483    0.0000 </r>
       <r>   15.3501    0.0000 </r>
       <r>   16.7167    0.0000 </r>
       <r>   17.1859    0.0000 </r>
      </set>
      <set comment="kpoint 2">
       <r>  -14.8681    1.0000 </r>
       <r>  -13.2080    1.0000 </r>
       <r>  -12.6698    1.0000 </r>
       <r>  -12.4907    1.0000 </r>
       <r>  -12.4891    1.0000 </r>
       <r>  -12.3104    1.0000 </r>
       <r>  -12.3088    1.0000 </r>
       <r>   -1.7217    1.0000 </r>
       <r>   -1.7204    1.0000 </r>
       <r>   -1.5273    1.0000 </r>
       <r>   -0.7700    1.0000 </r>
       <r>   -0.3868    1.0000 </r>
       <r>    0.0287    1.0000 </r>
       <r>    0.0299    1.0000 </r>
       <r>    0.7390    1.0000 </r>
       <r>    1.2217    1.0000 </r>
       <r>    1.2234    1.0000 </r>
       <r>    1.7050    1.0000 </r>
       <r>    1.7086    1.0000 </r>
       <r>    1.9354    1.0000 </r>
       <r>    2.0604    1.0000 </r>
       <r>    2.3122    1.0000 </r>
       <r>    2.3166    1.0000 </r>
       <r>    2.6904    1.0000 </r>
       <r>    2.7909    1.0000 </r>
       <r>    2.7935    1.0000 </r>
       <r>    2.9304    1.0000 </r>
       <r>    2.9351    1.0000 </r>
       <r>    4.1605    1.0000 </r>
       <r>    8.5898    0.9904 </r>
       <r>    9.5140    0.0000 </r>
       <r>    9.8093    0.0000 </r>
       <r>    9.8125    0.0000 </r>
       <r>   11.0275    0.0000 </r>
       <r>   11.2833    0.0000 </r>
       <r>   11.2884    0.0000 </r>
       <r>   12.0586    0.0000 </r>
       <r>   12.0604    0.0000 </r>
       <r>   12.7792    0.0000 </r>
       <r>   12.9256    0.0000 </r>
       <r>   12.9291    0.0000 </r>
       <r>   13.0751    0.0000 </r>
       <r>   15.0983    0.0000 </r>
       <r>   15.1456    0.0000 </r>
       <r>   15.1482    0.0000 </r>
       <r>   15.3501    0.0000 </r>
       <r>   16.7168    0.0000 </r>
       <r>   17.1854    0.0000 </r>
      </set>
      <set comment="kpoint 3">
       <r>  -14.8682    1.0000 </r>
       <r>  -13.2080    1.0000 </r>
       <r>  -12.6698    1.0000 </r>
       <r>  -12.4913    1.0000 </r>
       <r>  -12.4886    1.0000 </r>
       <r>  -12.3109    1.0000 </r>
       <r>  -12.3082    1.0000 </r>
       <r>   -1.7222    1.0000 </r>
       <r>   -1.7208    1.0000 </r>
       <r>   -1.5264    1.0000 </r>
       <r>   -0.7700    1.0000 </r>
       <r>   -0.3867    1.0000 </r>
       <r>    0.0288    1.0000 </r>
       <r>    0.0299    1.0000 </r>
       <r>    0.7395    1.0000 </r>
       <r>    1.2212    1.0000 </r>
       <r>    1.2238    1.0000 </r>
       <r>    1.7040    1.0000 </r>
       <r>    1.7095    1.0000 </r>
       <r>    1.9356    1.0000 </r>
       <r>    2.0598    1.0000 </r>
       <r>    2.3109    1.0000 </r>
       <r>    2.3178    1.0000 </r>
       <r>    2.6904    1.0000 </r>
       <r>    2.7911    1.0000 </r>
       <r>    2.7939    1.0000 </r>
       <r>    2.9302    1.0000 </r>
       <r>    2.9348    1.0000 </r>
       <r>    4.1605    1.0000 </r>
       <r>    8.5894    0.9907 </r>
       <r>    9.5130    0.0000 </r>
       <r>    9.8097    0.0000 </r>
       <r>    9.8143    0.0000 </r>
       <r>   11.0277    0.0000 </r>
       <r>   11.2822    0.0000 </r>
       <r>   11.2887    0.0000 </r>
       <r>   12.0580    0.0000 </r>
       <r>   12.0606    0.0000 </r>
       <r>   12.7782    0.0000 </r>
       <r>   12.9230    0.0000 </r>
       <r>   12.9321    0.0000 </r>
       <r>   13.0753    0.0000 </r>
       <r>   15.0968    0.0000 </r>
       <r>   15.1467    0.0000 </r>
       <r>   15.1496    0.0000 </r>
       <r>   15.3504    0.0000 </r>
       <r>   16.7163    0.0000 </r>
       <r>   17.1867    0.0000 </r>
      </set>
      <set comment="kpoint 4">
       <r>  -14.8681    1.0000 </r>
       <r>  -13.2080    1.0000 </r>
       <r>  -12.6698    1.0000 </r>
       <r>  -12.4914    1.0000 </r>
       <r>  -12.4885    1.0000 </r>
       <r>  -12.3111    1.0000 </r>
       <r>  -12.3081    1.0000 </r>
       <r>   -1.7222    1.0000 </r>
       <r>   -1.7204    1.0000 </r>
       <r>   -1.5268    1.0000 </r>
       <r>   -0.7699    1.0000 </r>
       <r>   -0.3865    1.0000 </r>
       <r>    0.0286    1.0000 </r>
       <r>    0.0297    1.0000 </r>
       <r>    0.7392    1.0000 </r>
       <r>    1.2214    1.0000 </r>
       <r>    1.2237    1.0000 </r>
       <r>    1.7037    1.0000 </r>
       <r>    1.7097    1.0000 </r>
       <r>    1.9355    1.0000 </r>
       <r>    2.0602    1.0000 </r>
       <r>    2.3105    1.0000 </r>
       <r>    2.3183    1.0000 </r>
       <r>    2.6902    1.0000 </r>
       <r>    2.7921    1.0000 </r>
       <r>    2.7928    1.0000 </r>
       <r>    2.9319    1.0000 </r>
       <r>    2.9333    1.0000 </r>
       <r>    4.1605    1.0000 </r>
       <r>    8.5895    0.9906 </r>
       <r>    9.5131    0.0000 </r>
       <r>    9.8102    0.0000 </r>
       <r>    9.8133    0.0000 </r>
       <r>   11.0275    0.0000 </r>
       <r>   11.2824    0.0000 </r>
       <r>   11.2887    0.0000 </r>
       <r>   12.0580    0.0000 </r>
       <r>   12.0605    0.0000 </r>
       <r>   12.7783    0.0000 </r>
       <r>   12.9226    0.0000 </r>
       <r>   12.9327    0.0000 </r>
       <r>   13.0755    0.0000 </r>
       <r>   15.0965    0.0000 </r>
       <r>   15.1472    0.0000 </r>
       <r>   15.1495    0.0000 </r>
       <r>   15.3505    0.0000 </r>
       <r>   16.7163    0.0000 </r>
       <r>   17.1907    0.0000 </r>
      </set>
      <set comment="kpoint 5">
       <r>  -14.8283    1.0000 </r>
       <r>  -13.0297    1.0000 </r>
       <r>  -12.8181    1.0000 </r>
       <r>  -12.5366    1.0000 </r>
       <r>  -12.5266    1.0000 </r>
       <r>  -12.4126    1.0000 </r>
       <r>  -12.2730    1.0000 </r>
       <r>   -1.3698    1.0000 </r>
       <r>   -1.3041    1.0000 </r>
       <r>   -0.9685    1.0000 </r>
       <r>   -0.5696    1.0000 </r>
       <r>   -0.1720    1.0000 </r>
       <r>    0.0249    1.0000 </r>
       <r>    0.5359    1.0000 </r>
       <r>    0.5808    1.0000 </r>
       <r>    0.8866    1.0000 </r>
       <r>    0.9198    1.0000 </r>
       <r>    1.3075    1.0000 </r>
       <r>    1.4674    1.0000 </r>
       <r>    1.4891    1.0000 </r>
       <r>    1.7643    1.0000 </r>
       <r>    1.7793    1.0000 </r>
       <r>    2.0520    1.0000 </r>
       <r>    2.3001    1.0000 </r>
       <r>    2.5812    1.0000 </r>
       <r>    2.6268    1.0000 </r>
       <r>    2.7232    1.0000 </r>
       <r>    2.8330    1.0000 </r>
       <r>    5.4419    1.0000 </r>
       <r>    7.8683    1.0000 </r>
       <r>    8.7704    0.0028 </r>
       <r>    9.1930    0.0000 </r>
       <r>   10.7335    0.0000 </r>
       <r>   11.6660    0.0000 </r>
       <r>   12.3218    0.0000 </r>
       <r>   12.5042    0.0000 </r>
       <r>   12.5754    0.0000 </r>
       <r>   13.1069    0.0000 </r>
       <r>   13.2022    0.0000 </r>
       <r>   14.0321    0.0000 </r>
       <r>   14.0801    0.0000 </r>
       <r>   14.1236    0.0000 </r>
       <r>   14.3650    0.0000 </r>
       <r>   14.5476    0.0000 </r>
       <r>   14.6017    0.0000 </r>
       <r>   15.0635    0.0000 </r>
       <r>   15.3222    0.0000 </r>
       <r>   15.8847    0.0000 </r>
      </set>
      <set comment="kpoint 6">
       <r>  -14.8283    1.0000 </r>
       <r>  -13.0296    1.0000 </r>
       <r>  -12.8181    1.0000 </r>
       <r>  -12.5384    1.0000 </r>
       <r>  -12.5248    1.0000 </r>
       <r>  -12.4127    1.0000 </r>
       <r>  -12.2730    1.0000 </r>
       <r>   -1.3703    1.0000 </r>
       <r>   -1.3042    1.0000 </r>
       <r>   -0.9681    1.0000 </r>
       <r>   -0.5693    1.0000 </r>
       <r>   -0.1716    1.0000 </r>
       <r>    0.0262    1.0000 </r>
       <r>    0.5352    1.0000 </r>
       <r>    0.5793    1.0000 </r>
       <r>    0.8855    1.0000 </r>
       <r>    0.9198    1.0000 </r>
       <r>    1.3057    1.0000 </r>
       <r>    1.4676    1.0000 </r>
       <r>    1.4937    1.0000 </r>
       <r>    1.7644    1.0000 </r>
       <r>    1.7794    1.0000 </r>
       <r>    2.0502    1.0000 </r>
       <r>    2.3005    1.0000 </r>
       <r>    2.5814    1.0000 </r>
       <r>    2.6268    1.0000 </r>
       <r>    2.7254    1.0000 </r>
       <r>    2.8305    1.0000 </r>
       <r>    5.4418    1.0000 </r>
       <r>    7.8690    1.0000 </r>
       <r>    8.7694    0.0031 </r>
       <r>    9.1935    0.0000 </r>
       <r>   10.7326    0.0000 </r>
       <r>   11.6669    0.0000 </r>
       <r>   12.3203    0.0000 </r>
       <r>   12.5043    0.0000 </r>
       <r>   12.5767    0.0000 </r>
       <r>   13.1069    0.0000 </r>
       <r>   13.2036    0.0000 </r>
       <r>   14.0266    0.0000 </r>
       <r>   14.0791    0.0000 </r>
       <r>   14.1247    0.0000 </r>
       <r>   14.3681    0.0000 </r>
       <r>   14.5473    0.0000 </r>
       <r>   14.6011    0.0000 </r>
       <r>   15.0690    0.0000 </r>
       <r>   15.3229    0.0000 </r>
       <r>   15.8807    0.0000 </r>
      </set>
      <set comment="kpoint 7">
       <r>  -14.8283    1.0000 </r>
       <r>  -13.0300    1.0000 </r>
       <r>  -12.8178    1.0000 </r>
       <r>  -12.5368    1.0000 </r>
       <r>  -12.5261    1.0000 </r>
       <r>  -12.4123    1.0000 </r>
       <r>  -12.2735    1.0000 </r>
       <r>   -1.3707    1.0000 </r>
       <r>   -1.3043    1.0000 </r>
       <r>   -0.9679    1.0000 </r>
       <r>   -0.5697    1.0000 </r>
       <r>   -0.1714    1.0000 </r>
       <r>    0.0269    1.0000 </r>
       <r>    0.5355    1.0000 </r>
       <r>    0.5777    1.0000 </r>
       <r>    0.8852    1.0000 </r>
       <r>    0.9199    1.0000 </r>
       <r>    1.3045    1.0000 </r>
       <r>    1.4714    1.0000 </r>
       <r>    1.4945    1.0000 </r>
       <r>    1.7650    1.0000 </r>
       <r>    1.7791    1.0000 </r>
       <r>    2.0489    1.0000 </r>
       <r>    2.3013    1.0000 </r>
       <r>    2.5817    1.0000 </r>
       <r>    2.6259    1.0000 </r>
       <r>    2.7269    1.0000 </r>
       <r>    2.8274    1.0000 </r>
       <r>    5.4412    1.0000 </r>
       <r>    7.8710    1.0000 </r>
       <r>    8.7688    0.0032 </r>
       <r>    9.1922    0.0000 </r>
       <r>   10.7327    0.0000 </r>
       <r>   11.6673    0.0000 </r>
       <r>   12.3189    0.0000 </r>
       <r>   12.5072    0.0000 </r>
       <r>   12.5755    0.0000 </r>
       <r>   13.1082    0.0000 </r>
       <r>   13.2045    0.0000 </r>
       <r>   14.0261    0.0000 </r>
       <r>   14.0711    0.0000 </r>
       <r>   14.1305    0.0000 </r>
       <r>   14.3688    0.0000 </r>
       <r>   14.5425    0.0000 </r>
       <r>   14.6008    0.0000 </r>
       <r>   15.0757    0.0000 </r>
       <r>   15.3242    0.0000 </r>
       <r>   15.8781    0.0000 </r>
      </set>
      <set comment="kpoint 8">
       <r>  -14.8283    1.0000 </r>
       <r>  -13.0296    1.0000 </r>
       <r>  -12.8181    1.0000 </r>
       <r>  -12.5381    1.0000 </r>
       <r>  -12.5251    1.0000 </r>
       <r>  -12.4127    1.0000 </r>
       <r>  -12.2730    1.0000 </r>
       <r>   -1.3703    1.0000 </r>
       <r>   -1.3043    1.0000 </r>
       <r>   -0.9680    1.0000 </r>
       <r>   -0.5695    1.0000 </r>
       <r>   -0.1714    1.0000 </r>
       <r>    0.0250    1.0000 </r>
       <r>    0.5358    1.0000 </r>
       <r>    0.5809    1.0000 </r>
       <r>    0.8866    1.0000 </r>
       <r>    0.9198    1.0000 </r>
       <r>    1.3074    1.0000 </r>
       <r>    1.4662    1.0000 </r>
       <r>    1.4897    1.0000 </r>
       <r>    1.7644    1.0000 </r>
       <r>    1.7796    1.0000 </r>
       <r>    2.0514    1.0000 </r>
       <r>    2.3002    1.0000 </r>
       <r>    2.5815    1.0000 </r>
       <r>    2.6271    1.0000 </r>
       <r>    2.7232    1.0000 </r>
       <r>    2.8327    1.0000 </r>
       <r>    5.4419    1.0000 </r>
       <r>    7.8675    1.0000 </r>
       <r>    8.7708    0.0027 </r>
       <r>    9.1938    0.0000 </r>
       <r>   10.7328    0.0000 </r>
       <r>   11.6668    0.0000 </r>
       <r>   12.3219    0.0000 </r>
       <r>   12.5035    0.0000 </r>
       <r>   12.5753    0.0000 </r>
       <r>   13.1063    0.0000 </r>
       <r>   13.2026    0.0000 </r>
       <r>   14.0303    0.0000 </r>
       <r>   14.0788    0.0000 </r>
       <r>   14.1251    0.0000 </r>
       <r>   14.3654    0.0000 </r>
       <r>   14.5511    0.0000 </r>
       <r>   14.6008    0.0000 </r>
       <r>   15.0625    0.0000 </r>
       <r>   15.3221    0.0000 </r>
       <r>   15.8842    0.0000 </r>
      </set>
      <set comment="kpoint 9">
       <r>  -14.8283    1.0000 </r>
       <r>  -13.0296    1.0000 </r>
       <r>  -12.8181    1.0000 </r>
       <r>  -12.5366    1.0000 </r>
       <r>  -12.5266    1.0000 </r>
       <r>  -12.4126    1.0000 </r>
       <r>  -12.2730    1.0000 </r>
       <r>   -1.3700    1.0000 </r>
       <r>   -1.3044    1.0000 </r>
       <r>   -0.9682    1.0000 </r>
       <r>   -0.5696    1.0000 </r>
       <r>   -0.1716    1.0000 </r>
       <r>    0.0275    1.0000 </r>
       <r>    0.5352    1.0000 </r>
       <r>    0.5777    1.0000 </r>
       <r>    0.8852    1.0000 </r>
       <r>    0.9194    1.0000 </r>
       <r>    1.3039    1.0000 </r>
       <r>    1.4707    1.0000 </r>
       <r>    1.4947    1.0000 </r>
       <r>    1.7642    1.0000 </r>
       <r>    1.7788    1.0000 </r>
       <r>    2.0492    1.0000 </r>
       <r>    2.3011    1.0000 </r>
       <r>    2.5825    1.0000 </r>
       <r>    2.6263    1.0000 </r>
       <r>    2.7272    1.0000 </r>
       <r>    2.8282    1.0000 </r>
       <r>    5.4413    1.0000 </r>
       <r>    7.8708    1.0000 </r>
       <r>    8.7689    0.0032 </r>
       <r>    9.1921    0.0000 </r>
       <r>   10.7326    0.0000 </r>
       <r>   11.6671    0.0000 </r>
       <r>   12.3184    0.0000 </r>
       <r>   12.5078    0.0000 </r>
       <r>   12.5750    0.0000 </r>
       <r>   13.1090    0.0000 </r>
       <r>   13.2039    0.0000 </r>
       <r>   14.0262    0.0000 </r>
       <r>   14.0774    0.0000 </r>
       <r>   14.1240    0.0000 </r>
       <r>   14.3693    0.0000 </r>
       <r>   14.5416    0.0000 </r>
       <r>   14.6015    0.0000 </r>
       <r>   15.0748    0.0000 </r>
       <r>   15.3248    0.0000 </r>
       <r>   15.8790    0.0000 </r>
      </set>
      <set comment="kpoint 10">
       <r>  -14.8283    1.0000 </r>
       <r>  -13.0300    1.0000 </r>
       <r>  -12.8178    1.0000 </r>
       <r>  -12.5367    1.0000 </r>
       <r>  -12.5261    1.0000 </r>
       <r>  -12.4123    1.0000 </r>
       <r>  -12.2735    1.0000 </r>
       <r>   -1.3701    1.0000 </r>
       <r>   -1.3044    1.0000 </r>
       <r>   -0.9683    1.0000 </r>
       <r>   -0.5696    1.0000 </r>
       <r>   -0.1717    1.0000 </r>
       <r>    0.0259    1.0000 </r>
       <r>    0.5355    1.0000 </r>
       <r>    0.5790    1.0000 </r>
       <r>    0.8856    1.0000 </r>
       <r>    0.9203    1.0000 </r>
       <r>    1.3063    1.0000 </r>
       <r>    1.4698    1.0000 </r>
       <r>    1.4916    1.0000 </r>
       <r>    1.7651    1.0000 </r>
       <r>    1.7793    1.0000 </r>
       <r>    2.0503    1.0000 </r>
       <r>    2.3012    1.0000 </r>
       <r>    2.5810    1.0000 </r>
       <r>    2.6269    1.0000 </r>
       <r>    2.7246    1.0000 </r>
       <r>    2.8295    1.0000 </r>
       <r>    5.4414    1.0000 </r>
       <r>    7.8699    1.0000 </r>
       <r>    8.7700    0.0029 </r>
       <r>    9.1919    0.0000 </r>
       <r>   10.7331    0.0000 </r>
       <r>   11.6668    0.0000 </r>
       <r>   12.3205    0.0000 </r>
       <r>   12.5062    0.0000 </r>
       <r>   12.5749    0.0000 </r>
       <r>   13.1074    0.0000 </r>
       <r>   13.2034    0.0000 </r>
       <r>   14.0290    0.0000 </r>
       <r>   14.0710    0.0000 </r>
       <r>   14.1313    0.0000 </r>
       <r>   14.3672    0.0000 </r>
       <r>   14.5464    0.0000 </r>
       <r>   14.6008    0.0000 </r>
       <r>   15.0703    0.0000 </r>
       <r>   15.3226    0.0000 </r>
       <r>   15.8813    0.0000 </r>
      </set>
      <set comment="kpoint 11">
       <r>  -14.8283    1.0000 </r>
       <r>  -13.0296    1.0000 </r>
       <r>  -12.8180    1.0000 </r>
       <r>  -12.5398    1.0000 </r>
       <r>  -12.5235    1.0000 </r>
       <r>  -12.4127    1.0000 </r>
       <r>  -12.2730    1.0000 </r>
       <r>   -1.3708    1.0000 </r>
       <r>   -1.3036    1.0000 </r>
       <r>   -0.9681    1.0000 </r>
       <r>   -0.5694    1.0000 </r>
       <r>   -0.1716    1.0000 </r>
       <r>    0.0261    1.0000 </r>
       <r>    0.5350    1.0000 </r>
       <r>    0.5794    1.0000 </r>
       <r>    0.8855    1.0000 </r>
       <r>    0.9202    1.0000 </r>
       <r>    1.3057    1.0000 </r>
       <r>    1.4647    1.0000 </r>
       <r>    1.4964    1.0000 </r>
       <r>    1.7638    1.0000 </r>
       <r>    1.7801    1.0000 </r>
       <r>    2.0499    1.0000 </r>
       <r>    2.3007    1.0000 </r>
       <r>    2.5816    1.0000 </r>
       <r>    2.6271    1.0000 </r>
       <r>    2.7249    1.0000 </r>
       <r>    2.8305    1.0000 </r>
       <r>    5.4418    1.0000 </r>
       <r>    7.8691    1.0000 </r>
       <r>    8.7686    0.0033 </r>
       <r>    9.1943    0.0000 </r>
       <r>   10.7327    0.0000 </r>
       <r>   11.6664    0.0000 </r>
       <r>   12.3208    0.0000 </r>
       <r>   12.5027    0.0000 </r>
       <r>   12.5779    0.0000 </r>
       <r>   13.1063    0.0000 </r>
       <r>   13.2037    0.0000 </r>
       <r>   14.0241    0.0000 </r>
       <r>   14.0830    0.0000 </r>
       <r>   14.1254    0.0000 </r>
       <r>   14.3672    0.0000 </r>
       <r>   14.5470    0.0000 </r>
       <r>   14.6014    0.0000 </r>
       <r>   15.0686    0.0000 </r>
       <r>   15.3228    0.0000 </r>
       <r>   15.8807    0.0000 </r>
      </set>
      <set comment="kpoint 12">
       <r>  -14.8283    1.0000 </r>
       <r>  -13.0297    1.0000 </r>
       <r>  -12.8180    1.0000 </r>
       <r>  -12.5381    1.0000 </r>
       <r>  -12.5251    1.0000 </r>
       <r>  -12.4127    1.0000 </r>
       <r>  -12.2730    1.0000 </r>
       <r>   -1.3705    1.0000 </r>
       <r>   -1.3037    1.0000 </r>
       <r>   -0.9683    1.0000 </r>
       <r>   -0.5696    1.0000 </r>
       <r>   -0.1718    1.0000 </r>
       <r>    0.0275    1.0000 </r>
       <r>    0.5348    1.0000 </r>
       <r>    0.5777    1.0000 </r>
       <r>    0.8845    1.0000 </r>
       <r>    0.9199    1.0000 </r>
       <r>    1.3038    1.0000 </r>
       <r>    1.4697    1.0000 </r>
       <r>    1.4969    1.0000 </r>
       <r>    1.7641    1.0000 </r>
       <r>    1.7792    1.0000 </r>
       <r>    2.0488    1.0000 </r>
       <r>    2.3010    1.0000 </r>
       <r>    2.5825    1.0000 </r>
       <r>    2.6263    1.0000 </r>
       <r>    2.7271    1.0000 </r>
       <r>    2.8279    1.0000 </r>
       <r>    5.4413    1.0000 </r>
       <r>    7.8714    1.0000 </r>
       <r>    8.7676    0.0036 </r>
       <r>    9.1927    0.0000 </r>
       <r>   10.7329    0.0000 </r>
       <r>   11.6668    0.0000 </r>
       <r>   12.3187    0.0000 </r>
       <r>   12.5091    0.0000 </r>
       <r>   12.5749    0.0000 </r>
       <r>   13.1089    0.0000 </r>
       <r>   13.2032    0.0000 </r>
       <r>   14.0254    0.0000 </r>
       <r>   14.0779    0.0000 </r>
       <r>   14.1249    0.0000 </r>
       <r>   14.3692    0.0000 </r>
       <r>   14.5395    0.0000 </r>
       <r>   14.6013    0.0000 </r>
       <r>   15.0754    0.0000 </r>
       <r>   15.3258    0.0000 </r>
       <r>   15.8785    0.0000 </r>
      </set>
      <set comment="kpoint 13">
       <r>  -14.8283    1.0000 </r>
       <r>  -13.0301    1.0000 </r>
       <r>  -12.8177    1.0000 </r>
       <r>  -12.5368    1.0000 </r>
       <r>  -12.5260    1.0000 </r>
       <r>  -12.4123    1.0000 </r>
       <r>  -12.2735    1.0000 </r>
       <r>   -1.3704    1.0000 </r>
       <r>   -1.3037    1.0000 </r>
       <r>   -0.9685    1.0000 </r>
       <r>   -0.5699    1.0000 </r>
       <r>   -0.1720    1.0000 </r>
       <r>    0.0245    1.0000 </r>
       <r>    0.5364    1.0000 </r>
       <r>    0.5808    1.0000 </r>
       <r>    0.8862    1.0000 </r>
       <r>    0.9206    1.0000 </r>
       <r>    1.3080    1.0000 </r>
       <r>    1.4679    1.0000 </r>
       <r>    1.4888    1.0000 </r>
       <r>    1.7646    1.0000 </r>
       <r>    1.7795    1.0000 </r>
       <r>    2.0519    1.0000 </r>
       <r>    2.3006    1.0000 </r>
       <r>    2.5809    1.0000 </r>
       <r>    2.6269    1.0000 </r>
       <r>    2.7224    1.0000 </r>
       <r>    2.8325    1.0000 </r>
       <r>    5.4414    1.0000 </r>
       <r>    7.8691    1.0000 </r>
       <r>    8.7697    0.0030 </r>
       <r>    9.1931    0.0000 </r>
       <r>   10.7335    0.0000 </r>
       <r>   11.6659    0.0000 </r>
       <r>   12.3225    0.0000 </r>
       <r>   12.5042    0.0000 </r>
       <r>   12.5756    0.0000 </r>
       <r>   13.1061    0.0000 </r>
       <r>   13.2026    0.0000 </r>
       <r>   14.0322    0.0000 </r>
       <r>   14.0759    0.0000 </r>
       <r>   14.1286    0.0000 </r>
       <r>   14.3649    0.0000 </r>
       <r>   14.5469    0.0000 </r>
       <r>   14.6001    0.0000 </r>
       <r>   15.0641    0.0000 </r>
       <r>   15.3230    0.0000 </r>
       <r>   15.8843    0.0000 </r>
      </set>
      <set comment="kpoint 14">
       <r>  -14.8283    1.0000 </r>
       <r>  -13.0297    1.0000 </r>
       <r>  -12.8180    1.0000 </r>
       <r>  -12.5383    1.0000 </r>
       <r>  -12.5248    1.0000 </r>
       <r>  -12.4128    1.0000 </r>
       <r>  -12.2730    1.0000 </r>
       <r>   -1.3703    1.0000 </r>
       <r>   -1.3039    1.0000 </r>
       <r>   -0.9683    1.0000 </r>
       <r>   -0.5696    1.0000 </r>
       <r>   -0.1718    1.0000 </r>
       <r>    0.0263    1.0000 </r>
       <r>    0.5352    1.0000 </r>
       <r>    0.5795    1.0000 </r>
       <r>    0.8853    1.0000 </r>
       <r>    0.9201    1.0000 </r>
       <r>    1.3058    1.0000 </r>
       <r>    1.4666    1.0000 </r>
       <r>    1.4944    1.0000 </r>
       <r>    1.7637    1.0000 </r>
       <r>    1.7797    1.0000 </r>
       <r>    2.0502    1.0000 </r>
       <r>    2.3007    1.0000 </r>
       <r>    2.5822    1.0000 </r>
       <r>    2.6266    1.0000 </r>
       <r>    2.7252    1.0000 </r>
       <r>    2.8305    1.0000 </r>
       <r>    5.4415    1.0000 </r>
       <r>    7.8697    1.0000 </r>
       <r>    8.7688    0.0032 </r>
       <r>    9.1934    0.0000 </r>
       <r>   10.7328    0.0000 </r>
       <r>   11.6665    0.0000 </r>
       <r>   12.3208    0.0000 </r>
       <r>   12.5051    0.0000 </r>
       <r>   12.5763    0.0000 </r>
       <r>   13.1075    0.0000 </r>
       <r>   13.2025    0.0000 </r>
       <r>   14.0278    0.0000 </r>
       <r>   14.0791    0.0000 </r>
       <r>   14.1256    0.0000 </r>
       <r>   14.3677    0.0000 </r>
       <r>   14.5439    0.0000 </r>
       <r>   14.6003    0.0000 </r>
       <r>   15.0690    0.0000 </r>
       <r>   15.3239    0.0000 </r>
       <r>   15.8819    0.0000 </r>
      </set>
      <set comment="kpoint 15">
       <r>  -14.8283    1.0000 </r>
       <r>  -13.0296    1.0000 </r>
       <r>  -12.8181    1.0000 </r>
       <r>  -12.5398    1.0000 </r>
       <r>  -12.5235    1.0000 </r>
       <r>  -12.4127    1.0000 </r>
       <r>  -12.2730    1.0000 </r>
       <r>   -1.3708    1.0000 </r>
       <r>   -1.3040    1.0000 </r>
       <r>   -0.9678    1.0000 </r>
       <r>   -0.5695    1.0000 </r>
       <r>   -0.1713    1.0000 </r>
       <r>    0.0263    1.0000 </r>
       <r>    0.5351    1.0000 </r>
       <r>    0.5794    1.0000 </r>
       <r>    0.8857    1.0000 </r>
       <r>    0.9200    1.0000 </r>
       <r>    1.3056    1.0000 </r>
       <r>    1.4648    1.0000 </r>
       <r>    1.4963    1.0000 </r>
       <r>    1.7634    1.0000 </r>
       <r>    1.7803    1.0000 </r>
       <r>    2.0495    1.0000 </r>
       <r>    2.3008    1.0000 </r>
       <r>    2.5821    1.0000 </r>
       <r>    2.6267    1.0000 </r>
       <r>    2.7254    1.0000 </r>
       <r>    2.8300    1.0000 </r>
       <r>    5.4417    1.0000 </r>
       <r>    7.8691    1.0000 </r>
       <r>    8.7688    0.0032 </r>
       <r>    9.1943    0.0000 </r>
       <r>   10.7325    0.0000 </r>
       <r>   11.6668    0.0000 </r>
       <r>   12.3207    0.0000 </r>
       <r>   12.5025    0.0000 </r>
       <r>   12.5781    0.0000 </r>
       <r>   13.1065    0.0000 </r>
       <r>   13.2039    0.0000 </r>
       <r>   14.0237    0.0000 </r>
       <r>   14.0827    0.0000 </r>
       <r>   14.1255    0.0000 </r>
       <r>   14.3674    0.0000 </r>
       <r>   14.5462    0.0000 </r>
       <r>   14.6011    0.0000 </r>
       <r>   15.0689    0.0000 </r>
       <r>   15.3232    0.0000 </r>
       <r>   15.8810    0.0000 </r>
      </set>
      <set comment="kpoint 16">
       <r>  -14.8283    1.0000 </r>
       <r>  -13.0301    1.0000 </r>
       <r>  -12.8177    1.0000 </r>
       <r>  -12.5367    1.0000 </r>
       <r>  -12.5261    1.0000 </r>
       <r>  -12.4124    1.0000 </r>
       <r>  -12.2735    1.0000 </r>
       <r>   -1.3701    1.0000 </r>
       <r>   -1.3040    1.0000 </r>
       <r>   -0.9685    1.0000 </r>
       <r>   -0.5698    1.0000 </r>
       <r>   -0.1720    1.0000 </r>
       <r>    0.0256    1.0000 </r>
       <r>    0.5355    1.0000 </r>
       <r>    0.5794    1.0000 </r>
       <r>    0.8855    1.0000 </r>
       <r>    0.9206    1.0000 </r>
       <r>    1.3067    1.0000 </r>
       <r>    1.4697    1.0000 </r>
       <r>    1.4915    1.0000 </r>
       <r>    1.7645    1.0000 </r>
       <r>    1.7795    1.0000 </r>
       <r>    2.0505    1.0000 </r>
       <r>    2.3011    1.0000 </r>
       <r>    2.5814    1.0000 </r>
       <r>    2.6266    1.0000 </r>
       <r>    2.7242    1.0000 </r>
       <r>    2.8299    1.0000 </r>
       <r>    5.4413    1.0000 </r>
       <r>    7.8707    1.0000 </r>
       <r>    8.7691    0.0032 </r>
       <r>    9.1920    0.0000 </r>
       <r>   10.7336    0.0000 </r>
       <r>   11.6663    0.0000 </r>
       <r>   12.3207    0.0000 </r>
       <r>   12.5071    0.0000 </r>
       <r>   12.5753    0.0000 </r>
       <r>   13.1073    0.0000 </r>
       <r>   13.2029    0.0000 </r>
       <r>   14.0297    0.0000 </r>
       <r>   14.0754    0.0000 </r>
       <r>   14.1278    0.0000 </r>
       <r>   14.3667    0.0000 </r>
       <r>   14.5424    0.0000 </r>
       <r>   14.6009    0.0000 </r>
       <r>   15.0701    0.0000 </r>
       <r>   15.3238    0.0000 </r>
       <r>   15.8825    0.0000 </r>
      </set>
     </set>
     <set comment="spin 2">
      <set comment="kpoint 1">
       <r>  -14.8682    1.0000 </r>
       <r>  -13.2080    1.0000 </r>
       <r>  -12.6698    1.0000 </r>
       <r>  -12.4906    1.0000 </r>
       <r>  -12.4892    1.0000 </r>
       <r>  -12.3102    1.0000 </r>
       <r>  -12.3090    1.0000 </r>
       <r>   -1.7216    1.0000 </r>
       <r>   -1.7207    1.0000 </r>
       <r>   -1.5271    1.0000 </r>
       <r>   -0.7700    1.0000 </r>
       <r>   -0.3870    1.0000 </r>
       <r>    0.0287    1.0000 </r>
       <r>    0.0301    1.0000 </r>
       <r>    0.7391    1.0000 </r>
       <r>    1.2221    1.0000 </r>
       <r>    1.2230    1.0000 </r>
       <r>    1.7050    1.0000 </r>
       <r>    1.7084    1.0000 </r>
       <r>    1.9353    1.0000 </r>
       <r>    2.0604    1.0000 </r>
       <r>    2.3122    1.0000 </r>
       <r>    2.3160    1.0000 </r>
       <r>    2.6908    1.0000 </r>
       <r>    2.7908    1.0000 </r>
       <r>    2.7940    1.0000 </r>
       <r>    2.9310    1.0000 </r>
       <r>    2.9346    1.0000 </r>
       <r>    4.1602    1.0000 </r>
       <r>    8.5895    0.9906 </r>
       <r>    9.5136    0.0000 </r>
       <r>    9.8093    0.0000 </r>
       <r>    9.8130    0.0000 </r>
       <r>   11.0275    0.0000 </r>
       <r>   11.2832    0.0000 </r>
       <r>   11.2884    0.0000 </r>
       <r>   12.0590    0.0000 </r>
       <r>   12.0595    0.0000 </r>
       <r>   12.7789    0.0000 </r>
       <r>   12.9260    0.0000 </r>
       <r>   12.9288    0.0000 </r>
       <r>   13.0750    0.0000 </r>
       <r>   15.0978    0.0000 </r>
       <r>   15.1464    0.0000 </r>
       <r>   15.1484    0.0000 </r>
       <r>   15.3501    0.0000 </r>
       <r>   16.7167    0.0000 </r>
       <r>   17.1910    0.0000 </r>
      </set>
      <set comment="kpoint 2">
       <r>  -14.8682    1.0000 </r>
       <r>  -13.2081    1.0000 </r>
       <r>  -12.6698    1.0000 </r>
       <r>  -12.4907    1.0000 </r>
       <r>  -12.4891    1.0000 </r>
       <r>  -12.3104    1.0000 </r>
       <r>  -12.3088    1.0000 </r>
       <r>   -1.7216    1.0000 </r>
       <r>   -1.7204    1.0000 </r>
       <r>   -1.5273    1.0000 </r>
       <r>   -0.7700    1.0000 </r>
       <r>   -0.3869    1.0000 </r>
       <r>    0.0287    1.0000 </r>
       <r>    0.0299    1.0000 </r>
       <r>    0.7390    1.0000 </r>
       <r>    1.2217    1.0000 </r>
       <r>    1.2234    1.0000 </r>
       <r>    1.7050    1.0000 </r>
       <r>    1.7085    1.0000 </r>
       <r>    1.9354    1.0000 </r>
       <r>    2.0604    1.0000 </r>
       <r>    2.3122    1.0000 </r>
       <r>    2.3166    1.0000 </r>
       <r>    2.6904    1.0000 </r>
       <r>    2.7909    1.0000 </r>
       <r>    2.7935    1.0000 </r>
       <r>    2.9304    1.0000 </r>
       <r>    2.9351    1.0000 </r>
       <r>    4.1603    1.0000 </r>
       <r>    8.5897    0.9904 </r>
       <r>    9.5140    0.0000 </r>
       <r>    9.8092    0.0000 </r>
       <r>    9.8124    0.0000 </r>
       <r>   11.0276    0.0000 </r>
       <r>   11.2834    0.0000 </r>
       <r>   11.2884    0.0000 </r>
       <r>   12.0585    0.0000 </r>
       <r>   12.0603    0.0000 </r>
       <r>   12.7791    0.0000 </r>
       <r>   12.9255    0.0000 </r>
       <r>   12.9290    0.0000 </r>
       <r>   13.0752    0.0000 </r>
       <r>   15.0983    0.0000 </r>
       <r>   15.1456    0.0000 </r>
       <r>   15.1483    0.0000 </r>
       <r>   15.3501    0.0000 </r>
       <r>   16.7168    0.0000 </r>
       <r>   17.1839    0.0000 </r>
      </set>
      <set comment="kpoint 3">
       <r>  -14.8682    1.0000 </r>
       <r>  -13.2080    1.0000 </r>
       <r>  -12.6698    1.0000 </r>
       <r>  -12.4913    1.0000 </r>
       <r>  -12.4886    1.0000 </r>
       <r>  -12.3109    1.0000 </r>
       <r>  -12.3082    1.0000 </r>
       <r>   -1.7222    1.0000 </r>
       <r>   -1.7208    1.0000 </r>
       <r>   -1.5264    1.0000 </r>
       <r>   -0.7700    1.0000 </r>
       <r>   -0.3868    1.0000 </r>
       <r>    0.0287    1.0000 </r>
       <r>    0.0299    1.0000 </r>
       <r>    0.7395    1.0000 </r>
       <r>    1.2212    1.0000 </r>
       <r>    1.2238    1.0000 </r>
       <r>    1.7040    1.0000 </r>
       <r>    1.7095    1.0000 </r>
       <r>    1.9356    1.0000 </r>
       <r>    2.0598    1.0000 </r>
       <r>    2.3109    1.0000 </r>
       <r>    2.3178    1.0000 </r>
       <r>    2.6904    1.0000 </r>
       <r>    2.7911    1.0000 </r>
       <r>    2.7939    1.0000 </r>
       <r>    2.9302    1.0000 </r>
       <r>    2.9348    1.0000 </r>
       <r>    4.1603    1.0000 </r>
       <r>    8.5893    0.9907 </r>
       <r>    9.5130    0.0000 </r>
       <r>    9.8095    0.0000 </r>
       <r>    9.8141    0.0000 </r>
       <r>   11.0278    0.0000 </r>
       <r>   11.2822    0.0000 </r>
       <r>   11.2887    0.0000 </r>
       <r>   12.0579    0.0000 </r>
       <r>   12.0606    0.0000 </r>
       <r>   12.7782    0.0000 </r>
       <r>   12.9229    0.0000 </r>
       <r>   12.9321    0.0000 </r>
       <r>   13.0754    0.0000 </r>
       <r>   15.0969    0.0000 </r>
       <r>   15.1467    0.0000 </r>
       <r>   15.1496    0.0000 </r>
       <r>   15.3505    0.0000 </r>
       <r>   16.7163    0.0000 </r>
       <r>   17.1865    0.0000 </r>
      </set>
      <set comment="kpoint 4">
       <r>  -14.8682    1.0000 </r>
       <r>  -13.2080    1.0000 </r>
       <r>  -12.6698    1.0000 </r>
       <r>  -12.4914    1.0000 </r>
       <r>  -12.4885    1.0000 </r>
       <r>  -12.3111    1.0000 </r>
       <r>  -12.3081    1.0000 </r>
       <r>   -1.7222    1.0000 </r>
       <r>   -1.7204    1.0000 </r>
       <r>   -1.5268    1.0000 </r>
       <r>   -0.7699    1.0000 </r>
       <r>   -0.3866    1.0000 </r>
       <r>    0.0285    1.0000 </r>
       <r>    0.0297    1.0000 </r>
       <r>    0.7392    1.0000 </r>
       <r>    1.2214    1.0000 </r>
       <r>    1.2237    1.0000 </r>
       <r>    1.7037    1.0000 </r>
       <r>    1.7097    1.0000 </r>
       <r>    1.9355    1.0000 </r>
       <r>    2.0602    1.0000 </r>
       <r>    2.3105    1.0000 </r>
       <r>    2.3183    1.0000 </r>
       <r>    2.6902    1.0000 </r>
       <r>    2.7921    1.0000 </r>
       <r>    2.7928    1.0000 </r>
       <r>    2.9319    1.0000 </r>
       <r>    2.9333    1.0000 </r>
       <r>    4.1604    1.0000 </r>
       <r>    8.5894    0.9906 </r>
       <r>    9.5131    0.0000 </r>
       <r>    9.8101    0.0000 </r>
       <r>    9.8132    0.0000 </r>
       <r>   11.0275    0.0000 </r>
       <r>   11.2824    0.0000 </r>
       <r>   11.2887    0.0000 </r>
       <r>   12.0579    0.0000 </r>
       <r>   12.0604    0.0000 </r>
       <r>   12.7782    0.0000 </r>
       <r>   12.9225    0.0000 </r>
       <r>   12.9326    0.0000 </r>
       <r>   13.0756    0.0000 </r>
       <r>   15.0966    0.0000 </r>
       <r>   15.1472    0.0000 </r>
       <r>   15.1496    0.0000 </r>
       <r>   15.3505    0.0000 </r>
       <r>   16.7163    0.0000 </r>
       <r>   17.1921    0.0000 </r>
      </set>
      <set comment="kpoint 5">
       <r>  -14.8283    1.0000 </r>
       <r>  -13.0297    1.0000 </r>
       <r>  -12.8181    1.0000 </r>
       <r>  -12.5366    1.0000 </r>
       <r>  -12.5266    1.0000 </r>
       <r>  -12.4127    1.0000 </r>
       <r>  -12.2730    1.0000 </r>
       <r>   -1.3698    1.0000 </r>
       <r>   -1.3041    1.0000 </r>
       <r>   -0.9685    1.0000 </r>
       <r>   -0.5696    1.0000 </r>
       <r>   -0.1720    1.0000 </r>
       <r>    0.0249    1.0000 </r>
       <r>    0.5359    1.0000 </r>
       <r>    0.5808    1.0000 </r>
       <r>    0.8866    1.0000 </r>
       <r>    0.9198    1.0000 </r>
       <r>    1.3075    1.0000 </r>
       <r>    1.4674    1.0000 </r>
       <r>    1.4891    1.0000 </r>
       <r>    1.7643    1.0000 </r>
       <r>    1.7793    1.0000 </r>
       <r>    2.0520    1.0000 </r>
       <r>    2.3001    1.0000 </r>
       <r>    2.5812    1.0000 </r>
       <r>    2.6268    1.0000 </r>
       <r>    2.7232    1.0000 </r>
       <r>    2.8330    1.0000 </r>
       <r>    5.4417    1.0000 </r>
       <r>    7.8681    1.0000 </r>
       <r>    8.7702    0.0029 </r>
       <r>    9.1929    0.0000 </r>
       <r>   10.7335    0.0000 </r>
       <r>   11.6661    0.0000 </r>
       <r>   12.3218    0.0000 </r>
       <r>   12.5043    0.0000 </r>
       <r>   12.5755    0.0000 </r>
       <r>   13.1069    0.0000 </r>
       <r>   13.2022    0.0000 </r>
       <r>   14.0320    0.0000 </r>
       <r>   14.0801    0.0000 </r>
       <r>   14.1236    0.0000 </r>
       <r>   14.3650    0.0000 </r>
       <r>   14.5477    0.0000 </r>
       <r>   14.6017    0.0000 </r>
       <r>   15.0634    0.0000 </r>
       <r>   15.3222    0.0000 </r>
       <r>   15.8847    0.0000 </r>
      </set>
      <set comment="kpoint 6">
       <r>  -14.8283    1.0000 </r>
       <r>  -13.0296    1.0000 </r>
       <r>  -12.8181    1.0000 </r>
       <r>  -12.5384    1.0000 </r>
       <r>  -12.5248    1.0000 </r>
       <r>  -12.4127    1.0000 </r>
       <r>  -12.2730    1.0000 </r>
       <r>   -1.3703    1.0000 </r>
       <r>   -1.3042    1.0000 </r>
       <r>   -0.9681    1.0000 </r>
       <r>   -0.5694    1.0000 </r>
       <r>   -0.1716    1.0000 </r>
       <r>    0.0262    1.0000 </r>
       <r>    0.5351    1.0000 </r>
       <r>    0.5792    1.0000 </r>
       <r>    0.8855    1.0000 </r>
       <r>    0.9198    1.0000 </r>
       <r>    1.3057    1.0000 </r>
       <r>    1.4676    1.0000 </r>
       <r>    1.4937    1.0000 </r>
       <r>    1.7644    1.0000 </r>
       <r>    1.7794    1.0000 </r>
       <r>    2.0502    1.0000 </r>
       <r>    2.3005    1.0000 </r>
       <r>    2.5814    1.0000 </r>
       <r>    2.6268    1.0000 </r>
       <r>    2.7254    1.0000 </r>
       <r>    2.8305    1.0000 </r>
       <r>    5.4416    1.0000 </r>
       <r>    7.8689    1.0000 </r>
       <r>    8.7693    0.0031 </r>
       <r>    9.1933    0.0000 </r>
       <r>   10.7327    0.0000 </r>
       <r>   11.6669    0.0000 </r>
       <r>   12.3203    0.0000 </r>
       <r>   12.5043    0.0000 </r>
       <r>   12.5767    0.0000 </r>
       <r>   13.1069    0.0000 </r>
       <r>   13.2036    0.0000 </r>
       <r>   14.0266    0.0000 </r>
       <r>   14.0790    0.0000 </r>
       <r>   14.1247    0.0000 </r>
       <r>   14.3682    0.0000 </r>
       <r>   14.5473    0.0000 </r>
       <r>   14.6012    0.0000 </r>
       <r>   15.0690    0.0000 </r>
       <r>   15.3229    0.0000 </r>
       <r>   15.8807    0.0000 </r>
      </set>
      <set comment="kpoint 7">
       <r>  -14.8283    1.0000 </r>
       <r>  -13.0300    1.0000 </r>
       <r>  -12.8179    1.0000 </r>
       <r>  -12.5368    1.0000 </r>
       <r>  -12.5261    1.0000 </r>
       <r>  -12.4123    1.0000 </r>
       <r>  -12.2735    1.0000 </r>
       <r>   -1.3707    1.0000 </r>
       <r>   -1.3043    1.0000 </r>
       <r>   -0.9679    1.0000 </r>
       <r>   -0.5698    1.0000 </r>
       <r>   -0.1714    1.0000 </r>
       <r>    0.0269    1.0000 </r>
       <r>    0.5354    1.0000 </r>
       <r>    0.5776    1.0000 </r>
       <r>    0.8852    1.0000 </r>
       <r>    0.9199    1.0000 </r>
       <r>    1.3045    1.0000 </r>
       <r>    1.4714    1.0000 </r>
       <r>    1.4945    1.0000 </r>
       <r>    1.7650    1.0000 </r>
       <r>    1.7791    1.0000 </r>
       <r>    2.0489    1.0000 </r>
       <r>    2.3013    1.0000 </r>
       <r>    2.5817    1.0000 </r>
       <r>    2.6259    1.0000 </r>
       <r>    2.7269    1.0000 </r>
       <r>    2.8274    1.0000 </r>
       <r>    5.4410    1.0000 </r>
       <r>    7.8709    1.0000 </r>
       <r>    8.7686    0.0033 </r>
       <r>    9.1920    0.0000 </r>
       <r>   10.7328    0.0000 </r>
       <r>   11.6674    0.0000 </r>
       <r>   12.3189    0.0000 </r>
       <r>   12.5073    0.0000 </r>
       <r>   12.5755    0.0000 </r>
       <r>   13.1082    0.0000 </r>
       <r>   13.2045    0.0000 </r>
       <r>   14.0260    0.0000 </r>
       <r>   14.0710    0.0000 </r>
       <r>   14.1305    0.0000 </r>
       <r>   14.3688    0.0000 </r>
       <r>   14.5426    0.0000 </r>
       <r>   14.6009    0.0000 </r>
       <r>   15.0757    0.0000 </r>
       <r>   15.3242    0.0000 </r>
       <r>   15.8781    0.0000 </r>
      </set>
      <set comment="kpoint 8">
       <r>  -14.8284    1.0000 </r>
       <r>  -13.0296    1.0000 </r>
       <r>  -12.8181    1.0000 </r>
       <r>  -12.5381    1.0000 </r>
       <r>  -12.5252    1.0000 </r>
       <r>  -12.4127    1.0000 </r>
       <r>  -12.2730    1.0000 </r>
       <r>   -1.3703    1.0000 </r>
       <r>   -1.3043    1.0000 </r>
       <r>   -0.9681    1.0000 </r>
       <r>   -0.5695    1.0000 </r>
       <r>   -0.1714    1.0000 </r>
       <r>    0.0249    1.0000 </r>
       <r>    0.5358    1.0000 </r>
       <r>    0.5809    1.0000 </r>
       <r>    0.8866    1.0000 </r>
       <r>    0.9198    1.0000 </r>
       <r>    1.3074    1.0000 </r>
       <r>    1.4662    1.0000 </r>
       <r>    1.4897    1.0000 </r>
       <r>    1.7644    1.0000 </r>
       <r>    1.7796    1.0000 </r>
       <r>    2.0514    1.0000 </r>
       <r>    2.3002    1.0000 </r>
       <r>    2.5815    1.0000 </r>
       <r>    2.6271    1.0000 </r>
       <r>    2.7232    1.0000 </r>
       <r>    2.8327    1.0000 </r>
       <r>    5.4418    1.0000 </r>
       <r>    7.8673    1.0000 </r>
       <r>    8.7706    0.0028 </r>
       <r>    9.1936    0.0000 </r>
       <r>   10.7328    0.0000 </r>
       <r>   11.6669    0.0000 </r>
       <r>   12.3219    0.0000 </r>
       <r>   12.5036    0.0000 </r>
       <r>   12.5753    0.0000 </r>
       <r>   13.1062    0.0000 </r>
       <r>   13.2026    0.0000 </r>
       <r>   14.0302    0.0000 </r>
       <r>   14.0787    0.0000 </r>
       <r>   14.1251    0.0000 </r>
       <r>   14.3654    0.0000 </r>
       <r>   14.5512    0.0000 </r>
       <r>   14.6008    0.0000 </r>
       <r>   15.0625    0.0000 </r>
       <r>   15.3221    0.0000 </r>
       <r>   15.8842    0.0000 </r>
      </set>
      <set comment="kpoint 9">
       <r>  -14.8283    1.0000 </r>
       <r>  -13.0297    1.0000 </r>
       <r>  -12.8181    1.0000 </r>
       <r>  -12.5366    1.0000 </r>
       <r>  -12.5266    1.0000 </r>
       <r>  -12.4127    1.0000 </r>
       <r>  -12.2730    1.0000 </r>
       <r>   -1.3700    1.0000 </r>
       <r>   -1.3044    1.0000 </r>
       <r>   -0.9682    1.0000 </r>
       <r>   -0.5696    1.0000 </r>
       <r>   -0.1716    1.0000 </r>
       <r>    0.0275    1.0000 </r>
       <r>    0.5351    1.0000 </r>
       <r>    0.5777    1.0000 </r>
       <r>    0.8852    1.0000 </r>
       <r>    0.9194    1.0000 </r>
       <r>    1.3039    1.0000 </r>
       <r>    1.4707    1.0000 </r>
       <r>    1.4947    1.0000 </r>
       <r>    1.7641    1.0000 </r>
       <r>    1.7788    1.0000 </r>
       <r>    2.0492    1.0000 </r>
       <r>    2.3011    1.0000 </r>
       <r>    2.5825    1.0000 </r>
       <r>    2.6263    1.0000 </r>
       <r>    2.7272    1.0000 </r>
       <r>    2.8282    1.0000 </r>
       <r>    5.4411    1.0000 </r>
       <r>    7.8706    1.0000 </r>
       <r>    8.7688    0.0032 </r>
       <r>    9.1920    0.0000 </r>
       <r>   10.7327    0.0000 </r>
       <r>   11.6671    0.0000 </r>
       <r>   12.3184    0.0000 </r>
       <r>   12.5078    0.0000 </r>
       <r>   12.5751    0.0000 </r>
       <r>   13.1090    0.0000 </r>
       <r>   13.2038    0.0000 </r>
       <r>   14.0261    0.0000 </r>
       <r>   14.0773    0.0000 </r>
       <r>   14.1240    0.0000 </r>
       <r>   14.3693    0.0000 </r>
       <r>   14.5416    0.0000 </r>
       <r>   14.6015    0.0000 </r>
       <r>   15.0747    0.0000 </r>
       <r>   15.3248    0.0000 </r>
       <r>   15.8790    0.0000 </r>
      </set>
      <set comment="kpoint 10">
       <r>  -14.8283    1.0000 </r>
       <r>  -13.0301    1.0000 </r>
       <r>  -12.8178    1.0000 </r>
       <r>  -12.5367    1.0000 </r>
       <r>  -12.5262    1.0000 </r>
       <r>  -12.4124    1.0000 </r>
       <r>  -12.2735    1.0000 </r>
       <r>   -1.3701    1.0000 </r>
       <r>   -1.3044    1.0000 </r>
       <r>   -0.9683    1.0000 </r>
       <r>   -0.5697    1.0000 </r>
       <r>   -0.1717    1.0000 </r>
       <r>    0.0259    1.0000 </r>
       <r>    0.5354    1.0000 </r>
       <r>    0.5790    1.0000 </r>
       <r>    0.8856    1.0000 </r>
       <r>    0.9203    1.0000 </r>
       <r>    1.3063    1.0000 </r>
       <r>    1.4698    1.0000 </r>
       <r>    1.4916    1.0000 </r>
       <r>    1.7651    1.0000 </r>
       <r>    1.7792    1.0000 </r>
       <r>    2.0503    1.0000 </r>
       <r>    2.3012    1.0000 </r>
       <r>    2.5810    1.0000 </r>
       <r>    2.6269    1.0000 </r>
       <r>    2.7246    1.0000 </r>
       <r>    2.8295    1.0000 </r>
       <r>    5.4412    1.0000 </r>
       <r>    7.8698    1.0000 </r>
       <r>    8.7698    0.0030 </r>
       <r>    9.1918    0.0000 </r>
       <r>   10.7331    0.0000 </r>
       <r>   11.6669    0.0000 </r>
       <r>   12.3205    0.0000 </r>
       <r>   12.5062    0.0000 </r>
       <r>   12.5749    0.0000 </r>
       <r>   13.1074    0.0000 </r>
       <r>   13.2034    0.0000 </r>
       <r>   14.0289    0.0000 </r>
       <r>   14.0709    0.0000 </r>
       <r>   14.1313    0.0000 </r>
       <r>   14.3673    0.0000 </r>
       <r>   14.5465    0.0000 </r>
       <r>   14.6008    0.0000 </r>
       <r>   15.0703    0.0000 </r>
       <r>   15.3226    0.0000 </r>
       <r>   15.8813    0.0000 </r>
      </set>
      <set comment="kpoint 11">
       <r>  -14.8283    1.0000 </r>
       <r>  -13.0297    1.0000 </r>
       <r>  -12.8180    1.0000 </r>
       <r>  -12.5398    1.0000 </r>
       <r>  -12.5235    1.0000 </r>
       <r>  -12.4127    1.0000 </r>
       <r>  -12.2730    1.0000 </r>
       <r>   -1.3708    1.0000 </r>
       <r>   -1.3036    1.0000 </r>
       <r>   -0.9681    1.0000 </r>
       <r>   -0.5695    1.0000 </r>
       <r>   -0.1716    1.0000 </r>
       <r>    0.0261    1.0000 </r>
       <r>    0.5350    1.0000 </r>
       <r>    0.5794    1.0000 </r>
       <r>    0.8855    1.0000 </r>
       <r>    0.9201    1.0000 </r>
       <r>    1.3057    1.0000 </r>
       <r>    1.4646    1.0000 </r>
       <r>    1.4964    1.0000 </r>
       <r>    1.7638    1.0000 </r>
       <r>    1.7800    1.0000 </r>
       <r>    2.0499    1.0000 </r>
       <r>    2.3007    1.0000 </r>
       <r>    2.5815    1.0000 </r>
       <r>    2.6271    1.0000 </r>
       <r>    2.7249    1.0000 </r>
       <r>    2.8305    1.0000 </r>
       <r>    5.4416    1.0000 </r>
       <r>    7.8690    1.0000 </r>
       <r>    8.7685    0.0033 </r>
       <r>    9.1942    0.0000 </r>
       <r>   10.7327    0.0000 </r>
       <r>   11.6664    0.0000 </r>
       <r>   12.3208    0.0000 </r>
       <r>   12.5027    0.0000 </r>
       <r>   12.5779    0.0000 </r>
       <r>   13.1063    0.0000 </r>
       <r>   13.2036    0.0000 </r>
       <r>   14.0241    0.0000 </r>
       <r>   14.0830    0.0000 </r>
       <r>   14.1254    0.0000 </r>
       <r>   14.3672    0.0000 </r>
       <r>   14.5470    0.0000 </r>
       <r>   14.6014    0.0000 </r>
       <r>   15.0686    0.0000 </r>
       <r>   15.3228    0.0000 </r>
       <r>   15.8807    0.0000 </r>
      </set>
      <set comment="kpoint 12">
       <r>  -14.8283    1.0000 </r>
       <r>  -13.0297    1.0000 </r>
       <r>  -12.8180    1.0000 </r>
       <r>  -12.5381    1.0000 </r>
       <r>  -12.5251    1.0000 </r>
       <r>  -12.4127    1.0000 </r>
       <r>  -12.2730    1.0000 </r>
       <r>   -1.3705    1.0000 </r>
       <r>   -1.3037    1.0000 </r>
       <r>   -0.9683    1.0000 </r>
       <r>   -0.5697    1.0000 </r>
       <r>   -0.1718    1.0000 </r>
       <r>    0.0275    1.0000 </r>
       <r>    0.5348    1.0000 </r>
       <r>    0.5777    1.0000 </r>
       <r>    0.8845    1.0000 </r>
       <r>    0.9199    1.0000 </r>
       <r>    1.3038    1.0000 </r>
       <r>    1.4697    1.0000 </r>
       <r>    1.4969    1.0000 </r>
       <r>    1.7641    1.0000 </r>
       <r>    1.7792    1.0000 </r>
       <r>    2.0487    1.0000 </r>
       <r>    2.3010    1.0000 </r>
       <r>    2.5825    1.0000 </r>
       <r>    2.6263    1.0000 </r>
       <r>    2.7271    1.0000 </r>
       <r>    2.8279    1.0000 </r>
       <r>    5.4412    1.0000 </r>
       <r>    7.8713    1.0000 </r>
       <r>    8.7674    0.0036 </r>
       <r>    9.1925    0.0000 </r>
       <r>   10.7329    0.0000 </r>
       <r>   11.6669    0.0000 </r>
       <r>   12.3187    0.0000 </r>
       <r>   12.5091    0.0000 </r>
       <r>   12.5750    0.0000 </r>
       <r>   13.1089    0.0000 </r>
       <r>   13.2031    0.0000 </r>
       <r>   14.0253    0.0000 </r>
       <r>   14.0778    0.0000 </r>
       <r>   14.1249    0.0000 </r>
       <r>   14.3692    0.0000 </r>
       <r>   14.5395    0.0000 </r>
       <r>   14.6014    0.0000 </r>
       <r>   15.0753    0.0000 </r>
       <r>   15.3258    0.0000 </r>
       <r>   15.8785    0.0000 </r>
      </set>
      <set comment="kpoint 13">
       <r>  -14.8283    1.0000 </r>
       <r>  -13.0301    1.0000 </r>
       <r>  -12.8177    1.0000 </r>
       <r>  -12.5368    1.0000 </r>
       <r>  -12.5260    1.0000 </r>
       <r>  -12.4124    1.0000 </r>
       <r>  -12.2736    1.0000 </r>
       <r>   -1.3704    1.0000 </r>
       <r>   -1.3037    1.0000 </r>
       <r>   -0.9685    1.0000 </r>
       <r>   -0.5700    1.0000 </r>
       <r>   -0.1720    1.0000 </r>
       <r>    0.0244    1.0000 </r>
       <r>    0.5364    1.0000 </r>
       <r>    0.5808    1.0000 </r>
       <r>    0.8862    1.0000 </r>
       <r>    0.9205    1.0000 </r>
       <r>    1.3080    1.0000 </r>
       <r>    1.4679    1.0000 </r>
       <r>    1.4888    1.0000 </r>
       <r>    1.7646    1.0000 </r>
       <r>    1.7794    1.0000 </r>
       <r>    2.0519    1.0000 </r>
       <r>    2.3006    1.0000 </r>
       <r>    2.5808    1.0000 </r>
       <r>    2.6269    1.0000 </r>
       <r>    2.7224    1.0000 </r>
       <r>    2.8325    1.0000 </r>
       <r>    5.4412    1.0000 </r>
       <r>    7.8690    1.0000 </r>
       <r>    8.7695    0.0030 </r>
       <r>    9.1929    0.0000 </r>
       <r>   10.7335    0.0000 </r>
       <r>   11.6660    0.0000 </r>
       <r>   12.3226    0.0000 </r>
       <r>   12.5043    0.0000 </r>
       <r>   12.5757    0.0000 </r>
       <r>   13.1061    0.0000 </r>
       <r>   13.2026    0.0000 </r>
       <r>   14.0321    0.0000 </r>
       <r>   14.0758    0.0000 </r>
       <r>   14.1286    0.0000 </r>
       <r>   14.3649    0.0000 </r>
       <r>   14.5470    0.0000 </r>
       <r>   14.6001    0.0000 </r>
       <r>   15.0640    0.0000 </r>
       <r>   15.3230    0.0000 </r>
       <r>   15.8843    0.0000 </r>
      </set>
      <set comment="kpoint 14">
       <r>  -14.8283    1.0000 </r>
       <r>  -13.0297    1.0000 </r>
       <r>  -12.8180    1.0000 </r>
       <r>  -12.5384    1.0000 </r>
       <r>  -12.5248    1.0000 </r>
       <r>  -12.4128    1.0000 </r>
       <r>  -12.2730    1.0000 </r>
       <r>   -1.3703    1.0000 </r>
       <r>   -1.3039    1.0000 </r>
       <r>   -0.9683    1.0000 </r>
       <r>   -0.5697    1.0000 </r>
       <r>   -0.1718    1.0000 </r>
       <r>    0.0263    1.0000 </r>
       <r>    0.5352    1.0000 </r>
       <r>    0.5795    1.0000 </r>
       <r>    0.8853    1.0000 </r>
       <r>    0.9201    1.0000 </r>
       <r>    1.3058    1.0000 </r>
       <r>    1.4666    1.0000 </r>
       <r>    1.4943    1.0000 </r>
       <r>    1.7637    1.0000 </r>
       <r>    1.7797    1.0000 </r>
       <r>    2.0502    1.0000 </r>
       <r>    2.3007    1.0000 </r>
       <r>    2.5822    1.0000 </r>
       <r>    2.6266    1.0000 </r>
       <r>    2.7252    1.0000 </r>
       <r>    2.8305    1.0000 </r>
       <r>    5.4413    1.0000 </r>
       <r>    7.8696    1.0000 </r>
       <r>    8.7686    0.0033 </r>
       <r>    9.1933    0.0000 </r>
       <r>   10.7328    0.0000 </r>
       <r>   11.6666    0.0000 </r>
       <r>   12.3208    0.0000 </r>
       <r>   12.5051    0.0000 </r>
       <r>   12.5763    0.0000 </r>
       <r>   13.1075    0.0000 </r>
       <r>   13.2025    0.0000 </r>
       <r>   14.0277    0.0000 </r>
       <r>   14.0790    0.0000 </r>
[...]
        <r>  0.0055  0.0133  0.0256  0.0126  0.0000  0.0000  0.0000  0.0000  0.0000 </r>
        <r>  0.0007  0.0005  0.0067  0.0156  0.0000  0.0000  0.0000  0.0000  0.0000 </r>
        <r>  0.0002  0.0175  0.0096  0.0001  0.0000  0.0000  0.0000  0.0000  0.0000 </r>
        <r>  0.0152  0.0038  0.0028  0.0013  0.0000  0.0000  0.0000  0.0000  0.0000 </r>
        <r>  0.0123  0.0013  0.0036  0.0037  0.0000  0.0000  0.0000  0.0000  0.0000 </r>
        <r>  0.0101  0.0003  0.0046  0.0000  0.0000  0.0000  0.0000  0.0000  0.0000 </r>
        <r>  0.0032  0.0105  0.0228  0.0077  0.0000  0.0000  0.0000  0.0000  0.0000 </r>
       </set>
       <set comment="band 37">
        <r>  0.0000  0.0046  0.0001  0.0047  0.0000  0.0008  0.0000  0.0008  0.0010 </r>
        <r>  0.0001  0.0063  0.0000  0.0058  0.0000  0.0022  0.0000  0.0026  0.0003 </r>
        <r>  0.0001  0.0083  0.0000  0.0089  0.0000  0.0049  0.0000  0.0057  0.0004 </r>
        <r>  0.0041  0.0030  0.0064  0.0013  0.0003  0.0023  0.0012  0.0022  0.0004 </r>
        <r>  0.0043  0.0006  0.0066  0.0027  0.0002  0.0019  0.0016  0.0028  0.0004 </r>
        <r>  0.0053  0.0009  0.0072  0.0026  0.0004  0.0020  0.0015  0.0029  0.0005 </r>
        <r>  0.0036  0.0027  0.0063  0.0010  0.0001  0.0022  0.0015  0.0023  0.0004 </r>
        <r>  0.0001  0.0084  0.0000  0.0103  0.0000  0.0053  0.0000  0.0059  0.0005 </r>
        <r>  0.0001  0.0063  0.0000  0.0054  0.0000  0.0024  0.0000  0.0025  0.0003 </r>
        <r>  0.0000  0.0006  0.0002  0.0013  0.0000  0.0000  0.0000  0.0000  0.0000 </r>
        <r>  0.0078  0.0067  0.0253  0.0068  0.0000  0.0000  0.0000  0.0000  0.0000 </r>
        <r>  0.0084  0.0044  0.0222  0.0072  0.0000  0.0000  0.0000  0.0000  0.0000 </r>
        <r>  0.0117  0.0000  0.0025  0.0000  0.0000  0.0000  0.0000  0.0000  0.0000 </r>
        <r>  0.0145  0.0001  0.0017  0.0001  0.0000  0.0000  0.0000  0.0000  0.0000 </r>
        <r>  0.0001  0.0234  0.0000  0.0236  0.0000  0.0000  0.0000  0.0000  0.0000 </r>
        <r>  0.0000  0.0204  0.0001  0.0234  0.0000  0.0000  0.0000  0.0000  0.0000 </r>
       </set>
       <set comment="band 38">
        <r>  0.0000  0.0011  0.0000  0.0011  0.0000  0.0107  0.0000  0.0105  0.0255 </r>
        <r>  0.0000  0.0029  0.0000  0.0027  0.0000  0.0006  0.0000  0.0006  0.0005 </r>
        <r>  0.0000  0.0042  0.0000  0.0044  0.0000  0.0007  0.0000  0.0007  0.0007 </r>
        <r>  0.0319  0.0035  0.0073  0.0002  0.0000  0.0038  0.0004  0.0024  0.0003 </r>
        <r>  0.0323  0.0003  0.0074  0.0038  0.0000  0.0024  0.0004  0.0037  0.0004 </r>
        <r>  0.0308  0.0002  0.0071  0.0040  0.0001  0.0025  0.0004  0.0037  0.0004 </r>
        <r>  0.0314  0.0040  0.0073  0.0003  0.0000  0.0037  0.0004  0.0024  0.0004 </r>
        <r>  0.0000  0.0042  0.0000  0.0039  0.0000  0.0007  0.0000  0.0008  0.0007 </r>
        <r>  0.0000  0.0026  0.0000  0.0028  0.0000  0.0007  0.0000  0.0006  0.0005 </r>
        <r>  0.0000  0.0001  0.0000  0.0001  0.0000  0.0000  0.0000  0.0000  0.0000 </r>
        <r>  0.0138  0.0096  0.0089  0.0162  0.0000  0.0000  0.0000  0.0000  0.0000 </r>
        <r>  0.0138  0.0158  0.0093  0.0090  0.0000  0.0000  0.0000  0.0000  0.0000 </r>
        <r>  0.0028  0.0148  0.0036  0.0142  0.0000  0.0000  0.0000  0.0000  0.0000 </r>
        <r>  0.0028  0.0131  0.0038  0.0142  0.0000  0.0000  0.0000  0.0000  0.0000 </r>
        <r>  0.0000  0.0031  0.0000  0.0035  0.0000  0.0000  0.0000  0.0000  0.0000 </r>
        <r>  0.0000  0.0021  0.0000  0.0020  0.0000  0.0000  0.0000  0.0000  0.0000 </r>
       </set>
       <set comment="band 39">
        <r>  0.0002  0.0001  0.0014  0.0000  0.0358  0.0010  0.0000  0.0011  0.0000 </r>
        <r>  0.0094  0.0004  0.0003  0.0005  0.0064  0.0006  0.0002  0.0006  0.0000 </r>
        <r>  0.0022  0.0008  0.0013  0.0008  0.0063  0.0002  0.0006  0.0002  0.0000 </r>
        <r>  0.0027  0.0013  0.0006  0.0012  0.0189  0.0008  0.0001  0.0000  0.0000 </r>
        <r>  0.0028  0.0012  0.0004  0.0012  0.0191  0.0000  0.0001  0.0009  0.0000 </r>
        <r>  0.0028  0.0010  0.0004  0.0013  0.0193  0.0000  0.0001  0.0008  0.0000 </r>
        <r>  0.0024  0.0012  0.0005  0.0010  0.0194  0.0009  0.0001  0.0000  0.0000 </r>
        <r>  0.0023  0.0006  0.0013  0.0008  0.0064  0.0002  0.0007  0.0002  0.0000 </r>
        <r>  0.0091  0.0004  0.0003  0.0003  0.0064  0.0006  0.0002  0.0006  0.0000 </r>
        <r>  0.0008  0.0056  0.0066  0.0056  0.0000  0.0000  0.0000  0.0000  0.0000 </r>
        <r>  0.0003  0.0008  0.0038  0.0009  0.0000  0.0000  0.0000  0.0000  0.0000 </r>
        <r>  0.0004  0.0011  0.0038  0.0007  0.0000  0.0000  0.0000  0.0000  0.0000 </r>
        <r>  0.0031  0.0127  0.0012  0.0046  0.0000  0.0000  0.0000  0.0000  0.0000 </r>
        <r>  0.0030  0.0050  0.0014  0.0131  0.0000  0.0000  0.0000  0.0000  0.0000 </r>
        <r>  0.0005  0.0161  0.0044  0.0154  0.0000  0.0000  0.0000  0.0000  0.0000 </r>
        <r>  0.0075  0.0026  0.0093  0.0027  0.0000  0.0000  0.0000  0.0000  0.0000 </r>
       </set>
       <set comment="band 40">
        <r>  0.0000  0.0003  0.0000  0.0002  0.0000  0.0171  0.0001  0.0176  0.0213 </r>
        <r>  0.0001  0.0003  0.0000  0.0006  0.0000  0.0041  0.0000  0.0033  0.0000 </r>
        <r>  0.0002  0.0003  0.0001  0.0002  0.0000  0.0054  0.0000  0.0058  0.0000 </r>
        <r>  0.0242  0.0020  0.0031  0.0001  0.0003  0.0019  0.0004  0.0011  0.0002 </r>
        <r>  0.0293  0.0001  0.0034  0.0022  0.0003  0.0013  0.0004  0.0019  0.0002 </r>
        <r>  0.0274  0.0002  0.0039  0.0020  0.0002  0.0012  0.0003  0.0021  0.0001 </r>
        <r>  0.0307  0.0018  0.0030  0.0001  0.0004  0.0020  0.0003  0.0012  0.0002 </r>
        <r>  0.0001  0.0001  0.0001  0.0002  0.0000  0.0052  0.0000  0.0055  0.0000 </r>
        <r>  0.0002  0.0007  0.0000  0.0004  0.0000  0.0033  0.0000  0.0038  0.0000 </r>
        <r>  0.0000  0.0001  0.0001  0.0001  0.0000  0.0000  0.0000  0.0000  0.0000 </r>
        <r>  0.0000  0.0013  0.0027  0.0012  0.0000  0.0000  0.0000  0.0000  0.0000 </r>
        <r>  0.0000  0.0014  0.0021  0.0010  0.0000  0.0000  0.0000  0.0000  0.0000 </r>
        <r>  0.0000  0.0073  0.0714  0.0028  0.0000  0.0000  0.0000  0.0000  0.0000 </r>
        <r>  0.0000  0.0031  0.0755  0.0064  0.0000  0.0000  0.0000  0.0000  0.0000 </r>
        <r>  0.0000  0.0188  0.0000  0.0178  0.0000  0.0000  0.0000  0.0000  0.0000 </r>
        <r>  0.0000  0.0136  0.0000  0.0145  0.0000  0.0000  0.0000  0.0000  0.0000 </r>
       </set>
       <set comment="band 41">
        <r>  0.0002  0.0034  0.0000  0.0036  0.0032  0.0155  0.0150  0.0155  0.0001 </r>
        <r>  0.0096  0.0028  0.0011  0.0027  0.0008  0.0016  0.0001  0.0025  0.0000 </r>
        <r>  0.0113  0.0027  0.0066  0.0030  0.0016  0.0030  0.0004  0.0028  0.0000 </r>
        <r>  0.0135  0.0024  0.0021  0.0004  0.0008  0.0021  0.0001  0.0017  0.0003 </r>
        <r>  0.0089  0.0004  0.0019  0.0024  0.0007  0.0013  0.0000  0.0023  0.0003 </r>
        <r>  0.0108  0.0004  0.0018  0.0016  0.0014  0.0020  0.0000  0.0028  0.0004 </r>
        <r>  0.0076  0.0016  0.0021  0.0005  0.0012  0.0028  0.0000  0.0018  0.0003 </r>
        <r>  0.0082  0.0007  0.0100  0.0008  0.0019  0.0046  0.0007  0.0043  0.0000 </r>
        <r>  0.0215  0.0032  0.0015  0.0034  0.0011  0.0015  0.0001  0.0009  0.0000 </r>
        <r>  0.0003  0.0076  0.0086  0.0077  0.0000  0.0000  0.0000  0.0000  0.0000 </r>
        <r>  0.0006  0.0010  0.0174  0.0050  0.0000  0.0000  0.0000  0.0000  0.0000 </r>
        <r>  0.0006  0.0048  0.0192  0.0013  0.0000  0.0000  0.0000  0.0000  0.0000 </r>
        <r>  0.0013  0.0041  0.0147  0.0213  0.0000  0.0000  0.0000  0.0000  0.0000 </r>
        <r>  0.0013  0.0206  0.0136  0.0051  0.0000  0.0000  0.0000  0.0000  0.0000 </r>
        <r>  0.0040  0.0052  0.0033  0.0062  0.0000  0.0000  0.0000  0.0000  0.0000 </r>
        <r>  0.0048  0.0064  0.0015  0.0053  0.0000  0.0000  0.0000  0.0000  0.0000 </r>
       </set>
       <set comment="band 42">
        <r>  0.0024  0.0002  0.0000  0.0001  0.0002  0.0083  0.0181  0.0082  0.0002 </r>
        <r>  0.0278  0.0010  0.0013  0.0011  0.0008  0.0003  0.0001  0.0003  0.0000 </r>
        <r>  0.0297  0.0016  0.0094  0.0019  0.0002  0.0013  0.0009  0.0013  0.0000 </r>
        <r>  0.0040  0.0019  0.0007  0.0004  0.0002  0.0056  0.0000  0.0031  0.0001 </r>
        <r>  0.0015  0.0003  0.0006  0.0028  0.0002  0.0032  0.0001  0.0058  0.0001 </r>
        <r>  0.0059  0.0005  0.0008  0.0030  0.0001  0.0030  0.0001  0.0059  0.0000 </r>
        <r>  0.0034  0.0041  0.0009  0.0004  0.0001  0.0062  0.0001  0.0028  0.0000 </r>
        <r>  0.0338  0.0039  0.0065  0.0030  0.0001  0.0002  0.0006  0.0002  0.0000 </r>
        <r>  0.0150  0.0006  0.0006  0.0003  0.0005  0.0011  0.0001  0.0012  0.0000 </r>
        <r>  0.0027  0.0036  0.0098  0.0036  0.0000  0.0000  0.0000  0.0000  0.0000 </r>
        <r>  0.0004  0.0162  0.0027  0.0132  0.0000  0.0000  0.0000  0.0000  0.0000 </r>
        <r>  0.0004  0.0134  0.0025  0.0160  0.0000  0.0000  0.0000  0.0000  0.0000 </r>
        <r>  0.0003  0.0384  0.0017  0.0147  0.0000  0.0000  0.0000  0.0000  0.0000 </r>
        <r>  0.0002  0.0157  0.0007  0.0371  0.0000  0.0000  0.0000  0.0000  0.0000 </r>
        <r>  0.0033  0.0022  0.0229  0.0023  0.0000  0.0000  0.0000  0.0000  0.0000 </r>
        <r>  0.0050  0.0009  0.0278  0.0009  0.0000  0.0000  0.0000  0.0000  0.0000 </r>
       </set>
       <set comment="band 43">
        <r>  0.0000  0.0009  0.0000  0.0008  0.0000  0.0001  0.0000  0.0000  0.0320 </r>
        <r>  0.0000  0.0039  0.0000  0.0034  0.0000  0.0018  0.0000  0.0017  0.0001 </r>
        <r>  0.0000  0.0066  0.0000  0.0058  0.0000  0.0034  0.0000  0.0031  0.0002 </r>
        <r>  0.0199  0.0115  0.0023  0.0037  0.0005  0.0022  0.0014  0.0013  0.0010 </r>
        <r>  0.0223  0.0039  0.0020  0.0103  0.0005  0.0017  0.0013  0.0017  0.0010 </r>
        <r>  0.0204  0.0035  0.0022  0.0117  0.0005  0.0012  0.0015  0.0021  0.0011 </r>
        <r>  0.0229  0.0113  0.0022  0.0038  0.0005  0.0016  0.0015  0.0015  0.0011 </r>
        <r>  0.0000  0.0052  0.0000  0.0059  0.0000  0.0033  0.0000  0.0035  0.0003 </r>
        <r>  0.0000  0.0026  0.0000  0.0033  0.0000  0.0018  0.0000  0.0017  0.0001 </r>
        <r>  0.0000  0.0001  0.0000  0.0001  0.0000  0.0000  0.0000  0.0000  0.0000 </r>
        <r>  0.0025  0.0044  0.0297  0.0046  0.0000  0.0000  0.0000  0.0000  0.0000 </r>
        <r>  0.0025  0.0044  0.0295  0.0049  0.0000  0.0000  0.0000  0.0000  0.0000 </r>
        <r>  0.0006  0.0181  0.0000  0.0122  0.0000  0.0000  0.0000  0.0000  0.0000 </r>
        <r>  0.0006  0.0119  0.0001  0.0187  0.0000  0.0000  0.0000  0.0000  0.0000 </r>
        <r>  0.0000  0.0175  0.0000  0.0170  0.0000  0.0000  0.0000  0.0000  0.0000 </r>
        <r>  0.0000  0.0203  0.0000  0.0207  0.0000  0.0000  0.0000  0.0000  0.0000 </r>
       </set>
       <set comment="band 44">
        <r>  0.0001  0.0006  0.0011  0.0006  0.0002  0.0011  0.0156  0.0010  0.0000 </r>
        <r>  0.0160  0.0021  0.0036  0.0022  0.0017  0.0003  0.0004  0.0003  0.0000 </r>
        <r>  0.0131  0.0045  0.0047  0.0047  0.0028  0.0046  0.0008  0.0048  0.0000 </r>
        <r>  0.0001  0.0042  0.0057  0.0021  0.0012  0.0022  0.0000  0.0049  0.0004 </r>
        <r>  0.0002  0.0021  0.0061  0.0046  0.0012  0.0049  0.0001  0.0024  0.0005 </r>
        <r>  0.0002  0.0026  0.0058  0.0036  0.0026  0.0011  0.0000  0.0031  0.0004 </r>
        <r>  0.0001  0.0033  0.0059  0.0024  0.0026  0.0031  0.0001  0.0012  0.0004 </r>
        <r>  0.0192  0.0041  0.0048  0.0046  0.0004  0.0056  0.0007  0.0054  0.0000 </r>
        <r>  0.0211  0.0037  0.0044  0.0034  0.0008  0.0010  0.0004  0.0010  0.0000 </r>
        <r>  0.0000  0.0096  0.0025  0.0096  0.0000  0.0000  0.0000  0.0000  0.0000 </r>
        <r>  0.0000  0.0051  0.0126  0.0123  0.0000  0.0000  0.0000  0.0000  0.0000 </r>
        <r>  0.0000  0.0123  0.0123  0.0051  0.0000  0.0000  0.0000  0.0000  0.0000 </r>
        <r>  0.0016  0.0012  0.0211  0.0011  0.0000  0.0000  0.0000  0.0000  0.0000 </r>
        <r>  0.0016  0.0014  0.0205  0.0014  0.0000  0.0000  0.0000  0.0000  0.0000 </r>
        <r>  0.0000  0.0024  0.0446  0.0023  0.0000  0.0000  0.0000  0.0000  0.0000 </r>
        <r>  0.0002  0.0093  0.0003  0.0092  0.0000  0.0000  0.0000  0.0000  0.0000 </r>
       </set>
       <set comment="band 45">
        <r>  0.0000  0.0001  0.0001  0.0000  0.0054  0.0034  0.0016  0.0032  0.0000 </r>
        <r>  0.0086  0.0013  0.0046  0.0014  0.0087  0.0037  0.0000  0.0039  0.0000 </r>
        <r>  0.0033  0.0006  0.0001  0.0005  0.0135  0.0019  0.0000  0.0018  0.0000 </r>
        <r>  0.0008  0.0008  0.0016  0.0007  0.0057  0.0012  0.0000  0.0084  0.0001 </r>
        <r>  0.0007  0.0007  0.0016  0.0009  0.0056  0.0083  0.0000  0.0010  0.0001 </r>
        <r>  0.0005  0.0003  0.0015  0.0010  0.0037  0.0107  0.0000  0.0002  0.0002 </r>
        <r>  0.0006  0.0010  0.0016  0.0003  0.0038  0.0002  0.0000  0.0107  0.0001 </r>
        <r>  0.0023  0.0001  0.0008  0.0001  0.0149  0.0010  0.0002  0.0009  0.0000 </r>
        <r>  0.0023  0.0008  0.0054  0.0008  0.0092  0.0027  0.0001  0.0027  0.0000 </r>
        <r>  0.0003  0.0005  0.0221  0.0005  0.0000  0.0000  0.0000  0.0000  0.0000 </r>
        <r>  0.0001  0.0007  0.0037  0.0010  0.0000  0.0000  0.0000  0.0000  0.0000 </r>
        <r>  0.0001  0.0012  0.0038  0.0007  0.0000  0.0000  0.0000  0.0000  0.0000 </r>
        <r>  0.0001  0.0029  0.0094  0.0203  0.0000  0.0000  0.0000  0.0000  0.0000 </r>
        <r>  0.0001  0.0202  0.0090  0.0026  0.0000  0.0000  0.0000  0.0000  0.0000 </r>
        <r>  0.0003  0.0021  0.0310  0.0022  0.0000  0.0000  0.0000  0.0000  0.0000 </r>
        <r>  0.0001  0.0047  0.0015  0.0046  0.0000  0.0000  0.0000  0.0000  0.0000 </r>
       </set>
       <set comment="band 46">
        <r>  0.0002  0.0008  0.0009  0.0008  0.0009  0.0004  0.0445  0.0004  0.0000 </r>
        <r>  0.0327  0.0030  0.0079  0.0032  0.0020  0.0011  0.0003  0.0012  0.0000 </r>
        <r>  0.0368  0.0006  0.0187  0.0007  0.0024  0.0002  0.0048  0.0002  0.0000 </r>
        <r>  0.0052  0.0057  0.0042  0.0003  0.0001  0.0037  0.0002  0.0011  0.0008 </r>
        <r>  0.0051  0.0004  0.0037  0.0060  0.0001  0.0010  0.0002  0.0035  0.0008 </r>
        <r>  0.0061  0.0006  0.0029  0.0064  0.0000  0.0015  0.0001  0.0031  0.0008 </r>
        <r>  0.0059  0.0067  0.0026  0.0005  0.0000  0.0030  0.0002  0.0016  0.0009 </r>
        <r>  0.0354  0.0013  0.0193  0.0009  0.0030  0.0001  0.0053  0.0001  0.0000 </r>
        <r>  0.0355  0.0027  0.0051  0.0027  0.0022  0.0011  0.0002  0.0011  0.0000 </r>
        <r>  0.0016  0.0016  0.0005  0.0017  0.0000  0.0000  0.0000  0.0000  0.0000 </r>
        <r>  0.0000  0.0039  0.0000  0.0018  0.0000  0.0000  0.0000  0.0000  0.0000 </r>
        <r>  0.0000  0.0018  0.0002  0.0039  0.0000  0.0000  0.0000  0.0000  0.0000 </r>
        <r>  0.0005  0.0030  0.0075  0.0006  0.0000  0.0000  0.0000  0.0000  0.0000 </r>
        <r>  0.0004  0.0007  0.0073  0.0029  0.0000  0.0000  0.0000  0.0000  0.0000 </r>
        <r>  0.0009  0.0063  0.0068  0.0063  0.0000  0.0000  0.0000  0.0000  0.0000 </r>
        <r>  0.0000  0.0005  0.0399  0.0005  0.0000  0.0000  0.0000  0.0000  0.0000 </r>
       </set>
       <set comment="band 47">
        <r>  0.0000  0.0000  0.0000  0.0000  0.0046  0.0007  0.0017  0.0007  0.0000 </r>
        <r>  0.0237  0.0007  0.0091  0.0006  0.0113  0.0014  0.0001  0.0014  0.0000 </r>
        <r>  0.0067  0.0017  0.0011  0.0017  0.0096  0.0000  0.0004  0.0000  0.0000 </r>
        <r>  0.0007  0.0003  0.0006  0.0007  0.0027  0.0008  0.0000  0.0052  0.0000 </r>
        <r>  0.0006  0.0006  0.0005  0.0003  0.0027  0.0051  0.0000  0.0010  0.0000 </r>
        <r>  0.0005  0.0011  0.0002  0.0003  0.0027  0.0062  0.0000  0.0007  0.0000 </r>
        <r>  0.0006  0.0002  0.0003  0.0011  0.0027  0.0007  0.0000  0.0061  0.0000 </r>
        <r>  0.0046  0.0021  0.0016  0.0018  0.0101  0.0000  0.0006  0.0000  0.0000 </r>
        <r>  0.0229  0.0004  0.0099  0.0005  0.0115  0.0020  0.0001  0.0019  0.0000 </r>
        <r>  0.0000  0.0032  0.0736  0.0033  0.0000  0.0000  0.0000  0.0000  0.0000 </r>
        <r>  0.0000  0.0221  0.0002  0.0013  0.0000  0.0000  0.0000  0.0000  0.0000 </r>
        <r>  0.0000  0.0013  0.0002  0.0225  0.0000  0.0000  0.0000  0.0000  0.0000 </r>
        <r>  0.0000  0.0016  0.0008  0.0003  0.0000  0.0000  0.0000  0.0000  0.0000 </r>
        <r>  0.0000  0.0003  0.0008  0.0017  0.0000  0.0000  0.0000  0.0000  0.0000 </r>
        <r>  0.0004  0.0009  0.0141  0.0008  0.0000  0.0000  0.0000  0.0000  0.0000 </r>
        <r>  0.0000  0.0000  0.0077  0.0001  0.0000  0.0000  0.0000  0.0000  0.0000 </r>
       </set>
       <set comment="band 48">
        <r>  0.0001  0.0015  0.0004  0.0015  0.0043  0.0037  0.0059  0.0038  0.0000 </r>
        <r>  0.0740  0.0090  0.0060  0.0083  0.0002  0.0005  0.0009  0.0006  0.0000 </r>
        <r>  0.0091  0.0008  0.0020  0.0008  0.0009  0.0023  0.0006  0.0022  0.0000 </r>
        <r>  0.0135  0.0014  0.0030  0.0075  0.0012  0.0001  0.0002  0.0003  0.0004 </r>
        <r>  0.0134  0.0079  0.0031  0.0011  0.0012  0.0003  0.0001  0.0001  0.0003 </r>
        <r>  0.0135  0.0070  0.0043  0.0012  0.0012  0.0003  0.0001  0.0002  0.0003 </r>
        <r>  0.0123  0.0014  0.0041  0.0071  0.0013  0.0001  0.0001  0.0003  0.0004 </r>
        <r>  0.0070  0.0008  0.0024  0.0009  0.0005  0.0023  0.0006  0.0024  0.0000 </r>
        <r>  0.0719  0.0088  0.0067  0.0088  0.0000  0.0009  0.0009  0.0008  0.0000 </r>
        <r>  0.0001  0.0036  0.0036  0.0038  0.0000  0.0000  0.0000  0.0000  0.0000 </r>
        <r>  0.0012  0.0220  0.0067  0.0008  0.0000  0.0000  0.0000  0.0000  0.0000 </r>
        <r>  0.0012  0.0007  0.0066  0.0227  0.0000  0.0000  0.0000  0.0000  0.0000 </r>
        <r>  0.0009  0.0014  0.0007  0.0026  0.0000  0.0000  0.0000  0.0000  0.0000 </r>
        <r>  0.0009  0.0025  0.0007  0.0013  0.0000  0.0000  0.0000  0.0000  0.0000 </r>
        <r>  0.0008  0.0052  0.0024  0.0052  0.0000  0.0000  0.0000  0.0000  0.0000 </r>
        <r>  0.0001  0.0119  0.0005  0.0118  0.0000  0.0000  0.0000  0.0000  0.0000 </r>
       </set>
      </set>
     </set>
    </set>
   </array>
  </projected>
 </calculation>
 <structure name="finalpos" >
  <crystal>
   <varray name="basis" >
    <v>       0.00000000       4.24689300       4.24689300 </v>
    <v>       4.24689300       0.00000000       4.24689300 </v>
    <v>       4.24689300       4.24689300       0.00000000 </v>
   </varray>
   <i name="volume">    153.19477498 </i>
   <varray name="rec_basis" >
    <v>      -0.11773313       0.11773313       0.11773313 </v>
    <v>       0.11773313      -0.11773313       0.11773313 </v>
    <v>       0.11773313       0.11773313      -0.11773313 </v>
   </varray>
  </crystal>
  <varray name="positions" >
   <v>       0.25274616       0.25461943       0.24821262 </v>
   <v>       0.99766785       0.00265878       0.00033117 </v>
   <v>       0.98186474       0.98677939       0.51696459 </v>
   <v>       0.97913237       0.51977757       0.98417944 </v>
   <v>       0.98133943       0.52020808       0.51881558 </v>
   <v>       0.51560042       0.98384567       0.98211463 </v>
   <v>       0.51801849       0.98318832       0.51849683 </v>
   <v>       0.51795999       0.52320493       0.97843908 </v>
   <v>       0.49771412       0.50270959       0.50029103 </v>
   <v>       0.24850726       0.25216844       0.75053324 </v>
   <v>       0.24891650       0.75227140       0.24911248 </v>
   <v>       0.24824610       0.75295738       0.75024847 </v>
   <v>       0.74612206       0.25359607       0.24956201 </v>
   <v>       0.74717066       0.25396561       0.75088233 </v>
   <v>       0.74787041       0.75281065       0.25101915 </v>
   <v>       0.75023443       0.75336169       0.74943137 </v>
  </varray>
 </structure>
</modeling>
