<?xml version="1.0" encoding="ISO-8859-1"?>
<modeling>
 <generator>
  <i name="program" type="string">vasp </i>
  <i name="version" type="string">5.4.1  </i>
  <i name="subversion" type="string">05Feb16 (build Mar 31 2016 13:39:20) complex                          parallel </i>
  <i name="platform" type="string">IFC91_ompi </i>
  <i name="date" type="string">2018 04 28 </i>
  <i name="time" type="string">12:47:01 </i>
 </generator>
 <incar>
  <i type="string" name="PREC">n</i>
  <i type="string" name="ALGO"> N</i>
  <i type="int" name="ISPIN">     2</i>
  <i type="int" name="NELM">   100</i>
  <i type="int" name="NELMIN">     4</i>
  <i type="int" name="IBRION">     2</i>
  <i name="EDIFF">      0.00000100</i>
  <i name="EDIFFG">     -0.05000000</i>
  <i type="int" name="NSW">    20</i>
  <i type="int" name="ISIF">     2</i>
  <i name="ENCUT">    400.00000000</i>
  <i name="NELECT">     60.00000000</i>
  <i type="string" name="LREAL"> A</i>
  <i type="int" name="ISMEAR">     0</i>
  <i name="SIGMA">      0.05000000</i>
  <i type="logical" name="LWAVE"> F  </i>
  <i type="logical" name="LCHARG"> F  </i>
  <i type="logical" name="LORBIT"> F  </i>
  <i type="logical" name="LASPH"> T  </i>
  <v type="int" name="KPOINT_BSE">    -1     0     0     0</v>
  <i type="int" name="NELM">   100</i>
  <i type="logical" name="LASPH"> T  </i>
 </incar>
 <kpoints>
  <generation param="Gamma">
   <v type="int" name="divisions">       2        2        2 </v>
   <v name="usershift">      0.00000000       0.00000000       0.00000000 </v>
   <v name="genvec1">      0.50000000       0.00000000       0.00000000 </v>
   <v name="genvec2">      0.00000000       0.50000000       0.00000000 </v>
   <v name="genvec3">      0.00000000       0.00000000       0.50000000 </v>
   <v name="shift">      0.00000000       0.00000000       0.00000000 </v>
  </generation>
  <varray name="kpointlist" >
   <v>       0.00000000       0.00000000       0.00000000 </v>
   <v>       0.50000000       0.00000000       0.00000000 </v>
   <v>       0.00000000       0.50000000       0.00000000 </v>
   <v>       0.50000000       0.50000000       0.00000000 </v>
   <v>       0.00000000       0.00000000       0.50000000 </v>
   <v>       0.50000000       0.00000000       0.50000000 </v>
   <v>       0.00000000       0.50000000       0.50000000 </v>
   <v>       0.50000000       0.50000000       0.50000000 </v>
  </varray>
  <varray name="weights" >
   <v>       0.12500000 </v>
   <v>       0.12500000 </v>
   <v>       0.12500000 </v>
   <v>       0.12500000 </v>
   <v>       0.12500000 </v>
   <v>       0.12500000 </v>
   <v>       0.12500000 </v>
   <v>       0.12500000 </v>
  </varray>
 </kpoints>
 <parameters>
  <separator name="general" >
   <i type="string" name="SYSTEM">unknown system</i>
   <i type="logical" name="LCOMPAT"> F  </i>
  </separator>
  <separator name="electronic" >
   <i type="string" name="PREC">n</i>
   <i name="ENMAX">    400.00000000</i>
   <i name="ENAUG">    605.39200000</i>
   <i name="EDIFF">      0.00000100</i>
   <i type="int" name="IALGO">    38</i>
   <i type="int" name="IWAVPR">    11</i>
   <i type="int" name="NBANDS">    48</i>
   <i name="NELECT">     60.00000000</i>
   <i type="int" name="TURBO">     0</i>
   <i type="int" name="IRESTART">     0</i>
   <i type="int" name="NREBOOT">     0</i>
   <i type="int" name="NMIN">     0</i>
   <i name="EREF">      0.00000000</i>
   <separator name="electronic smearing" >
    <i type="int" name="ISMEAR">     0</i>
    <i name="SIGMA">      0.05000000</i>
    <i name="KSPACING">      0.50000000</i>
    <i type="logical" name="KGAMMA"> T  </i>
   </separator>
   <separator name="electronic projectors" >
    <i type="logical" name="LREAL"> T  </i>
    <v name="ROPT">     -0.00050000     -0.00050000</v>
    <i type="int" name="LMAXPAW">  -100</i>
    <i type="int" name="LMAXMIX">     2</i>
    <i type="logical" name="NLSPLINE"> F  </i>
   </separator>
   <separator name="electronic startup" >
    <i type="int" name="ISTART">     0</i>
    <i type="int" name="ICHARG">     2</i>
    <i type="int" name="INIWAV">     1</i>
   </separator>
   <separator name="electronic spin" >
    <i type="int" name="ISPIN">     2</i>
    <i type="logical" name="LNONCOLLINEAR"> F  </i>
    <v name="MAGMOM">      1.00000000      1.00000000      1.00000000      1.00000000      1.00000000      1.00000000      1.00000000      1.00000000      1.00000000      1.00000000      1.00000000      1.00000000      1.00000000      1.00000000      1.00000000      1.00000000</v>
    <i name="NUPDOWN">     -1.00000000</i>
    <i type="logical" name="LSORBIT"> F  </i>
    <v name="SAXIS">      0.00000000      0.00000000      1.00000000</v>
    <i type="logical" name="LSPIRAL"> F  </i>
    <v name="QSPIRAL">      0.00000000      0.00000000      0.00000000</v>
    <i type="logical" name="LZEROZ"> F  </i>
   </separator>
   <separator name="electronic exchange-correlation" >
    <i type="logical" name="LASPH"> T  </i>
    <i type="logical" name="LMETAGGA"> F  </i>
   </separator>
   <separator name="electronic convergence" >
    <i type="int" name="NELM">   100</i>
    <i type="int" name="NELMDL">     0</i>
    <i type="int" name="NELMIN">     4</i>
    <i name="ENINI">    400.00000000</i>
    <separator name="electronic convergence detail" >
     <i type="logical" name="LDIAG"> T  </i>
     <i type="logical" name="LSUBROT"> F  </i>
     <i name="WEIMIN">      0.00100000</i>
     <i name="EBREAK">      0.00000001</i>
     <i name="DEPER">      0.30000000</i>
     <i type="int" name="NRMM">     4</i>
     <i name="TIME">      0.40000000</i>
    </separator>
   </separator>
   <separator name="electronic mixer" >
    <i name="AMIX">      0.40000000</i>
    <i name="BMIX">      1.00000000</i>
    <i name="AMIN">      0.10000000</i>
    <i name="AMIX_MAG">      1.60000000</i>
    <i name="BMIX_MAG">      1.00000000</i>
    <separator name="electronic mixer details" >
     <i type="int" name="IMIX">     4</i>
     <i type="logical" name="MIXFIRST"> F  </i>
     <i type="int" name="MAXMIX">   -45</i>
     <i name="WC">    100.00000000</i>
     <i type="int" name="INIMIX">     1</i>
     <i type="int" name="MIXPRE">     1</i>
     <i type="int" name="MREMOVE">     5</i>
    </separator>
   </separator>
   <separator name="electronic dipolcorrection" >
    <i type="logical" name="LDIPOL"> F  </i>
    <i type="logical" name="LMONO"> F  </i>
    <i type="int" name="IDIPOL">     0</i>
    <i name="EPSILON">      1.00000000</i>
    <v name="DIPOL">   -100.00000000   -100.00000000   -100.00000000</v>
    <i name="EFIELD">      0.00000000</i>
   </separator>
  </separator>
  <separator name="grids" >
   <i type="int" name="NGX">    30</i>
   <i type="int" name="NGY">    30</i>
   <i type="int" name="NGZ">    30</i>
   <i type="int" name="NGXF">    60</i>
   <i type="int" name="NGYF">    60</i>
   <i type="int" name="NGZF">    60</i>
   <i type="logical" name="ADDGRID"> F  </i>
  </separator>
  <separator name="ionic" >
   <i type="int" name="NSW">    20</i>
   <i type="int" name="IBRION">     2</i>
   <i type="int" name="ISIF">     2</i>
   <i name="PSTRESS">      0.00000000</i>
   <i name="EDIFFG">     -0.05000000</i>
   <i type="int" name="NFREE">     1</i>
   <i name="POTIM">      0.50000000</i>
   <i name="SMASS">     -3.00000000</i>
   <i name="SCALEE">      1.00000000</i>
  </separator>
  <separator name="ionic md" >
   <i name="TEBEG">      0.00010000</i>
   <i name="TEEND">      0.00010000</i>
   <i type="int" name="NBLOCK">     1</i>
   <i type="int" name="KBLOCK">    20</i>
   <i type="int" name="NPACO">   256</i>
   <i name="APACO">     16.00000000</i>
  </separator>
  <separator name="symmetry" >
   <i type="int" name="ISYM">     2</i>
   <i name="SYMPREC">      0.00001000</i>
  </separator>
  <separator name="dos" >
   <i type="logical" name="LORBIT"> F  </i>
   <v name="RWIGS">     -1.00000000     -1.00000000</v>
   <i type="int" name="NEDOS">   301</i>
   <i name="EMIN">     10.00000000</i>
   <i name="EMAX">    -10.00000000</i>
   <i name="EFERMI">      0.00000000</i>
  </separator>
  <separator name="writing" >
   <i type="int" name="NWRITE">     2</i>
   <i type="logical" name="LWAVE"> F  </i>
   <i type="logical" name="LCHARG"> F  </i>
   <i type="logical" name="LPARD"> F  </i>
   <i type="logical" name="LVTOT"> F  </i>
   <i type="logical" name="LVHAR"> F  </i>
   <i type="logical" name="LELF"> F  </i>
   <i type="logical" name="LOPTICS"> F  </i>
   <v name="STM">      0.00000000      0.00000000      0.00000000      0.00000000      0.00000000      0.00000000      0.00000000</v>
  </separator>
  <separator name="performance" >
   <i type="int" name="NPAR">     4</i>
   <i type="int" name="NSIM">     4</i>
   <i type="int" name="NBLK">    -1</i>
   <i type="logical" name="LPLANE"> T  </i>
   <i type="logical" name="LSCALAPACK"> T  </i>
   <i type="logical" name="LSCAAWARE"> F  </i>
   <i type="logical" name="LSCALU"> F  </i>
   <i type="logical" name="LASYNC"> F  </i>
   <i type="logical" name="LORBITALREAL"> F  </i>
  </separator>
  <separator name="miscellaneous" >
   <i type="int" name="IDIOT">     3</i>
   <i type="logical" name="LMUSIC"> F  </i>
   <v name="POMASS">     24.30500000     16.00000000</v>
   <v name="DARWINR">      0.00000000      0.00000000</v>
   <v name="DARWINV">      1.00000000      1.00000000</v>
   <i type="logical" name="LCORR"> T  </i>
  </separator>
  <i type="logical" name="GGA_COMPAT"> T  </i>
  <i type="logical" name="LBERRY"> F  </i>
  <i type="int" name="ICORELEVEL">     0</i>
  <i type="logical" name="LDAU"> F  </i>
  <i type="int" name="I_CONSTRAINED_M">     0</i>
  <separator name="electronic exchange-correlation" >
   <i type="string" name="GGA">--</i>
   <i type="int" name="VOSKOWN">     0</i>
   <i type="logical" name="LHFCALC"> F  </i>
   <i type="string" name="PRECFOCK"></i>
   <i type="logical" name="LSYMGRAD"> F  </i>
   <i type="logical" name="LHFONE"> F  </i>
   <i type="logical" name="LRHFCALC"> F  </i>
   <i type="logical" name="LTHOMAS"> F  </i>
   <i type="logical" name="LMODELHF"> F  </i>
   <i name="ENCUT4O">     -1.00000000</i>
   <i type="int" name="EXXOEP">     0</i>
   <i type="int" name="FOURORBIT">     0</i>
   <i name="AEXX">      0.00000000</i>
   <i name="HFALPHA">      0.00000000</i>
   <i name="MCALPHA">      0.00000000</i>
   <i name="ALDAX">      1.00000000</i>
   <i name="AGGAX">      1.00000000</i>
   <i name="ALDAC">      1.00000000</i>
   <i name="AGGAC">      1.00000000</i>
   <i type="int" name="NKREDX">     1</i>
   <i type="int" name="NKREDY">     1</i>
   <i type="int" name="NKREDZ">     1</i>
   <i type="logical" name="SHIFTRED"> F  </i>
   <i type="logical" name="ODDONLY"> F  </i>
   <i type="logical" name="EVENONLY"> F  </i>
   <i type="int" name="LMAXFOCK">     0</i>
   <i type="int" name="NMAXFOCKAE">     0</i>
   <i type="logical" name="LFOCKAEDFT"> F  </i>
   <i name="HFSCREEN">      0.00000000</i>
   <i name="HFSCREENC">      0.00000000</i>
   <i type="int" name="NBANDSGWLOW">     0</i>
  </separator>
  <separator name="vdW DFT" >
   <i type="logical" name="LUSE_VDW"> F  </i>
   <i name="Zab_VDW">     -0.84910000</i>
   <i name="PARAM1">      0.12340000</i>
   <i name="PARAM2">      1.00000000</i>
   <i name="PARAM3">      0.00000000</i>
  </separator>
  <separator name="model GW" >
   <i type="int" name="MODEL_GW">     0</i>
   <i name="MODEL_EPS0">      5.74480406</i>
   <i name="MODEL_ALPHA">      1.00000000</i>
  </separator>
  <separator name="linear response parameters" >
   <i type="logical" name="LEPSILON"> F  </i>
   <i type="logical" name="LRPA"> F  </i>
   <i type="logical" name="LNABLA"> F  </i>
   <i type="logical" name="LVEL"> F  </i>
   <i type="int" name="KINTER">     0</i>
   <i name="CSHIFT">      0.10000000</i>
   <i name="OMEGAMAX">     -1.00000000</i>
   <i name="DEG_THRESHOLD">      0.00200000</i>
  </separator>
  <separator name="orbital magnetization" >
   <i type="logical" name="NUCIND"> F  </i>
   <v name="MAGPOS">      0.00000000      0.00000000      0.00000000</v>
   <i type="logical" name="LNICSALL"> T  </i>
   <i type="logical" name="ORBITALMAG"> F  </i>
   <i type="logical" name="LMAGBLOCH"> F  </i>
   <i type="logical" name="LCHIMAG"> F  </i>
   <i type="logical" name="LGAUGE"> T  </i>
   <i type="int" name="MAGATOM">     0</i>
   <v name="MAGDIPOL">      0.00000000      0.00000000      0.00000000</v>
   <v name="AVECCONST">      0.00000000      0.00000000      0.00000000</v>
  </separator>
  <separator name="response functions" >
   <i type="logical" name="LADDER"> F  </i>
   <i type="logical" name="LFXC"> F  </i>
   <i type="logical" name="LHARTREE"> T  </i>
   <i type="int" name="IBSE">     0</i>
   <v type="int" name="KPOINT">    -1     0     0     0</v>
   <i type="logical" name="LTCTE"> F  </i>
   <i type="logical" name="LTETE"> F  </i>
   <i type="logical" name="LTRIPLET"> F  </i>
   <i type="logical" name="LFXCEPS"> F  </i>
   <i type="logical" name="LFXHEG"> F  </i>
   <i type="int" name="NATURALO">     0</i>
   <i type="logical" name="L2ORDER"> F  </i>
   <i type="logical" name="LUSEW"> F  </i>
   <i name="ENCUTGW">     -2.00000000</i>
   <i name="ENCUTGWSOFT">     -2.00000000</i>
   <i name="ENCUTLF">     -1.00000000</i>
   <i type="int" name="LMAXMP2">    -1</i>
   <i name="SCISSOR">      0.00000000</i>
   <i type="int" name="NOMEGA">     0</i>
   <i type="int" name="NOMEGAR">     0</i>
   <i type="int" name="NBANDSGW">    -1</i>
   <i type="int" name="NBANDSO">    -1</i>
   <i type="int" name="NBANDSV">    -1</i>
   <i type="int" name="NELM">   100</i>
   <i type="int" name="NELMHF">     1</i>
   <i type="int" name="DIM">     3</i>
   <i type="int" name="ANTIRES">     0</i>
   <i name="OMEGAMAX">    -30.00000000</i>
   <i name="OMEGAMIN">    -30.00000000</i>
   <i name="OMEGATL">   -200.00000000</i>
   <i type="int" name="OMEGAGRID">     0</i>
   <i name="CSHIFT">     -0.10000000</i>
   <i type="logical" name="SELFENERGY"> F  </i>
   <i type="logical" name="LSPECTRAL"> F  </i>
   <i type="logical" name="LSPECTRALGW"> F  </i>
   <i type="logical" name="LSINGLES"> F  </i>
   <i type="logical" name="LFERMIGW"> F  </i>
   <i type="logical" name="ODDONLYGW"> F  </i>
   <i type="logical" name="EVENONLYGW"> F  </i>
   <i type="int" name="NKREDLFX">     1</i>
   <i type="int" name="NKREDLFY">     1</i>
   <i type="int" name="NKREDLFZ">     1</i>
   <i type="int" name="MAXMEM">  1800</i>
   <i type="int" name="TELESCOPE">     0</i>
   <i type="int" name="TAUPAR">     1</i>
   <i type="int" name="OMEGAPAR">    -1</i>
   <i name="LAMBDA">      1.00000000</i>
  </separator>
  <separator name="External order field" >
   <i name="OFIELD_KAPPA">      0.00000000</i>
   <v name="OFIELD_K">      0.00000000      0.00000000      0.00000000</v>
   <i name="OFIELD_Q6_NEAR">      0.00000000</i>
   <i name="OFIELD_Q6_FAR">      0.00000000</i>
   <i name="OFIELD_A">      0.00000000</i>
  </separator>
 </parameters>
 <atominfo>
  <atoms>      16 </atoms>
  <types>       2 </types>
  <array name="atoms" >
   <dimension dim="1">ion</dimension>
   <field type="string">element</field>
   <field type="int">atomtype</field>
   <set>
    <rc><c>Mg</c><c>   1</c></rc>
    <rc><c>Mg</c><c>   1</c></rc>
    <rc><c>Mg</c><c>   1</c></rc>
    <rc><c>Mg</c><c>   1</c></rc>
    <rc><c>Mg</c><c>   1</c></rc>
    <rc><c>Mg</c><c>   1</c></rc>
    <rc><c>Mg</c><c>   1</c></rc>
    <rc><c>Mg</c><c>   1</c></rc>
    <rc><c>Mg</c><c>   1</c></rc>
    <rc><c>O </c><c>   2</c></rc>
    <rc><c>O </c><c>   2</c></rc>
    <rc><c>O </c><c>   2</c></rc>
    <rc><c>O </c><c>   2</c></rc>
    <rc><c>O </c><c>   2</c></rc>
    <rc><c>O </c><c>   2</c></rc>
    <rc><c>O </c><c>   2</c></rc>
   </set>
  </array>
  <array name="atomtypes" >
   <dimension dim="1">type</dimension>
   <field type="int">atomspertype</field>
   <field type="string">element</field>
   <field>mass</field>
   <field>valence</field>
   <field type="string">pseudopotential</field>
   <set>
    <rc><c>   9</c><c>Mg</c><c>     24.30500000</c><c>      2.00000000</c><c>  PAW_PBE Mg 13Apr2007                  </c></rc>
    <rc><c>   7</c><c>O </c><c>     16.00000000</c><c>      6.00000000</c><c>  PAW_PBE O 08Apr2002                   </c></rc>
   </set>
  </array>
 </atominfo>
 <structure name="initialpos" >
  <crystal>
   <varray name="basis" >
    <v>       0.00000000       4.24689300       4.24689300 </v>
    <v>       4.24689300       0.00000000       4.24689300 </v>
    <v>       4.24689300       4.24689300       0.00000000 </v>
   </varray>
   <i name="volume">    153.19477498 </i>
   <varray name="rec_basis" >
    <v>      -0.11773313       0.11773313       0.11773313 </v>
    <v>       0.11773313      -0.11773313       0.11773313 </v>
    <v>       0.11773313       0.11773313      -0.11773313 </v>
   </varray>
  </crystal>
  <varray name="positions" >
   <v>       0.25259584       0.25458086       0.24815957 </v>
   <v>       0.99782043       0.00263697       0.00020854 </v>
   <v>       0.98120224       0.98569800       0.51765859 </v>
   <v>       0.97895327       0.52063092       0.98285638 </v>
   <v>       0.97991186       0.52127667       0.51930738 </v>
   <v>       0.51634475       0.98341636       0.98142088 </v>
   <v>       0.51853636       0.98271562       0.51937202 </v>
   <v>       0.51883131       0.52344904       0.97860392 </v>
   <v>       0.49775446       0.50273831       0.50032643 </v>
   <v>       0.24827540       0.25245166       0.75032927 </v>
   <v>       0.24860354       0.75233893       0.24935937 </v>
   <v>       0.24844800       0.75275797       0.75052223 </v>
   <v>       0.74657310       0.25348198       0.24973766 </v>
   <v>       0.74721733       0.25368323       0.75076773 </v>
   <v>       0.74784475       0.75288524       0.25066257 </v>
   <v>       0.75019837       0.75338122       0.74934145 </v>
  </varray>
 </structure>
 <calculation>
  <scstep>
   <time name="dav">    0.53    0.53</time>
   <time name="total">    1.23    1.24</time>
   <energy>
    <i name="alphaZ">    142.81396753 </i>
    <i name="ewald">  -2478.62074761 </i>
    <i name="hartreedc">   -951.51444330 </i>
    <i name="XCdc">   -236.46498365 </i>
    <i name="pawpsdc">   3011.45132117 </i>
    <i name="pawaedc">  -2557.24446474 </i>
    <i name="eentropy">     -0.00004138 </i>
    <i name="bandstr">     83.58906771 </i>
    <i name="atom">   3233.17333345 </i>
    <i name="e_fr_energy">    247.18300919 </i>
    <i name="e_wo_entrp">    247.18305057 </i>
    <i name="e_0_energy">    247.18302988 </i>
   </energy>
  </scstep>
  <scstep>
   <time name="dav">    0.60    0.60</time>
   <time name="total">    0.60    0.60</time>
   <energy>
    <i name="e_fr_energy">    -61.52312735 </i>
    <i name="e_wo_entrp">    -61.51670903 </i>
    <i name="e_0_energy">    -61.51991819 </i>
   </energy>
  </scstep>
  <scstep>
   <time name="dav">    0.60    0.60</time>
   <time name="total">    0.60    0.61</time>
   <energy>
    <i name="e_fr_energy">    -79.54606723 </i>
    <i name="e_wo_entrp">    -79.53832729 </i>
    <i name="e_0_energy">    -79.54219726 </i>
   </energy>
  </scstep>
  <scstep>
   <time name="dav">    0.56    0.56</time>
   <time name="total">    0.57    0.57</time>
   <energy>
    <i name="e_fr_energy">    -79.66079334 </i>
    <i name="e_wo_entrp">    -79.65291519 </i>
    <i name="e_0_energy">    -79.65685426 </i>
   </energy>
  </scstep>
  <scstep>
   <time name="dav">    0.57    0.57</time>
   <time name="total">    0.60    0.60</time>
   <energy>
    <i name="e_fr_energy">    -79.66141347 </i>
    <i name="e_wo_entrp">    -79.65353061 </i>
    <i name="e_0_energy">    -79.65747204 </i>
   </energy>
  </scstep>
  <scstep>
   <time name="dav">    0.56    0.56</time>
   <time name="total">    1.29    1.29</time>
   <energy>
    <i name="e_fr_energy">    -74.82467259 </i>
    <i name="e_wo_entrp">    -74.81469793 </i>
    <i name="e_0_energy">    -74.81968526 </i>
   </energy>
  </scstep>
  <scstep>
   <time name="dav">    0.52    0.52</time>
   <time name="total">    1.25    1.25</time>
   <energy>
    <i name="e_fr_energy">    -75.03697088 </i>
    <i name="e_wo_entrp">    -75.03569767 </i>
    <i name="e_0_energy">    -75.03633427 </i>
   </energy>
  </scstep>
  <scstep>
   <time name="dav">    0.57    0.57</time>
   <time name="total">    1.29    1.30</time>
   <energy>
    <i name="e_fr_energy">    -74.95238740 </i>
    <i name="e_wo_entrp">    -74.95221103 </i>
    <i name="e_0_energy">    -74.95229921 </i>
   </energy>
  </scstep>
  <scstep>
   <time name="dav">    0.56    0.56</time>
   <time name="total">    1.28    1.28</time>
   <energy>
    <i name="e_fr_energy">    -74.94929003 </i>
    <i name="e_wo_entrp">    -74.94928463 </i>
    <i name="e_0_energy">    -74.94928733 </i>
   </energy>
  </scstep>
  <scstep>
   <time name="dav">    0.58    0.58</time>
   <time name="total">    1.31    1.31</time>
   <energy>
    <i name="e_fr_energy">    -74.95119751 </i>
    <i name="e_wo_entrp">    -74.95119638 </i>
    <i name="e_0_energy">    -74.95119695 </i>
   </energy>
  </scstep>
  <scstep>
   <time name="dav">    0.57    0.57</time>
   <time name="total">    1.30    1.30</time>
   <energy>
    <i name="e_fr_energy">    -74.95132452 </i>
    <i name="e_wo_entrp">    -74.95132345 </i>
    <i name="e_0_energy">    -74.95132399 </i>
   </energy>
  </scstep>
  <scstep>
   <time name="dav">    0.58    0.57</time>
   <time name="total">    1.30    1.30</time>
   <energy>
    <i name="e_fr_energy">    -74.95143191 </i>
    <i name="e_wo_entrp">    -74.95143099 </i>
    <i name="e_0_energy">    -74.95143145 </i>
   </energy>
  </scstep>
  <scstep>
   <time name="dav">    0.60    0.60</time>
   <time name="total">    1.33    1.33</time>
   <energy>
    <i name="e_fr_energy">    -74.95143570 </i>
    <i name="e_wo_entrp">    -74.95143485 </i>
    <i name="e_0_energy">    -74.95143527 </i>
   </energy>
  </scstep>
  <scstep>
   <time name="dav">    0.58    0.58</time>
   <time name="total">    1.30    1.31</time>
   <energy>
    <i name="e_fr_energy">    -74.95144088 </i>
    <i name="e_wo_entrp">    -74.95144006 </i>
    <i name="e_0_energy">    -74.95144047 </i>
   </energy>
  </scstep>
  <scstep>
   <time name="dav">    0.42    0.42</time>
   <time name="total">    1.13    1.13</time>
   <energy>
    <i name="alphaZ">    142.81396753 </i>
    <i name="ewald">  -2478.62074761 </i>
    <i name="hartreedc">  -1084.06901522 </i>
    <i name="XCdc">   -228.95112720 </i>
    <i name="pawpsdc">   4064.61379390 </i>
    <i name="pawaedc">  -3612.01301025 </i>
    <i name="eentropy">     -0.00000083 </i>
    <i name="bandstr">   -111.89863432 </i>
    <i name="atom">   3233.17333345 </i>
    <i name="e_fr_energy">    -74.95144056 </i>
    <i name="e_wo_entrp">    -74.95143973 </i>
    <i name="e_0_energy">    -74.95144014 </i>
   </energy>
  </scstep>
  <structure>
   <crystal>
    <varray name="basis" >
     <v>       0.00000000       4.24689300       4.24689300 </v>
     <v>       4.24689300       0.00000000       4.24689300 </v>
     <v>       4.24689300       4.24689300       0.00000000 </v>
    </varray>
    <i name="volume">    153.19477498 </i>
    <varray name="rec_basis" >
     <v>      -0.11773313       0.11773313       0.11773313 </v>
     <v>       0.11773313      -0.11773313       0.11773313 </v>
     <v>       0.11773313       0.11773313      -0.11773313 </v>
    </varray>
   </crystal>
   <varray name="positions" >
    <v>       0.25259584       0.25458086       0.24815957 </v>
    <v>       0.99782043       0.00263697       0.00020854 </v>
    <v>       0.98120224       0.98569800       0.51765859 </v>
    <v>       0.97895327       0.52063092       0.98285638 </v>
    <v>       0.97991186       0.52127667       0.51930738 </v>
    <v>       0.51634475       0.98341636       0.98142088 </v>
    <v>       0.51853636       0.98271562       0.51937202 </v>
    <v>       0.51883131       0.52344904       0.97860392 </v>
    <v>       0.49775446       0.50273831       0.50032643 </v>
    <v>       0.24827540       0.25245166       0.75032927 </v>
    <v>       0.24860354       0.75233893       0.24935937 </v>
    <v>       0.24844800       0.75275797       0.75052223 </v>
    <v>       0.74657310       0.25348198       0.24973766 </v>
    <v>       0.74721733       0.25368323       0.75076773 </v>
    <v>       0.74784475       0.75288524       0.25066257 </v>
    <v>       0.75019837       0.75338122       0.74934145 </v>
   </varray>
  </structure>
  <varray name="forces" >
   <v>      -0.00608048      -0.00077455      -0.01086704 </v>
   <v>       0.00215608       0.00374242       0.00466861 </v>
   <v>       0.00030600      -0.01678678      -0.02939612 </v>
   <v>       0.00164423      -0.00427814       0.01432105 </v>
   <v>       0.01495159      -0.01763568      -0.00572306 </v>
   <v>      -0.00636930       0.00352404       0.01350181 </v>
   <v>       0.01951992      -0.00237808      -0.00742372 </v>
   <v>       0.01619467       0.00037130       0.01417242 </v>
   <v>      -0.00172775       0.00345788       0.00443535 </v>
   <v>      -0.00801078      -0.00674628       0.00163561 </v>
   <v>       0.00773560       0.00901199      -0.00419819 </v>
   <v>      -0.01101687       0.00662180      -0.00024662 </v>
   <v>      -0.01059308       0.03034739       0.00683580 </v>
   <v>      -0.01844498       0.00818595      -0.00856509 </v>
   <v>      -0.00640772      -0.00942577       0.00078361 </v>
   <v>       0.00614289      -0.00723748       0.00606559 </v>
  </varray>
  <varray name="stress" >
   <v>     242.99914238       0.22701647       0.26021237 </v>
   <v>       0.22701630     242.86421484       0.16745536 </v>
   <v>       0.26021211       0.16745498     243.23103455 </v>
  </varray>
  <energy>
   <i name="e_fr_energy">    -74.95144056 </i>
   <i name="e_wo_entrp">    -74.95144014 </i>
   <i name="e_0_energy">     -0.00000083 </i>
  </energy>
  <time name="totalsc">   18.36   18.42</time>
  <eigenvalues>
   <array>
    <dimension dim="1">band</dimension>
    <dimension dim="2">kpoint</dimension>
    <dimension dim="3">spin</dimension>
    <field>eigene</field>
    <field>occ</field>
    <set>
     <set comment="spin 1">
      <set comment="kpoint 1">
       <r>  -14.8347    1.0000 </r>
       <r>  -13.2962    1.0000 </r>
       <r>  -12.5460    1.0000 </r>
       <r>  -12.5458    1.0000 </r>
       <r>  -12.5450    1.0000 </r>
       <r>  -12.2913    1.0000 </r>
       <r>  -12.2908    1.0000 </r>
       <r>   -1.8635    1.0000 </r>
       <r>   -1.8631    1.0000 </r>
       <r>   -1.8628    1.0000 </r>
       <r>   -1.0888    1.0000 </r>
       <r>   -0.2493    1.0000 </r>
       <r>   -0.2484    1.0000 </r>
       <r>   -0.2481    1.0000 </r>
       <r>    1.2306    1.0000 </r>
       <r>    1.2313    1.0000 </r>
       <r>    1.2319    1.0000 </r>
       <r>    1.9625    1.0000 </r>
       <r>    1.9629    1.0000 </r>
       <r>    1.9630    1.0000 </r>
       <r>    2.7592    1.0000 </r>
       <r>    2.7600    1.0000 </r>
       <r>    2.7607    1.0000 </r>
       <r>    2.7945    1.0000 </r>
       <r>    2.7948    1.0000 </r>
       <r>    2.9757    1.0000 </r>
       <r>    2.9784    1.0000 </r>
       <r>    2.9786    1.0000 </r>
       <r>    3.0201    1.0000 </r>
       <r>    8.5564    1.0000 </r>
       <r>   10.2964    0.0000 </r>
       <r>   10.2968    0.0000 </r>
       <r>   10.2985    0.0000 </r>
       <r>   10.4993    0.0000 </r>
       <r>   10.4997    0.0000 </r>
       <r>   10.4999    0.0000 </r>
       <r>   11.6950    0.0000 </r>
       <r>   11.6957    0.0000 </r>
       <r>   11.6958    0.0000 </r>
       <r>   11.8940    0.0000 </r>
       <r>   11.8950    0.0000 </r>
       <r>   12.6217    0.0000 </r>
       <r>   15.3597    0.0000 </r>
       <r>   15.3602    0.0000 </r>
       <r>   15.3607    0.0000 </r>
       <r>   15.5926    0.0000 </r>
       <r>   18.0351    0.0000 </r>
       <r>   18.0413    0.0000 </r>
      </set>
      <set comment="kpoint 2">
       <r>  -14.7695    1.0000 </r>
       <r>  -13.0391    1.0000 </r>
       <r>  -12.9533    1.0000 </r>
       <r>  -12.4325    1.0000 </r>
       <r>  -12.4297    1.0000 </r>
       <r>  -12.4264    1.0000 </r>
       <r>  -12.4250    1.0000 </r>
       <r>   -1.4681    1.0000 </r>
       <r>   -1.4678    1.0000 </r>
       <r>   -0.8343    1.0000 </r>
       <r>   -0.5728    1.0000 </r>
       <r>   -0.4761    1.0000 </r>
       <r>    0.3364    1.0000 </r>
       <r>    0.3390    1.0000 </r>
       <r>    0.5167    1.0000 </r>
       <r>    0.7545    1.0000 </r>
       <r>    1.3270    1.0000 </r>
       <r>    1.3279    1.0000 </r>
       <r>    1.4664    1.0000 </r>
       <r>    1.4698    1.0000 </r>
       <r>    1.5758    1.0000 </r>
       <r>    1.5781    1.0000 </r>
       <r>    2.1617    1.0000 </r>
       <r>    2.5217    1.0000 </r>
       <r>    2.7466    1.0000 </r>
       <r>    2.7507    1.0000 </r>
       <r>    2.8651    1.0000 </r>
       <r>    2.8704    1.0000 </r>
       <r>    5.1740    1.0000 </r>
       <r>    7.3443    1.0000 </r>
       <r>    9.5111    0.0000 </r>
       <r>    9.5138    0.0000 </r>
       <r>   10.4184    0.0000 </r>
       <r>   11.0344    0.0000 </r>
       <r>   12.1766    0.0000 </r>
       <r>   12.1842    0.0000 </r>
       <r>   12.2835    0.0000 </r>
       <r>   12.2878    0.0000 </r>
       <r>   13.6720    0.0000 </r>
       <r>   13.8908    0.0000 </r>
       <r>   13.8913    0.0000 </r>
       <r>   13.9635    0.0000 </r>
       <r>   14.7918    0.0000 </r>
       <r>   14.8233    0.0000 </r>
       <r>   14.8241    0.0000 </r>
       <r>   14.9713    0.0000 </r>
       <r>   15.5554    0.0000 </r>
       <r>   15.9669    0.0000 </r>
      </set>
      <set comment="kpoint 3">
       <r>  -14.7695    1.0000 </r>
       <r>  -13.0392    1.0000 </r>
       <r>  -12.9532    1.0000 </r>
       <r>  -12.4334    1.0000 </r>
       <r>  -12.4305    1.0000 </r>
       <r>  -12.4254    1.0000 </r>
       <r>  -12.4243    1.0000 </r>
       <r>   -1.4681    1.0000 </r>
       <r>   -1.4677    1.0000 </r>
       <r>   -0.8342    1.0000 </r>
       <r>   -0.5724    1.0000 </r>
       <r>   -0.4766    1.0000 </r>
       <r>    0.3365    1.0000 </r>
       <r>    0.3380    1.0000 </r>
       <r>    0.5170    1.0000 </r>
       <r>    0.7542    1.0000 </r>
       <r>    1.3271    1.0000 </r>
       <r>    1.3283    1.0000 </r>
       <r>    1.4674    1.0000 </r>
       <r>    1.4678    1.0000 </r>
       <r>    1.5769    1.0000 </r>
       <r>    1.5781    1.0000 </r>
       <r>    2.1622    1.0000 </r>
       <r>    2.5211    1.0000 </r>
       <r>    2.7486    1.0000 </r>
       <r>    2.7487    1.0000 </r>
       <r>    2.8673    1.0000 </r>
       <r>    2.8685    1.0000 </r>
       <r>    5.1743    1.0000 </r>
       <r>    7.3438    1.0000 </r>
       <r>    9.5118    0.0000 </r>
       <r>    9.5138    0.0000 </r>
       <r>   10.4179    0.0000 </r>
       <r>   11.0340    0.0000 </r>
       <r>   12.1795    0.0000 </r>
       <r>   12.1806    0.0000 </r>
       <r>   12.2850    0.0000 </r>
       <r>   12.2858    0.0000 </r>
       <r>   13.6731    0.0000 </r>
       <r>   13.8905    0.0000 </r>
       <r>   13.8908    0.0000 </r>
       <r>   13.9637    0.0000 </r>
       <r>   14.7974    0.0000 </r>
       <r>   14.8241    0.0000 </r>
       <r>   14.8262    0.0000 </r>
       <r>   14.9664    0.0000 </r>
       <r>   15.5552    0.0000 </r>
       <r>   15.9639    0.0000 </r>
      </set>
      <set comment="kpoint 4">
       <r>  -14.7494    1.0000 </r>
       <r>  -13.0540    1.0000 </r>
       <r>  -12.6295    1.0000 </r>
       <r>  -12.6138    1.0000 </r>
       <r>  -12.6123    1.0000 </r>
       <r>  -12.6103    1.0000 </r>
       <r>  -12.2444    1.0000 </r>
       <r>   -1.1533    1.0000 </r>
       <r>   -1.1531    1.0000 </r>
       <r>   -0.8139    1.0000 </r>
       <r>   -0.6642    1.0000 </r>
       <r>   -0.0083    1.0000 </r>
       <r>    0.1644    1.0000 </r>
       <r>    0.4234    1.0000 </r>
       <r>    0.4236    1.0000 </r>
       <r>    1.1535    1.0000 </r>
       <r>    1.1540    1.0000 </r>
       <r>    1.2754    1.0000 </r>
       <r>    1.3387    1.0000 </r>
       <r>    1.3393    1.0000 </r>
       <r>    1.4717    1.0000 </r>
       <r>    1.5249    1.0000 </r>
       <r>    1.8122    1.0000 </r>
       <r>    1.8127    1.0000 </r>
       <r>    2.6575    1.0000 </r>
       <r>    2.6576    1.0000 </r>
       <r>    2.7332    1.0000 </r>
       <r>    2.7918    1.0000 </r>
       <r>    5.7873    1.0000 </r>
       <r>    7.4155    1.0000 </r>
       <r>    8.8704    0.0000 </r>
       <r>    8.8709    0.0000 </r>
       <r>   11.2394    0.0000 </r>
       <r>   11.9409    0.0000 </r>
       <r>   12.0301    0.0000 </r>
       <r>   12.9330    0.0000 </r>
       <r>   12.9331    0.0000 </r>
       <r>   13.2014    0.0000 </r>
       <r>   13.8377    0.0000 </r>
       <r>   13.9820    0.0000 </r>
       <r>   13.9832    0.0000 </r>
       <r>   14.0277    0.0000 </r>
       <r>   14.3642    0.0000 </r>
       <r>   14.3653    0.0000 </r>
       <r>   14.7784    0.0000 </r>
       <r>   14.8538    0.0000 </r>
       <r>   15.0377    0.0000 </r>
       <r>   16.2047    0.0000 </r>
      </set>
      <set comment="kpoint 5">
       <r>  -14.7694    1.0000 </r>
       <r>  -13.0395    1.0000 </r>
       <r>  -12.9530    1.0000 </r>
       <r>  -12.4333    1.0000 </r>
       <r>  -12.4308    1.0000 </r>
       <r>  -12.4254    1.0000 </r>
       <r>  -12.4241    1.0000 </r>
       <r>   -1.4680    1.0000 </r>
       <r>   -1.4675    1.0000 </r>
       <r>   -0.8342    1.0000 </r>
       <r>   -0.5724    1.0000 </r>
       <r>   -0.4769    1.0000 </r>
       <r>    0.3365    1.0000 </r>
       <r>    0.3377    1.0000 </r>
       <r>    0.5171    1.0000 </r>
       <r>    0.7541    1.0000 </r>
       <r>    1.3263    1.0000 </r>
       <r>    1.3286    1.0000 </r>
       <r>    1.4669    1.0000 </r>
       <r>    1.4690    1.0000 </r>
       <r>    1.5767    1.0000 </r>
       <r>    1.5785    1.0000 </r>
       <r>    2.1624    1.0000 </r>
       <r>    2.5208    1.0000 </r>
       <r>    2.7463    1.0000 </r>
       <r>    2.7506    1.0000 </r>
       <r>    2.8654    1.0000 </r>
       <r>    2.8708    1.0000 </r>
       <r>    5.1744    1.0000 </r>
       <r>    7.3440    1.0000 </r>
       <r>    9.5110    0.0000 </r>
       <r>    9.5144    0.0000 </r>
       <r>   10.4181    0.0000 </r>
       <r>   11.0337    0.0000 </r>
       <r>   12.1768    0.0000 </r>
       <r>   12.1833    0.0000 </r>
       <r>   12.2835    0.0000 </r>
       <r>   12.2877    0.0000 </r>
       <r>   13.6732    0.0000 </r>
       <r>   13.8898    0.0000 </r>
       <r>   13.8915    0.0000 </r>
       <r>   13.9635    0.0000 </r>
       <r>   14.7966    0.0000 </r>
       <r>   14.8229    0.0000 </r>
       <r>   14.8278    0.0000 </r>
       <r>   14.9669    0.0000 </r>
       <r>   15.5550    0.0000 </r>
       <r>   15.9640    0.0000 </r>
      </set>
      <set comment="kpoint 6">
       <r>  -14.7494    1.0000 </r>
       <r>  -13.0534    1.0000 </r>
       <r>  -12.6333    1.0000 </r>
       <r>  -12.6126    1.0000 </r>
       <r>  -12.6114    1.0000 </r>
       <r>  -12.6095    1.0000 </r>
       <r>  -12.2440    1.0000 </r>
       <r>   -1.1534    1.0000 </r>
       <r>   -1.1529    1.0000 </r>
       <r>   -0.8125    1.0000 </r>
       <r>   -0.6653    1.0000 </r>
       <r>   -0.0079    1.0000 </r>
       <r>    0.1645    1.0000 </r>
       <r>    0.4239    1.0000 </r>
       <r>    0.4241    1.0000 </r>
       <r>    1.1514    1.0000 </r>
       <r>    1.1526    1.0000 </r>
       <r>    1.2730    1.0000 </r>
       <r>    1.3396    1.0000 </r>
       <r>    1.3405    1.0000 </r>
       <r>    1.4710    1.0000 </r>
       <r>    1.5245    1.0000 </r>
       <r>    1.8122    1.0000 </r>
       <r>    1.8134    1.0000 </r>
       <r>    2.6577    1.0000 </r>
       <r>    2.6584    1.0000 </r>
       <r>    2.7344    1.0000 </r>
       <r>    2.7921    1.0000 </r>
       <r>    5.7882    1.0000 </r>
       <r>    7.4131    1.0000 </r>
       <r>    8.8708    0.0000 </r>
       <r>    8.8726    0.0000 </r>
       <r>   11.2388    0.0000 </r>
       <r>   11.9401    0.0000 </r>
       <r>   12.0298    0.0000 </r>
       <r>   12.9310    0.0000 </r>
       <r>   12.9335    0.0000 </r>
       <r>   13.2030    0.0000 </r>
       <r>   13.8386    0.0000 </r>
       <r>   13.9813    0.0000 </r>
       <r>   13.9822    0.0000 </r>
       <r>   14.0281    0.0000 </r>
       <r>   14.3646    0.0000 </r>
       <r>   14.3658    0.0000 </r>
       <r>   14.7864    0.0000 </r>
       <r>   14.8443    0.0000 </r>
       <r>   15.0382    0.0000 </r>
       <r>   16.2043    0.0000 </r>
      </set>
      <set comment="kpoint 7">
       <r>  -14.7494    1.0000 </r>
       <r>  -13.0535    1.0000 </r>
       <r>  -12.6335    1.0000 </r>
       <r>  -12.6123    1.0000 </r>
       <r>  -12.6117    1.0000 </r>
       <r>  -12.6091    1.0000 </r>
       <r>  -12.2441    1.0000 </r>
       <r>   -1.1535    1.0000 </r>
       <r>   -1.1529    1.0000 </r>
       <r>   -0.8126    1.0000 </r>
       <r>   -0.6651    1.0000 </r>
       <r>   -0.0080    1.0000 </r>
       <r>    0.1646    1.0000 </r>
       <r>    0.4238    1.0000 </r>
       <r>    0.4240    1.0000 </r>
       <r>    1.1513    1.0000 </r>
       <r>    1.1537    1.0000 </r>
       <r>    1.2729    1.0000 </r>
       <r>    1.3394    1.0000 </r>
       <r>    1.3409    1.0000 </r>
       <r>    1.4713    1.0000 </r>
       <r>    1.5243    1.0000 </r>
       <r>    1.8117    1.0000 </r>
       <r>    1.8135    1.0000 </r>
       <r>    2.6578    1.0000 </r>
       <r>    2.6581    1.0000 </r>
       <r>    2.7339    1.0000 </r>
       <r>    2.7920    1.0000 </r>
       <r>    5.7883    1.0000 </r>
       <r>    7.4131    1.0000 </r>
       <r>    8.8710    0.0000 </r>
       <r>    8.8723    0.0000 </r>
       <r>   11.2391    0.0000 </r>
       <r>   11.9401    0.0000 </r>
       <r>   12.0298    0.0000 </r>
       <r>   12.9290    0.0000 </r>
       <r>   12.9331    0.0000 </r>
       <r>   13.2059    0.0000 </r>
       <r>   13.8378    0.0000 </r>
       <r>   13.9821    0.0000 </r>
       <r>   13.9828    0.0000 </r>
       <r>   14.0264    0.0000 </r>
       <r>   14.3641    0.0000 </r>
       <r>   14.3664    0.0000 </r>
       <r>   14.7911    0.0000 </r>
       <r>   14.8410    0.0000 </r>
       <r>   15.0378    0.0000 </r>
       <r>   16.2041    0.0000 </r>
      </set>
      <set comment="kpoint 8">
       <r>  -14.7695    1.0000 </r>
       <r>  -13.0388    1.0000 </r>
       <r>  -12.9536    1.0000 </r>
       <r>  -12.4323    1.0000 </r>
       <r>  -12.4298    1.0000 </r>
       <r>  -12.4266    1.0000 </r>
       <r>  -12.4249    1.0000 </r>
       <r>   -1.4684    1.0000 </r>
       <r>   -1.4678    1.0000 </r>
       <r>   -0.8344    1.0000 </r>
       <r>   -0.5727    1.0000 </r>
       <r>   -0.4759    1.0000 </r>
       <r>    0.3371    1.0000 </r>
       <r>    0.3390    1.0000 </r>
       <r>    0.5166    1.0000 </r>
       <r>    0.7546    1.0000 </r>
       <r>    1.3273    1.0000 </r>
       <r>    1.3281    1.0000 </r>
       <r>    1.4672    1.0000 </r>
       <r>    1.4684    1.0000 </r>
       <r>    1.5746    1.0000 </r>
       <r>    1.5781    1.0000 </r>
       <r>    2.1613    1.0000 </r>
       <r>    2.5224    1.0000 </r>
       <r>    2.7470    1.0000 </r>
       <r>    2.7511    1.0000 </r>
       <r>    2.8654    1.0000 </r>
       <r>    2.8700    1.0000 </r>
       <r>    5.1738    1.0000 </r>
       <r>    7.3440    1.0000 </r>
       <r>    9.5119    0.0000 </r>
       <r>    9.5138    0.0000 </r>
       <r>   10.4177    0.0000 </r>
       <r>   11.0346    0.0000 </r>
       <r>   12.1764    0.0000 </r>
       <r>   12.1842    0.0000 </r>
       <r>   12.2830    0.0000 </r>
       <r>   12.2873    0.0000 </r>
       <r>   13.6720    0.0000 </r>
       <r>   13.8902    0.0000 </r>
       <r>   13.8919    0.0000 </r>
       <r>   13.9639    0.0000 </r>
       <r>   14.7931    0.0000 </r>
       <r>   14.8219    0.0000 </r>
       <r>   14.8253    0.0000 </r>
       <r>   14.9694    0.0000 </r>
       <r>   15.5557    0.0000 </r>
       <r>   15.9665    0.0000 </r>
      </set>
     </set>
     <set comment="spin 2">
      <set comment="kpoint 1">
       <r>  -14.8347    1.0000 </r>
       <r>  -13.2961    1.0000 </r>
       <r>  -12.5459    1.0000 </r>
       <r>  -12.5457    1.0000 </r>
       <r>  -12.5449    1.0000 </r>
       <r>  -12.2912    1.0000 </r>
       <r>  -12.2907    1.0000 </r>
       <r>   -1.8635    1.0000 </r>
       <r>   -1.8631    1.0000 </r>
       <r>   -1.8628    1.0000 </r>
       <r>   -1.0888    1.0000 </r>
       <r>   -0.2492    1.0000 </r>
       <r>   -0.2484    1.0000 </r>
       <r>   -0.2480    1.0000 </r>
       <r>    1.2306    1.0000 </r>
       <r>    1.2313    1.0000 </r>
       <r>    1.2319    1.0000 </r>
       <r>    1.9626    1.0000 </r>
       <r>    1.9629    1.0000 </r>
       <r>    1.9631    1.0000 </r>
       <r>    2.7593    1.0000 </r>
       <r>    2.7600    1.0000 </r>
       <r>    2.7608    1.0000 </r>
       <r>    2.7945    1.0000 </r>
       <r>    2.7948    1.0000 </r>
       <r>    2.9758    1.0000 </r>
       <r>    2.9784    1.0000 </r>
       <r>    2.9787    1.0000 </r>
       <r>    3.0202    1.0000 </r>
       <r>    8.5564    1.0000 </r>
       <r>   10.2965    0.0000 </r>
       <r>   10.2968    0.0000 </r>
       <r>   10.2986    0.0000 </r>
       <r>   10.4993    0.0000 </r>
       <r>   10.4997    0.0000 </r>
       <r>   10.4998    0.0000 </r>
       <r>   11.6950    0.0000 </r>
       <r>   11.6957    0.0000 </r>
       <r>   11.6958    0.0000 </r>
       <r>   11.8940    0.0000 </r>
       <r>   11.8950    0.0000 </r>
       <r>   12.6217    0.0000 </r>
       <r>   15.3597    0.0000 </r>
       <r>   15.3602    0.0000 </r>
       <r>   15.3607    0.0000 </r>
       <r>   15.5926    0.0000 </r>
       <r>   18.0351    0.0000 </r>
       <r>   18.0413    0.0000 </r>
      </set>
      <set comment="kpoint 2">
       <r>  -14.7694    1.0000 </r>
       <r>  -13.0391    1.0000 </r>
       <r>  -12.9533    1.0000 </r>
       <r>  -12.4324    1.0000 </r>
       <r>  -12.4296    1.0000 </r>
       <r>  -12.4264    1.0000 </r>
       <r>  -12.4250    1.0000 </r>
       <r>   -1.4681    1.0000 </r>
       <r>   -1.4678    1.0000 </r>
       <r>   -0.8343    1.0000 </r>
       <r>   -0.5728    1.0000 </r>
       <r>   -0.4761    1.0000 </r>
       <r>    0.3364    1.0000 </r>
       <r>    0.3391    1.0000 </r>
       <r>    0.5167    1.0000 </r>
       <r>    0.7546    1.0000 </r>
       <r>    1.3270    1.0000 </r>
       <r>    1.3280    1.0000 </r>
       <r>    1.4665    1.0000 </r>
       <r>    1.4698    1.0000 </r>
       <r>    1.5758    1.0000 </r>
       <r>    1.5782    1.0000 </r>
       <r>    2.1617    1.0000 </r>
       <r>    2.5218    1.0000 </r>
       <r>    2.7467    1.0000 </r>
       <r>    2.7508    1.0000 </r>
       <r>    2.8651    1.0000 </r>
       <r>    2.8705    1.0000 </r>
       <r>    5.1741    1.0000 </r>
       <r>    7.3444    1.0000 </r>
       <r>    9.5112    0.0000 </r>
       <r>    9.5139    0.0000 </r>
       <r>   10.4184    0.0000 </r>
       <r>   11.0343    0.0000 </r>
       <r>   12.1766    0.0000 </r>
       <r>   12.1842    0.0000 </r>
       <r>   12.2835    0.0000 </r>
       <r>   12.2878    0.0000 </r>
       <r>   13.6720    0.0000 </r>
       <r>   13.8908    0.0000 </r>
       <r>   13.8914    0.0000 </r>
       <r>   13.9635    0.0000 </r>
       <r>   14.7917    0.0000 </r>
       <r>   14.8233    0.0000 </r>
       <r>   14.8241    0.0000 </r>
       <r>   14.9713    0.0000 </r>
       <r>   15.5553    0.0000 </r>
       <r>   15.9669    0.0000 </r>
      </set>
      <set comment="kpoint 3">
       <r>  -14.7694    1.0000 </r>
       <r>  -13.0392    1.0000 </r>
       <r>  -12.9532    1.0000 </r>
       <r>  -12.4333    1.0000 </r>
       <r>  -12.4305    1.0000 </r>
       <r>  -12.4254    1.0000 </r>
       <r>  -12.4242    1.0000 </r>
       <r>   -1.4681    1.0000 </r>
       <r>   -1.4677    1.0000 </r>
       <r>   -0.8341    1.0000 </r>
       <r>   -0.5724    1.0000 </r>
       <r>   -0.4766    1.0000 </r>
       <r>    0.3366    1.0000 </r>
       <r>    0.3381    1.0000 </r>
       <r>    0.5170    1.0000 </r>
       <r>    0.7542    1.0000 </r>
       <r>    1.3271    1.0000 </r>
       <r>    1.3284    1.0000 </r>
       <r>    1.4674    1.0000 </r>
       <r>    1.4678    1.0000 </r>
       <r>    1.5770    1.0000 </r>
       <r>    1.5781    1.0000 </r>
       <r>    2.1622    1.0000 </r>
       <r>    2.5212    1.0000 </r>
       <r>    2.7486    1.0000 </r>
       <r>    2.7488    1.0000 </r>
       <r>    2.8674    1.0000 </r>
       <r>    2.8686    1.0000 </r>
       <r>    5.1744    1.0000 </r>
       <r>    7.3439    1.0000 </r>
       <r>    9.5119    0.0000 </r>
       <r>    9.5139    0.0000 </r>
       <r>   10.4179    0.0000 </r>
       <r>   11.0340    0.0000 </r>
       <r>   12.1795    0.0000 </r>
       <r>   12.1806    0.0000 </r>
       <r>   12.2850    0.0000 </r>
       <r>   12.2858    0.0000 </r>
       <r>   13.6731    0.0000 </r>
       <r>   13.8905    0.0000 </r>
       <r>   13.8909    0.0000 </r>
       <r>   13.9637    0.0000 </r>
       <r>   14.7974    0.0000 </r>
       <r>   14.8242    0.0000 </r>
       <r>   14.8263    0.0000 </r>
       <r>   14.9664    0.0000 </r>
       <r>   15.5551    0.0000 </r>
       <r>   15.9640    0.0000 </r>
      </set>
      <set comment="kpoint 4">
       <r>  -14.7494    1.0000 </r>
       <r>  -13.0540    1.0000 </r>
       <r>  -12.6294    1.0000 </r>
       <r>  -12.6137    1.0000 </r>
       <r>  -12.6122    1.0000 </r>
       <r>  -12.6102    1.0000 </r>
       <r>  -12.2444    1.0000 </r>
       <r>   -1.1533    1.0000 </r>
       <r>   -1.1531    1.0000 </r>
       <r>   -0.8139    1.0000 </r>
       <r>   -0.6642    1.0000 </r>
       <r>   -0.0083    1.0000 </r>
       <r>    0.1645    1.0000 </r>
       <r>    0.4235    1.0000 </r>
       <r>    0.4236    1.0000 </r>
       <r>    1.1535    1.0000 </r>
       <r>    1.1541    1.0000 </r>
       <r>    1.2755    1.0000 </r>
       <r>    1.3388    1.0000 </r>
       <r>    1.3394    1.0000 </r>
       <r>    1.4717    1.0000 </r>
       <r>    1.5249    1.0000 </r>
       <r>    1.8123    1.0000 </r>
       <r>    1.8127    1.0000 </r>
       <r>    2.6576    1.0000 </r>
       <r>    2.6576    1.0000 </r>
       <r>    2.7332    1.0000 </r>
       <r>    2.7918    1.0000 </r>
       <r>    5.7874    1.0000 </r>
       <r>    7.4156    1.0000 </r>
       <r>    8.8705    0.0000 </r>
       <r>    8.8710    0.0000 </r>
       <r>   11.2394    0.0000 </r>
       <r>   11.9409    0.0000 </r>
       <r>   12.0301    0.0000 </r>
       <r>   12.9330    0.0000 </r>
       <r>   12.9331    0.0000 </r>
       <r>   13.2015    0.0000 </r>
       <r>   13.8377    0.0000 </r>
       <r>   13.9820    0.0000 </r>
       <r>   13.9832    0.0000 </r>
       <r>   14.0277    0.0000 </r>
       <r>   14.3642    0.0000 </r>
       <r>   14.3653    0.0000 </r>
       <r>   14.7784    0.0000 </r>
       <r>   14.8538    0.0000 </r>
       <r>   15.0377    0.0000 </r>
       <r>   16.2046    0.0000 </r>
      </set>
      <set comment="kpoint 5">
       <r>  -14.7694    1.0000 </r>
       <r>  -13.0394    1.0000 </r>
       <r>  -12.9529    1.0000 </r>
       <r>  -12.4333    1.0000 </r>
       <r>  -12.4307    1.0000 </r>
       <r>  -12.4254    1.0000 </r>
       <r>  -12.4240    1.0000 </r>
       <r>   -1.4680    1.0000 </r>
       <r>   -1.4675    1.0000 </r>
       <r>   -0.8341    1.0000 </r>
       <r>   -0.5724    1.0000 </r>
       <r>   -0.4769    1.0000 </r>
       <r>    0.3366    1.0000 </r>
       <r>    0.3377    1.0000 </r>
       <r>    0.5171    1.0000 </r>
       <r>    0.7541    1.0000 </r>
       <r>    1.3263    1.0000 </r>
       <r>    1.3287    1.0000 </r>
       <r>    1.4669    1.0000 </r>
       <r>    1.4691    1.0000 </r>
       <r>    1.5768    1.0000 </r>
       <r>    1.5785    1.0000 </r>
       <r>    2.1625    1.0000 </r>
       <r>    2.5209    1.0000 </r>
       <r>    2.7463    1.0000 </r>
       <r>    2.7506    1.0000 </r>
       <r>    2.8655    1.0000 </r>
       <r>    2.8709    1.0000 </r>
       <r>    5.1744    1.0000 </r>
       <r>    7.3440    1.0000 </r>
       <r>    9.5111    0.0000 </r>
       <r>    9.5144    0.0000 </r>
       <r>   10.4181    0.0000 </r>
       <r>   11.0337    0.0000 </r>
       <r>   12.1768    0.0000 </r>
       <r>   12.1833    0.0000 </r>
       <r>   12.2835    0.0000 </r>
       <r>   12.2877    0.0000 </r>
       <r>   13.6731    0.0000 </r>
       <r>   13.8899    0.0000 </r>
       <r>   13.8915    0.0000 </r>
       <r>   13.9635    0.0000 </r>
       <r>   14.7965    0.0000 </r>
       <r>   14.8230    0.0000 </r>
       <r>   14.8278    0.0000 </r>
       <r>   14.9669    0.0000 </r>
       <r>   15.5550    0.0000 </r>
       <r>   15.9640    0.0000 </r>
      </set>
      <set comment="kpoint 6">
       <r>  -14.7494    1.0000 </r>
       <r>  -13.0534    1.0000 </r>
       <r>  -12.6333    1.0000 </r>
       <r>  -12.6126    1.0000 </r>
       <r>  -12.6114    1.0000 </r>
       <r>  -12.6094    1.0000 </r>
       <r>  -12.2439    1.0000 </r>
       <r>   -1.1534    1.0000 </r>
       <r>   -1.1529    1.0000 </r>
       <r>   -0.8124    1.0000 </r>
       <r>   -0.6653    1.0000 </r>
       <r>   -0.0078    1.0000 </r>
       <r>    0.1646    1.0000 </r>
       <r>    0.4239    1.0000 </r>
       <r>    0.4242    1.0000 </r>
       <r>    1.1514    1.0000 </r>
       <r>    1.1526    1.0000 </r>
       <r>    1.2731    1.0000 </r>
       <r>    1.3396    1.0000 </r>
       <r>    1.3406    1.0000 </r>
       <r>    1.4710    1.0000 </r>
       <r>    1.5246    1.0000 </r>
       <r>    1.8122    1.0000 </r>
       <r>    1.8134    1.0000 </r>
       <r>    2.6578    1.0000 </r>
       <r>    2.6585    1.0000 </r>
       <r>    2.7344    1.0000 </r>
       <r>    2.7921    1.0000 </r>
       <r>    5.7883    1.0000 </r>
       <r>    7.4132    1.0000 </r>
       <r>    8.8709    0.0000 </r>
       <r>    8.8727    0.0000 </r>
       <r>   11.2388    0.0000 </r>
       <r>   11.9401    0.0000 </r>
       <r>   12.0298    0.0000 </r>
       <r>   12.9310    0.0000 </r>
       <r>   12.9334    0.0000 </r>
       <r>   13.2030    0.0000 </r>
       <r>   13.8387    0.0000 </r>
       <r>   13.9813    0.0000 </r>
       <r>   13.9822    0.0000 </r>
       <r>   14.0280    0.0000 </r>
       <r>   14.3646    0.0000 </r>
       <r>   14.3659    0.0000 </r>
       <r>   14.7865    0.0000 </r>
       <r>   14.8443    0.0000 </r>
       <r>   15.0381    0.0000 </r>
       <r>   16.2052    0.0000 </r>
      </set>
      <set comment="kpoint 7">
       <r>  -14.7494    1.0000 </r>
       <r>  -13.0535    1.0000 </r>
       <r>  -12.6334    1.0000 </r>
       <r>  -12.6123    1.0000 </r>
       <r>  -12.6116    1.0000 </r>
       <r>  -12.6090    1.0000 </r>
       <r>  -12.2441    1.0000 </r>
       <r>   -1.1535    1.0000 </r>
       <r>   -1.1529    1.0000 </r>
       <r>   -0.8126    1.0000 </r>
       <r>   -0.6651    1.0000 </r>
       <r>   -0.0079    1.0000 </r>
       <r>    0.1647    1.0000 </r>
       <r>    0.4238    1.0000 </r>
       <r>    0.4240    1.0000 </r>
       <r>    1.1513    1.0000 </r>
       <r>    1.1537    1.0000 </r>
       <r>    1.2729    1.0000 </r>
       <r>    1.3394    1.0000 </r>
       <r>    1.3410    1.0000 </r>
       <r>    1.4714    1.0000 </r>
       <r>    1.5244    1.0000 </r>
       <r>    1.8117    1.0000 </r>
       <r>    1.8136    1.0000 </r>
       <r>    2.6579    1.0000 </r>
       <r>    2.6581    1.0000 </r>
       <r>    2.7339    1.0000 </r>
       <r>    2.7921    1.0000 </r>
       <r>    5.7884    1.0000 </r>
       <r>    7.4132    1.0000 </r>
       <r>    8.8710    0.0000 </r>
       <r>    8.8724    0.0000 </r>
       <r>   11.2391    0.0000 </r>
       <r>   11.9401    0.0000 </r>
       <r>   12.0298    0.0000 </r>
       <r>   12.9290    0.0000 </r>
       <r>   12.9331    0.0000 </r>
       <r>   13.2060    0.0000 </r>
       <r>   13.8379    0.0000 </r>
       <r>   13.9821    0.0000 </r>
       <r>   13.9828    0.0000 </r>
       <r>   14.0264    0.0000 </r>
       <r>   14.3642    0.0000 </r>
       <r>   14.3664    0.0000 </r>
       <r>   14.7912    0.0000 </r>
       <r>   14.8409    0.0000 </r>
       <r>   15.0378    0.0000 </r>
       <r>   16.2047    0.0000 </r>
      </set>
      <set comment="kpoint 8">
       <r>  -14.7695    1.0000 </r>
       <r>  -13.0388    1.0000 </r>
       <r>  -12.9535    1.0000 </r>
       <r>  -12.4323    1.0000 </r>
       <r>  -12.4297    1.0000 </r>
       <r>  -12.4265    1.0000 </r>
       <r>  -12.4249    1.0000 </r>
       <r>   -1.4684    1.0000 </r>
       <r>   -1.4678    1.0000 </r>
       <r>   -0.8344    1.0000 </r>
       <r>   -0.5727    1.0000 </r>
       <r>   -0.4759    1.0000 </r>
       <r>    0.3371    1.0000 </r>
       <r>    0.3390    1.0000 </r>
       <r>    0.5166    1.0000 </r>
       <r>    0.7546    1.0000 </r>
       <r>    1.3274    1.0000 </r>
       <r>    1.3281    1.0000 </r>
       <r>    1.4672    1.0000 </r>
       <r>    1.4685    1.0000 </r>
       <r>    1.5746    1.0000 </r>
       <r>    1.5782    1.0000 </r>
       <r>    2.1614    1.0000 </r>
       <r>    2.5225    1.0000 </r>
       <r>    2.7470    1.0000 </r>
       <r>    2.7511    1.0000 </r>
       <r>    2.8654    1.0000 </r>
       <r>    2.8700    1.0000 </r>
       <r>    5.1739    1.0000 </r>
       <r>    7.3440    1.0000 </r>
       <r>    9.5120    0.0000 </r>
       <r>    9.5139    0.0000 </r>
       <r>   10.4177    0.0000 </r>
       <r>   11.0346    0.0000 </r>
       <r>   12.1764    0.0000 </r>
       <r>   12.1842    0.0000 </r>
       <r>   12.2830    0.0000 </r>
       <r>   12.2873    0.0000 </r>
       <r>   13.6720    0.0000 </r>
       <r>   13.8902    0.0000 </r>
       <r>   13.8919    0.0000 </r>
       <r>   13.9640    0.0000 </r>
       <r>   14.7931    0.0000 </r>
       <r>   14.8219    0.0000 </r>
       <r>   14.8253    0.0000 </r>
       <r>   14.9694    0.0000 </r>
       <r>   15.5557    0.0000 </r>
       <r>   15.9664    0.0000 </r>
      </set>
     </set>
    </set>
   </array>
  </eigenvalues>
  <separator name="orbital magnetization" >
   <v name="MAGDIPOLOUT">      0.00000000      0.00000000      0.00000000</v>
  </separator>
  <dos>
   <i name="efermi">      8.70707020 </i>
   <total>
    <array>
     <dimension dim="1">gridpoints</dimension>
     <dimension dim="2">spin</dimension>
     <field>energy</field>
     <field>total</field>
     <field>integrated</field>
     <set>
      <set comment="spin 1">
       <r>   -16.4785     0.0000     0.0000 </r>
       <r>   -16.3580     0.0000     0.0000 </r>
       <r>   -16.2374     0.0000     0.0000 </r>
       <r>   -16.1169     0.0000     0.0000 </r>
       <r>   -15.9963     0.0000     0.0000 </r>
       <r>   -15.8758     0.0000     0.0000 </r>
       <r>   -15.7552     0.0000     0.0000 </r>
       <r>   -15.6347     0.0000     0.0000 </r>
       <r>   -15.5141     0.0000     0.0000 </r>
       <r>   -15.3936     0.0000     0.0000 </r>
       <r>   -15.2730     0.0000     0.0000 </r>
       <r>   -15.1525     0.0000     0.0000 </r>
       <r>   -15.0320     0.0000     0.0000 </r>
       <r>   -14.9114     0.0157     0.0019 </r>
       <r>   -14.7909     2.4147     0.2930 </r>
       <r>   -14.6703     5.8155     0.9940 </r>
       <r>   -14.5498     0.0498     1.0000 </r>
       <r>   -14.4292     0.0000     1.0000 </r>
       <r>   -14.3087     0.0000     1.0000 </r>
       <r>   -14.1881     0.0000     1.0000 </r>
       <r>   -14.0676     0.0000     1.0000 </r>
       <r>   -13.9470     0.0000     1.0000 </r>
       <r>   -13.8265     0.0000     1.0000 </r>
       <r>   -13.7060     0.0000     1.0000 </r>
       <r>   -13.5854     0.0000     1.0000 </r>
       <r>   -13.4649     0.0000     1.0000 </r>
       <r>   -13.3443     0.0898     1.0108 </r>
       <r>   -13.2238     0.9261     1.1225 </r>
       <r>   -13.1032     0.4163     1.1726 </r>
       <r>   -12.9827     7.4064     2.0655 </r>
       <r>   -12.8621     3.5842     2.4975 </r>
       <r>   -12.7416     0.0248     2.5005 </r>
       <r>   -12.6211     5.6505     3.1816 </r>
       <r>   -12.5005     9.9276     4.3784 </r>
       <r>   -12.3800    15.1442     6.2039 </r>
       <r>   -12.2594     4.1443     6.7035 </r>
       <r>   -12.1389     2.4551     6.9995 </r>
       <r>   -12.0183     0.0045     7.0000 </r>
       <r>   -11.8978     0.0000     7.0000 </r>
       <r>   -11.7772     0.0000     7.0000 </r>
       <r>   -11.6567     0.0000     7.0000 </r>
       <r>   -11.5361     0.0000     7.0000 </r>
       <r>   -11.4156     0.0000     7.0000 </r>
       <r>   -11.2951     0.0000     7.0000 </r>
       <r>   -11.1745     0.0000     7.0000 </r>
       <r>   -11.0540     0.0000     7.0000 </r>
       <r>   -10.9334     0.0000     7.0000 </r>
       <r>   -10.8129     0.0000     7.0000 </r>
       <r>   -10.6923     0.0000     7.0000 </r>
       <r>   -10.5718     0.0000     7.0000 </r>
       <r>   -10.4512     0.0000     7.0000 </r>
       <r>   -10.3307     0.0000     7.0000 </r>
       <r>   -10.2101     0.0000     7.0000 </r>
       <r>   -10.0896     0.0000     7.0000 </r>
       <r>    -9.9691     0.0000     7.0000 </r>
       <r>    -9.8485     0.0000     7.0000 </r>
       <r>    -9.7280     0.0000     7.0000 </r>
       <r>    -9.6074     0.0000     7.0000 </r>
       <r>    -9.4869     0.0000     7.0000 </r>
       <r>    -9.3663     0.0000     7.0000 </r>
       <r>    -9.2458     0.0000     7.0000 </r>
       <r>    -9.1252     0.0000     7.0000 </r>
       <r>    -9.0047     0.0000     7.0000 </r>
       <r>    -8.8841     0.0000     7.0000 </r>
       <r>    -8.7636     0.0000     7.0000 </r>
       <r>    -8.6431     0.0000     7.0000 </r>
       <r>    -8.5225     0.0000     7.0000 </r>
       <r>    -8.4020     0.0000     7.0000 </r>
       <r>    -8.2814     0.0000     7.0000 </r>
       <r>    -8.1609     0.0000     7.0000 </r>
       <r>    -8.0403     0.0000     7.0000 </r>
       <r>    -7.9198     0.0000     7.0000 </r>
       <r>    -7.7992     0.0000     7.0000 </r>
       <r>    -7.6787     0.0000     7.0000 </r>
       <r>    -7.5582     0.0000     7.0000 </r>
       <r>    -7.4376     0.0000     7.0000 </r>
       <r>    -7.3171     0.0000     7.0000 </r>
       <r>    -7.1965     0.0000     7.0000 </r>
       <r>    -7.0760     0.0000     7.0000 </r>
       <r>    -6.9554     0.0000     7.0000 </r>
       <r>    -6.8349     0.0000     7.0000 </r>
       <r>    -6.7143     0.0000     7.0000 </r>
       <r>    -6.5938     0.0000     7.0000 </r>
       <r>    -6.4732     0.0000     7.0000 </r>
       <r>    -6.3527     0.0000     7.0000 </r>
       <r>    -6.2322     0.0000     7.0000 </r>
       <r>    -6.1116     0.0000     7.0000 </r>
       <r>    -5.9911     0.0000     7.0000 </r>
       <r>    -5.8705     0.0000     7.0000 </r>
       <r>    -5.7500     0.0000     7.0000 </r>
       <r>    -5.6294     0.0000     7.0000 </r>
       <r>    -5.5089     0.0000     7.0000 </r>
       <r>    -5.3883     0.0000     7.0000 </r>
       <r>    -5.2678     0.0000     7.0000 </r>
       <r>    -5.1472     0.0000     7.0000 </r>
       <r>    -5.0267     0.0000     7.0000 </r>
       <r>    -4.9062     0.0000     7.0000 </r>
       <r>    -4.7856     0.0000     7.0000 </r>
       <r>    -4.6651     0.0000     7.0000 </r>
       <r>    -4.5445     0.0000     7.0000 </r>
       <r>    -4.4240     0.0000     7.0000 </r>
       <r>    -4.3034     0.0000     7.0000 </r>
       <r>    -4.1829     0.0000     7.0000 </r>
       <r>    -4.0623     0.0000     7.0000 </r>
       <r>    -3.9418     0.0000     7.0000 </r>
       <r>    -3.8212     0.0000     7.0000 </r>
       <r>    -3.7007     0.0000     7.0000 </r>
       <r>    -3.5802     0.0000     7.0000 </r>
       <r>    -3.4596     0.0000     7.0000 </r>
       <r>    -3.3391     0.0000     7.0000 </r>
       <r>    -3.2185     0.0000     7.0000 </r>
       <r>    -3.0980     0.0000     7.0000 </r>
       <r>    -2.9774     0.0000     7.0000 </r>
       <r>    -2.8569     0.0000     7.0000 </r>
       <r>    -2.7363     0.0000     7.0000 </r>
       <r>    -2.6158     0.0000     7.0000 </r>
       <r>    -2.4952     0.0000     7.0000 </r>
       <r>    -2.3747     0.0000     7.0000 </r>
       <r>    -2.2542     0.0000     7.0000 </r>
       <r>    -2.1336     0.0000     7.0000 </r>
       <r>    -2.0131     0.0000     7.0000 </r>
       <r>    -1.8925     0.6313     7.0761 </r>
       <r>    -1.7720     2.4641     7.3731 </r>
       <r>    -1.6514     0.0154     7.3750 </r>
       <r>    -1.5309     0.3110     7.4125 </r>
       <r>    -1.4103     7.5560     8.3233 </r>
       <r>    -1.2898     0.4290     8.3750 </r>
       <r>    -1.1693     2.0327     8.6201 </r>
       <r>    -1.0487     5.0826     9.2328 </r>
       <r>    -0.9282     0.1612     9.2522 </r>
       <r>    -0.8076     4.9392     9.8476 </r>
       <r>    -0.6871     3.1281    10.2247 </r>
       <r>    -0.5665     4.6537    10.7856 </r>
       <r>    -0.4460     5.1162    11.4024 </r>
       <r>    -0.3254     0.8560    11.5056 </r>
       <r>    -0.2049     2.7278    11.8344 </r>
       <r>    -0.0843     0.3849    11.8808 </r>
       <r>     0.0362     2.7354    12.2105 </r>
       <r>     0.1567     1.6118    12.4048 </r>
       <r>     0.2773     2.1915    12.6690 </r>
       <r>     0.3978     9.0059    13.7546 </r>
       <r>     0.5184     7.2690    14.6309 </r>
       <r>     0.6389     2.0264    14.8751 </r>
       <r>     0.7595     2.3119    15.1538 </r>
       <r>     0.8800     1.8340    15.3749 </r>
       <r>     1.0006     0.0008    15.3750 </r>
       <r>     1.1211     1.1578    15.5146 </r>
       <r>     1.2417     7.5871    16.4292 </r>
       <r>     1.3622    15.2168    18.2635 </r>
       <r>     1.4827    10.8479    19.5711 </r>
       <r>     1.6033    13.0185    21.1405 </r>
       <r>     1.7238     1.9830    21.3795 </r>
       <r>     1.8444     5.0378    21.9868 </r>
       <r>     1.9649     2.7762    22.3214 </r>
       <r>     2.0855     1.5440    22.5076 </r>
       <r>     2.2060     3.6451    22.9470 </r>
       <r>     2.3266     0.4400    23.0000 </r>
       <r>     2.4471     0.0733    23.0088 </r>
       <r>     2.5677     3.7096    23.4560 </r>
       <r>     2.6882     6.1143    24.1931 </r>
       <r>     2.8087    18.1792    26.3845 </r>
       <r>     2.9293    10.2196    27.6164 </r>
       <r>     3.0498     3.9474    28.0922 </r>
       <r>     3.1704     0.2717    28.1250 </r>
       <r>     3.2909     0.0000    28.1250 </r>
       <r>     3.4115     0.0000    28.1250 </r>
       <r>     3.5320     0.0000    28.1250 </r>
       <r>     3.6526     0.0000    28.1250 </r>
       <r>     3.7731     0.0000    28.1250 </r>
       <r>     3.8937     0.0000    28.1250 </r>
       <r>     4.0142     0.0000    28.1250 </r>
       <r>     4.1347     0.0000    28.1250 </r>
       <r>     4.2553     0.0000    28.1250 </r>
       <r>     4.3758     0.0000    28.1250 </r>
       <r>     4.4964     0.0000    28.1250 </r>
       <r>     4.6169     0.0000    28.1250 </r>
       <r>     4.7375     0.0000    28.1250 </r>
       <r>     4.8580     0.0000    28.1250 </r>
       <r>     4.9786     0.0000    28.1250 </r>
       <r>     5.0991     0.0702    28.1335 </r>
       <r>     5.2196     3.6673    28.5755 </r>
       <r>     5.3402     0.4103    28.6250 </r>
       <r>     5.4607     0.0000    28.6250 </r>
       <r>     5.5813     0.0000    28.6250 </r>
       <r>     5.7018     0.0232    28.6278 </r>
       <r>     5.8224     2.5745    28.9381 </r>
       <r>     5.9429     0.5132    29.0000 </r>
       <r>     6.0635     0.0000    29.0000 </r>
       <r>     6.1840     0.0000    29.0000 </r>
       <r>     6.3046     0.0000    29.0000 </r>
       <r>     6.4251     0.0000    29.0000 </r>
       <r>     6.5456     0.0000    29.0000 </r>
       <r>     6.6662     0.0000    29.0000 </r>
       <r>     6.7867     0.0000    29.0000 </r>
       <r>     6.9073     0.0000    29.0000 </r>
       <r>     7.0278     0.0000    29.0000 </r>
       <r>     7.1484     0.0000    29.0000 </r>
       <r>     7.2689     0.0698    29.0084 </r>
       <r>     7.3895     4.4271    29.5421 </r>
       <r>     7.5100     2.7515    29.8738 </r>
       <r>     7.6306     0.0103    29.8750 </r>
       <r>     7.7511     0.0000    29.8750 </r>
       <r>     7.8716     0.0000    29.8750 </r>
       <r>     7.9922     0.0000    29.8750 </r>
       <r>     8.1127     0.0000    29.8750 </r>
       <r>     8.2333     0.0000    29.8750 </r>
       <r>     8.3538     0.0000    29.8750 </r>
       <r>     8.4744     0.0106    29.8763 </r>
       <r>     8.5949     0.8834    29.9828 </r>
       <r>     8.7155     0.1430    30.0000 </r>
       <r>     8.8360     0.9878    30.1191 </r>
       <r>     8.9566     5.1841    30.7440 </r>
       <r>     9.0771     0.0497    30.7500 </r>
       <r>     9.1976     0.0000    30.7500 </r>
       <r>     9.3182     0.0000    30.7500 </r>
       <r>     9.4387     0.1516    30.7683 </r>
       <r>     9.5593     7.3641    31.6560 </r>
       <r>     9.6798     0.7800    31.7500 </r>
       <r>     9.8004     0.0000    31.7500 </r>
       <r>     9.9209     0.0000    31.7500 </r>
       <r>    10.0415     0.0000    31.7500 </r>
       <r>    10.1620     0.0002    31.7500 </r>
       <r>    10.2825     1.0550    31.8772 </r>
       <r>    10.4031     3.4566    32.2939 </r>
       <r>    10.5236     5.0792    32.9061 </r>
       <r>    10.6442     0.7785    33.0000 </r>
       <r>    10.7647     0.0001    33.0000 </r>
       <r>    10.8853     0.0001    33.0000 </r>
       <r>    11.0058     0.8768    33.1057 </r>
       <r>    11.1264     3.2543    33.4980 </r>
       <r>    11.2469     1.8450    33.7204 </r>
       <r>    11.3675     1.2821    33.8749 </r>
       <r>    11.4880     0.0004    33.8750 </r>
       <r>    11.6085     0.0217    33.8776 </r>
       <r>    11.7291     2.5574    34.1859 </r>
       <r>    11.8496     0.7601    34.2775 </r>
       <r>    11.9702     4.4441    34.8132 </r>
       <r>    12.0907     3.5391    35.2399 </r>
       <r>    12.2113     6.9488    36.0775 </r>
       <r>    12.3318     8.9368    37.1548 </r>
       <r>    12.4524     0.7897    37.2500 </r>
       <r>    12.5729     0.0868    37.2605 </r>
       <r>    12.6935     0.9282    37.3723 </r>
       <r>    12.8140     0.0247    37.3753 </r>
       <r>    12.9345     3.2791    37.7706 </r>
       <r>    13.0551     2.9385    38.1248 </r>
       <r>    13.1756     0.6739    38.2060 </r>
       <r>    13.2962     2.4248    38.4983 </r>
       <r>    13.4167     0.0137    38.5000 </r>
       <r>    13.5373     0.0003    38.5000 </r>
       <r>    13.6578     1.4031    38.6692 </r>
       <r>    13.7784     2.8869    39.0172 </r>
       <r>    13.8989     7.9279    39.9728 </r>
       <r>    14.0195    13.8347    41.6405 </r>
       <r>    14.1400     2.9796    41.9997 </r>
       <r>    14.2605     0.0120    42.0012 </r>
       <r>    14.3811     4.1885    42.5061 </r>
       <r>    14.5016     2.0231    42.7500 </r>
       <r>    14.6222     0.0004    42.7500 </r>
       <r>    14.7427     0.7514    42.8406 </r>
       <r>    14.8633    15.6423    44.7262 </r>
       <r>    14.9838     5.2352    45.3573 </r>
       <r>    15.1044     4.2012    45.8637 </r>
       <r>    15.2249     0.0940    45.8750 </r>
       <r>    15.3455     1.0513    46.0018 </r>
       <r>    15.4660     2.0792    46.2524 </r>
       <r>    15.5865     3.7939    46.7097 </r>
       <r>    15.7071     1.3704    46.8749 </r>
       <r>    15.8276     0.0009    46.8750 </r>
       <r>    15.9482     1.3024    47.0320 </r>
       <r>    16.0687     2.8382    47.3742 </r>
       <r>    16.1893     1.0494    47.5007 </r>
       <r>    16.3098     2.0641    47.7495 </r>
       <r>    16.4304     0.0044    47.7500 </r>
       <r>    16.5509     0.0000    47.7500 </r>
       <r>    16.6714     0.0000    47.7500 </r>
       <r>    16.7920     0.0000    47.7500 </r>
       <r>    16.9125     0.0000    47.7500 </r>
       <r>    17.0331     0.0000    47.7500 </r>
       <r>    17.1536     0.0000    47.7500 </r>
       <r>    17.2742     0.0000    47.7500 </r>
       <r>    17.3947     0.0000    47.7500 </r>
       <r>    17.5153     0.0000    47.7500 </r>
       <r>    17.6358     0.0000    47.7500 </r>
       <r>    17.7564     0.0000    47.7500 </r>
       <r>    17.8769     0.0000    47.7500 </r>
       <r>    17.9974     0.2602    47.7814 </r>
       <r>    18.1180     1.7882    47.9969 </r>
       <r>    18.2385     0.0254    48.0000 </r>
       <r>    18.3591     0.0000    48.0000 </r>
       <r>    18.4796     0.0000    48.0000 </r>
       <r>    18.6002     0.0000    48.0000 </r>
       <r>    18.7207     0.0000    48.0000 </r>
       <r>    18.8413     0.0000    48.0000 </r>
       <r>    18.9618     0.0000    48.0000 </r>
       <r>    19.0824     0.0000    48.0000 </r>
       <r>    19.2029     0.0000    48.0000 </r>
       <r>    19.3234     0.0000    48.0000 </r>
       <r>    19.4440     0.0000    48.0000 </r>
       <r>    19.5645     0.0000    48.0000 </r>
       <r>    19.6851     0.0000    48.0000 </r>
      </set>
      <set comment="spin 2">
       <r>   -16.4785     0.0000     0.0000 </r>
       <r>   -16.3580     0.0000     0.0000 </r>
       <r>   -16.2374     0.0000     0.0000 </r>
       <r>   -16.1169     0.0000     0.0000 </r>
       <r>   -15.9963     0.0000     0.0000 </r>
       <r>   -15.8758     0.0000     0.0000 </r>
       <r>   -15.7552     0.0000     0.0000 </r>
       <r>   -15.6347     0.0000     0.0000 </r>
       <r>   -15.5141     0.0000     0.0000 </r>
       <r>   -15.3936     0.0000     0.0000 </r>
       <r>   -15.2730     0.0000     0.0000 </r>
       <r>   -15.1525     0.0000     0.0000 </r>
       <r>   -15.0320     0.0000     0.0000 </r>
       <r>   -14.9114     0.0157     0.0019 </r>
       <r>   -14.7909     2.4138     0.2929 </r>
       <r>   -14.6703     5.8163     0.9940 </r>
       <r>   -14.5498     0.0498     1.0000 </r>
       <r>   -14.4292     0.0000     1.0000 </r>
       <r>   -14.3087     0.0000     1.0000 </r>
       <r>   -14.1881     0.0000     1.0000 </r>
       <r>   -14.0676     0.0000     1.0000 </r>
       <r>   -13.9470     0.0000     1.0000 </r>
       <r>   -13.8265     0.0000     1.0000 </r>
       <r>   -13.7060     0.0000     1.0000 </r>
       <r>   -13.5854     0.0000     1.0000 </r>
       <r>   -13.4649     0.0000     1.0000 </r>
       <r>   -13.3443     0.0896     1.0108 </r>
       <r>   -13.2238     0.9262     1.1225 </r>
       <r>   -13.1032     0.4153     1.1725 </r>
       <r>   -12.9827     7.4051     2.0652 </r>
       <r>   -12.8621     3.5865     2.4975 </r>
       <r>   -12.7416     0.0249     2.5005 </r>
       <r>   -12.6211     5.6436     3.1808 </r>
       <r>   -12.5005     9.9324     4.3781 </r>
       <r>   -12.3800    15.1424     6.2035 </r>
       <r>   -12.2594     4.1456     6.7032 </r>
       <r>   -12.1389     2.4576     6.9995 </r>
       <r>   -12.0183     0.0045     7.0000 </r>
       <r>   -11.8978     0.0000     7.0000 </r>
       <r>   -11.7772     0.0000     7.0000 </r>
       <r>   -11.6567     0.0000     7.0000 </r>
       <r>   -11.5361     0.0000     7.0000 </r>
       <r>   -11.4156     0.0000     7.0000 </r>
       <r>   -11.2951     0.0000     7.0000 </r>
       <r>   -11.1745     0.0000     7.0000 </r>
       <r>   -11.0540     0.0000     7.0000 </r>
       <r>   -10.9334     0.0000     7.0000 </r>
       <r>   -10.8129     0.0000     7.0000 </r>
       <r>   -10.6923     0.0000     7.0000 </r>
       <r>   -10.5718     0.0000     7.0000 </r>
       <r>   -10.4512     0.0000     7.0000 </r>
       <r>   -10.3307     0.0000     7.0000 </r>
       <r>   -10.2101     0.0000     7.0000 </r>
       <r>   -10.0896     0.0000     7.0000 </r>
       <r>    -9.9691     0.0000     7.0000 </r>
       <r>    -9.8485     0.0000     7.0000 </r>
       <r>    -9.7280     0.0000     7.0000 </r>
       <r>    -9.6074     0.0000     7.0000 </r>
       <r>    -9.4869     0.0000     7.0000 </r>
       <r>    -9.3663     0.0000     7.0000 </r>
       <r>    -9.2458     0.0000     7.0000 </r>
       <r>    -9.1252     0.0000     7.0000 </r>
       <r>    -9.0047     0.0000     7.0000 </r>
       <r>    -8.8841     0.0000     7.0000 </r>
       <r>    -8.7636     0.0000     7.0000 </r>
       <r>    -8.6431     0.0000     7.0000 </r>
       <r>    -8.5225     0.0000     7.0000 </r>
       <r>    -8.4020     0.0000     7.0000 </r>
       <r>    -8.2814     0.0000     7.0000 </r>
       <r>    -8.1609     0.0000     7.0000 </r>
       <r>    -8.0403     0.0000     7.0000 </r>
       <r>    -7.9198     0.0000     7.0000 </r>
       <r>    -7.7992     0.0000     7.0000 </r>
       <r>    -7.6787     0.0000     7.0000 </r>
       <r>    -7.5582     0.0000     7.0000 </r>
       <r>    -7.4376     0.0000     7.0000 </r>
       <r>    -7.3171     0.0000     7.0000 </r>
       <r>    -7.1965     0.0000     7.0000 </r>
       <r>    -7.0760     0.0000     7.0000 </r>
       <r>    -6.9554     0.0000     7.0000 </r>
       <r>    -6.8349     0.0000     7.0000 </r>
       <r>    -6.7143     0.0000     7.0000 </r>
       <r>    -6.5938     0.0000     7.0000 </r>
       <r>    -6.4732     0.0000     7.0000 </r>
       <r>    -6.3527     0.0000     7.0000 </r>
       <r>    -6.2322     0.0000     7.0000 </r>
       <r>    -6.1116     0.0000     7.0000 </r>
       <r>    -5.9911     0.0000     7.0000 </r>
       <r>    -5.8705     0.0000     7.0000 </r>
       <r>    -5.7500     0.0000     7.0000 </r>
       <r>    -5.6294     0.0000     7.0000 </r>
       <r>    -5.5089     0.0000     7.0000 </r>
       <r>    -5.3883     0.0000     7.0000 </r>
       <r>    -5.2678     0.0000     7.0000 </r>
       <r>    -5.1472     0.0000     7.0000 </r>
       <r>    -5.0267     0.0000     7.0000 </r>
       <r>    -4.9062     0.0000     7.0000 </r>
       <r>    -4.7856     0.0000     7.0000 </r>
       <r>    -4.6651     0.0000     7.0000 </r>
       <r>    -4.5445     0.0000     7.0000 </r>
       <r>    -4.4240     0.0000     7.0000 </r>
       <r>    -4.3034     0.0000     7.0000 </r>
       <r>    -4.1829     0.0000     7.0000 </r>
       <r>    -4.0623     0.0000     7.0000 </r>
       <r>    -3.9418     0.0000     7.0000 </r>
       <r>    -3.8212     0.0000     7.0000 </r>
       <r>    -3.7007     0.0000     7.0000 </r>
       <r>    -3.5802     0.0000     7.0000 </r>
       <r>    -3.4596     0.0000     7.0000 </r>
       <r>    -3.3391     0.0000     7.0000 </r>
       <r>    -3.2185     0.0000     7.0000 </r>
       <r>    -3.0980     0.0000     7.0000 </r>
       <r>    -2.9774     0.0000     7.0000 </r>
       <r>    -2.8569     0.0000     7.0000 </r>
       <r>    -2.7363     0.0000     7.0000 </r>
       <r>    -2.6158     0.0000     7.0000 </r>
       <r>    -2.4952     0.0000     7.0000 </r>
       <r>    -2.3747     0.0000     7.0000 </r>
       <r>    -2.2542     0.0000     7.0000 </r>
       <r>    -2.1336     0.0000     7.0000 </r>
       <r>    -2.0131     0.0000     7.0000 </r>
       <r>    -1.8925     0.6311     7.0761 </r>
       <r>    -1.7720     2.4643     7.3731 </r>
       <r>    -1.6514     0.0155     7.3750 </r>
       <r>    -1.5309     0.3108     7.4125 </r>
       <r>    -1.4103     7.5559     8.3233 </r>
       <r>    -1.2898     0.4293     8.3750 </r>
       <r>    -1.1693     2.0321     8.6200 </r>
       <r>    -1.0487     5.0832     9.2328 </r>
       <r>    -0.9282     0.1612     9.2522 </r>
       <r>    -0.8076     4.9371     9.8473 </r>
       <r>    -0.6871     3.1300    10.2246 </r>
       <r>    -0.5665     4.6532    10.7856 </r>
       <r>    -0.4460     5.1166    11.4023 </r>
       <r>    -0.3254     0.8563    11.5056 </r>
       <r>    -0.2049     2.7274    11.8343 </r>
       <r>    -0.0843     0.3854    11.8808 </r>
       <r>     0.0362     2.7352    12.2105 </r>
       <r>     0.1567     1.6110    12.4047 </r>
       <r>     0.2773     2.1916    12.6689 </r>
       <r>     0.3978     9.0048    13.7544 </r>
       <r>     0.5184     7.2696    14.6307 </r>
       <r>     0.6389     2.0277    14.8751 </r>
       <r>     0.7595     2.3109    15.1537 </r>
       <r>     0.8800     1.8350    15.3749 </r>
       <r>     1.0006     0.0008    15.3750 </r>
       <r>     1.1211     1.1557    15.5143 </r>
       <r>     1.2417     7.5876    16.4290 </r>
       <r>     1.3622    15.2147    18.2630 </r>
       <r>     1.4827    10.8479    19.5707 </r>
       <r>     1.6033    13.0193    21.1401 </r>
       <r>     1.7238     1.9859    21.3795 </r>
       <r>     1.8444     5.0364    21.9866 </r>
       <r>     1.9649     2.7762    22.3213 </r>
       <r>     2.0855     1.5452    22.5075 </r>
       <r>     2.2060     3.6444    22.9469 </r>
       <r>     2.3266     0.4408    23.0000 </r>
       <r>     2.4471     0.0730    23.0088 </r>
       <r>     2.5677     3.7087    23.4559 </r>
       <r>     2.6882     6.1113    24.1926 </r>
       <r>     2.8087    18.1782    26.3839 </r>
       <r>     2.9293    10.2231    27.6162 </r>
       <r>     3.0498     3.9483    28.0922 </r>
       <r>     3.1704     0.2725    28.1250 </r>
       <r>     3.2909     0.0000    28.1250 </r>
       <r>     3.4115     0.0000    28.1250 </r>
       <r>     3.5320     0.0000    28.1250 </r>
       <r>     3.6526     0.0000    28.1250 </r>
       <r>     3.7731     0.0000    28.1250 </r>
       <r>     3.8937     0.0000    28.1250 </r>
       <r>     4.0142     0.0000    28.1250 </r>
       <r>     4.1347     0.0000    28.1250 </r>
       <r>     4.2553     0.0000    28.1250 </r>
       <r>     4.3758     0.0000    28.1250 </r>
       <r>     4.4964     0.0000    28.1250 </r>
       <r>     4.6169     0.0000    28.1250 </r>
       <r>     4.7375     0.0000    28.1250 </r>
       <r>     4.8580     0.0000    28.1250 </r>
       <r>     4.9786     0.0000    28.1250 </r>
       <r>     5.0991     0.0698    28.1334 </r>
       <r>     5.2196     3.6660    28.5753 </r>
       <r>     5.3402     0.4119    28.6250 </r>
       <r>     5.4607     0.0000    28.6250 </r>
       <r>     5.5813     0.0000    28.6250 </r>
       <r>     5.7018     0.0230    28.6278 </r>
       <r>     5.8224     2.5728    28.9379 </r>
       <r>     5.9429     0.5151    29.0000 </r>
       <r>     6.0635     0.0000    29.0000 </r>
       <r>     6.1840     0.0000    29.0000 </r>
       <r>     6.3046     0.0000    29.0000 </r>
       <r>     6.4251     0.0000    29.0000 </r>
       <r>     6.5456     0.0000    29.0000 </r>
       <r>     6.6662     0.0000    29.0000 </r>
       <r>     6.7867     0.0000    29.0000 </r>
       <r>     6.9073     0.0000    29.0000 </r>
       <r>     7.0278     0.0000    29.0000 </r>
       <r>     7.1484     0.0000    29.0000 </r>
       <r>     7.2689     0.0696    29.0084 </r>
       <r>     7.3895     4.4245    29.5417 </r>
       <r>     7.5100     2.7543    29.8738 </r>
       <r>     7.6306     0.0103    29.8750 </r>
       <r>     7.7511     0.0000    29.8750 </r>
       <r>     7.8716     0.0000    29.8750 </r>
       <r>     7.9922     0.0000    29.8750 </r>
       <r>     8.1127     0.0000    29.8750 </r>
[...]
        <r>  0.0000  0.0105  0.0175  0.0036  0.0000  0.0000  0.0000  0.0000  0.0000 </r>
        <r>  0.0000  0.0080  0.0182  0.0006  0.0000  0.0000  0.0000  0.0000  0.0000 </r>
        <r>  0.0040  0.0000  0.0000  0.0000  0.0000  0.0000  0.0000  0.0000  0.0000 </r>
        <r>  0.0000  0.0057  0.0162  0.0018  0.0000  0.0000  0.0000  0.0000  0.0000 </r>
        <r>  0.0175  0.0000  0.0000  0.0000  0.0000  0.0000  0.0000  0.0000  0.0000 </r>
        <r>  0.0379  0.0000  0.0000  0.0000  0.0000  0.0000  0.0000  0.0000  0.0000 </r>
        <r>  0.0000  0.0043  0.0093  0.0010  0.0000  0.0000  0.0000  0.0000  0.0000 </r>
       </set>
       <set comment="band 37">
        <r>  0.0000  0.0014  0.0030  0.0003  0.0000  0.0000  0.0000  0.0000  0.0000 </r>
        <r>  0.0000  0.0022  0.0048  0.0005  0.0040  0.0005  0.0006  0.0017  0.0000 </r>
        <r>  0.0024  0.0036  0.0019  0.0082  0.0056  0.0003  0.0006  0.0026  0.0000 </r>
        <r>  0.0012  0.0007  0.0003  0.0136  0.0075  0.0015  0.0001  0.0026  0.0007 </r>
        <r>  0.0005  0.0112  0.0033  0.0002  0.0080  0.0007  0.0005  0.0043  0.0005 </r>
        <r>  0.0002  0.0118  0.0032  0.0002  0.0082  0.0006  0.0005  0.0045  0.0005 </r>
        <r>  0.0013  0.0008  0.0002  0.0134  0.0073  0.0016  0.0002  0.0026  0.0008 </r>
        <r>  0.0031  0.0033  0.0016  0.0084  0.0060  0.0004  0.0007  0.0026  0.0000 </r>
        <r>  0.0000  0.0020  0.0048  0.0006  0.0039  0.0004  0.0005  0.0018  0.0000 </r>
        <r>  0.0221  0.0000  0.0000  0.0000  0.0000  0.0000  0.0000  0.0000  0.0000 </r>
        <r>  0.0097  0.0000  0.0000  0.0000  0.0000  0.0000  0.0000  0.0000  0.0000 </r>
        <r>  0.0000  0.0058  0.0007  0.0023  0.0000  0.0000  0.0000  0.0000  0.0000 </r>
        <r>  0.0024  0.0000  0.0000  0.0000  0.0000  0.0000  0.0000  0.0000  0.0000 </r>
        <r>  0.0000  0.0089  0.0067  0.0149  0.0000  0.0000  0.0000  0.0000  0.0000 </r>
        <r>  0.0000  0.0219  0.0201  0.0249  0.0000  0.0000  0.0000  0.0000  0.0000 </r>
        <r>  0.0000  0.0000  0.0000  0.0000  0.0000  0.0000  0.0000  0.0000  0.0000 </r>
       </set>
       <set comment="band 38">
        <r>  0.0000  0.0018  0.0001  0.0028  0.0000  0.0000  0.0000  0.0000  0.0000 </r>
        <r>  0.0000  0.0027  0.0001  0.0040  0.0002  0.0039  0.0000  0.0024  0.0006 </r>
        <r>  0.0001  0.0102  0.0001  0.0049  0.0002  0.0070  0.0000  0.0052  0.0010 </r>
        <r>  0.0015  0.0013  0.0136  0.0000  0.0006  0.0061  0.0007  0.0033  0.0000 </r>
        <r>  0.0030  0.0017  0.0098  0.0013  0.0001  0.0057  0.0005  0.0039  0.0002 </r>
        <r>  0.0021  0.0022  0.0106  0.0021  0.0001  0.0052  0.0004  0.0037  0.0002 </r>
        <r>  0.0018  0.0008  0.0126  0.0000  0.0008  0.0071  0.0008  0.0036  0.0000 </r>
        <r>  0.0001  0.0097  0.0000  0.0052  0.0002  0.0083  0.0000  0.0057  0.0012 </r>
        <r>  0.0000  0.0030  0.0002  0.0049  0.0001  0.0034  0.0000  0.0022  0.0005 </r>
        <r>  0.0008  0.0000  0.0000  0.0000  0.0000  0.0000  0.0000  0.0000  0.0000 </r>
        <r>  0.0131  0.0000  0.0000  0.0000  0.0000  0.0000  0.0000  0.0000  0.0000 </r>
        <r>  0.0001  0.0193  0.0245  0.0187  0.0000  0.0000  0.0000  0.0000  0.0000 </r>
        <r>  0.0203  0.0000  0.0001  0.0000  0.0000  0.0000  0.0000  0.0000  0.0000 </r>
        <r>  0.0000  0.0120  0.0184  0.0102  0.0000  0.0000  0.0000  0.0000  0.0000 </r>
        <r>  0.0000  0.0030  0.0007  0.0000  0.0000  0.0000  0.0000  0.0000  0.0000 </r>
        <r>  0.0000  0.0000  0.0000  0.0000  0.0000  0.0000  0.0000  0.0000  0.0000 </r>
       </set>
       <set comment="band 39">
        <r>  0.0000  0.0024  0.0024  0.0024  0.0000  0.0001  0.0000  0.0000  0.0000 </r>
        <r>  0.0638  0.0029  0.0030  0.0029  0.0011  0.0007  0.0000  0.0009  0.0000 </r>
        <r>  0.0086  0.0022  0.0012  0.0023  0.0000  0.0007  0.0008  0.0010  0.0000 </r>
        <r>  0.0102  0.0010  0.0022  0.0022  0.0011  0.0007  0.0002  0.0000  0.0006 </r>
        <r>  0.0098  0.0023  0.0023  0.0013  0.0011  0.0000  0.0002  0.0013  0.0007 </r>
        <r>  0.0118  0.0021  0.0021  0.0010  0.0010  0.0000  0.0002  0.0008  0.0006 </r>
        <r>  0.0115  0.0013  0.0022  0.0020  0.0010  0.0016  0.0002  0.0000  0.0007 </r>
        <r>  0.0135  0.0021  0.0011  0.0020  0.0000  0.0015  0.0009  0.0012  0.0000 </r>
        <r>  0.0550  0.0032  0.0031  0.0032  0.0008  0.0011  0.0000  0.0009  0.0000 </r>
        <r>  0.0072  0.0001  0.0001  0.0000  0.0000  0.0000  0.0000  0.0000  0.0000 </r>
        <r>  0.0073  0.0001  0.0000  0.0002  0.0000  0.0000  0.0000  0.0000  0.0000 </r>
        <r>  0.0000  0.0208  0.0210  0.0318  0.0000  0.0000  0.0000  0.0000  0.0000 </r>
        <r>  0.0072  0.0003  0.0001  0.0001  0.0000  0.0000  0.0000  0.0000  0.0000 </r>
        <r>  0.0000  0.0317  0.0211  0.0209  0.0000  0.0000  0.0000  0.0000  0.0000 </r>
        <r>  0.0000  0.0210  0.0318  0.0209  0.0000  0.0000  0.0000  0.0000  0.0000 </r>
        <r>  0.0282  0.0000  0.0002  0.0000  0.0000  0.0000  0.0000  0.0000  0.0000 </r>
       </set>
       <set comment="band 40">
        <r>  0.0000  0.0000  0.0000  0.0000  0.0121  0.0000  0.0182  0.0126  0.0064 </r>
        <r>  0.0000  0.0002  0.0001  0.0000  0.0033  0.0000  0.0000  0.0035  0.0000 </r>
        <r>  0.0358  0.0001  0.0017  0.0002  0.0015  0.0005  0.0001  0.0026  0.0000 </r>
        <r>  0.0349  0.0021  0.0001  0.0003  0.0021  0.0006  0.0001  0.0016  0.0001 </r>
        <r>  0.0000  0.0000  0.0000  0.0000  0.0052  0.0000  0.0000  0.0049  0.0000 </r>
        <r>  0.0000  0.0000  0.0000  0.0000  0.0048  0.0000  0.0000  0.0053  0.0000 </r>
        <r>  0.0366  0.0020  0.0001  0.0002  0.0024  0.0004  0.0001  0.0015  0.0001 </r>
        <r>  0.0341  0.0002  0.0023  0.0002  0.0016  0.0006  0.0001  0.0023  0.0000 </r>
        <r>  0.0000  0.0002  0.0002  0.0000  0.0035  0.0000  0.0000  0.0035  0.0000 </r>
        <r>  0.0000  0.0038  0.0015  0.0654  0.0000  0.0000  0.0000  0.0000  0.0000 </r>
        <r>  0.0000  0.0016  0.0048  0.0649  0.0000  0.0000  0.0000  0.0000  0.0000 </r>
        <r>  0.0000  0.0000  0.0000  0.0000  0.0000  0.0000  0.0000  0.0000  0.0000 </r>
        <r>  0.0000  0.0350  0.0364  0.0000  0.0000  0.0000  0.0000  0.0000  0.0000 </r>
        <r>  0.0009  0.0000  0.0000  0.0000  0.0000  0.0000  0.0000  0.0000  0.0000 </r>
        <r>  0.0009  0.0000  0.0000  0.0000  0.0000  0.0000  0.0000  0.0000  0.0000 </r>
        <r>  0.0000  0.0278  0.0271  0.0000  0.0000  0.0000  0.0000  0.0000  0.0000 </r>
       </set>
       <set comment="band 41">
        <r>  0.0000  0.0000  0.0000  0.0000  0.0045  0.0161  0.0063  0.0042  0.0181 </r>
        <r>  0.0001  0.0001  0.0001  0.0003  0.0011  0.0045  0.0000  0.0010  0.0000 </r>
        <r>  0.0129  0.0001  0.0005  0.0000  0.0005  0.0051  0.0000  0.0028  0.0000 </r>
        <r>  0.0116  0.0006  0.0000  0.0000  0.0029  0.0050  0.0000  0.0005  0.0001 </r>
        <r>  0.0498  0.0002  0.0002  0.0023  0.0004  0.0018  0.0000  0.0003  0.0002 </r>
        <r>  0.0446  0.0003  0.0002  0.0031  0.0002  0.0022  0.0001  0.0001  0.0001 </r>
        <r>  0.0108  0.0008  0.0002  0.0001  0.0034  0.0043  0.0000  0.0006  0.0001 </r>
        <r>  0.0112  0.0002  0.0009  0.0001  0.0006  0.0042  0.0000  0.0032  0.0000 </r>
        <r>  0.0000  0.0001  0.0001  0.0002  0.0013  0.0046  0.0000  0.0012  0.0000 </r>
        <r>  0.0000  0.0660  0.0004  0.0045  0.0000  0.0000  0.0000  0.0000  0.0000 </r>
        <r>  0.0000  0.0004  0.0655  0.0053  0.0000  0.0000  0.0000  0.0000  0.0000 </r>
        <r>  0.0012  0.0001  0.0001  0.0001  0.0000  0.0000  0.0000  0.0000  0.0000 </r>
        <r>  0.0000  0.0349  0.0329  0.0025  0.0000  0.0000  0.0000  0.0000  0.0000 </r>
        <r>  0.0002  0.0001  0.0000  0.0000  0.0000  0.0000  0.0000  0.0000  0.0000 </r>
        <r>  0.0003  0.0001  0.0001  0.0001  0.0000  0.0000  0.0000  0.0000  0.0000 </r>
        <r>  0.0001  0.0084  0.0093  0.0370  0.0000  0.0000  0.0000  0.0000  0.0000 </r>
       </set>
       <set comment="band 42">
        <r>  0.0056  0.0000  0.0000  0.0000  0.0163  0.0169  0.0000  0.0162  0.0000 </r>
        <r>  0.0124  0.0002  0.0002  0.0002  0.0008  0.0008  0.0000  0.0008  0.0000 </r>
        <r>  0.0020  0.0002  0.0003  0.0002  0.0035  0.0050  0.0000  0.0047  0.0000 </r>
        <r>  0.0022  0.0003  0.0001  0.0002  0.0046  0.0049  0.0000  0.0035  0.0000 </r>
        <r>  0.0009  0.0002  0.0002  0.0002  0.0050  0.0039  0.0000  0.0049  0.0000 </r>
        <r>  0.0020  0.0002  0.0002  0.0004  0.0046  0.0036  0.0000  0.0046  0.0000 </r>
        <r>  0.0014  0.0003  0.0002  0.0002  0.0049  0.0049  0.0000  0.0038  0.0000 </r>
        <r>  0.0014  0.0002  0.0003  0.0002  0.0039  0.0049  0.0000  0.0048  0.0000 </r>
        <r>  0.0203  0.0004  0.0004  0.0004  0.0006  0.0007  0.0000  0.0006  0.0000 </r>
        <r>  0.0000  0.0076  0.0488  0.0084  0.0000  0.0000  0.0000  0.0000  0.0000 </r>
        <r>  0.0000  0.0491  0.0075  0.0082  0.0000  0.0000  0.0000  0.0000  0.0000 </r>
        <r>  0.0016  0.0000  0.0000  0.0000  0.0000  0.0000  0.0000  0.0000  0.0000 </r>
        <r>  0.0001  0.0085  0.0085  0.0487  0.0000  0.0000  0.0000  0.0000  0.0000 </r>
        <r>  0.0017  0.0000  0.0000  0.0000  0.0000  0.0000  0.0000  0.0000  0.0000 </r>
        <r>  0.0017  0.0000  0.0001  0.0000  0.0000  0.0000  0.0000  0.0000  0.0000 </r>
        <r>  0.0001  0.0107  0.0106  0.0100  0.0000  0.0000  0.0000  0.0000  0.0000 </r>
       </set>
       <set comment="band 43">
        <r>  0.0000  0.0036  0.0037  0.0037  0.0002  0.0002  0.0003  0.0002  0.0001 </r>
        <r>  0.0254  0.0111  0.0138  0.0121  0.0003  0.0006  0.0000  0.0007  0.0000 </r>
        <r>  0.0013  0.0032  0.0003  0.0027  0.0099  0.0028  0.0001  0.0027  0.0000 </r>
        <r>  0.0023  0.0020  0.0015  0.0028  0.0031  0.0023  0.0001  0.0095  0.0003 </r>
        <r>  0.0008  0.0014  0.0028  0.0016  0.0038  0.0042  0.0001  0.0050  0.0002 </r>
        <r>  0.0013  0.0033  0.0016  0.0012  0.0033  0.0094  0.0000  0.0024  0.0003 </r>
        <r>  0.0003  0.0009  0.0030  0.0018  0.0040  0.0050  0.0001  0.0040  0.0001 </r>
        <r>  0.0010  0.0016  0.0032  0.0020  0.0036  0.0041  0.0005  0.0043  0.0000 </r>
        <r>  0.0149  0.0100  0.0075  0.0092  0.0025  0.0018  0.0000  0.0017  0.0000 </r>
        <r>  0.0014  0.0004  0.0024  0.0003  0.0000  0.0000  0.0000  0.0000  0.0000 </r>
        <r>  0.0015  0.0006  0.0001  0.0003  0.0000  0.0000  0.0000  0.0000  0.0000 </r>
        <r>  0.0000  0.0065  0.0065  0.0156  0.0000  0.0000  0.0000  0.0000  0.0000 </r>
        <r>  0.0015  0.0007  0.0000  0.0010  0.0000  0.0000  0.0000  0.0000  0.0000 </r>
        <r>  0.0000  0.0155  0.0066  0.0066  0.0000  0.0000  0.0000  0.0000  0.0000 </r>
        <r>  0.0000  0.0069  0.0151  0.0069  0.0000  0.0000  0.0000  0.0000  0.0000 </r>
        <r>  0.0001  0.0000  0.0010  0.0000  0.0000  0.0000  0.0000  0.0000  0.0000 </r>
       </set>
       <set comment="band 44">
        <r>  0.0000  0.0001  0.0000  0.0000  0.0000  0.0000  0.0402  0.0000  0.0124 </r>
        <r>  0.0003  0.0058  0.0031  0.0001  0.0018  0.0000  0.0002  0.0014  0.0001 </r>
        <r>  0.0083  0.0065  0.0234  0.0001  0.0000  0.0008  0.0034  0.0003  0.0001 </r>
        <r>  0.0066  0.0213  0.0087  0.0000  0.0001  0.0012  0.0003  0.0003  0.0029 </r>
        <r>  0.0000  0.0082  0.0068  0.0000  0.0030  0.0000  0.0004  0.0019  0.0002 </r>
        <r>  0.0000  0.0075  0.0097  0.0000  0.0018  0.0001  0.0004  0.0025  0.0001 </r>
        <r>  0.0091  0.0241  0.0056  0.0002  0.0004  0.0009  0.0003  0.0000  0.0034 </r>
        <r>  0.0090  0.0067  0.0226  0.0000  0.0002  0.0017  0.0033  0.0001  0.0002 </r>
        <r>  0.0001  0.0038  0.0064  0.0001  0.0010  0.0000  0.0002  0.0017  0.0001 </r>
        <r>  0.0000  0.0242  0.0157  0.0004  0.0000  0.0000  0.0000  0.0000  0.0000 </r>
        <r>  0.0000  0.0177  0.0253  0.0005  0.0000  0.0000  0.0000  0.0000  0.0000 </r>
        <r>  0.0000  0.0000  0.0001  0.0001  0.0000  0.0000  0.0000  0.0000  0.0000 </r>
        <r>  0.0000  0.0177  0.0197  0.0000  0.0000  0.0000  0.0000  0.0000  0.0000 </r>
        <r>  0.0029  0.0001  0.0001  0.0001  0.0000  0.0000  0.0000  0.0000  0.0000 </r>
        <r>  0.0031  0.0000  0.0003  0.0000  0.0000  0.0000  0.0000  0.0000  0.0000 </r>
        <r>  0.0000  0.0266  0.0261  0.0000  0.0000  0.0000  0.0000  0.0000  0.0000 </r>
       </set>
       <set comment="band 45">
        <r>  0.0000  0.0000  0.0000  0.0000  0.0000  0.0000  0.0126  0.0000  0.0403 </r>
        <r>  0.0000  0.0014  0.0013  0.0062  0.0005  0.0020  0.0001  0.0005  0.0002 </r>
        <r>  0.0024  0.0036  0.0072  0.0100  0.0000  0.0014  0.0010  0.0022  0.0003 </r>
        <r>  0.0028  0.0080  0.0032  0.0098  0.0021  0.0013  0.0012  0.0000  0.0004 </r>
        <r>  0.0116  0.0019  0.0016  0.0313  0.0001  0.0001  0.0011  0.0001  0.0034 </r>
        <r>  0.0103  0.0023  0.0022  0.0302  0.0001  0.0002  0.0011  0.0001  0.0033 </r>
        <r>  0.0031  0.0079  0.0028  0.0099  0.0024  0.0012  0.0012  0.0000  0.0004 </r>
        <r>  0.0028  0.0031  0.0073  0.0098  0.0000  0.0012  0.0011  0.0024  0.0004 </r>
        <r>  0.0000  0.0020  0.0018  0.0065  0.0004  0.0020  0.0001  0.0005  0.0002 </r>
        <r>  0.0000  0.0050  0.0051  0.0288  0.0000  0.0000  0.0000  0.0000  0.0000 </r>
        <r>  0.0000  0.0057  0.0044  0.0291  0.0000  0.0000  0.0000  0.0000  0.0000 </r>
        <r>  0.0040  0.0000  0.0000  0.0000  0.0000  0.0000  0.0000  0.0000  0.0000 </r>
        <r>  0.0000  0.0113  0.0105  0.0230  0.0000  0.0000  0.0000  0.0000  0.0000 </r>
        <r>  0.0011  0.0000  0.0000  0.0000  0.0000  0.0000  0.0000  0.0000  0.0000 </r>
        <r>  0.0010  0.0000  0.0000  0.0000  0.0000  0.0000  0.0000  0.0000  0.0000 </r>
        <r>  0.0000  0.0093  0.0084  0.0357  0.0000  0.0000  0.0000  0.0000  0.0000 </r>
       </set>
       <set comment="band 46">
        <r>  0.0000  0.0002  0.0001  0.0002  0.0074  0.0072  0.0000  0.0073  0.0000 </r>
        <r>  0.0053  0.0005  0.0005  0.0005  0.0041  0.0043  0.0000  0.0042  0.0000 </r>
        <r>  0.0016  0.0001  0.0011  0.0001  0.0069  0.0036  0.0002  0.0036  0.0000 </r>
        <r>  0.0019  0.0009  0.0001  0.0001  0.0037  0.0036  0.0000  0.0070  0.0001 </r>
        <r>  0.0029  0.0010  0.0009  0.0003  0.0014  0.0114  0.0000  0.0014  0.0000 </r>
        <r>  0.0021  0.0001  0.0001  0.0008  0.0037  0.0071  0.0000  0.0037  0.0001 </r>
        <r>  0.0029  0.0003  0.0010  0.0010  0.0014  0.0013  0.0000  0.0116  0.0001 </r>
        <r>  0.0028  0.0010  0.0004  0.0011  0.0116  0.0013  0.0001  0.0013  0.0000 </r>
        <r>  0.0200  0.0030  0.0032  0.0030  0.0038  0.0036  0.0000  0.0036  0.0000 </r>
        <r>  0.0001  0.0091  0.0332  0.0091  0.0000  0.0000  0.0000  0.0000  0.0000 </r>
        <r>  0.0000  0.0326  0.0086  0.0087  0.0000  0.0000  0.0000  0.0000  0.0000 </r>
        <r>  0.0003  0.0004  0.0003  0.0002  0.0000  0.0000  0.0000  0.0000  0.0000 </r>
        <r>  0.0000  0.0087  0.0084  0.0326  0.0000  0.0000  0.0000  0.0000  0.0000 </r>
        <r>  0.0003  0.0002  0.0003  0.0004  0.0000  0.0000  0.0000  0.0000  0.0000 </r>
        <r>  0.0003  0.0004  0.0002  0.0004  0.0000  0.0000  0.0000  0.0000  0.0000 </r>
        <r>  0.0000  0.0065  0.0068  0.0066  0.0000  0.0000  0.0000  0.0000  0.0000 </r>
       </set>
       <set comment="band 47">
        <r>  0.0000  0.0000  0.0000  0.0000  0.0000  0.0000  0.0000  0.0000  0.0000 </r>
        <r>  0.0549  0.0001  0.0000  0.0001  0.0047  0.0047  0.0000  0.0047  0.0000 </r>
        <r>  0.0003  0.0035  0.0001  0.0037  0.0028  0.0015  0.0000  0.0015  0.0000 </r>
        <r>  0.0002  0.0001  0.0033  0.0037  0.0014  0.0015  0.0000  0.0026  0.0000 </r>
        <r>  0.0000  0.0040  0.0039  0.0000  0.0017  0.0042  0.0000  0.0017  0.0000 </r>
        <r>  0.0001  0.0035  0.0034  0.0001  0.0015  0.0025  0.0000  0.0015  0.0000 </r>
        <r>  0.0000  0.0000  0.0039  0.0041  0.0017  0.0019  0.0000  0.0041  0.0000 </r>
        <r>  0.0000  0.0041  0.0000  0.0040  0.0039  0.0018  0.0000  0.0018  0.0000 </r>
        <r>  0.0619  0.0004  0.0005  0.0003  0.0038  0.0038  0.0000  0.0038  0.0000 </r>
        <r>  0.0003  0.0000  0.0001  0.0000  0.0000  0.0000  0.0000  0.0000  0.0000 </r>
        <r>  0.0003  0.0001  0.0000  0.0000  0.0000  0.0000  0.0000  0.0000  0.0000 </r>
        <r>  0.0000  0.0074  0.0074  0.0457  0.0000  0.0000  0.0000  0.0000  0.0000 </r>
        <r>  0.0003  0.0000  0.0000  0.0001  0.0000  0.0000  0.0000  0.0000  0.0000 </r>
        <r>  0.0000  0.0464  0.0077  0.0076  0.0000  0.0000  0.0000  0.0000  0.0000 </r>
        <r>  0.0000  0.0080  0.0472  0.0080  0.0000  0.0000  0.0000  0.0000  0.0000 </r>
        <r>  0.0002  0.0001  0.0001  0.0001  0.0000  0.0000  0.0000  0.0000  0.0000 </r>
       </set>
       <set comment="band 48">
        <r>  0.0000  0.0000  0.0000  0.0000  0.0073  0.0075  0.0000  0.0074  0.0000 </r>
        <r>  0.0988  0.0089  0.0088  0.0084  0.0000  0.0000  0.0000  0.0000  0.0000 </r>
        <r>  0.0079  0.0049  0.0013  0.0055  0.0016  0.0000  0.0002  0.0000  0.0000 </r>
        <r>  0.0091  0.0016  0.0047  0.0054  0.0000  0.0000  0.0001  0.0016  0.0003 </r>
        <r>  0.0069  0.0043  0.0045  0.0014  0.0000  0.0013  0.0001  0.0000  0.0002 </r>
        <r>  0.0124  0.0046  0.0043  0.0020  0.0000  0.0015  0.0001  0.0000  0.0003 </r>
        <r>  0.0101  0.0016  0.0041  0.0034  0.0000  0.0000  0.0001  0.0013  0.0002 </r>
        <r>  0.0119  0.0037  0.0017  0.0033  0.0014  0.0000  0.0004  0.0000  0.0000 </r>
        <r>  0.0885  0.0086  0.0085  0.0091  0.0000  0.0000  0.0000  0.0000  0.0000 </r>
        <r>  0.0000  0.0043  0.0009  0.0042  0.0000  0.0000  0.0000  0.0000  0.0000 </r>
        <r>  0.0000  0.0009  0.0042  0.0042  0.0000  0.0000  0.0000  0.0000  0.0000 </r>
        <r>  0.0002  0.0000  0.0000  0.0000  0.0000  0.0000  0.0000  0.0000  0.0000 </r>
        <r>  0.0000  0.0042  0.0042  0.0008  0.0000  0.0000  0.0000  0.0000  0.0000 </r>
        <r>  0.0002  0.0000  0.0000  0.0001  0.0000  0.0000  0.0000  0.0000  0.0000 </r>
        <r>  0.0002  0.0001  0.0001  0.0001  0.0000  0.0000  0.0000  0.0000  0.0000 </r>
        <r>  0.0000  0.0214  0.0213  0.0216  0.0000  0.0000  0.0000  0.0000  0.0000 </r>
       </set>
      </set>
     </set>
    </set>
   </array>
  </projected>
 </calculation>
 <structure name="finalpos" >
  <crystal>
   <varray name="basis" >
    <v>       0.00000000       4.24689300       4.24689300 </v>
    <v>       4.24689300       0.00000000       4.24689300 </v>
    <v>       4.24689300       4.24689300       0.00000000 </v>
   </varray>
   <i name="volume">    153.19477498 </i>
   <varray name="rec_basis" >
    <v>      -0.11773313       0.11773313       0.11773313 </v>
    <v>       0.11773313      -0.11773313       0.11773313 </v>
    <v>       0.11773313       0.11773313      -0.11773313 </v>
   </varray>
  </crystal>
  <varray name="positions" >
   <v>       0.25259584       0.25458086       0.24815957 </v>
   <v>       0.99782043       0.00263697       0.00020854 </v>
   <v>       0.98120224       0.98569800       0.51765859 </v>
   <v>       0.97895327       0.52063092       0.98285638 </v>
   <v>       0.97991186       0.52127667       0.51930738 </v>
   <v>       0.51634475       0.98341636       0.98142088 </v>
   <v>       0.51853636       0.98271562       0.51937202 </v>
   <v>       0.51883131       0.52344904       0.97860392 </v>
   <v>       0.49775446       0.50273831       0.50032643 </v>
   <v>       0.24827540       0.25245166       0.75032927 </v>
   <v>       0.24860354       0.75233893       0.24935937 </v>
   <v>       0.24844800       0.75275797       0.75052223 </v>
   <v>       0.74657310       0.25348198       0.24973766 </v>
   <v>       0.74721733       0.25368323       0.75076773 </v>
   <v>       0.74784475       0.75288524       0.25066257 </v>
   <v>       0.75019837       0.75338122       0.74934145 </v>
  </varray>
 </structure>
</modeling>
