       N       E                     dE             d eps       ncg     rms          rms(c)
DAV:   1    -0.585161917231E+01   -0.58516E+01   -0.50409E+03  2112   0.231E+02
DAV:   2    -0.134644273993E+02   -0.76128E+01   -0.76128E+01  2752   0.284E+01
DAV:   3    -0.134685632833E+02   -0.41359E-02   -0.41359E-02  1984   0.733E-01
DAV:   4    -0.134685640765E+02   -0.79317E-06   -0.79317E-06  3200   0.935E-03
DAV:   5    -0.134685640765E+02   -0.13642E-11   -0.12380E-11  1984   0.945E-06    0.720E+00
DAV:   6    -0.119357005659E+02    0.15329E+01   -0.10293E+01  2400   0.562E+00    0.235E+00
DAV:   7    -0.119175354127E+02    0.18165E-01   -0.34393E-02  2624   0.588E-01    0.130E+00
DAV:   8    -0.119116440219E+02    0.58914E-02   -0.24446E-02  3040   0.572E-01    0.115E-01
DAV:   9    -0.119118512691E+02   -0.20725E-03   -0.44859E-04  2016   0.525E-02    0.461E-02
DAV:  10    -0.119118492563E+02    0.20128E-05   -0.13660E-04  3072   0.270E-02    0.281E-03
DAV:  11    -0.119118492609E+02   -0.45805E-08   -0.19375E-06  2496   0.292E-03    0.146E-03
DAV:  12    -0.119118492574E+02    0.34724E-08   -0.39767E-07  2528   0.106E-03
   1 F= -.11911849E+02 E0= -.11911849E+02  d E =-.183719E-26
 Linear response reoptimize wavefunctions
DAV:   1    -0.119118492275E+02    0.29865E-07   -0.74367E-10  2144   0.108E-04
DAV:   2    -0.119118492275E+02    0.11369E-12   -0.17973E-12  1056   0.230E-06
 Linear response G [H, r] |phi>, progress :
  Direction:   1
       N       E                     dE             d eps       ncg     rms
RMM:   1    -0.325181837777E+02   -0.32518E+02    0.85054E+00  4853   0.158E+01
RMM:   2    -0.304293889506E+02    0.20888E+01   -0.23479E-01  3134   0.137E+00
RMM:   3    -0.304293188378E+02    0.70113E-04   -0.15362E-04  3337   0.326E-02
RMM:   4    -0.304293199838E+02   -0.11460E-05    0.67956E-07  3420   0.681E-04
RMM:   5    -0.304293200558E+02   -0.72008E-07    0.18544E-08  3082   0.182E-05
 Linear response G [H, r] |phi>, progress :
  Direction:   2
       N       E                     dE             d eps       ncg     rms
RMM:   1    -0.304882465450E+02   -0.30488E+02    0.17533E+01  4833   0.156E+01
RMM:   2    -0.301934692212E+02    0.29478E+00   -0.24597E-01  3142   0.142E+00
RMM:   3    -0.301934090242E+02    0.60197E-04   -0.14660E-04  3347   0.331E-02
RMM:   4    -0.301934101393E+02   -0.11151E-05    0.68224E-07  3430   0.657E-04
RMM:   5    -0.301934102112E+02   -0.71833E-07    0.19088E-08  3077   0.168E-05
 Linear response G [H, r] |phi>, progress :
  Direction:   3
       N       E                     dE             d eps       ncg     rms
RMM:   1    -0.274971128872E+02   -0.27497E+02    0.55558E+01  4665   0.154E+01
RMM:   2    -0.257649163152E+02    0.17322E+01   -0.16629E-01  3102   0.114E+00
RMM:   3    -0.257648425369E+02    0.73778E-04   -0.11862E-04  3300   0.263E-02
RMM:   4    -0.257648426673E+02   -0.13039E-06   -0.37077E-08  3287   0.559E-04
RMM:   5    -0.257648426680E+02   -0.64936E-09    0.50741E-11  2949   0.166E-05
 Linear response to external field (no local field effect), progress :
  Direction:   1
       N       E                     dE             d eps       ncg     rms          rms(c)
RMM:   1    -0.134093974503E+00   -0.13409E+00   -0.42441E-01  4991   0.557E-01
RMM:   2    -0.134647705268E+00   -0.55373E-03   -0.42469E-04  3041   0.496E-02
RMM:   3    -0.134647981753E+00   -0.27649E-06   -0.22338E-07  3168   0.113E-03
RMM:   4    -0.134647981578E+00    0.17571E-09   -0.98576E-11  2914   0.276E-05
 Linear response to external field (no local field effect), progress :
  Direction:   2
       N       E                     dE             d eps       ncg     rms          rms(c)
RMM:   1    -0.134616491784E+00   -0.13462E+00   -0.43167E-01  4984   0.555E-01
RMM:   2    -0.135358092038E+00   -0.74160E-03   -0.41137E-04  3064   0.485E-02
RMM:   3    -0.135358479694E+00   -0.38766E-06   -0.19807E-07  3191   0.110E-03
RMM:   4    -0.135358479588E+00    0.10642E-09   -0.83865E-11  2916   0.255E-05
 Linear response to external field (no local field effect), progress :
  Direction:   3
       N       E                     dE             d eps       ncg     rms          rms(c)
RMM:   1    -0.833649669384E-01   -0.83365E-01   -0.22000E-01  4828   0.430E-01
RMM:   2    -0.840373485667E-01   -0.67238E-03   -0.24842E-04  3041   0.365E-02
RMM:   3    -0.840373614919E-01   -0.12925E-07   -0.14546E-07  3111   0.845E-04
RMM:   4    -0.840373613181E-01    0.17385E-09   -0.56020E-11  2773   0.219E-05
 Linear response to external field, progress :
  Direction:   1
       N       E                     dE             d eps       ncg     rms          rms(c)
RMM:   1    -0.117512978916E+00   -0.11751E+00   -0.36023E-01  9976   0.512E-01
RMM:   2    -0.118014433575E+00   -0.50145E-03   -0.35616E-04  6206   0.446E-02    0.537E-01
RMM:   3    -0.117261022091E+00    0.75341E-03   -0.43659E-04  6446   0.677E-02    0.327E-01
RMM:   4    -0.125465138582E+00   -0.82041E-02   -0.91550E-04  6260   0.104E-01    0.330E-02
RMM:   5    -0.126351867578E+00   -0.88673E-03   -0.10689E-05  6721   0.125E-02    0.692E-03
RMM:   6    -0.126436956259E+00   -0.85089E-04   -0.20525E-07  6659   0.151E-03    0.279E-03
RMM:   7    -0.126493481281E+00   -0.56525E-04   -0.12067E-07  6646   0.111E-03    0.139E-04
RMM:   8    -0.126495134804E+00   -0.16535E-05   -0.35600E-10  5978   0.683E-05    0.345E-05
RMM:   9    -0.126495275482E+00   -0.14068E-06   -0.10564E-11  4698   0.208E-05    0.558E-06
 Linear response to external field, progress :
  Direction:   2
       N       E                     dE             d eps       ncg     rms          rms(c)
RMM:   1    -0.117280402058E+00   -0.11728E+00   -0.35791E-01 10007   0.515E-01
RMM:   2    -0.118014348610E+00   -0.73395E-03   -0.36418E-04  6211   0.450E-02    0.537E-01
RMM:   3    -0.117265838457E+00    0.74851E-03   -0.43665E-04  6441   0.677E-02    0.327E-01
RMM:   4    -0.125465136928E+00   -0.81993E-02   -0.91575E-04  6264   0.104E-01    0.330E-02
RMM:   5    -0.126350993165E+00   -0.88586E-03   -0.10672E-05  6722   0.125E-02    0.692E-03
RMM:   6    -0.126437291699E+00   -0.86299E-04   -0.20793E-07  6676   0.152E-03    0.279E-03
RMM:   7    -0.126493508622E+00   -0.56217E-04   -0.11989E-07  6662   0.110E-03    0.139E-04
RMM:   8    -0.126495196470E+00   -0.16878E-05   -0.37193E-10  6006   0.697E-05    0.328E-05
RMM:   9    -0.126495294092E+00   -0.97621E-07   -0.63838E-12  4579   0.196E-05    0.558E-06
 Linear response to external field, progress :
  Direction:   3
       N       E                     dE             d eps       ncg     rms          rms(c)
RMM:   1    -0.117282072354E+00   -0.11728E+00   -0.35792E-01  9987   0.515E-01
RMM:   2    -0.118014373499E+00   -0.73230E-03   -0.36413E-04  6207   0.450E-02    0.537E-01
RMM:   3    -0.117268032773E+00    0.74634E-03   -0.43659E-04  6443   0.677E-02    0.327E-01
RMM:   4    -0.125465427756E+00   -0.81974E-02   -0.91573E-04  6264   0.104E-01    0.330E-02
RMM:   5    -0.126350846988E+00   -0.88542E-03   -0.10668E-05  6716   0.125E-02    0.692E-03
RMM:   6    -0.126437709663E+00   -0.86863E-04   -0.20914E-07  6683   0.153E-03    0.278E-03
RMM:   7    -0.126493785257E+00   -0.56076E-04   -0.11952E-07  6664   0.110E-03    0.139E-04
RMM:   8    -0.126495473970E+00   -0.16887E-05   -0.37138E-10  6022   0.697E-05    0.328E-05
RMM:   9    -0.126495567855E+00   -0.93885E-07   -0.63674E-12  4610   0.196E-05    0.558E-06
 Linear response DOF=           2
 Linear response progress:
  Degree of freedom:   1/  2
       N       E                     dE             d eps       ncg     rms          rms(c)
RMM:   1    -0.184412866806E-02   -0.18441E-02   -0.10949E-05  9466   0.156E-01
RMM:   2    -0.179449412540E-02    0.49635E-04   -0.53305E-05  6204   0.171E-02    0.320E-02
RMM:   3    -0.177504858779E-02    0.19446E-04   -0.41551E-06  6745   0.625E-03    0.170E-02
RMM:   4    -0.177859130369E-02   -0.35427E-05   -0.43422E-06  6614   0.663E-03    0.323E-03
RMM:   5    -0.178018855501E-02   -0.15973E-05   -0.18484E-07  6767   0.144E-03    0.350E-04
RMM:   6    -0.178022372390E-02   -0.35169E-07   -0.18983E-09  6829   0.141E-04    0.159E-04
 Linear response progress:
  Degree of freedom:   2/  2
       N       E                     dE             d eps       ncg     rms          rms(c)
RMM:   1    -0.355004373474E+00   -0.35500E+00    0.41050E-01  6073   0.134E+00
RMM:   2    -0.356035306178E+00   -0.10309E-02   -0.47380E-04  6493   0.623E-02    0.129E-01
RMM:   3    -0.357612259274E+00   -0.15770E-02   -0.10810E-04  6920   0.325E-02    0.704E-02
RMM:   4    -0.359950933157E+00   -0.23387E-02   -0.12160E-04  6412   0.350E-02    0.203E-02
RMM:   5    -0.360004867105E+00   -0.53934E-04   -0.23634E-06  7167   0.619E-03    0.179E-03
RMM:   6    -0.359996448606E+00    0.84185E-05   -0.18148E-08  7497   0.487E-04    0.969E-04
RMM:   7    -0.359986028219E+00    0.10420E-04   -0.11016E-08  7137   0.362E-04    0.464E-05
RMM:   8    -0.359986091444E+00   -0.63224E-07   -0.11402E-11  7587   0.131E-05    0.224E-05
 Linear response finished
