 vasp.5.4.4.18Apr17-6-g9f103f2a35 (build Apr 25 2017 10:43:04) complex          
  
 executed on             LinuxIFC date 2018.03.16  09:19:43
 running on   32 total cores
 distrk:  each k-point on   32 cores,    1 groups
 distr:  one band on NCORES_PER_BAND=   1 cores,   32 groups


--------------------------------------------------------------------------------------------------------


 INCAR:
 POTCAR:    PAW_PBE Mg 13Apr2007                  
 POTCAR:    PAW_PBE O 08Apr2002                   

 ----------------------------------------------------------------------------- 
|                                                                             |
|           W    W    AA    RRRRR   N    N  II  N    N   GGGG   !!!           |
|           W    W   A  A   R    R  NN   N  II  NN   N  G    G  !!!           |
|           W    W  A    A  R    R  N N  N  II  N N  N  G       !!!           |
|           W WW W  AAAAAA  RRRRR   N  N N  II  N  N N  G  GGG   !            |
|           WW  WW  A    A  R   R   N   NN  II  N   NN  G    G                |
|           W    W  A    A  R    R  N    N  II  N    N   GGGG   !!!           |
|                                                                             |
|      For optimal performance we recommend to set                            |
|        NCORE= 4 - approx SQRT( number of cores)                             |
|      NCORE specifies how many cores store one orbital (NPAR=cpu/NCORE).     |
|      This setting can  greatly improve the performance of VASP for DFT.     |
|      The default,   NCORE=1            might be grossly inefficient         |
|      on modern multi-core architectures or massively parallel machines.     |
|      Do your own testing !!!!                                               |
|      Unfortunately you need to use the default for GW and RPA calculations. |
|      (for HF NCORE is supported but not extensively tested yet)             |
|                                                                             |
 ----------------------------------------------------------------------------- 

 POTCAR:    PAW_PBE Mg 13Apr2007                  
   VRHFIN =Mg: s2p0                                                             
   LEXCH  = PE                                                                  
   EATOM  =    23.0369 eV,    1.6932 Ry                                         
                                                                                
   TITEL  = PAW_PBE Mg 13Apr2007                                                
   LULTRA =        F    use ultrasoft PP ?                                      
   IUNSCR =        1    unscreen: 0-lin 1-nonlin 2-no                           
   RPACOR =    1.500    partial core radius                                     
   POMASS =   24.305; ZVAL   =    2.000    mass and valenz                      
   RCORE  =    2.000    outmost cutoff radius                                   
   RWIGS  =    2.880; RWIGS  =    1.524    wigner-seitz radius (au A)           
   ENMAX  =  126.143; ENMIN  =   94.607 eV                                      
   RCLOC  =    1.506    cutoff for local pot                                    
   LCOR   =        T    correct aug charges                                     
   LPAW   =        T    paw PP                                                  
   EAUG   =  454.734                                                            
   DEXC   =    0.000                                                            
   RMAX   =    2.045    core radius for proj-oper                               
   RAUG   =    1.300    factor for augmentation sphere                          
   RDEP   =    2.025    radius for radial grids                                 
   RDEPT  =    1.942    core radius for aug-charge                              
                                                                                
   Atomic configuration                                                         
    6 entries                                                                   
     n  l   j            E        occ.                                          
     1  0  0.50     -1259.6230   2.0000                                         
     2  0  0.50       -79.8442   2.0000                                         
     2  1  1.50       -46.6121   6.0000                                         
     3  0  0.50        -4.7055   2.0000                                         
     3  1  0.50        -1.3660   0.0000                                         
     3  2  1.50        -1.3606   0.0000                                         
   Description                                                                  
     l       E           TYP  RCUT    TYP  RCUT                                 
     0     -4.7054661     23  2.000                                             
     0     27.2116520     23  2.000                                             
     1      1.3605826     23  2.000                                             
     1     27.2116520     23  2.000                                             
     2     -1.3605826     23  2.000                                             
  local pseudopotential read in
  partial core-charges read in
  partial kinetic energy density read in
  atomic valenz-charges read in
  non local Contribution for L=           0  read in
    real space projection operators read in
  non local Contribution for L=           0  read in
    real space projection operators read in
  non local Contribution for L=           1  read in
    real space projection operators read in
  non local Contribution for L=           1  read in
    real space projection operators read in
  non local Contribution for L=           2  read in
    real space projection operators read in
    PAW grid and wavefunctions read in
 
   number of l-projection  operators is LMAX  =           5
   number of lm-projection operators is LMMAX =          13
 
 POTCAR:    PAW_PBE O 08Apr2002                   
   VRHFIN =O: s2p4                                                              
   LEXCH  = PE                                                                  
   EATOM  =   432.3788 eV,   31.7789 Ry                                         
                                                                                
   TITEL  = PAW_PBE O 08Apr2002                                                 
   LULTRA =        F    use ultrasoft PP ?                                      
   IUNSCR =        1    unscreen: 0-lin 1-nonlin 2-no                           
   RPACOR =    1.200    partial core radius                                     
   POMASS =   16.000; ZVAL   =    6.000    mass and valenz                      
   RCORE  =    1.520    outmost cutoff radius                                   
   RWIGS  =    1.550; RWIGS  =    0.820    wigner-seitz radius (au A)           
   ENMAX  =  400.000; ENMIN  =  300.000 eV                                      
   ICORE  =        2    local potential                                         
   LCOR   =        T    correct aug charges                                     
   LPAW   =        T    paw PP                                                  
   EAUG   =  605.392                                                            
   DEXC   =    0.000                                                            
   RMAX   =    1.553    core radius for proj-oper                               
   RAUG   =    1.300    factor for augmentation sphere                          
   RDEP   =    1.550    radius for radial grids                                 
   RDEPT  =    1.329    core radius for aug-charge                              
                                                                                
   Atomic configuration                                                         
    4 entries                                                                   
     n  l   j            E        occ.                                          
     1  0  0.50      -514.6923   2.0000                                         
     2  0  0.50       -23.9615   2.0000                                         
     2  1  0.50        -9.0305   4.0000                                         
     3  2  1.50        -9.5241   0.0000                                         
   Description                                                                  
     l       E           TYP  RCUT    TYP  RCUT                                 
     0    -23.9615318     23  1.200                                             
     0     -9.5240782     23  1.200                                             
     1     -9.0304911     23  1.520                                             
     1      8.1634956     23  1.520                                             
     2     -9.5240782      7  1.500                                             
  local pseudopotential read in
  partial core-charges read in
  partial kinetic energy density read in
  kinetic energy density of atom read in
  atomic valenz-charges read in
  non local Contribution for L=           0  read in
    real space projection operators read in
  non local Contribution for L=           0  read in
    real space projection operators read in
  non local Contribution for L=           1  read in
    real space projection operators read in
  non local Contribution for L=           1  read in
    real space projection operators read in
    PAW grid and wavefunctions read in
 
   number of l-projection  operators is LMAX  =           4
   number of lm-projection operators is LMMAX =           8
 

 ----------------------------------------------------------------------------- 
|                                                                             |
|  ADVICE TO THIS USER RUNNING 'VASP/VAMP'   (HEAR YOUR MASTER'S VOICE ...):  |
|                                                                             |
|      You have a (more or less) 'small supercell' and for smaller cells      |
|      it is recommended  to use the reciprocal-space projection scheme!      |
|      The real space optimization is not  efficient for small cells and it   |
|      is also less accurate ...                                              |
|      Therefore set LREAL=.FALSE. in the  INCAR file                         |
|                                                                             |
 ----------------------------------------------------------------------------- 

 Optimization of the real space projectors (new method)

 maximal supplied QI-value         = 18.90
 optimisation between [QCUT,QGAM] = [ 11.91, 24.00] = [ 39.69,161.29] Ry 
 Optimized for a Real-space Cutoff    1.14 Angstroem

   l    n(q)    QCUT    max X(q) W(low)/X(q) W(high)/X(q)  e(spline) 
   0      8    11.905    28.265    0.28E-03    0.13E-03    0.89E-07
   0      8    11.905    10.429    0.22E-03    0.11E-03    0.68E-07
   1      8    11.905    13.073    0.12E-03    0.57E-03    0.14E-06
   1      8    11.905     9.625    0.86E-04    0.46E-03    0.12E-06
   2      7    11.905     4.652    0.35E-03    0.64E-03    0.71E-07
 Optimization of the real space projectors (new method)

 maximal supplied QI-value         = 24.76
 optimisation between [QCUT,QGAM] = [ 11.88, 24.01] = [ 39.54,161.47] Ry 
 Optimized for a Real-space Cutoff    1.05 Angstroem

   l    n(q)    QCUT    max X(q) W(low)/X(q) W(high)/X(q)  e(spline) 
   0      7    11.883    20.381    0.32E-03    0.21E-03    0.20E-06
   0      7    11.883    15.268    0.35E-03    0.22E-03    0.22E-06
   1      7    11.883     5.964    0.44E-03    0.69E-04    0.24E-06
   1      7    11.883     5.382    0.38E-03    0.34E-04    0.20E-06
  PAW_PBE Mg 13Apr2007                  :
 energy of atom  1       EATOM=  -23.0369
 kinetic energy error for atom=    0.0000 (will be added to EATOM!!)
  PAW_PBE O 08Apr2002                   :
 energy of atom  2       EATOM= -432.3788
 kinetic energy error for atom=    0.0194 (will be added to EATOM!!)
 
 
 POSCAR: Mg O                                    
  positions in direct lattice
  velocities in cartesian coordinates
 exchange correlation table for  LEXCH =        8
   RHO(1)=    0.500       N(1)  =     2000
   RHO(2)=  100.500       N(2)  =     4000
 


--------------------------------------------------------------------------------------------------------


 ion  position               nearest neighbor table
   1  0.000  0.000  0.000-   2 2.12   2 2.12   2 2.12   2 2.12   2 2.12   2 2.12
   2  0.500  0.500  0.500-   1 2.12   1 2.12   1 2.12   1 2.12   1 2.12   1 2.12
 
  LATTYP: Found a face centered cubic cell.
 ALAT       =     4.2468930196
  
  Lattice vectors:
  
 A1 = (   0.0000000000,   2.1234465098,   2.1234465098)
 A2 = (   2.1234465098,   0.0000000000,   2.1234465098)
 A3 = (   2.1234465098,   2.1234465098,   0.0000000000)


Analysis of symmetry for initial positions (statically):
=====================================================================
 Subroutine PRICEL returns:
 Original cell was already a primitive cell.
 

 Routine SETGRP: Setting up the symmetry group for a 
 face centered cubic supercell.


 Subroutine GETGRP returns: Found 48 space group operations
 (whereof 48 operations were pure point group operations)
 out of a pool of 48 trial point group operations.


The static configuration has the point symmetry O_h .


Analysis of symmetry for dynamics (positions and initial velocities):
=====================================================================
 Subroutine PRICEL returns:
 Original cell was already a primitive cell.
 

 Routine SETGRP: Setting up the symmetry group for a 
 face centered cubic supercell.


 Subroutine GETGRP returns: Found 48 space group operations
 (whereof 48 operations were pure point group operations)
 out of a pool of 48 trial point group operations.


The dynamic configuration has the point symmetry O_h .


 Subroutine INISYM returns: Found 48 space group operations
 (whereof 48 operations are pure point group operations),
 and found     1 'primitive' translations

 
 
 KPOINTS: k-point mesh generated by kpt_generator.

Automatic generation of k-mesh.
Space group operators:
 irot       det(A)        alpha          n_x          n_y          n_z        tau_x        tau_y        tau_z
    1     1.000000     0.000000     1.000000     0.000000     0.000000     0.000000     0.000000     0.000000
    2    -1.000000     0.000000     1.000000     0.000000     0.000000     0.000000     0.000000     0.000000
    3     1.000000   120.000000    -0.577350    -0.577350    -0.577350     0.000000     0.000000     0.000000
    4    -1.000000   120.000000    -0.577350    -0.577350    -0.577350     0.000000     0.000000     0.000000
    5     1.000000   120.000000     0.577350     0.577350     0.577350     0.000000     0.000000     0.000000
    6    -1.000000   120.000000     0.577350     0.577350     0.577350     0.000000     0.000000     0.000000
    7     1.000000    90.000000     0.000000     0.000000    -1.000000     0.000000     0.000000     0.000000
    8    -1.000000    90.000000     0.000000     0.000000    -1.000000     0.000000     0.000000     0.000000
    9     1.000000   180.000000     0.000000     0.707107     0.707107     0.000000     0.000000     0.000000
   10    -1.000000   180.000000     0.000000     0.707107     0.707107     0.000000     0.000000     0.000000
   11     1.000000    90.000000     0.000000     1.000000     0.000000     0.000000     0.000000     0.000000
   12    -1.000000    90.000000     0.000000     1.000000     0.000000     0.000000     0.000000     0.000000
   13     1.000000   180.000000     0.000000     0.000000     1.000000     0.000000     0.000000     0.000000
   14    -1.000000   180.000000     0.000000     0.000000     1.000000     0.000000     0.000000     0.000000
   15     1.000000   120.000000    -0.577350     0.577350     0.577350     0.000000     0.000000     0.000000
   16    -1.000000   120.000000    -0.577350     0.577350     0.577350     0.000000     0.000000     0.000000
   17     1.000000   120.000000    -0.577350     0.577350    -0.577350     0.000000     0.000000     0.000000
   18    -1.000000   120.000000    -0.577350     0.577350    -0.577350     0.000000     0.000000     0.000000
   19     1.000000    90.000000     0.000000     0.000000     1.000000     0.000000     0.000000     0.000000
   20    -1.000000    90.000000     0.000000     0.000000     1.000000     0.000000     0.000000     0.000000
   21     1.000000    90.000000    -1.000000     0.000000     0.000000     0.000000     0.000000     0.000000
   22    -1.000000    90.000000    -1.000000     0.000000     0.000000     0.000000     0.000000     0.000000
   23     1.000000   180.000000     0.707107     0.000000     0.707107     0.000000     0.000000     0.000000
   24    -1.000000   180.000000     0.707107     0.000000     0.707107     0.000000     0.000000     0.000000
   25     1.000000   120.000000     0.577350    -0.577350     0.577350     0.000000     0.000000     0.000000
   26    -1.000000   120.000000     0.577350    -0.577350     0.577350     0.000000     0.000000     0.000000
   27     1.000000   120.000000    -0.577350    -0.577350     0.577350     0.000000     0.000000     0.000000
   28    -1.000000   120.000000    -0.577350    -0.577350     0.577350     0.000000     0.000000     0.000000
   29     1.000000   180.000000     1.000000     0.000000     0.000000     0.000000     0.000000     0.000000
   30    -1.000000   180.000000     1.000000     0.000000     0.000000     0.000000     0.000000     0.000000
   31     1.000000    90.000000     0.000000    -1.000000     0.000000     0.000000     0.000000     0.000000
   32    -1.000000    90.000000     0.000000    -1.000000     0.000000     0.000000     0.000000     0.000000
   33     1.000000   180.000000     0.707107     0.707107     0.000000     0.000000     0.000000     0.000000
   34    -1.000000   180.000000     0.707107     0.707107     0.000000     0.000000     0.000000     0.000000
   35     1.000000    90.000000     1.000000     0.000000     0.000000     0.000000     0.000000     0.000000
   36    -1.000000    90.000000     1.000000     0.000000     0.000000     0.000000     0.000000     0.000000
   37     1.000000   120.000000     0.577350    -0.577350    -0.577350     0.000000     0.000000     0.000000
   38    -1.000000   120.000000     0.577350    -0.577350    -0.577350     0.000000     0.000000     0.000000
   39     1.000000   180.000000     0.000000     1.000000     0.000000     0.000000     0.000000     0.000000
   40    -1.000000   180.000000     0.000000     1.000000     0.000000     0.000000     0.000000     0.000000
   41     1.000000   120.000000     0.577350     0.577350    -0.577350     0.000000     0.000000     0.000000
   42    -1.000000   120.000000     0.577350     0.577350    -0.577350     0.000000     0.000000     0.000000
   43     1.000000   180.000000     0.000000    -0.707107     0.707107     0.000000     0.000000     0.000000
   44    -1.000000   180.000000     0.000000    -0.707107     0.707107     0.000000     0.000000     0.000000
   45     1.000000   180.000000     0.707107    -0.707107     0.000000     0.000000     0.000000     0.000000
   46    -1.000000   180.000000     0.707107    -0.707107     0.000000     0.000000     0.000000     0.000000
   47     1.000000   180.000000     0.707107     0.000000    -0.707107     0.000000     0.000000     0.000000
   48    -1.000000   180.000000     0.707107     0.000000    -0.707107     0.000000     0.000000     0.000000
 
 Subroutine IBZKPT returns following result:
 ===========================================
 
 Found     29 irreducible k-points:
 
 Following reciprocal coordinates:
            Coordinates               Weight
  0.000000  0.000000  0.000000      1.000000
  0.125000  0.000000  0.000000      8.000000
  0.250000  0.000000  0.000000      8.000000
  0.375000  0.000000  0.000000      8.000000
  0.500000  0.000000  0.000000      4.000000
  0.125000  0.125000  0.000000      6.000000
  0.250000  0.125000  0.000000     24.000000
  0.375000  0.125000  0.000000     24.000000
  0.500000  0.125000  0.000000     24.000000
 -0.375000  0.125000  0.000000     24.000000
 -0.250000  0.125000  0.000000     24.000000
 -0.125000  0.125000  0.000000     12.000000
  0.250000  0.250000  0.000000      6.000000
  0.375000  0.250000  0.000000     24.000000
  0.500000  0.250000  0.000000     24.000000
 -0.375000  0.250000  0.000000     24.000000
 -0.250000  0.250000  0.000000     12.000000
  0.375000  0.375000  0.000000      6.000000
  0.500000  0.375000  0.000000     24.000000
 -0.375000  0.375000  0.000000     12.000000
  0.500000  0.500000  0.000000      3.000000
  0.375000  0.250000  0.125000     24.000000
  0.500000  0.250000  0.125000     48.000000
 -0.375000  0.250000  0.125000     24.000000
  0.500000  0.375000  0.125000     24.000000
 -0.375000  0.375000  0.125000     48.000000
 -0.250000  0.375000  0.125000     24.000000
 -0.375000  0.500000  0.125000     12.000000
 -0.250000  0.500000  0.250000      6.000000
 
 Following cartesian coordinates:
            Coordinates               Weight
  0.000000  0.000000  0.000000      1.000000
 -0.029433  0.029433  0.029433      8.000000
 -0.058867  0.058867  0.058867      8.000000
 -0.088300  0.088300  0.088300      8.000000
 -0.117733  0.117733  0.117733      4.000000
  0.000000  0.000000  0.058867      6.000000
 -0.029433  0.029433  0.088300     24.000000
 -0.058867  0.058867  0.117733     24.000000
 -0.088300  0.088300  0.147166     24.000000
  0.117733 -0.117733 -0.058867     24.000000
  0.088300 -0.088300 -0.029433     24.000000
  0.058867 -0.058867  0.000000     12.000000
  0.000000  0.000000  0.117733      6.000000
 -0.029433  0.029433  0.147166     24.000000
 -0.058867  0.058867  0.176600     24.000000
  0.147166 -0.147166 -0.029433     24.000000
  0.117733 -0.117733  0.000000     12.000000
  0.000000  0.000000  0.176600      6.000000
 -0.029433  0.029433  0.206033     24.000000
  0.176600 -0.176600  0.000000     12.000000
  0.000000  0.000000  0.235466      3.000000
 -0.000000  0.058867  0.117733     24.000000
 -0.029433  0.088300  0.147166     48.000000
  0.176600 -0.117733 -0.058867     24.000000
  0.000000  0.058867  0.176600     24.000000
  0.206033 -0.147166 -0.029433     48.000000
  0.176600 -0.117733  0.000000     24.000000
  0.235466 -0.176600  0.000000     12.000000
  0.235466 -0.117733  0.000000      6.000000
 
 
 Subroutine IBZKPT_HF returns following result:
 ==============================================
 
 Found    512 k-points in 1st BZ
 the following    512 k-points will be used (e.g. in the exchange kernel)
 Following reciprocal coordinates:   # in IRBZ
  0.000000  0.000000  0.000000    0.00195312   1 t-inv F
  0.125000  0.000000  0.000000    0.00195312   2 t-inv F
  0.250000  0.000000  0.000000    0.00195312   3 t-inv F
  0.375000  0.000000  0.000000    0.00195312   4 t-inv F
  0.500000  0.000000  0.000000    0.00195312   5 t-inv F
  0.125000  0.125000  0.000000    0.00195312   6 t-inv F
  0.250000  0.125000  0.000000    0.00195312   7 t-inv F
  0.375000  0.125000  0.000000    0.00195312   8 t-inv F
  0.500000  0.125000  0.000000    0.00195312   9 t-inv F
 -0.375000  0.125000  0.000000    0.00195312  10 t-inv F
 -0.250000  0.125000  0.000000    0.00195312  11 t-inv F
 -0.125000  0.125000  0.000000    0.00195312  12 t-inv F
  0.250000  0.250000  0.000000    0.00195312  13 t-inv F
  0.375000  0.250000  0.000000    0.00195312  14 t-inv F
  0.500000  0.250000  0.000000    0.00195312  15 t-inv F
 -0.375000  0.250000  0.000000    0.00195312  16 t-inv F
 -0.250000  0.250000  0.000000    0.00195312  17 t-inv F
  0.375000  0.375000  0.000000    0.00195312  18 t-inv F
  0.500000  0.375000  0.000000    0.00195312  19 t-inv F
 -0.375000  0.375000  0.000000    0.00195312  20 t-inv F
  0.500000  0.500000  0.000000    0.00195312  21 t-inv F
  0.375000  0.250000  0.125000    0.00195312  22 t-inv F
  0.500000  0.250000  0.125000    0.00195312  23 t-inv F
 -0.375000  0.250000  0.125000    0.00195312  24 t-inv F
  0.500000  0.375000  0.125000    0.00195312  25 t-inv F
 -0.375000  0.375000  0.125000    0.00195312  26 t-inv F
 -0.250000  0.375000  0.125000    0.00195312  27 t-inv F
 -0.375000  0.500000  0.125000    0.00195312  28 t-inv F
 -0.250000  0.500000  0.250000    0.00195312  29 t-inv F
 -0.125000  0.000000  0.000000    0.00195312   2 t-inv F
  0.000000  0.125000  0.000000    0.00195312   2 t-inv F
  0.000000 -0.125000  0.000000    0.00195312   2 t-inv F
  0.000000  0.000000  0.125000    0.00195312   2 t-inv F
  0.000000  0.000000 -0.125000    0.00195312   2 t-inv F
  0.125000  0.125000  0.125000    0.00195312   2 t-inv F
 -0.125000 -0.125000 -0.125000    0.00195312   2 t-inv F
 -0.250000  0.000000  0.000000    0.00195312   3 t-inv F
  0.000000  0.250000  0.000000    0.00195312   3 t-inv F
  0.000000 -0.250000  0.000000    0.00195312   3 t-inv F
  0.000000  0.000000  0.250000    0.00195312   3 t-inv F
  0.000000  0.000000 -0.250000    0.00195312   3 t-inv F
  0.250000  0.250000  0.250000    0.00195312   3 t-inv F
 -0.250000 -0.250000 -0.250000    0.00195312   3 t-inv F
 -0.375000  0.000000  0.000000    0.00195312   4 t-inv F
  0.000000  0.375000  0.000000    0.00195312   4 t-inv F
  0.000000 -0.375000  0.000000    0.00195312   4 t-inv F
  0.000000  0.000000  0.375000    0.00195312   4 t-inv F
  0.000000  0.000000 -0.375000    0.00195312   4 t-inv F
  0.375000  0.375000  0.375000    0.00195312   4 t-inv F
 -0.375000 -0.375000 -0.375000    0.00195312   4 t-inv F
  0.000000  0.500000  0.000000    0.00195312   5 t-inv F
  0.000000  0.000000  0.500000    0.00195312   5 t-inv F
  0.500000  0.500000  0.500000    0.00195312   5 t-inv F
 -0.125000 -0.125000  0.000000    0.00195312   6 t-inv F
  0.000000  0.125000  0.125000    0.00195312   6 t-inv F
  0.000000 -0.125000 -0.125000    0.00195312   6 t-inv F
  0.125000  0.000000  0.125000    0.00195312   6 t-inv F
 -0.125000  0.000000 -0.125000    0.00195312   6 t-inv F
 -0.250000 -0.125000  0.000000    0.00195312   7 t-inv F
  0.000000  0.250000  0.125000    0.00195312   7 t-inv F
  0.000000 -0.250000 -0.125000    0.00195312   7 t-inv F
  0.125000  0.000000  0.250000    0.00195312   7 t-inv F
 -0.125000  0.000000 -0.250000    0.00195312   7 t-inv F
  0.125000  0.125000 -0.125000    0.00195312   7 t-inv F
 -0.125000 -0.125000  0.125000    0.00195312   7 t-inv F
  0.250000  0.125000  0.250000    0.00195312   7 t-inv F
 -0.250000 -0.125000 -0.250000    0.00195312   7 t-inv F
  0.125000  0.250000  0.000000    0.00195312   7 t-inv F
 -0.125000 -0.250000  0.000000    0.00195312   7 t-inv F
  0.125000 -0.125000 -0.125000    0.00195312   7 t-inv F
 -0.125000  0.125000  0.125000    0.00195312   7 t-inv F
  0.250000  0.250000  0.125000    0.00195312   7 t-inv F
 -0.250000 -0.250000 -0.125000    0.00195312   7 t-inv F
  0.000000  0.125000  0.250000    0.00195312   7 t-inv F
  0.000000 -0.125000 -0.250000    0.00195312   7 t-inv F
 -0.125000  0.125000 -0.125000    0.00195312   7 t-inv F
  0.125000 -0.125000  0.125000    0.00195312   7 t-inv F
  0.125000  0.250000  0.250000    0.00195312   7 t-inv F
 -0.125000 -0.250000 -0.250000    0.00195312   7 t-inv F
  0.250000  0.000000  0.125000    0.00195312   7 t-inv F
 -0.250000  0.000000 -0.125000    0.00195312   7 t-inv F
 -0.375000 -0.125000  0.000000    0.00195312   8 t-inv F
  0.000000  0.375000  0.125000    0.00195312   8 t-inv F
  0.000000 -0.375000 -0.125000    0.00195312   8 t-inv F
  0.125000  0.000000  0.375000    0.00195312   8 t-inv F
 -0.125000  0.000000 -0.375000    0.00195312   8 t-inv F
  0.125000  0.125000 -0.250000    0.00195312   8 t-inv F
 -0.125000 -0.125000  0.250000    0.00195312   8 t-inv F
  0.375000  0.250000  0.375000    0.00195312   8 t-inv F
 -0.375000 -0.250000 -0.375000    0.00195312   8 t-inv F
  0.125000  0.375000  0.000000    0.00195312   8 t-inv F
 -0.125000 -0.375000  0.000000    0.00195312   8 t-inv F
  0.250000 -0.125000 -0.125000    0.00195312   8 t-inv F
 -0.250000  0.125000  0.125000    0.00195312   8 t-inv F
  0.375000  0.375000  0.250000    0.00195312   8 t-inv F
 -0.375000 -0.375000 -0.250000    0.00195312   8 t-inv F
  0.000000  0.125000  0.375000    0.00195312   8 t-inv F
  0.000000 -0.125000 -0.375000    0.00195312   8 t-inv F
 -0.125000  0.250000 -0.125000    0.00195312   8 t-inv F
  0.125000 -0.250000  0.125000    0.00195312   8 t-inv F
  0.250000  0.375000  0.375000    0.00195312   8 t-inv F
 -0.250000 -0.375000 -0.375000    0.00195312   8 t-inv F
  0.375000  0.000000  0.125000    0.00195312   8 t-inv F
 -0.375000  0.000000 -0.125000    0.00195312   8 t-inv F
 -0.500000 -0.125000  0.000000    0.00195312   9 t-inv F
  0.000000  0.500000  0.125000    0.00195312   9 t-inv F
  0.000000 -0.500000 -0.125000    0.00195312   9 t-inv F
  0.125000  0.000000  0.500000    0.00195312   9 t-inv F
 -0.125000  0.000000 -0.500000    0.00195312   9 t-inv F
  0.125000  0.125000 -0.375000    0.00195312   9 t-inv F
 -0.125000 -0.125000  0.375000    0.00195312   9 t-inv F
  0.500000  0.375000  0.500000    0.00195312   9 t-inv F
 -0.500000 -0.375000 -0.500000    0.00195312   9 t-inv F
  0.125000  0.500000  0.000000    0.00195312   9 t-inv F
 -0.125000 -0.500000  0.000000    0.00195312   9 t-inv F
  0.375000 -0.125000 -0.125000    0.00195312   9 t-inv F
 -0.375000  0.125000  0.125000    0.00195312   9 t-inv F
  0.500000  0.500000  0.375000    0.00195312   9 t-inv F
 -0.500000 -0.500000 -0.375000    0.00195312   9 t-inv F
  0.000000  0.125000  0.500000    0.00195312   9 t-inv F
  0.000000 -0.125000 -0.500000    0.00195312   9 t-inv F
 -0.125000  0.375000 -0.125000    0.00195312   9 t-inv F
  0.125000 -0.375000  0.125000    0.00195312   9 t-inv F
  0.375000  0.500000  0.500000    0.00195312   9 t-inv F
 -0.375000 -0.500000 -0.500000    0.00195312   9 t-inv F
  0.500000  0.000000  0.125000    0.00195312   9 t-inv F
 -0.500000  0.000000 -0.125000    0.00195312   9 t-inv F
  0.375000 -0.125000  0.000000    0.00195312  10 t-inv F
  0.000000 -0.375000  0.125000    0.00195312  10 t-inv F
  0.000000  0.375000 -0.125000    0.00195312  10 t-inv F
  0.125000  0.000000 -0.375000    0.00195312  10 t-inv F
 -0.125000  0.000000  0.375000    0.00195312  10 t-inv F
  0.125000  0.125000  0.500000    0.00195312  10 t-inv F
 -0.125000 -0.125000 -0.500000    0.00195312  10 t-inv F
 -0.375000 -0.500000 -0.375000    0.00195312  10 t-inv F
  0.375000  0.500000  0.375000    0.00195312  10 t-inv F
  0.125000 -0.375000  0.000000    0.00195312  10 t-inv F
 -0.125000  0.375000  0.000000    0.00195312  10 t-inv F
 -0.500000 -0.125000 -0.125000    0.00195312  10 t-inv F
  0.500000  0.125000  0.125000    0.00195312  10 t-inv F
 -0.375000 -0.375000 -0.500000    0.00195312  10 t-inv F
  0.375000  0.375000  0.500000    0.00195312  10 t-inv F
  0.000000  0.125000 -0.375000    0.00195312  10 t-inv F
  0.000000 -0.125000  0.375000    0.00195312  10 t-inv F
 -0.125000 -0.500000 -0.125000    0.00195312  10 t-inv F
  0.125000  0.500000  0.125000    0.00195312  10 t-inv F
 -0.500000 -0.375000 -0.375000    0.00195312  10 t-inv F
  0.500000  0.375000  0.375000    0.00195312  10 t-inv F
 -0.375000  0.000000  0.125000    0.00195312  10 t-inv F
  0.375000  0.000000 -0.125000    0.00195312  10 t-inv F
  0.250000 -0.125000  0.000000    0.00195312  11 t-inv F
  0.000000 -0.250000  0.125000    0.00195312  11 t-inv F
  0.000000  0.250000 -0.125000    0.00195312  11 t-inv F
  0.125000  0.000000 -0.250000    0.00195312  11 t-inv F
 -0.125000  0.000000  0.250000    0.00195312  11 t-inv F
  0.125000  0.125000  0.375000    0.00195312  11 t-inv F
 -0.125000 -0.125000 -0.375000    0.00195312  11 t-inv F
 -0.250000 -0.375000 -0.250000    0.00195312  11 t-inv F
  0.250000  0.375000  0.250000    0.00195312  11 t-inv F
  0.125000 -0.250000  0.000000    0.00195312  11 t-inv F
 -0.125000  0.250000  0.000000    0.00195312  11 t-inv F
 -0.375000 -0.125000 -0.125000    0.00195312  11 t-inv F
  0.375000  0.125000  0.125000    0.00195312  11 t-inv F
 -0.250000 -0.250000 -0.375000    0.00195312  11 t-inv F
  0.250000  0.250000  0.375000    0.00195312  11 t-inv F
  0.000000  0.125000 -0.250000    0.00195312  11 t-inv F
  0.000000 -0.125000  0.250000    0.00195312  11 t-inv F
 -0.125000 -0.375000 -0.125000    0.00195312  11 t-inv F
  0.125000  0.375000  0.125000    0.00195312  11 t-inv F
 -0.375000 -0.250000 -0.250000    0.00195312  11 t-inv F
  0.375000  0.250000  0.250000    0.00195312  11 t-inv F
 -0.250000  0.000000  0.125000    0.00195312  11 t-inv F
  0.250000  0.000000 -0.125000    0.00195312  11 t-inv F
  0.125000 -0.125000  0.000000    0.00195312  12 t-inv F
  0.000000 -0.125000  0.125000    0.00195312  12 t-inv F
  0.000000  0.125000 -0.125000    0.00195312  12 t-inv F
  0.125000  0.000000 -0.125000    0.00195312  12 t-inv F
 -0.125000  0.000000  0.125000    0.00195312  12 t-inv F
  0.125000  0.125000  0.250000    0.00195312  12 t-inv F
 -0.125000 -0.125000 -0.250000    0.00195312  12 t-inv F
 -0.125000 -0.250000 -0.125000    0.00195312  12 t-inv F
  0.125000  0.250000  0.125000    0.00195312  12 t-inv F
 -0.250000 -0.125000 -0.125000    0.00195312  12 t-inv F
  0.250000  0.125000  0.125000    0.00195312  12 t-inv F
 -0.250000 -0.250000  0.000000    0.00195312  13 t-inv F
  0.000000  0.250000  0.250000    0.00195312  13 t-inv F
  0.000000 -0.250000 -0.250000    0.00195312  13 t-inv F
  0.250000  0.000000  0.250000    0.00195312  13 t-inv F
 -0.250000  0.000000 -0.250000    0.00195312  13 t-inv F
 -0.375000 -0.250000  0.000000    0.00195312  14 t-inv F
  0.000000  0.375000  0.250000    0.00195312  14 t-inv F
  0.000000 -0.375000 -0.250000    0.00195312  14 t-inv F
  0.250000  0.000000  0.375000    0.00195312  14 t-inv F
 -0.250000  0.000000 -0.375000    0.00195312  14 t-inv F
  0.250000  0.250000 -0.125000    0.00195312  14 t-inv F
 -0.250000 -0.250000  0.125000    0.00195312  14 t-inv F
  0.375000  0.125000  0.375000    0.00195312  14 t-inv F
 -0.375000 -0.125000 -0.375000    0.00195312  14 t-inv F
  0.250000  0.375000  0.000000    0.00195312  14 t-inv F
 -0.250000 -0.375000  0.000000    0.00195312  14 t-inv F
  0.125000 -0.250000 -0.250000    0.00195312  14 t-inv F
 -0.125000  0.250000  0.250000    0.00195312  14 t-inv F
  0.375000  0.375000  0.125000    0.00195312  14 t-inv F
 -0.375000 -0.375000 -0.125000    0.00195312  14 t-inv F
  0.000000  0.250000  0.375000    0.00195312  14 t-inv F
  0.000000 -0.250000 -0.375000    0.00195312  14 t-inv F
 -0.250000  0.125000 -0.250000    0.00195312  14 t-inv F
  0.250000 -0.125000  0.250000    0.00195312  14 t-inv F
  0.125000  0.375000  0.375000    0.00195312  14 t-inv F
 -0.125000 -0.375000 -0.375000    0.00195312  14 t-inv F
  0.375000  0.000000  0.250000    0.00195312  14 t-inv F
 -0.375000  0.000000 -0.250000    0.00195312  14 t-inv F
 -0.500000 -0.250000  0.000000    0.00195312  15 t-inv F
  0.000000  0.500000  0.250000    0.00195312  15 t-inv F
  0.000000 -0.500000 -0.250000    0.00195312  15 t-inv F
  0.250000  0.000000  0.500000    0.00195312  15 t-inv F
 -0.250000  0.000000 -0.500000    0.00195312  15 t-inv F
  0.250000  0.250000 -0.250000    0.00195312  15 t-inv F
 -0.250000 -0.250000  0.250000    0.00195312  15 t-inv F
  0.500000  0.250000  0.500000    0.00195312  15 t-inv F
 -0.500000 -0.250000 -0.500000    0.00195312  15 t-inv F
  0.250000  0.500000  0.000000    0.00195312  15 t-inv F
 -0.250000 -0.500000  0.000000    0.00195312  15 t-inv F
  0.250000 -0.250000 -0.250000    0.00195312  15 t-inv F
 -0.250000  0.250000  0.250000    0.00195312  15 t-inv F
  0.500000  0.500000  0.250000    0.00195312  15 t-inv F
 -0.500000 -0.500000 -0.250000    0.00195312  15 t-inv F
  0.000000  0.250000  0.500000    0.00195312  15 t-inv F
  0.000000 -0.250000 -0.500000    0.00195312  15 t-inv F
 -0.250000  0.250000 -0.250000    0.00195312  15 t-inv F
  0.250000 -0.250000  0.250000    0.00195312  15 t-inv F
  0.250000  0.500000  0.500000    0.00195312  15 t-inv F
 -0.250000 -0.500000 -0.500000    0.00195312  15 t-inv F
  0.500000  0.000000  0.250000    0.00195312  15 t-inv F
 -0.500000  0.000000 -0.250000    0.00195312  15 t-inv F
  0.375000 -0.250000  0.000000    0.00195312  16 t-inv F
  0.000000 -0.375000  0.250000    0.00195312  16 t-inv F
  0.000000  0.375000 -0.250000    0.00195312  16 t-inv F
  0.250000  0.000000 -0.375000    0.00195312  16 t-inv F
 -0.250000  0.000000  0.375000    0.00195312  16 t-inv F
  0.250000  0.250000  0.625000    0.00195312  16 t-inv F
 -0.250000 -0.250000 -0.625000    0.00195312  16 t-inv F
 -0.375000 -0.625000 -0.375000    0.00195312  16 t-inv F
  0.375000  0.625000  0.375000    0.00195312  16 t-inv F
  0.250000 -0.375000  0.000000    0.00195312  16 t-inv F
 -0.250000  0.375000  0.000000    0.00195312  16 t-inv F
 -0.625000 -0.250000 -0.250000    0.00195312  16 t-inv F
  0.625000  0.250000  0.250000    0.00195312  16 t-inv F
 -0.375000 -0.375000 -0.625000    0.00195312  16 t-inv F
  0.375000  0.375000  0.625000    0.00195312  16 t-inv F
  0.000000  0.250000 -0.375000    0.00195312  16 t-inv F
  0.000000 -0.250000  0.375000    0.00195312  16 t-inv F
 -0.250000 -0.625000 -0.250000    0.00195312  16 t-inv F
  0.250000  0.625000  0.250000    0.00195312  16 t-inv F
 -0.625000 -0.375000 -0.375000    0.00195312  16 t-inv F
  0.625000  0.375000  0.375000    0.00195312  16 t-inv F
 -0.375000  0.000000  0.250000    0.00195312  16 t-inv F
  0.375000  0.000000 -0.250000    0.00195312  16 t-inv F
  0.250000 -0.250000  0.000000    0.00195312  17 t-inv F
  0.000000 -0.250000  0.250000    0.00195312  17 t-inv F
  0.000000  0.250000 -0.250000    0.00195312  17 t-inv F
  0.250000  0.000000 -0.250000    0.00195312  17 t-inv F
 -0.250000  0.000000  0.250000    0.00195312  17 t-inv F
  0.250000  0.250000  0.500000    0.00195312  17 t-inv F
 -0.250000 -0.250000 -0.500000    0.00195312  17 t-inv F
 -0.250000 -0.500000 -0.250000    0.00195312  17 t-inv F
  0.250000  0.500000  0.250000    0.00195312  17 t-inv F
 -0.500000 -0.250000 -0.250000    0.00195312  17 t-inv F
  0.500000  0.250000  0.250000    0.00195312  17 t-inv F
 -0.375000 -0.375000  0.000000    0.00195312  18 t-inv F
  0.000000  0.375000  0.375000    0.00195312  18 t-inv F
  0.000000 -0.375000 -0.375000    0.00195312  18 t-inv F
  0.375000  0.000000  0.375000    0.00195312  18 t-inv F
 -0.375000  0.000000 -0.375000    0.00195312  18 t-inv F
 -0.500000 -0.375000  0.000000    0.00195312  19 t-inv F
  0.000000  0.500000  0.375000    0.00195312  19 t-inv F
  0.000000 -0.500000 -0.375000    0.00195312  19 t-inv F
  0.375000  0.000000  0.500000    0.00195312  19 t-inv F
 -0.375000  0.000000 -0.500000    0.00195312  19 t-inv F
  0.375000  0.375000 -0.125000    0.00195312  19 t-inv F
 -0.375000 -0.375000  0.125000    0.00195312  19 t-inv F
  0.500000  0.125000  0.500000    0.00195312  19 t-inv F
 -0.500000 -0.125000 -0.500000    0.00195312  19 t-inv F
  0.375000  0.500000  0.000000    0.00195312  19 t-inv F
 -0.375000 -0.500000  0.000000    0.00195312  19 t-inv F
  0.125000 -0.375000 -0.375000    0.00195312  19 t-inv F
 -0.125000  0.375000  0.375000    0.00195312  19 t-inv F
  0.500000  0.500000  0.125000    0.00195312  19 t-inv F
 -0.500000 -0.500000 -0.125000    0.00195312  19 t-inv F
  0.000000  0.375000  0.500000    0.00195312  19 t-inv F
  0.000000 -0.375000 -0.500000    0.00195312  19 t-inv F
 -0.375000  0.125000 -0.375000    0.00195312  19 t-inv F
  0.375000 -0.125000  0.375000    0.00195312  19 t-inv F
  0.125000  0.500000  0.500000    0.00195312  19 t-inv F
 -0.125000 -0.500000 -0.500000    0.00195312  19 t-inv F
  0.500000  0.000000  0.375000    0.00195312  19 t-inv F
 -0.500000  0.000000 -0.375000    0.00195312  19 t-inv F
  0.375000 -0.375000  0.000000    0.00195312  20 t-inv F
  0.000000 -0.375000  0.375000    0.00195312  20 t-inv F
  0.000000  0.375000 -0.375000    0.00195312  20 t-inv F
  0.375000  0.000000 -0.375000    0.00195312  20 t-inv F
 -0.375000  0.000000  0.375000    0.00195312  20 t-inv F
  0.375000  0.375000  0.750000    0.00195312  20 t-inv F
 -0.375000 -0.375000 -0.750000    0.00195312  20 t-inv F
 -0.375000 -0.750000 -0.375000    0.00195312  20 t-inv F
  0.375000  0.750000  0.375000    0.00195312  20 t-inv F
 -0.750000 -0.375000 -0.375000    0.00195312  20 t-inv F
  0.750000  0.375000  0.375000    0.00195312  20 t-inv F
  0.000000  0.500000  0.500000    0.00195312  21 t-inv F
  0.500000  0.000000  0.500000    0.00195312  21 t-inv F
 -0.375000 -0.250000 -0.125000    0.00195312  22 t-inv F
  0.125000  0.375000  0.250000    0.00195312  22 t-inv F
 -0.125000 -0.375000 -0.250000    0.00195312  22 t-inv F
  0.250000  0.125000  0.375000    0.00195312  22 t-inv F
 -0.250000 -0.125000 -0.375000    0.00195312  22 t-inv F
  0.250000  0.125000 -0.125000    0.00195312  22 t-inv F
 -0.250000 -0.125000  0.125000    0.00195312  22 t-inv F
  0.375000  0.125000  0.250000    0.00195312  22 t-inv F
 -0.375000 -0.125000 -0.250000    0.00195312  22 t-inv F
  0.125000 -0.250000 -0.125000    0.00195312  22 t-inv F
 -0.125000  0.250000  0.125000    0.00195312  22 t-inv F
  0.125000  0.250000 -0.125000    0.00195312  22 t-inv F
 -0.125000 -0.250000  0.125000    0.00195312  22 t-inv F
  0.125000 -0.125000 -0.250000    0.00195312  22 t-inv F
 -0.125000  0.125000  0.250000    0.00195312  22 t-inv F
  0.250000  0.375000  0.125000    0.00195312  22 t-inv F
 -0.250000 -0.375000 -0.125000    0.00195312  22 t-inv F
 -0.125000  0.125000 -0.250000    0.00195312  22 t-inv F
  0.125000 -0.125000  0.250000    0.00195312  22 t-inv F
 -0.250000  0.125000 -0.125000    0.00195312  22 t-inv F
  0.250000 -0.125000  0.125000    0.00195312  22 t-inv F
  0.125000  0.250000  0.375000    0.00195312  22 t-inv F
 -0.125000 -0.250000 -0.375000    0.00195312  22 t-inv F
 -0.500000 -0.250000 -0.125000    0.00195312  23 t-inv F
  0.125000  0.500000  0.250000    0.00195312  23 t-inv F
 -0.125000 -0.500000 -0.250000    0.00195312  23 t-inv F
  0.250000  0.125000  0.500000    0.00195312  23 t-inv F
 -0.250000 -0.125000 -0.500000    0.00195312  23 t-inv F
  0.250000  0.125000 -0.250000    0.00195312  23 t-inv F
 -0.250000 -0.125000  0.250000    0.00195312  23 t-inv F
  0.500000  0.250000  0.375000    0.00195312  23 t-inv F
 -0.500000 -0.250000 -0.375000    0.00195312  23 t-inv F
  0.125000 -0.375000 -0.125000    0.00195312  23 t-inv F
 -0.125000  0.375000  0.125000    0.00195312  23 t-inv F
  0.125000  0.375000 -0.125000    0.00195312  23 t-inv F
 -0.125000 -0.375000  0.125000    0.00195312  23 t-inv F
  0.250000 -0.125000 -0.250000    0.00195312  23 t-inv F
 -0.250000  0.125000  0.250000    0.00195312  23 t-inv F
 -0.375000 -0.250000 -0.500000    0.00195312  23 t-inv F
  0.375000  0.250000  0.500000    0.00195312  23 t-inv F
  0.375000  0.500000  0.250000    0.00195312  23 t-inv F
 -0.375000 -0.500000 -0.250000    0.00195312  23 t-inv F
 -0.125000  0.125000 -0.375000    0.00195312  23 t-inv F
  0.125000 -0.125000  0.375000    0.00195312  23 t-inv F
 -0.250000  0.250000  0.125000    0.00195312  23 t-inv F
  0.250000 -0.250000 -0.125000    0.00195312  23 t-inv F
 -0.125000  0.125000  0.375000    0.00195312  23 t-inv F
  0.125000 -0.125000 -0.375000    0.00195312  23 t-inv F
 -0.250000  0.250000 -0.125000    0.00195312  23 t-inv F
  0.250000 -0.250000  0.125000    0.00195312  23 t-inv F
 -0.500000 -0.375000 -0.250000    0.00195312  23 t-inv F
  0.500000  0.375000  0.250000    0.00195312  23 t-inv F
  0.250000  0.375000  0.500000    0.00195312  23 t-inv F
 -0.250000 -0.375000 -0.500000    0.00195312  23 t-inv F
 -0.375000 -0.125000  0.125000    0.00195312  23 t-inv F
  0.375000  0.125000 -0.125000    0.00195312  23 t-inv F
  0.125000 -0.250000  0.250000    0.00195312  23 t-inv F
 -0.125000  0.250000 -0.250000    0.00195312  23 t-inv F
  0.375000 -0.125000  0.125000    0.00195312  23 t-inv F
 -0.375000  0.125000 -0.125000    0.00195312  23 t-inv F
 -0.125000 -0.250000  0.250000    0.00195312  23 t-inv F
  0.125000  0.250000 -0.250000    0.00195312  23 t-inv F
 -0.250000 -0.500000 -0.375000    0.00195312  23 t-inv F
  0.250000  0.500000  0.375000    0.00195312  23 t-inv F
 -0.500000 -0.125000 -0.250000    0.00195312  23 t-inv F
  0.500000  0.125000  0.250000    0.00195312  23 t-inv F
 -0.250000 -0.500000 -0.125000    0.00195312  23 t-inv F
  0.250000  0.500000  0.125000    0.00195312  23 t-inv F
 -0.125000 -0.250000 -0.500000    0.00195312  23 t-inv F
  0.125000  0.250000  0.500000    0.00195312  23 t-inv F
  0.375000 -0.250000 -0.125000    0.00195312  24 t-inv F
  0.125000 -0.375000  0.250000    0.00195312  24 t-inv F
 -0.125000  0.375000 -0.250000    0.00195312  24 t-inv F
  0.250000  0.125000 -0.375000    0.00195312  24 t-inv F
 -0.250000 -0.125000  0.375000    0.00195312  24 t-inv F
 -0.375000 -0.625000 -0.500000    0.00195312  24 t-inv F
  0.375000  0.625000  0.500000    0.00195312  24 t-inv F
  0.125000  0.500000 -0.125000    0.00195312  24 t-inv F
 -0.125000 -0.500000  0.125000    0.00195312  24 t-inv F
 -0.625000 -0.125000 -0.250000    0.00195312  24 t-inv F
  0.625000  0.125000  0.250000    0.00195312  24 t-inv F
  0.500000  0.625000  0.375000    0.00195312  24 t-inv F
 -0.500000 -0.625000 -0.375000    0.00195312  24 t-inv F
 -0.125000  0.125000  0.500000    0.00195312  24 t-inv F
  0.125000 -0.125000 -0.500000    0.00195312  24 t-inv F
 -0.250000 -0.625000 -0.125000    0.00195312  24 t-inv F
  0.250000  0.625000  0.125000    0.00195312  24 t-inv F
  0.375000  0.500000  0.625000    0.00195312  24 t-inv F
 -0.375000 -0.500000 -0.625000    0.00195312  24 t-inv F
  0.500000 -0.125000  0.125000    0.00195312  24 t-inv F
 -0.500000  0.125000 -0.125000    0.00195312  24 t-inv F
 -0.125000 -0.250000 -0.625000    0.00195312  24 t-inv F
  0.125000  0.250000  0.625000    0.00195312  24 t-inv F
 -0.500000 -0.375000 -0.125000    0.00195312  25 t-inv F
  0.125000  0.500000  0.375000    0.00195312  25 t-inv F
 -0.125000 -0.500000 -0.375000    0.00195312  25 t-inv F
  0.375000  0.125000  0.500000    0.00195312  25 t-inv F
 -0.375000 -0.125000 -0.500000    0.00195312  25 t-inv F
  0.375000  0.250000 -0.125000    0.00195312  25 t-inv F
 -0.375000 -0.250000  0.125000    0.00195312  25 t-inv F
  0.500000  0.125000  0.375000    0.00195312  25 t-inv F
 -0.500000 -0.125000 -0.375000    0.00195312  25 t-inv F
  0.125000 -0.375000 -0.250000    0.00195312  25 t-inv F
 -0.125000  0.375000  0.250000    0.00195312  25 t-inv F
  0.250000  0.375000 -0.125000    0.00195312  25 t-inv F
 -0.250000 -0.375000  0.125000    0.00195312  25 t-inv F
  0.125000 -0.250000 -0.375000    0.00195312  25 t-inv F
 -0.125000  0.250000  0.375000    0.00195312  25 t-inv F
  0.375000  0.500000  0.125000    0.00195312  25 t-inv F
 -0.375000 -0.500000 -0.125000    0.00195312  25 t-inv F
 -0.250000  0.125000 -0.375000    0.00195312  25 t-inv F
  0.250000 -0.125000  0.375000    0.00195312  25 t-inv F
 -0.375000  0.125000 -0.250000    0.00195312  25 t-inv F
  0.375000 -0.125000  0.250000    0.00195312  25 t-inv F
  0.125000  0.375000  0.500000    0.00195312  25 t-inv F
 -0.125000 -0.375000 -0.500000    0.00195312  25 t-inv F
  0.375000 -0.375000 -0.125000    0.00195312  26 t-inv F
  0.125000 -0.375000  0.375000    0.00195312  26 t-inv F
 -0.125000  0.375000 -0.375000    0.00195312  26 t-inv F
  0.375000  0.125000 -0.375000    0.00195312  26 t-inv F
 -0.375000 -0.125000  0.375000    0.00195312  26 t-inv F
  0.375000  0.250000  0.750000    0.00195312  26 t-inv F
 -0.375000 -0.250000 -0.750000    0.00195312  26 t-inv F
 -0.375000 -0.750000 -0.500000    0.00195312  26 t-inv F
  0.375000  0.750000  0.500000    0.00195312  26 t-inv F
  0.125000  0.500000 -0.250000    0.00195312  26 t-inv F
 -0.125000 -0.500000  0.250000    0.00195312  26 t-inv F
  0.250000 -0.500000 -0.125000    0.00195312  26 t-inv F
 -0.250000  0.500000  0.125000    0.00195312  26 t-inv F
 -0.750000 -0.250000 -0.375000    0.00195312  26 t-inv F
  0.750000  0.250000  0.375000    0.00195312  26 t-inv F
  0.500000  0.750000  0.375000    0.00195312  26 t-inv F
 -0.500000 -0.750000 -0.375000    0.00195312  26 t-inv F
 -0.500000 -0.375000 -0.750000    0.00195312  26 t-inv F
  0.500000  0.375000  0.750000    0.00195312  26 t-inv F
 -0.250000  0.125000  0.500000    0.00195312  26 t-inv F
  0.250000 -0.125000 -0.500000    0.00195312  26 t-inv F
  0.750000  0.375000  0.250000    0.00195312  26 t-inv F
 -0.750000 -0.375000 -0.250000    0.00195312  26 t-inv F
 -0.125000  0.250000 -0.500000    0.00195312  26 t-inv F
  0.125000 -0.250000  0.500000    0.00195312  26 t-inv F
 -0.375000 -0.750000 -0.250000    0.00195312  26 t-inv F
  0.375000  0.750000  0.250000    0.00195312  26 t-inv F
  0.375000  0.500000  0.750000    0.00195312  26 t-inv F
 -0.375000 -0.500000 -0.750000    0.00195312  26 t-inv F
 -0.750000 -0.500000 -0.375000    0.00195312  26 t-inv F
  0.750000  0.500000  0.375000    0.00195312  26 t-inv F
  0.500000 -0.250000  0.125000    0.00195312  26 t-inv F
 -0.500000  0.250000 -0.125000    0.00195312  26 t-inv F
  0.250000  0.750000  0.375000    0.00195312  26 t-inv F
 -0.250000 -0.750000 -0.375000    0.00195312  26 t-inv F
 -0.500000 -0.125000  0.250000    0.00195312  26 t-inv F
  0.500000  0.125000 -0.250000    0.00195312  26 t-inv F
 -0.250000 -0.375000 -0.750000    0.00195312  26 t-inv F
  0.250000  0.375000  0.750000    0.00195312  26 t-inv F
  0.750000  0.375000  0.500000    0.00195312  26 t-inv F
 -0.750000 -0.375000 -0.500000    0.00195312  26 t-inv F
  0.375000 -0.125000 -0.375000    0.00195312  26 t-inv F
 -0.375000  0.125000  0.375000    0.00195312  26 t-inv F
 -0.375000  0.375000 -0.125000    0.00195312  26 t-inv F
  0.375000 -0.375000  0.125000    0.00195312  26 t-inv F
 -0.125000 -0.375000  0.375000    0.00195312  26 t-inv F
  0.125000  0.375000 -0.375000    0.00195312  26 t-inv F
  0.250000 -0.375000 -0.125000    0.00195312  27 t-inv F
  0.125000 -0.250000  0.375000    0.00195312  27 t-inv F
 -0.125000  0.250000 -0.375000    0.00195312  27 t-inv F
  0.375000  0.125000 -0.250000    0.00195312  27 t-inv F
 -0.375000 -0.125000  0.250000    0.00195312  27 t-inv F
  0.375000  0.250000  0.625000    0.00195312  27 t-inv F
 -0.375000 -0.250000 -0.625000    0.00195312  27 t-inv F
 -0.250000 -0.625000 -0.375000    0.00195312  27 t-inv F
  0.250000  0.625000  0.375000    0.00195312  27 t-inv F
  0.125000  0.375000 -0.250000    0.00195312  27 t-inv F
 -0.125000 -0.375000  0.250000    0.00195312  27 t-inv F
 -0.625000 -0.250000 -0.375000    0.00195312  27 t-inv F
  0.625000  0.250000  0.375000    0.00195312  27 t-inv F
  0.375000  0.625000  0.250000    0.00195312  27 t-inv F
 -0.375000 -0.625000 -0.250000    0.00195312  27 t-inv F
 -0.250000  0.125000  0.375000    0.00195312  27 t-inv F
  0.250000 -0.125000 -0.375000    0.00195312  27 t-inv F
  0.625000  0.375000  0.250000    0.00195312  27 t-inv F
 -0.625000 -0.375000 -0.250000    0.00195312  27 t-inv F
  0.250000  0.375000  0.625000    0.00195312  27 t-inv F
 -0.250000 -0.375000 -0.625000    0.00195312  27 t-inv F
  0.375000 -0.250000  0.125000    0.00195312  27 t-inv F
 -0.375000  0.250000 -0.125000    0.00195312  27 t-inv F
  0.375000 -0.500000 -0.125000    0.00195312  28 t-inv F
  0.125000 -0.375000  0.500000    0.00195312  28 t-inv F
 -0.125000  0.375000 -0.500000    0.00195312  28 t-inv F
  0.500000  0.125000 -0.375000    0.00195312  28 t-inv F
 -0.500000 -0.125000  0.375000    0.00195312  28 t-inv F
  0.500000  0.375000  0.875000    0.00195312  28 t-inv F
 -0.500000 -0.375000 -0.875000    0.00195312  28 t-inv F
 -0.375000 -0.875000 -0.500000    0.00195312  28 t-inv F
  0.375000  0.875000  0.500000    0.00195312  28 t-inv F
  0.125000  0.500000 -0.375000    0.00195312  28 t-inv F
 -0.125000 -0.500000  0.375000    0.00195312  28 t-inv F
  0.250000 -0.500000 -0.250000    0.00195312  29 t-inv F
  0.250000 -0.250000  0.500000    0.00195312  29 t-inv F
 -0.250000  0.250000 -0.500000    0.00195312  29 t-inv F
  0.500000  0.250000 -0.250000    0.00195312  29 t-inv F
 -0.500000 -0.250000  0.250000    0.00195312  29 t-inv F


--------------------------------------------------------------------------------------------------------




 Dimension of arrays:
   k-points           NKPTS =     29   k-points in BZ     NKDIM =     29   number of bands    NBANDS=     32
   number of dos      NEDOS =    301   number of ions     NIONS =      2
   non local maximal  LDIM  =      5   non local SUM 2l+1 LMDIM =     13
   total plane-waves  NPLWV =   5832
   max r-space proj   IRMAX =   1955   max aug-charges    IRDMAX=  13135
   dimension x,y,z NGX =    18 NGY =   18 NGZ =   18
   dimension x,y,z NGXF=    36 NGYF=   36 NGZF=   36
   support grid    NGXF=    36 NGYF=   36 NGZF=   36
   ions per type =               1   1
   NGX,Y,Z   is equivalent  to a cutoff of   9.96,  9.96,  9.96 a.u.
   NGXF,Y,Z  is equivalent  to a cutoff of  19.93, 19.93, 19.93 a.u.

 SYSTEM =  unknown system                          
 POSCAR =  Mg O                                    

 Startparameter for this run:
   NWRITE =      2    write-flag & timer
   PREC   = n         normal or accurate (medium, high low for compatibility)
   ISTART =      0    job   : 0-new  1-cont  2-samecut
   ICHARG =      2    charge: 1-file 2-atom 10-const
   ISPIN  =      1    spin polarized calculation?
   LNONCOLLINEAR =      F non collinear calculations
   LSORBIT =      F    spin-orbit coupling
   INIWAV =      1    electr: 0-lowe 1-rand  2-diag
   LASPH  =      T    aspherical Exc in radial PAW
   METAGGA=      F    non-selfconsistent MetaGGA calc.

 Electronic Relaxation 1
   ENCUT  =  550.0 eV  40.42 Ry    6.36 a.u.   5.74  5.74  5.74*2*pi/ulx,y,z
   ENINI  =  550.0     initial cutoff
   ENAUG  =  605.4 eV  augmentation charge cutoff
   NELM   =    100;   NELMIN=  4; NELMDL= -5     # of ELM steps 
   EDIFF  = 0.1E-06   stopping-criterion for ELM
   LREAL  =      T    real-space projection
   NLSPLINE    = F    spline interpolate recip. space projectors
   LCOMPAT=      F    compatible to vasp.4.4
   GGA_COMPAT  = T    GGA compatible to vasp.4.4-vasp.4.6
   LMAXPAW     = -100 max onsite density
   LMAXMIX     =    2 max onsite mixed and CHGCAR
   VOSKOWN=      0    Vosko Wilk Nusair interpolation
   ROPT   =   -0.00050  -0.00050
 Ionic relaxation
   EDIFFG = -.5E-02   stopping-criterion for IOM
   NSW    =      1    number of steps for IOM
   NBLOCK =      1;   KBLOCK =      1    inner block; outer block 
   IBRION =      8    ionic relax: 0-MD 1-quasi-New 2-CG
   NFREE  =      0    steps in history (QN), initial steepest desc. (CG)
   ISIF   =      3    stress and relaxation
   IWAVPR =     11    prediction:  0-non 1-charg 2-wave 3-comb
   ISYM   =      2    0-nonsym 1-usesym 2-fastsym
   LCORR  =      T    Harris-Foulkes like correction to forces

   POTIM  = 0.5000    time-step for ionic-motion
   TEIN   =    0.0    initial temperature
   TEBEG  =    0.0;   TEEND  =   0.0 temperature during run
   SMASS  =  -3.00    Nose mass-parameter (am)
   estimated Nose-frequenzy (Omega)   =  0.10E-29 period in steps =****** mass=  -0.206E-27a.u.
   SCALEE = 1.0000    scale energy and forces
   NPACO  =    256;   APACO  = 16.0  distance and # of slots for P.C.
   PSTRESS=    0.0 pullay stress

  Mass of Ions in am
   POMASS =  24.30 16.00
  Ionic Valenz
   ZVAL   =   2.00  6.00
  Atomic Wigner-Seitz radii
   RWIGS  =  -1.00 -1.00
  virtual crystal weights 
   VCA    =   1.00  1.00
   NELECT =       8.0000    total number of electrons
   NUPDOWN=      -1.0000    fix difference up-down

 DOS related values:
   EMIN   =  10.00;   EMAX   =-10.00  energy-range for DOS
   EFERMI =   0.00
   ISMEAR =     0;   SIGMA  =   0.05  broadening in eV -4-tet -1-fermi 0-gaus

 Electronic relaxation 2 (details)
   IALGO  =     38    algorithm
   LDIAG  =      T    sub-space diagonalisation (order eigenvalues)
   LSUBROT=      F    optimize rotation matrix (better conditioning)
   TURBO    =      0    0=normal 1=particle mesh
   IRESTART =      0    0=no restart 2=restart with 2 vectors
   NREBOOT  =      0    no. of reboots
   NMIN     =      0    reboot dimension
   EREF     =   0.00    reference energy to select bands
   IMIX   =      4    mixing-type and parameters
     AMIX     =   0.40;   BMIX     =  1.00
     AMIX_MAG =   1.60;   BMIX_MAG =  1.00
     AMIN     =   0.10
     WC   =   100.;   INIMIX=   1;  MIXPRE=   1;  MAXMIX= -45

 Intra band minimization:
   WEIMIN = 0.0010     energy-eigenvalue tresh-hold
   EBREAK =  0.78E-09  absolut break condition
   DEPER  =   0.30     relativ break condition  

   TIME   =   0.40     timestep for ELM

  volume/ion in A,a.u.               =       9.57        64.61
  Fermi-wavevector in a.u.,A,eV,Ry     =   1.223827  2.312698 20.378173  1.497753
  Thomas-Fermi vector in A             =   2.358924
 
 Write flags
   LWAVE        =      F    write WAVECAR
   LDOWNSAMPLE  =      F    k-point downsampling of WAVECAR
   LCHARG       =      F    write CHGCAR
   LVTOT        =      F    write LOCPOT, total local potential
   LVHAR        =      F    write LOCPOT, Hartree potential only
   LELF         =      F    write electronic localiz. function (ELF)
   LORBIT       =     12    0 simple, 1 ext, 2 COOP (PROOUT), +10 PAW based schemes


 Dipole corrections
   LMONO  =      F    monopole corrections only (constant potential shift)
   LDIPOL =      F    correct potential (dipole corrections)
   IDIPOL =      0    1-x, 2-y, 3-z, 4-all directions 
   EPSILON=  1.0000000 bulk dielectric constant

 Exchange correlation treatment:
   GGA     =    --    GGA type
   LEXCH   =     8    internal setting for exchange type
   VOSKOWN=      0    Vosko Wilk Nusair interpolation
   LHFCALC =     F    Hartree Fock is set to
   LHFONE  =     F    Hartree Fock one center treatment
   AEXX    =    0.0000 exact exchange contribution

 Linear response parameters
   LEPSILON=     T    determine dielectric tensor
   LRPA    =     F    only Hartree local field effects (RPA)
   LNABLA  =     F    use nabla operator in PAW spheres
   LVEL    =     F    velocity operator in full k-point grid
   LINTERFAST=   F  fast interpolation
   KINTER  =     0    interpolate to denser k-point grid
   CSHIFT  =0.1000    complex shift for real part using Kramers Kronig
   OMEGAMAX=  -1.0    maximum frequency
   DEG_THRESHOLD= 0.2000000E-02 threshold for treating states as degnerate
   RTIME   =   -0.100 relaxation time in fs
  (WPLASMAI=    0.000 imaginary part of plasma frequency in eV, 0.658/RTIME)
   DFIELD  = 0.0000000 0.0000000 0.0000000 field for delta impulse in time
 
 Orbital magnetization related:
   ORBITALMAG=     F  switch on orbital magnetization
   LCHIMAG   =     F  perturbation theory with respect to B field
   DQ        =  0.001000  dq finite difference perturbation B field
   LLRAUG    =     F  two centre corrections for induced B field



--------------------------------------------------------------------------------------------------------


 linear response using symmetry
 charge density and potential will be updated during run
 non-spin polarized calculation
 Variant of blocked Davidson
 Davidson routine will perform the subspace rotation
 perform sub-space diagonalisation
    after iterative eigenvector-optimisation
 modified Broyden-mixing scheme, WC =      100.0
 initial mixing is a Kerker type mixing with AMIX =  0.4000 and BMIX =      1.0000
 Hartree-type preconditioning will be used
 using additional bands           28
 real space projection scheme for non local part
 use partial core corrections
 calculate Harris-corrections to forces 
   (improved forces if not selfconsistent)
 use gradient corrections 
 use of overlap-Matrix (Vanderbilt PP)
 Gauss-broadening in eV      SIGMA  =   0.05


--------------------------------------------------------------------------------------------------------


  energy-cutoff  :      550.00
  volume of cell :       19.15
      direct lattice vectors                 reciprocal lattice vectors
     0.000000000  2.123446510  2.123446510    -0.235466256  0.235466256  0.235466256
     2.123446510  0.000000000  2.123446510     0.235466256 -0.235466256  0.235466256
     2.123446510  2.123446510  0.000000000     0.235466256  0.235466256 -0.235466256

  length of vectors
     3.003006853  3.003006853  3.003006853     0.407839519  0.407839519  0.407839519


 
 k-points in units of 2pi/SCALE and weight: k-point mesh generated by kpt_generator.
   0.00000000  0.00000000  0.00000000       0.002
  -0.02943328  0.02943328  0.02943328       0.016
  -0.05886656  0.05886656  0.05886656       0.016
  -0.08829985  0.08829985  0.08829985       0.016
  -0.11773313  0.11773313  0.11773313       0.008
   0.00000000  0.00000000  0.05886656       0.012
  -0.02943328  0.02943328  0.08829985       0.047
  -0.05886656  0.05886656  0.11773313       0.047
  -0.08829985  0.08829985  0.14716641       0.047
   0.11773313 -0.11773313 -0.05886656       0.047
   0.08829985 -0.08829985 -0.02943328       0.047
   0.05886656 -0.05886656  0.00000000       0.023
   0.00000000  0.00000000  0.11773313       0.012
  -0.02943328  0.02943328  0.14716641       0.047
  -0.05886656  0.05886656  0.17659969       0.047
   0.14716641 -0.14716641 -0.02943328       0.047
   0.11773313 -0.11773313  0.00000000       0.023
   0.00000000  0.00000000  0.17659969       0.012
  -0.02943328  0.02943328  0.20603297       0.047
   0.17659969 -0.17659969  0.00000000       0.023
   0.00000000  0.00000000  0.23546626       0.006
  -0.00000000  0.05886656  0.11773313       0.047
  -0.02943328  0.08829985  0.14716641       0.094
   0.17659969 -0.11773313 -0.05886656       0.047
   0.00000000  0.05886656  0.17659969       0.047
   0.20603297 -0.14716641 -0.02943328       0.094
   0.17659969 -0.11773313  0.00000000       0.047
   0.23546626 -0.17659969  0.00000000       0.023
   0.23546626 -0.11773313  0.00000000       0.012
 
 k-points in reciprocal lattice and weights: k-point mesh generated by kpt_generator.
   0.00000000  0.00000000  0.00000000       0.002
   0.12500000  0.00000000  0.00000000       0.016
   0.25000000  0.00000000  0.00000000       0.016
   0.37500000  0.00000000  0.00000000       0.016
   0.50000000  0.00000000  0.00000000       0.008
   0.12500000  0.12500000  0.00000000       0.012
   0.25000000  0.12500000  0.00000000       0.047
   0.37500000  0.12500000  0.00000000       0.047
   0.50000000  0.12500000  0.00000000       0.047
  -0.37500000  0.12500000  0.00000000       0.047
  -0.25000000  0.12500000  0.00000000       0.047
  -0.12500000  0.12500000  0.00000000       0.023
   0.25000000  0.25000000  0.00000000       0.012
   0.37500000  0.25000000  0.00000000       0.047
   0.50000000  0.25000000  0.00000000       0.047
  -0.37500000  0.25000000  0.00000000       0.047
  -0.25000000  0.25000000  0.00000000       0.023
   0.37500000  0.37500000  0.00000000       0.012
   0.50000000  0.37500000  0.00000000       0.047
  -0.37500000  0.37500000  0.00000000       0.023
   0.50000000  0.50000000  0.00000000       0.006
   0.37500000  0.25000000  0.12500000       0.047
   0.50000000  0.25000000  0.12500000       0.094
  -0.37500000  0.25000000  0.12500000       0.047
   0.50000000  0.37500000  0.12500000       0.047
  -0.37500000  0.37500000  0.12500000       0.094
  -0.25000000  0.37500000  0.12500000       0.047
  -0.37500000  0.50000000  0.12500000       0.023
  -0.25000000  0.50000000  0.25000000       0.012
 
 position of ions in fractional coordinates (direct lattice) 
   0.00000000  0.00000000  0.00000000
   0.50000000  0.50000000  0.50000000
 
 position of ions in cartesian coordinates  (Angst):
   0.00000000  0.00000000  0.00000000
   2.12344651  2.12344651  2.12344651
 


--------------------------------------------------------------------------------------------------------


 k-point  1 :   0.0000 0.0000 0.0000  plane waves:     537
 k-point  2 :   0.1250 0.0000 0.0000  plane waves:     552
 k-point  3 :   0.2500 0.0000 0.0000  plane waves:     564
 k-point  4 :   0.3750 0.0000 0.0000  plane waves:     565
 k-point  5 :   0.5000 0.0000 0.0000  plane waves:     568
 k-point  6 :   0.1250 0.1250 0.0000  plane waves:     556
 k-point  7 :   0.2500 0.1250 0.0000  plane waves:     563
 k-point  8 :   0.3750 0.1250 0.0000  plane waves:     564
 k-point  9 :   0.5000 0.1250 0.0000  plane waves:     567
 k-point 10 :  -0.3750 0.1250 0.0000  plane waves:     567
 k-point 11 :  -0.2500 0.1250 0.0000  plane waves:     559
 k-point 12 :  -0.1250 0.1250 0.0000  plane waves:     559
 k-point 13 :   0.2500 0.2500 0.0000  plane waves:     560
 k-point 14 :   0.3750 0.2500 0.0000  plane waves:     562
 k-point 15 :   0.5000 0.2500 0.0000  plane waves:     558
 k-point 16 :  -0.3750 0.2500 0.0000  plane waves:     562
 k-point 17 :  -0.2500 0.2500 0.0000  plane waves:     554
 k-point 18 :   0.3750 0.3750 0.0000  plane waves:     568
 k-point 19 :   0.5000 0.3750 0.0000  plane waves:     564
 k-point 20 :  -0.3750 0.3750 0.0000  plane waves:     548
 k-point 21 :   0.5000 0.5000 0.0000  plane waves:     556
 k-point 22 :   0.3750 0.2500 0.1250  plane waves:     561
 k-point 23 :   0.5000 0.2500 0.1250  plane waves:     560
 k-point 24 :  -0.3750 0.2500 0.1250  plane waves:     560
 k-point 25 :   0.5000 0.3750 0.1250  plane waves:     567
 k-point 26 :  -0.3750 0.3750 0.1250  plane waves:     558
 k-point 27 :  -0.2500 0.3750 0.1250  plane waves:     561
 k-point 28 :  -0.3750 0.5000 0.1250  plane waves:     564
 k-point 29 :  -0.2500 0.5000 0.2500  plane waves:     560

 maximum and minimum number of plane-waves per node :       568      537

 maximum number of plane-waves:       568
 maximum index in each direction: 
   IXMAX=    6   IYMAX=    5   IZMAX=    5
   IXMIN=   -6   IYMIN=   -6   IZMIN=   -5


 serial   3D FFT for wavefunctions
 parallel 3D FFT for charge:
    minimum data exchange during FFTs selected (reduces bandwidth)


 total amount of memory used by VASP MPI-rank0    31177. kBytes
=======================================================================

   base      :      30000. kBytes
   nonlr-proj:        379. kBytes
   fftplans  :        111. kBytes
   grid      :        389. kBytes
   one-center:         16. kBytes
   wavefun   :        282. kBytes
 
     INWAV:  cpu time    0.0000: real time    0.0000
 Broyden mixing: mesh for mixing (old mesh)
   NGX = 11   NGY = 11   NGZ = 11
  (NGX  = 36   NGY  = 36   NGZ  = 36)
  gives a total of   1331 points

 initial charge density was supplied:
 charge density of overlapping atoms calculated
 number of electron       8.0000000 magnetization 
 keeping initial charge density in first step


--------------------------------------------------------------------------------------------------------


 Maximum index for non-local projection operator         1865
 Maximum index for augmentation-charges         1147 (set IRDMAX)


--------------------------------------------------------------------------------------------------------


 First call to EWALD:  gamma=   0.663
 Maximum number of real-space cells 3x 3x 3
 Maximum number of reciprocal cells 3x 3x 3

    FEWALD:  cpu time    0.0040: real time    0.0011


--------------------------------------- Iteration      1(   1)  ---------------------------------------


    POTLOK:  cpu time    0.0040: real time    0.0052
    SETDIJ:  cpu time    0.1160: real time    0.1179
     EDDAV:  cpu time    0.4360: real time    0.4493
       DOS:  cpu time    0.0000: real time    0.0006
    --------------------------------------------
      LOOP:  cpu time    0.5560: real time    0.5730

 eigenvalue-minimisations  :  2112
 total energy-change (2. order) :-0.5851619E+01  (-0.5040861E+03)
 number of electron       8.0000000 magnetization 
 augmentation part        8.0000000 magnetization 

 Free energy of the ion-electron system (eV)
  ---------------------------------------------------
  alpha Z        PSCENC =        19.07613066
  Ewald energy   TEWEN  =      -355.25355161
  -Hartree energ DENC   =      -122.45499000
  -exchange      EXHF   =         0.00000000
  -V(xc)+E(xc)   XCENC  =       -20.50735293
  PAW double counting   =       411.85617216     -361.79210629
  entropy T*S    EENTRO =        -0.00000000
  eigenvalues    EBANDS =       -32.17220834
  atomic energy  EATOM  =       455.39628718
  Solvation  Ediel_sol  =         0.00000000
  ---------------------------------------------------
  free energy    TOTEN  =        -5.85161917 eV

  energy without entropy =       -5.85161917  energy(sigma->0) =       -5.85161917


--------------------------------------------------------------------------------------------------------




--------------------------------------- Iteration      1(   2)  ---------------------------------------


     EDDAV:  cpu time    0.4920: real time    0.4988
       DOS:  cpu time    0.0040: real time    0.0004
    --------------------------------------------
      LOOP:  cpu time    0.4960: real time    0.4992

 eigenvalue-minimisations  :  2752
 total energy-change (2. order) :-0.7612808E+01  (-0.7612808E+01)
 number of electron       8.0000000 magnetization 
 augmentation part        8.0000000 magnetization 

 Free energy of the ion-electron system (eV)
  ---------------------------------------------------
  alpha Z        PSCENC =        19.07613066
  Ewald energy   TEWEN  =      -355.25355161
  -Hartree energ DENC   =      -122.45499000
  -exchange      EXHF   =         0.00000000
  -V(xc)+E(xc)   XCENC  =       -20.50735293
  PAW double counting   =       411.85617216     -361.79210629
  entropy T*S    EENTRO =        -0.00000000
  eigenvalues    EBANDS =       -39.78501656
  atomic energy  EATOM  =       455.39628718
  Solvation  Ediel_sol  =         0.00000000
  ---------------------------------------------------
  free energy    TOTEN  =       -13.46442740 eV

  energy without entropy =      -13.46442740  energy(sigma->0) =      -13.46442740


--------------------------------------------------------------------------------------------------------




--------------------------------------- Iteration      1(   3)  ---------------------------------------


     EDDAV:  cpu time    0.3440: real time    0.3525
       DOS:  cpu time    0.0000: real time    0.0004
    --------------------------------------------
      LOOP:  cpu time    0.3440: real time    0.3529

 eigenvalue-minimisations  :  1984
 total energy-change (2. order) :-0.4135884E-02  (-0.4135884E-02)
 number of electron       8.0000000 magnetization 
 augmentation part        8.0000000 magnetization 

 Free energy of the ion-electron system (eV)
  ---------------------------------------------------
  alpha Z        PSCENC =        19.07613066
  Ewald energy   TEWEN  =      -355.25355161
  -Hartree energ DENC   =      -122.45499000
  -exchange      EXHF   =         0.00000000
  -V(xc)+E(xc)   XCENC  =       -20.50735293
  PAW double counting   =       411.85617216     -361.79210629
  entropy T*S    EENTRO =        -0.00000000
  eigenvalues    EBANDS =       -39.78915245
  atomic energy  EATOM  =       455.39628718
  Solvation  Ediel_sol  =         0.00000000
  ---------------------------------------------------
  free energy    TOTEN  =       -13.46856328 eV

  energy without entropy =      -13.46856328  energy(sigma->0) =      -13.46856328


--------------------------------------------------------------------------------------------------------




--------------------------------------- Iteration      1(   4)  ---------------------------------------


     EDDAV:  cpu time    0.6480: real time    0.6496
       DOS:  cpu time    0.0000: real time    0.0004
    --------------------------------------------
      LOOP:  cpu time    0.6480: real time    0.6500

 eigenvalue-minimisations  :  3200
 total energy-change (2. order) :-0.7931692E-06  (-0.7931688E-06)
 number of electron       8.0000000 magnetization 
 augmentation part        8.0000000 magnetization 

 Free energy of the ion-electron system (eV)
  ---------------------------------------------------
  alpha Z        PSCENC =        19.07613066
  Ewald energy   TEWEN  =      -355.25355161
  -Hartree energ DENC   =      -122.45499000
  -exchange      EXHF   =         0.00000000
  -V(xc)+E(xc)   XCENC  =       -20.50735293
  PAW double counting   =       411.85617216     -361.79210629
  entropy T*S    EENTRO =        -0.00000000
  eigenvalues    EBANDS =       -39.78915324
  atomic energy  EATOM  =       455.39628718
  Solvation  Ediel_sol  =         0.00000000
  ---------------------------------------------------
  free energy    TOTEN  =       -13.46856408 eV

  energy without entropy =      -13.46856408  energy(sigma->0) =      -13.46856408


--------------------------------------------------------------------------------------------------------




--------------------------------------- Iteration      1(   5)  ---------------------------------------


     EDDAV:  cpu time    0.3240: real time    0.3204
       DOS:  cpu time    0.0000: real time    0.0005
    CHARGE:  cpu time    0.0040: real time    0.0041
    MIXING:  cpu time    0.0000: real time    0.0002
    --------------------------------------------
      LOOP:  cpu time    0.3280: real time    0.3252

 eigenvalue-minimisations  :  1984
 total energy-change (2. order) :-0.1364242E-11  (-0.1237994E-11)
 number of electron       8.0000001 magnetization 
 augmentation part        0.8032597 magnetization 

 Broyden mixing:
  rms(total) = 0.71977E+00    rms(broyden)= 0.71962E+00
  rms(prec ) = 0.27969E+01
  weight for this iteration     100.00

 Free energy of the ion-electron system (eV)
  ---------------------------------------------------
  alpha Z        PSCENC =        19.07613066
  Ewald energy   TEWEN  =      -355.25355161
  -Hartree energ DENC   =      -122.45499000
  -exchange      EXHF   =         0.00000000
  -V(xc)+E(xc)   XCENC  =       -20.50735293
  PAW double counting   =       411.85617216     -361.79210629
  entropy T*S    EENTRO =        -0.00000000
  eigenvalues    EBANDS =       -39.78915324
  atomic energy  EATOM  =       455.39628718
  Solvation  Ediel_sol  =         0.00000000
  ---------------------------------------------------
  free energy    TOTEN  =       -13.46856408 eV

  energy without entropy =      -13.46856408  energy(sigma->0) =      -13.46856408


--------------------------------------------------------------------------------------------------------




--------------------------------------- Iteration      1(   6)  ---------------------------------------


    POTLOK:  cpu time    0.0000: real time    0.0031
    SETDIJ:  cpu time    0.0960: real time    0.0970
     EDDAV:  cpu time    0.5280: real time    0.5615
       DOS:  cpu time    0.0000: real time    0.0005
    CHARGE:  cpu time    0.0120: real time    0.0086
    MIXING:  cpu time    0.0000: real time    0.0002
    --------------------------------------------
      LOOP:  cpu time    0.6360: real time    0.6710

 eigenvalue-minimisations  :  2400
 total energy-change (2. order) : 0.1532864E+01  (-0.1029344E+01)
 number of electron       8.0000001 magnetization 
 augmentation part        0.6574066 magnetization 

 Broyden mixing:
  rms(total) = 0.23476E+00    rms(broyden)= 0.23444E+00
  rms(prec ) = 0.57640E+00
  weight for this iteration     100.00

 eigenvalues of (default mixing * dielectric matrix)
  average eigenvalue GAMMA=   0.8419
  0.8419

 Free energy of the ion-electron system (eV)
  ---------------------------------------------------
  alpha Z        PSCENC =        19.07613066
  Ewald energy   TEWEN  =      -355.25355161
  -Hartree energ DENC   =      -141.07672578
  -exchange      EXHF   =         0.00000000
  -V(xc)+E(xc)   XCENC  =       -19.19485420
  PAW double counting   =       482.77630088     -433.06353104
  entropy T*S    EENTRO =        -0.00000000
  eigenvalues    EBANDS =       -20.59575665
  atomic energy  EATOM  =       455.39628718
  Solvation  Ediel_sol  =         0.00000000
  ---------------------------------------------------
  free energy    TOTEN  =       -11.93570057 eV

  energy without entropy =      -11.93570057  energy(sigma->0) =      -11.93570057


--------------------------------------------------------------------------------------------------------




--------------------------------------- Iteration      1(   7)  ---------------------------------------


    POTLOK:  cpu time    0.0000: real time    0.0037
    SETDIJ:  cpu time    0.0960: real time    0.0934
     EDDAV:  cpu time    0.5040: real time    0.5059
       DOS:  cpu time    0.0000: real time    0.0004
    CHARGE:  cpu time    0.0040: real time    0.0040
    MIXING:  cpu time    0.0000: real time    0.0002
    --------------------------------------------
      LOOP:  cpu time    0.6040: real time    0.6077

 eigenvalue-minimisations  :  2624
 total energy-change (2. order) : 0.1816515E-01  (-0.3439279E-02)
 number of electron       8.0000001 magnetization 
 augmentation part        0.6648093 magnetization 

 Broyden mixing:
  rms(total) = 0.12990E+00    rms(broyden)= 0.12990E+00
  rms(prec ) = 0.34997E+00
  weight for this iteration     100.00

 eigenvalues of (default mixing * dielectric matrix)
  average eigenvalue GAMMA=   1.7443
  0.9500  2.5385

 Free energy of the ion-electron system (eV)
  ---------------------------------------------------
  alpha Z        PSCENC =        19.07613066
  Ewald energy   TEWEN  =      -355.25355161
  -Hartree energ DENC   =      -140.95268481
  -exchange      EXHF   =         0.00000000
  -V(xc)+E(xc)   XCENC  =       -19.16260322
  PAW double counting   =       507.16123619     -457.40601657
  entropy T*S    EENTRO =        -0.00000000
  eigenvalues    EBANDS =       -20.77633322
  atomic energy  EATOM  =       455.39628718
  Solvation  Ediel_sol  =         0.00000000
  ---------------------------------------------------
  free energy    TOTEN  =       -11.91753541 eV

  energy without entropy =      -11.91753541  energy(sigma->0) =      -11.91753541


--------------------------------------------------------------------------------------------------------




--------------------------------------- Iteration      1(   8)  ---------------------------------------


    POTLOK:  cpu time    0.0000: real time    0.0021
    SETDIJ:  cpu time    0.0960: real time    0.0934
     EDDAV:  cpu time    0.5680: real time    0.5697
       DOS:  cpu time    0.0000: real time    0.0005
    CHARGE:  cpu time    0.0040: real time    0.0039
    MIXING:  cpu time    0.0000: real time    0.0002
    --------------------------------------------
      LOOP:  cpu time    0.6680: real time    0.6698

 eigenvalue-minimisations  :  3040
 total energy-change (2. order) : 0.5891391E-02  (-0.2444619E-02)
 number of electron       8.0000001 magnetization 
 augmentation part        0.6648125 magnetization 

 Broyden mixing:
  rms(total) = 0.11461E-01    rms(broyden)= 0.11459E-01
  rms(prec ) = 0.20084E-01
  weight for this iteration     100.00

 eigenvalues of (default mixing * dielectric matrix)
  average eigenvalue GAMMA=   2.1092
  0.9505  2.6885  2.6885

 Free energy of the ion-electron system (eV)
  ---------------------------------------------------
  alpha Z        PSCENC =        19.07613066
  Ewald energy   TEWEN  =      -355.25355161
  -Hartree energ DENC   =      -142.46817199
  -exchange      EXHF   =         0.00000000
  -V(xc)+E(xc)   XCENC  =       -18.96801801
  PAW double counting   =       550.12152607     -500.33668788
  entropy T*S    EENTRO =        -0.00000000
  eigenvalues    EBANDS =       -19.47915844
  atomic energy  EATOM  =       455.39628718
  Solvation  Ediel_sol  =         0.00000000
  ---------------------------------------------------
  free energy    TOTEN  =       -11.91164402 eV

  energy without entropy =      -11.91164402  energy(sigma->0) =      -11.91164402


--------------------------------------------------------------------------------------------------------




--------------------------------------- Iteration      1(   9)  ---------------------------------------


[...]
     13       0.0000      0.00000
     14       0.0001      0.00000
     15       0.0001      0.00000
     16       0.0000      0.00000
     17       0.0000      0.00000
     18       0.0001      0.00000
     19       0.0000      0.00000
     20       0.0000      0.00000
     21       0.0000      0.00000
     22      -0.0000      0.00000
     23      -0.0001      0.00000
     24       0.0000      0.00000
     25      -0.0001      0.00000
     26      -0.0000      0.00000
     27       0.0000      0.00000
     28       0.0000      0.00000
     29       0.0001      0.00000
     30       0.0001      0.00000
     31       0.0001      0.00000
     32       0.0001      0.00000

 k-point  54 :      -0.5000   -0.2500    0.2500
  band No.  band energies     occupation 
      1       0.0004      0.00000
      2       0.0002      0.00000
      3       0.0003      0.00000
      4       0.0003      0.00000
      5       0.0002      0.00000
      6       0.0002      0.00000
      7       0.0001      0.00000
      8       0.0001      0.00000
      9       0.0000      0.00000
     10       0.0001      0.00000
     11       0.0001      0.00000
     12       0.0001      0.00000
     13      -0.0000      0.00000
     14       0.0001      0.00000
     15       0.0000      0.00000
     16       0.0000      0.00000
     17       0.0000      0.00000
     18       0.0001      0.00000
     19       0.0001      0.00000
     20       0.0001      0.00000
     21      -0.0001      0.00000
     22      -0.0001      0.00000
     23      -0.0000      0.00000
     24      -0.0000      0.00000
     25       0.0001      0.00000
     26       0.0001      0.00000
     27       0.0001      0.00000
     28      -0.0000      0.00000
     29       0.0000      0.00000
     30       0.0001      0.00000
     31      -0.0000      0.00000
     32       0.0001      0.00000

 k-point  55 :       0.0000    0.3750    0.3750
  band No.  band energies     occupation 
      1       0.0004      0.00000
      2       0.0003      0.00000
      3       0.0003      0.00000
      4       0.0003      0.00000
      5       0.0001      0.00000
      6       0.0000      0.00000
      7       0.0002      0.00000
      8       0.0002      0.00000
      9       0.0002      0.00000
     10       0.0001      0.00000
     11       0.0001      0.00000
     12       0.0000      0.00000
     13       0.0000      0.00000
     14       0.0001      0.00000
     15       0.0001      0.00000
     16       0.0000      0.00000
     17       0.0001      0.00000
     18      -0.0000      0.00000
     19       0.0000      0.00000
     20       0.0000      0.00000
     21      -0.0001      0.00000
     22      -0.0001      0.00000
     23      -0.0001      0.00000
     24      -0.0000      0.00000
     25       0.0001      0.00000
     26       0.0001      0.00000
     27      -0.0000      0.00000
     28       0.0001      0.00000
     29       0.0000      0.00000
     30       0.0001      0.00000
     31       0.0001      0.00000
     32       0.0001      0.00000

 k-point  56 :       0.7500    0.3750    0.3750
  band No.  band energies     occupation 
      1       0.0004      0.00000
      2       0.0003      0.00000
      3       0.0003      0.00000
      4       0.0003      0.00000
      5       0.0001      0.00000
      6       0.0001      0.00000
      7       0.0003      0.00000
      8       0.0001      0.00000
      9       0.0001      0.00000
     10       0.0001      0.00000
     11       0.0001      0.00000
     12       0.0001      0.00000
     13       0.0000      0.00000
     14       0.0001      0.00000
     15       0.0000      0.00000
     16       0.0000      0.00000
     17       0.0000      0.00000
     18       0.0001      0.00000
     19       0.0000      0.00000
     20       0.0000      0.00000
     21       0.0000      0.00000
     22       0.0001      0.00000
     23       0.0001      0.00000
     24      -0.0001      0.00000
     25      -0.0001      0.00000
     26      -0.0001      0.00000
     27       0.0000      0.00000
     28      -0.0000      0.00000
     29       0.0000      0.00000
     30       0.0000      0.00000
     31       0.0001      0.00000
     32       0.0001      0.00000

 k-point  57 :      -0.1250    0.3750    0.3750
  band No.  band energies     occupation 
      1       0.0004      0.00000
      2       0.0003      0.00000
      3       0.0003      0.00000
      4       0.0003      0.00000
      5       0.0000      0.00000
      6       0.0001      0.00000
      7       0.0002      0.00000
      8       0.0001      0.00000
      9       0.0001      0.00000
     10       0.0001      0.00000
     11       0.0001      0.00000
     12       0.0001      0.00000
     13       0.0000      0.00000
     14       0.0001      0.00000
     15       0.0001      0.00000
     16       0.0001      0.00000
     17      -0.0000      0.00000
     18       0.0000      0.00000
     19       0.0000      0.00000
     20       0.0000      0.00000
     21       0.0001      0.00000
     22      -0.0001      0.00000
     23       0.0001      0.00000
     24      -0.0001      0.00000
     25       0.0000      0.00000
     26      -0.0001      0.00000
     27      -0.0000      0.00000
     28       0.0000      0.00000
     29       0.0000      0.00000
     30       0.0001      0.00000
     31       0.0001      0.00000
     32       0.0001      0.00000

 k-point  58 :      -0.1250   -0.5000    0.3750
  band No.  band energies     occupation 
      1       0.0004      0.00000
      2       0.0003      0.00000
      3       0.0003      0.00000
      4       0.0003      0.00000
      5       0.0001      0.00000
      6       0.0000      0.00000
      7       0.0003      0.00000
      8       0.0001      0.00000
      9       0.0001      0.00000
     10       0.0001      0.00000
     11       0.0001      0.00000
     12       0.0001      0.00000
     13       0.0000      0.00000
     14       0.0001      0.00000
     15       0.0001      0.00000
     16       0.0001      0.00000
     17       0.0000      0.00000
     18       0.0000      0.00000
     19       0.0000      0.00000
     20       0.0000      0.00000
     21       0.0000      0.00000
     22       0.0001      0.00000
     23       0.0001      0.00000
     24      -0.0001      0.00000
     25      -0.0001      0.00000
     26      -0.0001      0.00000
     27      -0.0000      0.00000
     28       0.0000      0.00000
     29       0.0000      0.00000
     30       0.0001      0.00000
     31       0.0001      0.00000
     32       0.0001      0.00000

 k-point  59 :       0.0000    0.5000    0.5000
  band No.  band energies     occupation 
      1       0.0004      0.00000
      2       0.0003      0.00000
      3       0.0003      0.00000
      4       0.0003      0.00000
      5       0.0000      0.00000
      6       0.0000      0.00000
      7       0.0003      0.00000
      8       0.0002      0.00000
      9       0.0002      0.00000
     10       0.0001      0.00000
     11       0.0000      0.00000
     12       0.0000      0.00000
     13       0.0000      0.00000
     14       0.0001      0.00000
     15       0.0001      0.00000
     16       0.0001      0.00000
     17      -0.0000      0.00000
     18       0.0000      0.00000
     19       0.0000      0.00000
     20       0.0000      0.00000
     21       0.0000      0.00000
     22       0.0001      0.00000
     23       0.0001      0.00000
     24      -0.0001      0.00000
     25      -0.0000      0.00000
     26      -0.0001      0.00000
     27      -0.0001      0.00000
     28       0.0000      0.00000
     29       0.0000      0.00000
     30       0.0001      0.00000
     31       0.0001      0.00000
     32       0.0001      0.00000


------------------------ aborting loop because EDIFF is reached ----------------------------------------


    FORLOC:  cpu time    0.0000: real time    0.0005
    FORNL :  cpu time    0.0480: real time    0.0452
    STRESS:  cpu time    0.1280: real time    0.1292
    FORCOR:  cpu time    0.0040: real time    0.0018
    OFIELD:  cpu time    0.0000: real time    0.0000
    FORLOC:  cpu time    0.0000: real time    0.0002
    FORNL :  cpu time    0.0440: real time    0.0450
    STRESS:  cpu time    0.1280: real time    0.1291
    FORCOR:  cpu time    0.0040: real time    0.0017
    OFIELD:  cpu time    0.0000: real time    0.0000
    FORLOC:  cpu time    0.0000: real time    0.0003
    FORNL :  cpu time    0.0440: real time    0.0442
    STRESS:  cpu time    0.1280: real time    0.1297
    FORCOR:  cpu time    0.0040: real time    0.0017
    OFIELD:  cpu time    0.0000: real time    0.0000
    FORLOC:  cpu time    0.0000: real time    0.0005
    FORNL :  cpu time    0.0440: real time    0.0450
    STRESS:  cpu time    0.1320: real time    0.1306
    FORCOR:  cpu time    0.0000: real time    0.0017
    OFIELD:  cpu time    0.0000: real time    0.0000

 INTERNAL STRAIN TENSOR  FOR ION    2  DIRECTION 1   (eV/Angst):
 -----------------------------------------------------------------------------
    -0.00091 -0.00000 -0.00000
    -0.00000  0.00135 -0.00000
     0.00000 -0.00000  0.00135


 POSITION                   FORCE-CONSTANT FOR ION    2 DIRECTION 1 (eV/Angst/Angst)
 -----------------------------------------------------------------------------------
      0.00000      0.00000      0.00000         4.503035      0.000000      0.000000
      2.12345      2.12345      2.12345        -4.503035      0.000000      0.000000
 -----------------------------------------------------------------------------------
    total drift:                                0.000000      0.000000      0.000000


 BORN EFFECTIVE CHARGE FOR ION    2 DIRECTION 1 :  -1.980  -0.000   0.000
                   rigid augmentation           :  -0.650   0.000   0.000
                   ionic contribution           :   6.000   0.000   0.000
                   Berry contribution           :  -7.331  -0.000   0.000


--------------------------------------------------------------------------------------------------------


  LATTYP: Found a face centered cubic cell.
 ALAT       =     4.2468930196
  
  Lattice vectors:
  
 A1 = (   0.0000000000,   2.1234465098,   2.1234465098)
 A2 = (   2.1234465098,   0.0000000000,   2.1234465098)
 A3 = (   2.1234465098,   2.1234465098,   0.0000000000)


Analysis of symmetry for initial positions (statically):
=====================================================================
 Subroutine PRICEL returns:
 Original cell was already a primitive cell.
 

 Routine SETGRP: Setting up the symmetry group for a 
 face centered cubic supercell.


 Subroutine GETGRP returns: Found 48 space group operations
 (whereof 48 operations were pure point group operations)
 out of a pool of 48 trial point group operations.


The static configuration has the point symmetry O_h .


Analysis of symmetry for dynamics (positions and initial velocities):
=====================================================================
 Subroutine PRICEL returns:
 Original cell was already a primitive cell.
 

 Routine SETGRP: Setting up the symmetry group for a 
 face centered cubic supercell.


 Subroutine GETGRP returns: Found 48 space group operations
 (whereof 48 operations were pure point group operations)
 out of a pool of 48 trial point group operations.


The dynamic configuration has the point symmetry O_h .


 Subroutine INISYM returns: Found 48 space group operations
 (whereof 48 operations are pure point group operations),
 and found     1 'primitive' translations



--------------------------------------------------------------------------------------------------------




 MACROSCOPIC STATIC DIELECTRIC TENSOR (including local field effects in DFT)
 ------------------------------------------------------
           3.166727     0.000000     0.000000
           0.000000     3.166727     0.000000
           0.000000     0.000000     3.166727
 ------------------------------------------------------


 PIEZOELECTRIC TENSOR  for field in x, y, z        (e  Angst)
          XX          YY          ZZ          XY          YZ          ZX
  --------------------------------------------------------------------------------
  x     0.00005    -0.00012    -0.00012     0.00000     0.00000     0.00000
  y    -0.00005    -0.00007    -0.00005     0.00000    -0.00000     0.00000
  z    -0.00004    -0.00004    -0.00008     0.00000     0.00000    -0.00000

 PIEZOELECTRIC TENSOR  for field in x, y, z        (C/m^2)
          XX          YY          ZZ          XY          YZ          ZX
  --------------------------------------------------------------------------------
  x     0.00000     0.00000     0.00000     0.00000     0.00000     0.00000
  y     0.00000     0.00000     0.00000     0.00000     0.00000     0.00000
  z     0.00000     0.00000     0.00000     0.00000     0.00000     0.00000
 
 BORN EFFECTIVE CHARGES (in e, cummulative output)
 -------------------------------------------------
 ion    1
    1     1.97967    -0.00000     0.00000
    2    -0.00000     1.97967     0.00000
    3     0.00000     0.00000     1.97968
 ion    2
    1    -1.97967     0.00000     0.00000
    2     0.00000    -1.97967    -0.00000
    3     0.00000     0.00000    -1.97968

 INTERNAL STRAIN TENSOR FOR ION    1 for displacements in x,y,z  (eV/Angst):
          X           Y           Z          XY          YZ          ZX
  --------------------------------------------------------------------------------
  x     0.00000     0.00000     0.00000     0.00000     0.00000     0.00000
  y     0.00000     0.00000     0.00000     0.00000     0.00000     0.00000
  z     0.00000     0.00000     0.00000     0.00000     0.00000     0.00000

 INTERNAL STRAIN TENSOR FOR ION    2 for displacements in x,y,z  (eV/Angst):
          X           Y           Z          XY          YZ          ZX
  --------------------------------------------------------------------------------
  x     0.00000     0.00000     0.00000     0.00000     0.00000     0.00000
  y     0.00000     0.00000     0.00000     0.00000     0.00000     0.00000
  z     0.00000     0.00000     0.00000     0.00000     0.00000     0.00000


--------------------------------------------------------------------------------------------------------


 
 SECOND DERIVATIVES (NOT SYMMETRIZED)
 ------------------------------------
               1X          1Y          1Z          2X          2Y          2Z 
  1X    -3.581780    0.000000    0.000000    3.581780    0.000000    0.000000
  1Y     0.000000   -3.581780    0.000000    0.000000    3.581780    0.000000
  1Z     0.000000    0.000000   -3.581780    0.000000    0.000000    3.581780
  2X     4.503035    0.000000    0.000000   -4.503035    0.000000    0.000000
  2Y     0.000000    4.503035    0.000000    0.000000   -4.503035    0.000000
  2Z     0.000000    0.000000    4.503035    0.000000    0.000000   -4.503035
 
 
 Eigenvectors and eigenvalues of the dynamical matrix
 ----------------------------------------------------
 
 
   1 f  =   10.252352 THz    64.417427 2PiTHz  341.981642 cm-1    42.400335 meV
             X         Y         Z           dx          dy          dz
      0.000000  0.000000  0.000000     0.000000    0.587017    0.000000  
      2.123447  2.123447  2.123447     0.000000   -0.809575    0.000000  
 
   2 f  =   10.252352 THz    64.417427 2PiTHz  341.981642 cm-1    42.400335 meV
             X         Y         Z           dx          dy          dz
      0.000000  0.000000  0.000000    -0.587017    0.000000    0.000000  
      2.123447  2.123447  2.123447     0.809575    0.000000    0.000000  
 
   3 f  =   10.252352 THz    64.417427 2PiTHz  341.981642 cm-1    42.400335 meV
             X         Y         Z           dx          dy          dz
      0.000000  0.000000  0.000000     0.000000    0.000000   -0.587017  
      2.123447  2.123447  2.123447     0.000000    0.000000    0.809575  
 
   4 f/i=    0.556827 THz     3.498648 2PiTHz   18.573752 cm-1     2.302853 meV
             X         Y         Z           dx          dy          dz
      0.000000  0.000000  0.000000     0.809575    0.000000    0.000000  
      2.123447  2.123447  2.123447     0.587017    0.000000    0.000000  
 
   5 f/i=    0.556827 THz     3.498648 2PiTHz   18.573752 cm-1     2.302853 meV
             X         Y         Z           dx          dy          dz
      0.000000  0.000000  0.000000     0.000000   -0.809575    0.000000  
      2.123447  2.123447  2.123447     0.000000   -0.587017    0.000000  
 
   6 f/i=    0.556827 THz     3.498648 2PiTHz   18.573752 cm-1     2.302853 meV
             X         Y         Z           dx          dy          dz
      0.000000  0.000000  0.000000     0.000000    0.000000    0.809575  
      2.123447  2.123447  2.123447     0.000000    0.000000    0.587017  
 


--------------------------------------------------------------------------------------------------------




 MACROSCOPIC STATIC DIELECTRIC TENSOR IONIC CONTRIBUTION
 ------------------------------------------------------
           9.102401    -0.000000    -0.000000
          -0.000000     9.102448     0.000000
          -0.000000     0.000000     9.102542
 ------------------------------------------------------


 ELASTIC MODULI IONIC CONTR (kBar)
 Direction    XX          YY          ZZ          XY          YZ          ZX
 --------------------------------------------------------------------------------
 XX           0.0000      0.0000      0.0000      0.0000      0.0000      0.0000
 YY           0.0000      0.0000      0.0000      0.0000      0.0000      0.0000
 ZZ           0.0000      0.0000      0.0000      0.0000      0.0000      0.0000
 XY           0.0000      0.0000      0.0000      0.0000      0.0000      0.0000
 YZ           0.0000      0.0000      0.0000      0.0000      0.0000      0.0000
 ZX           0.0000      0.0000      0.0000      0.0000      0.0000      0.0000
 --------------------------------------------------------------------------------


 PIEZOELECTRIC TENSOR IONIC CONTR  for field in x, y, z        (C/m^2)
          XX          YY          ZZ          XY          YZ          ZX
  --------------------------------------------------------------------------------
  x     0.00000     0.00000     0.00000     0.00000     0.00000     0.00000
  y     0.00000     0.00000     0.00000     0.00000     0.00000     0.00000
  z     0.00000     0.00000     0.00000     0.00000     0.00000     0.00000


--------------------------------------------------------------------------------------------------------


     LOOP+:  cpu time   37.6640: real time   37.8651
    4ORBIT:  cpu time    0.0000: real time    0.0000
 


 total charge     
 
# of ion       s       p       d       tot
------------------------------------------
    1        0.145   0.172   0.075   0.391
    2        1.540   3.547   0.000   5.087
--------------------------------------------------
tot          1.685   3.719   0.075   5.478
 

 total amount of memory used by VASP MPI-rank0    31177. kBytes
=======================================================================

   base      :      30000. kBytes
   nonlr-proj:        379. kBytes
   fftplans  :        111. kBytes
   grid      :        389. kBytes
   one-center:         16. kBytes
   wavefun   :        282. kBytes
 
  
  
 General timing and accounting informations for this job:
 ========================================================
  
                  Total CPU time used (sec):       38.380
                            User time (sec):       38.024
                          System time (sec):        0.356
                         Elapsed time (sec):       39.008
  
                   Maximum memory used (kb):       91504.
                   Average memory used (kb):           0.
  
                          Minor page faults:        34062
                          Major page faults:           11
                 Voluntary context switches:         3375
