PROCAR lm decomposed + phase
# of k-points:   29         # of bands:   32         # of ions:    2

 k-point     1 :    0.00000000 0.00000000 0.00000000     weight = 0.00195312

band     1 # energy  -14.13477688 # occ.  2.00000000
 
ion      s     py     pz     px    dxy    dyz    dz2    dxz  x2-y2    tot
    1  0.041  0.000  0.000  0.000  0.000  0.000  0.000  0.000  0.000  0.041
    2  0.672  0.000  0.000  0.000  0.000  0.000  0.000  0.000  0.000  0.672
tot    0.713  0.000  0.000  0.000  0.000  0.000  0.000  0.000  0.000  0.713
ion          s             py             pz             px             dxy            dyz            dz2            dxz          dx2-y2  
    1  0.171  0.090   0.000  0.000   0.000  0.000  -0.000 -0.000  -0.000 -0.000  -0.000 -0.000   0.000  0.000  -0.000 -0.000  -0.000 -0.000   0.037
    2  0.715  0.376  -0.000 -0.000  -0.000 -0.000   0.000  0.000   0.000  0.000   0.000  0.000   0.000  0.000   0.000  0.000   0.000  0.000   0.653
charge 0.690          0.000          0.000          0.000          0.000          0.000          0.000          0.000          0.000          0.690       
 
band     2 # energy    3.00357585 # occ.  2.00000000
 
ion      s     py     pz     px    dxy    dyz    dz2    dxz  x2-y2    tot
    1  0.000  0.004  0.011  0.002  0.000  0.000  0.000  0.000  0.000  0.017
    2  0.000  0.168  0.494  0.085  0.000  0.000  0.000  0.000  0.000  0.747
tot    0.000  0.172  0.505  0.087  0.000  0.000  0.000  0.000  0.000  0.764
ion          s             py             pz             px             dxy            dyz            dz2            dxz          dx2-y2  
    1 -0.000 -0.000  -0.049 -0.035   0.085  0.059  -0.035 -0.025  -0.000 -0.000  -0.000 -0.000  -0.000 -0.000  -0.000 -0.000  -0.000  0.000   0.016
    2 -0.000 -0.000   0.329  0.230  -0.564 -0.394   0.234  0.164   0.000  0.000   0.000  0.000   0.000  0.000   0.000  0.000   0.000  0.000   0.716
charge 0.000          0.165          0.484          0.083          0.000          0.000          0.000          0.000          0.000          0.732       
 
band     3 # energy    3.00357585 # occ.  2.00000000
 
ion      s     py     pz     px    dxy    dyz    dz2    dxz  x2-y2    tot
    1  0.000  0.007  0.000  0.009  0.000  0.000  0.000  0.000  0.000  0.017
    2  0.000  0.330  0.005  0.413  0.000  0.000  0.000  0.000  0.000  0.747
tot    0.000  0.337  0.005  0.422  0.000  0.000  0.000  0.000  0.000  0.764
ion          s             py             pz             px             dxy            dyz            dz2            dxz          dx2-y2  
    1  0.000  0.000  -0.072 -0.044  -0.009 -0.005   0.081  0.049   0.000  0.000   0.000 -0.000  -0.000  0.000   0.000  0.000   0.000  0.000   0.016
    2  0.000  0.000   0.481  0.290   0.057  0.035  -0.539 -0.325   0.000  0.000   0.000  0.000   0.000  0.000   0.000  0.000   0.000  0.000   0.716
charge 0.000          0.323          0.005          0.404          0.000          0.000          0.000          0.000          0.000          0.732       
 
band     4 # energy    3.00358222 # occ.  2.00000000
 
ion      s     py     pz     px    dxy    dyz    dz2    dxz  x2-y2    tot
    1  0.000  0.006  0.006  0.006  0.000  0.000  0.000  0.000  0.000  0.017
    2  0.000  0.249  0.249  0.249  0.000  0.000  0.000  0.000  0.000  0.747
tot    0.000  0.255  0.254  0.255  0.000  0.000  0.000  0.000  0.000  0.764
ion          s             py             pz             px             dxy            dyz            dz2            dxz          dx2-y2  
    1  0.000 -0.000  -0.034 -0.065  -0.034 -0.065  -0.034 -0.065  -0.000  0.000   0.000 -0.000  -0.000  0.000   0.000  0.000  -0.000  0.000   0.016
    2  0.000  0.000   0.229  0.432   0.228  0.432   0.229  0.432   0.000  0.000   0.000  0.000   0.000  0.000   0.000  0.000   0.000  0.000   0.716
charge 0.000          0.244          0.244          0.244          0.000          0.000          0.000          0.000          0.000          0.732       
 
band     5 # energy    7.49335687 # occ.  0.00000000
 
ion      s     py     pz     px    dxy    dyz    dz2    dxz  x2-y2    tot
    1  0.238  0.000  0.000  0.000  0.000  0.000  0.000  0.000  0.000  0.238
    2  0.253  0.000  0.000  0.000  0.000  0.000  0.000  0.000  0.000  0.253
tot    0.491  0.000  0.000  0.000  0.000  0.000  0.000  0.000  0.000  0.491
ion          s             py             pz             px             dxy            dyz            dz2            dxz          dx2-y2  
    1 -0.432 -0.197  -0.000 -0.000  -0.000 -0.000   0.000  0.000   0.000  0.000   0.000  0.000  -0.000 -0.000   0.000  0.000   0.000  0.000   0.225
    2  0.453  0.207  -0.000 -0.000  -0.000 -0.000   0.000  0.000   0.000  0.000   0.000  0.000   0.000  0.000   0.000  0.000   0.000  0.000   0.248
charge 0.473          0.000          0.000          0.000          0.000          0.000          0.000          0.000          0.000          0.473       
 
band     6 # energy   18.66344578 # occ.  0.00000000
 
ion      s     py     pz     px    dxy    dyz    dz2    dxz  x2-y2    tot
    1  0.000  0.000  0.000  0.000  0.000  0.148  0.000  0.148  0.000  0.296
    2  0.000  0.000  0.000  0.000  0.000  0.000  0.000  0.000  0.000  0.000
tot    0.000  0.000  0.000  0.000  0.000  0.148  0.000  0.148  0.000  0.296
ion          s             py             pz             px             dxy            dyz            dz2            dxz          dx2-y2  
    1  0.000  0.000  -0.000  0.000  -0.000 -0.000   0.000  0.000  -0.000 -0.000   0.383  0.038  -0.000 -0.000  -0.383 -0.038   0.000  0.000   0.296
    2  0.000  0.000   0.000 -0.000   0.000 -0.000  -0.000 -0.000   0.000  0.000   0.000  0.000   0.000  0.000   0.000  0.000   0.000  0.000   0.000
charge 0.000          0.000          0.000          0.000          0.000          0.148          0.000          0.148          0.000          0.296       
 
band     7 # energy   18.66344589 # occ.  0.00000000
 
ion      s     py     pz     px    dxy    dyz    dz2    dxz  x2-y2    tot
    1  0.000  0.000  0.000  0.000  0.069  0.114  0.000  0.114  0.000  0.296
    2  0.000  0.000  0.000  0.000  0.000  0.000  0.000  0.000  0.000  0.000
tot    0.000  0.000  0.000  0.000  0.069  0.114  0.000  0.114  0.000  0.296
ion          s             py             pz             px             dxy            dyz            dz2            dxz          dx2-y2  
    1  0.000 -0.000  -0.000 -0.000  -0.000 -0.000   0.000 -0.000  -0.210  0.157   0.270 -0.201  -0.000  0.000   0.271 -0.202  -0.000  0.000   0.296
    2  0.000 -0.000   0.000  0.000   0.000  0.000  -0.000  0.000   0.000  0.000   0.000  0.000   0.000  0.000   0.000  0.000   0.000  0.000   0.000
charge 0.000          0.000          0.000          0.000          0.069          0.114          0.000          0.114          0.000          0.296       
 
band     8 # energy   18.66344622 # occ.  0.00000000
 
ion      s     py     pz     px    dxy    dyz    dz2    dxz  x2-y2    tot
    1  0.000  0.000  0.000  0.000  0.228  0.034  0.000  0.034  0.000  0.296
    2  0.000  0.000  0.000  0.000  0.000  0.000  0.000  0.000  0.000  0.000
tot    0.000  0.000  0.000  0.000  0.228  0.034  0.000  0.034  0.000  0.296
ion          s             py             pz             px             dxy            dyz            dz2            dxz          dx2-y2  
    1 -0.000  0.000   0.000 -0.000   0.000 -0.000   0.000  0.000  -0.234  0.415  -0.091  0.161  -0.000  0.000  -0.091  0.161   0.000 -0.000   0.296
    2 -0.000  0.000  -0.000  0.000  -0.000  0.000   0.000 -0.000   0.000  0.000   0.000  0.000   0.000  0.000   0.000  0.000   0.000  0.000   0.000
charge 0.000          0.000          0.000          0.000          0.228          0.034          0.000          0.034          0.000          0.296       
 
band     9 # energy   22.51562485 # occ.  0.00000000
 
ion      s     py     pz     px    dxy    dyz    dz2    dxz  x2-y2    tot
    1  0.000  0.000  0.000  0.000  0.000  0.000  0.000  0.000  0.000  0.000
    2  0.000  0.000  0.000  0.000  0.000  0.000  0.000  0.000  0.000  0.000
tot    0.000  0.000  0.000  0.000  0.000  0.000  0.000  0.000  0.000  0.000
ion          s             py             pz             px             dxy            dyz            dz2            dxz          dx2-y2  
    1 -0.000 -0.000   0.000  0.000   0.000  0.000   0.000  0.000   0.000 -0.000  -0.000  0.000  -0.000  0.000  -0.000  0.000   0.000 -0.000   0.000
    2 -0.000 -0.000   0.000  0.000   0.000  0.000   0.000  0.000   0.000  0.000   0.000  0.000   0.000  0.000   0.000  0.000   0.000  0.000   0.000
charge 0.000          0.000          0.000          0.000          0.000          0.000          0.000          0.000          0.000          0.000       
 
band    10 # energy   24.26157479 # occ.  0.00000000
 
ion      s     py     pz     px    dxy    dyz    dz2    dxz  x2-y2    tot
    1  0.000  0.000  0.000  0.000  0.000  0.000  0.000  0.000  0.511  0.511
    2  0.000  0.000  0.000  0.000  0.000  0.000  0.000  0.000  0.000  0.000
tot    0.000  0.000  0.000  0.000  0.000  0.000  0.000  0.000  0.511  0.511
ion          s             py             pz             px             dxy            dyz            dz2            dxz          dx2-y2  
    1 -0.000 -0.000   0.000 -0.000   0.000 -0.000  -0.000 -0.000   0.000  0.000   0.000  0.000  -0.013 -0.001  -0.000 -0.000  -0.714 -0.036   0.511
    2  0.000  0.000   0.000  0.000   0.000 -0.000   0.000 -0.000   0.000  0.000   0.000  0.000   0.000  0.000   0.000  0.000   0.000  0.000   0.000
charge 0.000          0.000          0.000          0.000          0.000          0.000          0.000          0.000          0.511          0.511       
 
band    11 # energy   24.26157519 # occ.  0.00000000
 
ion      s     py     pz     px    dxy    dyz    dz2    dxz  x2-y2    tot
    1  0.000  0.000  0.000  0.000  0.000  0.000  0.511  0.000  0.000  0.511
    2  0.000  0.000  0.000  0.000  0.000  0.000  0.000  0.000  0.000  0.000
tot    0.000  0.000  0.000  0.000  0.000  0.000  0.511  0.000  0.000  0.511
ion          s             py             pz             px             dxy            dyz            dz2            dxz          dx2-y2  
    1 -0.000  0.000   0.000  0.000   0.000  0.000   0.000  0.000  -0.000  0.000   0.000 -0.000   0.556 -0.449   0.000 -0.000  -0.010  0.008   0.511
    2  0.000 -0.000   0.000  0.000   0.000  0.000   0.000  0.000   0.000  0.000   0.000  0.000   0.000  0.000   0.000  0.000   0.000  0.000   0.000
charge 0.000          0.000          0.000          0.000          0.000          0.000          0.511          0.000          0.000          0.511       
 
band    12 # energy   26.77880645 # occ.  0.00000000
 
ion      s     py     pz     px    dxy    dyz    dz2    dxz  x2-y2    tot
    1  0.000  0.157  0.383  0.049  0.000  0.000  0.000  0.000  0.000  0.588
    2  0.000  0.012  0.029  0.004  0.000  0.000  0.000  0.000  0.000  0.045
tot    0.000  0.169  0.412  0.053  0.000  0.000  0.000  0.000  0.000  0.633
ion          s             py             pz             px             dxy            dyz            dz2            dxz          dx2-y2  
    1  0.000  0.000   0.395 -0.004  -0.617  0.006   0.221 -0.002   0.000  0.000   0.000  0.000   0.000  0.000   0.000 -0.000  -0.000 -0.000   0.586
    2  0.000  0.000   0.106 -0.001  -0.166  0.002   0.060 -0.001   0.000  0.000   0.000  0.000   0.000  0.000   0.000  0.000   0.000  0.000   0.043
charge 0.000          0.168          0.409          0.053          0.000          0.000          0.000          0.000          0.000          0.629       
 
band    13 # energy   26.77880647 # occ.  0.00000000
 
ion      s     py     pz     px    dxy    dyz    dz2    dxz  x2-y2    tot
    1  0.000  0.235  0.010  0.343  0.000  0.000  0.000  0.000  0.000  0.588
    2  0.000  0.018  0.001  0.026  0.000  0.000  0.000  0.000  0.000  0.045
tot    0.000  0.253  0.011  0.369  0.000  0.000  0.000  0.000  0.000  0.633
ion          s             py             pz             px             dxy            dyz            dz2            dxz          dx2-y2  
    1 -0.000 -0.000   0.381  0.300   0.079  0.062  -0.459 -0.362  -0.000 -0.000  -0.000 -0.000   0.000 -0.000  -0.000 -0.000  -0.000 -0.000   0.586
    2 -0.000 -0.000   0.102  0.081   0.021  0.017  -0.124 -0.097   0.000  0.000   0.000  0.000   0.000  0.000   0.000  0.000   0.000  0.000   0.043
charge 0.000          0.252          0.011          0.366          0.000          0.000          0.000          0.000          0.000          0.629       
 
band    14 # energy   26.77882363 # occ.  0.00000000
 
ion      s     py     pz     px    dxy    dyz    dz2    dxz  x2-y2    tot
    1  0.000  0.196  0.196  0.196  0.000  0.000  0.000  0.000  0.000  0.588
    2  0.000  0.015  0.015  0.015  0.000  0.000  0.000  0.000  0.000  0.045
tot    0.000  0.211  0.211  0.211  0.000  0.000  0.000  0.000  0.000  0.633
ion          s             py             pz             px             dxy            dyz            dz2            dxz          dx2-y2  
    1  0.000 -0.000  -0.116 -0.427  -0.116 -0.426  -0.116 -0.427  -0.000  0.000  -0.000  0.000   0.000 -0.000   0.000 -0.000   0.000 -0.000   0.586
    2  0.000 -0.000  -0.031 -0.115  -0.031 -0.115  -0.031 -0.115   0.000  0.000   0.000  0.000   0.000  0.000   0.000  0.000   0.000  0.000   0.043
charge 0.000          0.210          0.209          0.210          0.000          0.000          0.000          0.000          0.000          0.629       
 
band    15 # energy   40.77912794 # occ.  0.00000000
 
ion      s     py     pz     px    dxy    dyz    dz2    dxz  x2-y2    tot
    1  0.000  0.000  0.001  0.000  0.000  0.000  0.000  0.000  0.000  0.002
    2  0.000  0.043  0.171  0.042  0.000  0.000  0.000  0.000  0.000  0.257
tot    0.000  0.043  0.172  0.043  0.000  0.000  0.000  0.000  0.000  0.258
ion          s             py             pz             px             dxy            dyz            dz2            dxz          dx2-y2  
    1 -0.000 -0.000  -0.013 -0.009   0.027  0.017  -0.013 -0.009  -0.000 -0.000  -0.000  0.000  -0.000  0.000  -0.000  0.000   0.000 -0.000   0.002
    2 -0.000  0.000  -0.150 -0.096   0.298  0.191  -0.149 -0.095   0.000  0.000   0.000  0.000   0.000  0.000   0.000  0.000   0.000  0.000   0.188
charge 0.000          0.032          0.127          0.031          0.000          0.000          0.000          0.000          0.000          0.190       
 
band    16 # energy   40.77912795 # occ.  0.00000000
 
ion      s     py     pz     px    dxy    dyz    dz2    dxz  x2-y2    tot
    1  0.000  0.001  0.000  0.001  0.000  0.000  0.000  0.000  0.000  0.002
    2  0.000  0.128  0.000  0.129  0.000  0.000  0.000  0.000  0.000  0.257
tot    0.000  0.129  0.000  0.129  0.000  0.000  0.000  0.000  0.000  0.258
ion          s             py             pz             px             dxy            dyz            dz2            dxz          dx2-y2  
    1 -0.000  0.000   0.026  0.010   0.000  0.000  -0.026 -0.010   0.000 -0.000   0.000 -0.000  -0.000 -0.000  -0.000 -0.000  -0.000  0.000   0.002
    2  0.000 -0.000   0.284  0.114   0.001  0.000  -0.285 -0.114   0.000  0.000   0.000  0.000   0.000  0.000   0.000  0.000   0.000  0.000   0.188
charge 0.000          0.095          0.000          0.095          0.000          0.000          0.000          0.000          0.000          0.190       
 
band    17 # energy   40.77929202 # occ.  0.00000000
 
ion      s     py     pz     px    dxy    dyz    dz2    dxz  x2-y2    tot
    1  0.000  0.001  0.001  0.001  0.000  0.000  0.000  0.000  0.000  0.002
    2  0.000  0.086  0.086  0.086  0.000  0.000  0.000  0.000  0.000  0.257
tot    0.000  0.086  0.086  0.086  0.000  0.000  0.000  0.000  0.000  0.258
ion          s             py             pz             px             dxy            dyz            dz2            dxz          dx2-y2  
    1 -0.000 -0.000   0.006  0.022   0.006  0.022   0.006  0.022   0.000 -0.000  -0.000  0.000   0.000 -0.000  -0.000 -0.000  -0.000 -0.000   0.002
    2 -0.000  0.000   0.071  0.240   0.071  0.240   0.071  0.240   0.000  0.000   0.000  0.000   0.000  0.000   0.000  0.000   0.000  0.000   0.188
charge 0.000          0.063          0.063          0.063          0.000          0.000          0.000          0.000          0.000          0.190       
 
band    18 # energy   41.18362976 # occ.  0.00000000
 
ion      s     py     pz     px    dxy    dyz    dz2    dxz  x2-y2    tot
    1  0.479  0.000  0.000  0.000  0.000  0.000  0.000  0.000  0.000  0.479
    2  0.000  0.000  0.000  0.000  0.000  0.000  0.000  0.000  0.000  0.000
tot    0.479  0.000  0.000  0.000  0.000  0.000  0.000  0.000  0.000  0.479
ion          s             py             pz             px             dxy            dyz            dz2            dxz          dx2-y2  
    1  0.663  0.184  -0.000 -0.000  -0.000 -0.000   0.000  0.000   0.000  0.000   0.000  0.000   0.000  0.000   0.000  0.000  -0.000 -0.000   0.473
    2 -0.004 -0.001   0.000  0.000   0.000  0.000  -0.000 -0.000   0.000  0.000   0.000  0.000   0.000  0.000   0.000  0.000   0.000  0.000   0.000
charge 0.473          0.000          0.000          0.000          0.000          0.000          0.000          0.000          0.000          0.473       
 
band    19 # energy   52.27455915 # occ.  0.00000000
 
ion      s     py     pz     px    dxy    dyz    dz2    dxz  x2-y2    tot
    1  0.000  0.430  1.353  0.249  0.000  0.000  0.000  0.000  0.000  2.032
    2  0.000  0.000  0.001  0.000  0.000  0.000  0.000  0.000  0.000  0.002
tot    0.000  0.431  1.354  0.249  0.000  0.000  0.000  0.000  0.000  2.034
ion          s             py             pz             px             dxy            dyz            dz2            dxz          dx2-y2  
    1  0.000  0.000   0.571  0.280  -1.013 -0.496   0.434  0.213   0.000  0.000   0.000 -0.000  -0.000  0.000   0.000 -0.000   0.000 -0.000   1.909
    2  0.000  0.000  -0.014 -0.007   0.024  0.012  -0.010 -0.005   0.000  0.000   0.000  0.000   0.000  0.000   0.000  0.000   0.000  0.000   0.001
charge 0.000          0.404          1.272          0.234          0.000          0.000          0.000          0.000          0.000          1.910       
 
band    20 # energy   52.27455959 # occ.  0.00000000
 
ion      s     py     pz     px    dxy    dyz    dz2    dxz  x2-y2    tot
    1  0.000  0.922  0.008  1.101  0.000  0.000  0.000  0.000  0.000  2.032
    2  0.000  0.001  0.000  0.001  0.000  0.000  0.000  0.000  0.000  0.002
tot    0.000  0.923  0.008  1.103  0.000  0.000  0.000  0.000  0.000  2.034
ion          s             py             pz             px             dxy            dyz            dz2            dxz          dx2-y2  
    1 -0.000  0.000   0.781  0.506   0.074  0.048  -0.854 -0.553  -0.000 -0.000  -0.000 -0.000   0.000  0.000  -0.000 -0.000   0.000 -0.000   1.909
    2 -0.000 -0.000  -0.019 -0.012  -0.002 -0.001   0.020  0.013   0.000  0.000   0.000  0.000   0.000  0.000   0.000  0.000   0.000  0.000   0.001
charge 0.000          0.867          0.008          1.036          0.000          0.000          0.000          0.000          0.000          1.910       
 
band    21 # energy   52.27464618 # occ.  0.00000000
 
ion      s     py     pz     px    dxy    dyz    dz2    dxz  x2-y2    tot
    1  0.000  0.680  0.670  0.682  0.000  0.000  0.000  0.000  0.000  2.032
    2  0.000  0.001  0.001  0.001  0.000  0.000  0.000  0.000  0.000  0.002
tot    0.000  0.680  0.671  0.682  0.000  0.000  0.000  0.000  0.000  2.034
ion          s             py             pz             px             dxy            dyz            dz2            dxz          dx2-y2  
    1 -0.000 -0.000   0.145  0.786   0.144  0.781   0.145  0.787   0.000 -0.000  -0.000  0.000   0.000 -0.000  -0.000  0.000   0.000 -0.000   1.909
    2 -0.000  0.000  -0.003 -0.019  -0.003 -0.019  -0.003 -0.019   0.000  0.000   0.000  0.000   0.000  0.000   0.000  0.000   0.000  0.000   0.001
charge 0.000          0.639          0.630          0.641          0.000          0.000          0.000          0.000          0.000          1.910       
 
band    22 # energy   52.44806484 # occ.  0.00000000
 
ion      s     py     pz     px    dxy    dyz    dz2    dxz  x2-y2    tot
    1  0.000  0.000  0.000  0.000  0.000  0.672  0.000  0.671  0.000  1.343
    2  0.000  0.000  0.000  0.000  0.000  0.000  0.000  0.000  0.000  0.000
tot    0.000  0.000  0.000  0.000  0.000  0.672  0.000  0.671  0.000  1.343
ion          s             py             pz             px             dxy            dyz            dz2            dxz          dx2-y2  
    1  0.000  0.000  -0.000 -0.000  -0.000  0.000   0.000  0.000   0.000  0.000  -0.817 -0.070  -0.000 -0.000   0.816  0.070   0.000  0.000   1.343
    2  0.000  0.000   0.000  0.000   0.000  0.000  -0.000 -0.000   0.000  0.000   0.000  0.000   0.000  0.000   0.000  0.000   0.000  0.000   0.000
charge 0.000          0.000          0.000          0.000          0.000          0.672          0.000          0.671          0.000          1.343       
 
band    23 # energy   52.44806543 # occ.  0.00000000
 
ion      s     py     pz     px    dxy    dyz    dz2    dxz  x2-y2    tot
    1  0.000  0.000  0.000  0.000  0.388  0.477  0.000  0.478  0.000  1.343
    2  0.000  0.000  0.000  0.000  0.000  0.000  0.000  0.000  0.000  0.000
tot    0.000  0.000  0.000  0.000  0.388  0.477  0.000  0.478  0.000  1.343
ion          s             py             pz             px             dxy            dyz            dz2            dxz          dx2-y2  
    1 -0.000  0.000  -0.000 -0.000  -0.000 -0.000   0.000 -0.000  -0.487  0.388   0.540 -0.430   0.000 -0.000   0.541 -0.430   0.000 -0.000   1.343
    2 -0.000  0.000   0.000  0.000   0.000  0.000  -0.000  0.000   0.000  0.000   0.000  0.000   0.000  0.000   0.000  0.000   0.000  0.000   0.000
charge 0.000          0.000          0.000          0.000          0.388          0.477          0.000          0.478          0.000          1.343       
 
band    24 # energy   52.44806710 # occ.  0.00000000
 
ion      s     py     pz     px    dxy    dyz    dz2    dxz  x2-y2    tot
    1  0.000  0.000  0.000  0.000  0.955  0.194  0.000  0.194  0.000  1.343
    2  0.000  0.000  0.000  0.000  0.000  0.000  0.000  0.000  0.000  0.000
tot    0.000  0.000  0.000  0.000  0.955  0.194  0.000  0.194  0.000  1.343
ion          s             py             pz             px             dxy            dyz            dz2            dxz          dx2-y2  
    1  0.000 -0.000  -0.000  0.000  -0.000 -0.000  -0.000 -0.000  -0.618  0.757  -0.279  0.341   0.000 -0.000  -0.279  0.341  -0.000  0.000   1.343
    2  0.000 -0.000  -0.000  0.000  -0.000  0.000   0.000 -0.000   0.000  0.000   0.000  0.000   0.000  0.000   0.000  0.000   0.000  0.000   0.000
charge 0.000          0.000          0.000          0.000          0.955          0.194          0.000          0.194          0.000          1.343       
 
band    25 # energy   57.95494053 # occ.  0.00000000
 
ion      s     py     pz     px    dxy    dyz    dz2    dxz  x2-y2    tot
    1  0.000  0.000  0.000  0.000  0.000  0.000  0.000  0.000  0.682  0.682
    2  0.000  0.000  0.000  0.000  0.000  0.000  0.000  0.000  0.000  0.000
tot    0.000  0.000  0.000  0.000  0.000  0.000  0.000  0.000  0.682  0.682
ion          s             py             pz             px             dxy            dyz            dz2            dxz          dx2-y2  
    1  0.000  0.000  -0.000  0.000  -0.000  0.000   0.000  0.000   0.000  0.000   0.000  0.000   0.015  0.000  -0.000 -0.000   0.826  0.001   0.682
    2  0.000  0.000   0.000 -0.000   0.000 -0.000  -0.000 -0.000   0.000  0.000   0.000  0.000   0.000  0.000   0.000  0.000   0.000  0.000   0.000
charge 0.000          0.000          0.000          0.000          0.000          0.000          0.000          0.000          0.682          0.682       
 
band    26 # energy   57.95494108 # occ.  0.00000000
 
ion      s     py     pz     px    dxy    dyz    dz2    dxz  x2-y2    tot
    1  0.000  0.000  0.000  0.000  0.000  0.000  0.682  0.000  0.000  0.682
    2  0.000  0.000  0.000  0.000  0.000  0.000  0.000  0.000  0.000  0.000
tot    0.000  0.000  0.000  0.000  0.000  0.000  0.682  0.000  0.000  0.682
ion          s             py             pz             px             dxy            dyz            dz2            dxz          dx2-y2  
    1 -0.000  0.000  -0.000  0.000   0.000 -0.000  -0.000  0.000   0.000 -0.000  -0.000  0.000   0.628 -0.536  -0.000  0.000  -0.011  0.010   0.682
    2 -0.000  0.000  -0.000 -0.000  -0.000 -0.000   0.000 -0.000   0.000  0.000   0.000  0.000   0.000  0.000   0.000  0.000   0.000  0.000   0.000
charge 0.000          0.000          0.000          0.000          0.000          0.000          0.682          0.000          0.000          0.682       
 
band    27 # energy   59.33268950 # occ.  0.00000000
 
ion      s     py     pz     px    dxy    dyz    dz2    dxz  x2-y2    tot
    1  0.000  0.000  0.000  0.000  0.000  0.000  0.000  0.000  0.000  0.000
    2  0.000  0.000  0.000  0.000  0.000  0.000  0.000  0.000  0.000  0.000
tot    0.000  0.000  0.000  0.000  0.000  0.000  0.000  0.000  0.000  0.000
ion          s             py             pz             px             dxy            dyz            dz2            dxz          dx2-y2  
    1  0.000  0.000   0.000 -0.000  -0.000  0.000  -0.000  0.000  -0.000  0.000  -0.000  0.000   0.000 -0.000   0.000  0.000   0.000 -0.000   0.000
    2 -0.000 -0.000  -0.000  0.000   0.000  0.000   0.000 -0.000   0.000  0.000   0.000  0.000   0.000  0.000   0.000  0.000   0.000  0.000   0.000
charge 0.000          0.000          0.000          0.000          0.000          0.000          0.000          0.000          0.000          0.000       
 
band    28 # energy   59.33270737 # occ.  0.00000000
 
ion      s     py     pz     px    dxy    dyz    dz2    dxz  x2-y2    tot
    1  0.000  0.000  0.000  0.000  0.000  0.000  0.000  0.000  0.000  0.000
    2  0.000  0.000  0.000  0.000  0.000  0.000  0.000  0.000  0.000  0.000
tot    0.000  0.000  0.000  0.000  0.000  0.000  0.000  0.000  0.000  0.000
ion          s             py             pz             px             dxy            dyz            dz2            dxz          dx2-y2  
    1 -0.000 -0.000   0.000  0.000   0.000 -0.000  -0.000 -0.000  -0.000 -0.000  -0.000 -0.000   0.000 -0.000  -0.000 -0.000  -0.000 -0.000   0.000
    2 -0.000 -0.000  -0.000 -0.000  -0.000  0.000   0.000  0.000   0.000  0.000   0.000  0.000   0.000  0.000   0.000  0.000   0.000  0.000   0.000
charge 0.000          0.000          0.000          0.000          0.000          0.000          0.000          0.000          0.000          0.000       
 
band    29 # energy   59.33270738 # occ.  0.00000000
 
ion      s     py     pz     px    dxy    dyz    dz2    dxz  x2-y2    tot
    1  0.000  0.000  0.000  0.000  0.000  0.000  0.000  0.000  0.000  0.000
    2  0.000  0.000  0.000  0.000  0.000  0.000  0.000  0.000  0.000  0.000
tot    0.000  0.000  0.000  0.000  0.000  0.000  0.000  0.000  0.000  0.000
ion          s             py             pz             px             dxy            dyz            dz2            dxz          dx2-y2  
    1 -0.000  0.000  -0.000 -0.000   0.000  0.000  -0.000 -0.000  -0.000 -0.000  -0.000  0.000   0.000 -0.000  -0.000  0.000   0.000  0.000   0.000
    2 -0.000 -0.000   0.000  0.000  -0.000 -0.000   0.000  0.000   0.000  0.000   0.000  0.000   0.000  0.000   0.000  0.000   0.000  0.000   0.000
charge 0.000          0.000          0.000          0.000          0.000          0.000          0.000          0.000          0.000          0.000       
 
band    30 # energy   62.27184309 # occ.  0.00000000
 
ion      s     py     pz     px    dxy    dyz    dz2    dxz  x2-y2    tot
    1  0.208  0.000  0.000  0.000  0.000  0.000  0.000  0.000  0.000  0.208
    2  0.369  0.000  0.000  0.000  0.000  0.000  0.000  0.000  0.000  0.369
tot    0.577  0.000  0.000  0.000  0.000  0.000  0.000  0.000  0.000  0.577
ion          s             py             pz             px             dxy            dyz            dz2            dxz          dx2-y2  
    1 -0.343 -0.175   0.000  0.000   0.000  0.000  -0.000 -0.000  -0.000 -0.000  -0.000 -0.000   0.000  0.000  -0.000 -0.000  -0.000 -0.000   0.148
    2 -0.514 -0.262  -0.000 -0.000  -0.000 -0.000   0.000  0.000   0.000  0.000   0.000  0.000   0.000  0.000   0.000  0.000   0.000  0.000   0.333
charge 0.481          0.000          0.000          0.000          0.000          0.000          0.000          0.000          0.000          0.481       
 
band    31 # energy   67.65297039 # occ.  0.00000000
 
ion      s     py     pz     px    dxy    dyz    dz2    dxz  x2-y2    tot
    1  0.000  0.000  0.000  0.000  0.000  0.000  0.001  0.000  1.663  1.664
    2  0.000  0.000  0.000  0.000  0.000  0.000  0.000  0.000  0.000  0.000
tot    0.000  0.000  0.000  0.000  0.000  0.000  0.001  0.000  1.663  1.664
ion          s             py             pz             px             dxy            dyz            dz2            dxz          dx2-y2  
    1 -0.000  0.000   0.000 -0.000   0.000 -0.000  -0.000 -0.000   0.000 -0.000   0.000 -0.000  -0.022  0.008  -0.000  0.000  -1.219  0.422   1.664
    2  0.000 -0.000  -0.000  0.000  -0.000  0.000   0.000  0.000   0.000  0.000   0.000  0.000   0.000  0.000   0.000  0.000   0.000  0.000   0.000
charge 0.000          0.000          0.000          0.000          0.000          0.000          0.001          0.000          1.663          1.664       
 
band    32 # energy   67.65297171 # occ.  0.00000000
 
ion      s     py     pz     px    dxy    dyz    dz2    dxz  x2-y2    tot
    1  0.000  0.000  0.000  0.000  0.000  0.000  1.663  0.000  0.001  1.664
    2  0.000  0.000  0.000  0.000  0.000  0.000  0.000  0.000  0.000  0.000
tot    0.000  0.000  0.000  0.000  0.000  0.000  1.663  0.000  0.001  1.664