   2   2   1   0
  0.9568522E+01  0.3002364E-09  0.3002364E-09  0.3002364E-09  0.5000000E-15
  1.000000000000000E-004
  CAR 
 unknown system                          
     45.25587054    -16.96163531  301      3.20720617      1.00000000
    -16.962  0.0000E+00  0.0000E+00
    -16.754  0.0000E+00  0.0000E+00
    -16.547  0.0000E+00  0.0000E+00
    -16.339  0.0000E+00  0.0000E+00
    -16.132  0.0000E+00  0.0000E+00
    -15.925  0.0000E+00  0.0000E+00
    -15.717  0.0000E+00  0.0000E+00
    -15.510  0.0000E+00  0.0000E+00
    -15.303  0.0000E+00  0.0000E+00
    -15.095  0.0000E+00  0.0000E+00
    -14.888  0.0000E+00  0.0000E+00
    -14.680  0.0000E+00  0.0000E+00
    -14.473  0.0000E+00  0.0000E+00
    -14.266  0.5285E-06  0.1096E-06
    -14.058  0.4036E-01  0.8370E-02
    -13.851  0.2502E+00  0.6026E-01
    -13.643  0.3748E+00  0.1380E+00
    -13.436  0.5240E+00  0.2467E+00
    -13.229  0.7703E+00  0.4064E+00
    -13.021  0.1295E+01  0.6750E+00
    -12.814  0.2558E+01  0.1206E+01
    -12.606  0.3648E+01  0.1962E+01
    -12.399  0.1825E+00  0.2000E+01
    -12.192  0.0000E+00  0.2000E+01
    -11.984  0.0000E+00  0.2000E+01
    -11.777  0.0000E+00  0.2000E+01
    -11.569  0.0000E+00  0.2000E+01
    -11.362  0.0000E+00  0.2000E+01
    -11.155  0.0000E+00  0.2000E+01
    -10.947  0.0000E+00  0.2000E+01
    -10.740  0.0000E+00  0.2000E+01
    -10.532  0.0000E+00  0.2000E+01
    -10.325  0.0000E+00  0.2000E+01
    -10.118  0.0000E+00  0.2000E+01
     -9.910  0.0000E+00  0.2000E+01
     -9.703  0.0000E+00  0.2000E+01
     -9.496  0.0000E+00  0.2000E+01
     -9.288  0.0000E+00  0.2000E+01
     -9.081  0.0000E+00  0.2000E+01
     -8.873  0.0000E+00  0.2000E+01
     -8.666  0.0000E+00  0.2000E+01
     -8.459  0.0000E+00  0.2000E+01
     -8.251  0.0000E+00  0.2000E+01
     -8.044  0.0000E+00  0.2000E+01
     -7.836  0.0000E+00  0.2000E+01
     -7.629  0.0000E+00  0.2000E+01
     -7.422  0.0000E+00  0.2000E+01
     -7.214  0.0000E+00  0.2000E+01
     -7.007  0.0000E+00  0.2000E+01
     -6.799  0.0000E+00  0.2000E+01
     -6.592  0.0000E+00  0.2000E+01
     -6.385  0.0000E+00  0.2000E+01
     -6.177  0.0000E+00  0.2000E+01
     -5.970  0.0000E+00  0.2000E+01
     -5.762  0.0000E+00  0.2000E+01
     -5.555  0.0000E+00  0.2000E+01
     -5.348  0.0000E+00  0.2000E+01
     -5.140  0.0000E+00  0.2000E+01
     -4.933  0.0000E+00  0.2000E+01
     -4.726  0.0000E+00  0.2000E+01
     -4.518  0.0000E+00  0.2000E+01
     -4.311  0.0000E+00  0.2000E+01
     -4.103  0.0000E+00  0.2000E+01
     -3.896  0.0000E+00  0.2000E+01
     -3.689  0.0000E+00  0.2000E+01
     -3.481  0.0000E+00  0.2000E+01
     -3.274  0.0000E+00  0.2000E+01
     -3.066  0.0000E+00  0.2000E+01
     -2.859  0.0000E+00  0.2000E+01
     -2.652  0.0000E+00  0.2000E+01
     -2.444  0.0000E+00  0.2000E+01
     -2.237  0.0000E+00  0.2000E+01
     -2.029  0.0000E+00  0.2000E+01
     -1.822  0.0000E+00  0.2000E+01
     -1.615  0.1925E-04  0.2000E+01
     -1.407  0.5641E-01  0.2012E+01
     -1.200  0.3785E+00  0.2090E+01
     -0.992  0.6224E+00  0.2219E+01
     -0.785  0.9751E+00  0.2422E+01
     -0.578  0.1882E+01  0.2812E+01
     -0.370  0.2419E+01  0.3314E+01
     -0.163  0.1163E+01  0.3555E+01
      0.044  0.6502E+00  0.3690E+01
      0.252  0.3818E+00  0.3769E+01
      0.459  0.1063E+01  0.3989E+01
      0.667  0.4909E+00  0.4091E+01
      0.874  0.1110E+01  0.4321E+01
      1.081  0.9383E+00  0.4516E+01
      1.289  0.1172E+01  0.4759E+01
      1.496  0.1035E+01  0.4973E+01
      1.704  0.1888E+01  0.5365E+01
      1.911  0.2887E+01  0.5964E+01
      2.118  0.2446E+01  0.6471E+01
      2.326  0.2943E+01  0.7081E+01
      2.533  0.2338E+01  0.7566E+01
      2.741  0.1276E+01  0.7831E+01
      2.948  0.7134E+00  0.7979E+01
      3.155  0.1023E+00  0.8000E+01
      3.363  0.2581E-06  0.8000E+01
      3.570  0.0000E+00  0.8000E+01
      3.778  0.0000E+00  0.8000E+01
      3.985  0.0000E+00  0.8000E+01
      4.192  0.0000E+00  0.8000E+01
      4.400  0.0000E+00  0.8000E+01
      4.607  0.0000E+00  0.8000E+01
      4.814  0.0000E+00  0.8000E+01
      5.022  0.0000E+00  0.8000E+01
      5.229  0.0000E+00  0.8000E+01
      5.437  0.0000E+00  0.8000E+01
      5.644  0.0000E+00  0.8000E+01
      5.851  0.0000E+00  0.8000E+01
      6.059  0.0000E+00  0.8000E+01
      6.266  0.0000E+00  0.8000E+01
      6.474  0.0000E+00  0.8000E+01
      6.681  0.0000E+00  0.8000E+01
      6.888  0.0000E+00  0.8000E+01
      7.096  0.0000E+00  0.8000E+01
      7.303  0.3594E-10  0.8000E+01
      7.511  0.3185E-02  0.8001E+01
      7.718  0.2396E-02  0.8001E+01
      7.925  0.6554E-02  0.8003E+01
      8.133  0.6293E-01  0.8016E+01
      8.340  0.8644E-02  0.8017E+01
      8.548  0.1428E-01  0.8020E+01
      8.755  0.5270E-01  0.8031E+01
      8.962  0.1662E+00  0.8066E+01
      9.170  0.1242E-01  0.8068E+01
      9.377  0.6709E-02  0.8070E+01
      9.585  0.1492E+00  0.8101E+01
      9.792  0.1490E+00  0.8132E+01
      9.999  0.1750E+00  0.8168E+01
     10.207  0.3127E-01  0.8174E+01
     10.414  0.1840E+00  0.8212E+01
     10.621  0.3998E+00  0.8295E+01
     10.829  0.2491E+00  0.8347E+01
     11.036  0.4131E+00  0.8433E+01
     11.244  0.4224E+00  0.8520E+01
     11.451  0.3877E+00  0.8601E+01
     11.658  0.7155E+00  0.8749E+01
     11.866  0.5392E+00  0.8861E+01
     12.073  0.2498E+00  0.8913E+01
     12.281  0.4337E+00  0.9003E+01
     12.488  0.7999E+00  0.9169E+01
     12.695  0.9837E+00  0.9373E+01
     12.903  0.1010E+01  0.9582E+01
     13.110  0.9158E+00  0.9772E+01
     13.318  0.8474E+00  0.9948E+01
     13.525  0.3909E+00  0.1003E+02
     13.732  0.9663E+00  0.1023E+02
     13.940  0.5815E+00  0.1035E+02
     14.147  0.5684E+00  0.1047E+02
     14.355  0.2819E+00  0.1053E+02
     14.562  0.1681E+01  0.1087E+02
     14.769  0.1106E+01  0.1110E+02
     14.977  0.2032E+01  0.1153E+02
     15.184  0.1566E+01  0.1185E+02
     15.391  0.9548E+00  0.1205E+02
     15.599  0.1207E+01  0.1230E+02
     15.806  0.9127E+00  0.1249E+02
     16.014  0.6568E+00  0.1262E+02
     16.221  0.5478E+00  0.1274E+02
     16.428  0.6615E+00  0.1287E+02
     16.636  0.5556E+00  0.1299E+02
     16.843  0.4086E+00  0.1307E+02
     17.051  0.2616E+00  0.1313E+02
     17.258  0.4392E+00  0.1322E+02
     17.465  0.6078E+00  0.1335E+02
     17.673  0.2097E+00  0.1339E+02
     17.880  0.3430E+00  0.1346E+02
     18.088  0.3424E+00  0.1353E+02
     18.295  0.1902E+00  0.1357E+02
     18.502  0.4345E+00  0.1366E+02
     18.710  0.3614E+00  0.1374E+02
     18.917  0.7686E+00  0.1390E+02
     19.125  0.6033E+00  0.1402E+02
     19.332  0.1104E+01  0.1425E+02
     19.539  0.1257E+01  0.1451E+02
     19.747  0.1477E+01  0.1482E+02
     19.954  0.2045E+01  0.1524E+02
     20.161  0.1007E+01  0.1545E+02
     20.369  0.1358E+01  0.1573E+02
     20.576  0.7144E+00  0.1588E+02
     20.784  0.4252E+00  0.1597E+02
     20.991  0.4603E+00  0.1606E+02
     21.198  0.1131E+01  0.1630E+02
     21.406  0.6325E+00  0.1643E+02
     21.613  0.6761E+00  0.1657E+02
     21.821  0.6705E+00  0.1671E+02
     22.028  0.6294E+00  0.1684E+02
     22.235  0.1385E+01  0.1713E+02
     22.443  0.8041E-01  0.1714E+02
     22.650  0.5425E+00  0.1726E+02
     22.858  0.8998E+00  0.1744E+02
     23.065  0.2080E+00  0.1748E+02
     23.272  0.6769E+00  0.1763E+02
     23.480  0.1049E+01  0.1784E+02
     23.687  0.4949E+00  0.1795E+02
     23.895  0.5395E+00  0.1806E+02
     24.102  0.5968E+00  0.1818E+02
     24.309  0.4507E+00  0.1827E+02
     24.517  0.1511E+01  0.1859E+02
     24.724  0.6508E+00  0.1872E+02
     24.931  0.8592E+00  0.1890E+02
     25.139  0.9557E+00  0.1910E+02
     25.346  0.4644E+00  0.1920E+02
     25.554  0.9247E+00  0.1939E+02
     25.761  0.8762E+00  0.1957E+02
     25.968  0.6266E+00  0.1970E+02
     26.176  0.4310E+00  0.1979E+02
     26.383  0.1548E-01  0.1979E+02
     26.591  0.6079E+00  0.1992E+02
     26.798  0.7987E+00  0.2008E+02
     27.005  0.7550E+00  0.2024E+02
     27.213  0.9776E+00  0.2044E+02
     27.420  0.2427E+00  0.2049E+02
     27.628  0.2285E+00  0.2054E+02
     27.835  0.5482E+00  0.2065E+02
     28.042  0.8183E-01  0.2067E+02
     28.250  0.4409E+00  0.2076E+02
     28.457  0.9266E+00  0.2095E+02
     28.665  0.6290E+00  0.2109E+02
     28.872  0.8211E+00  0.2126E+02
     29.079  0.8188E+00  0.2143E+02
     29.287  0.5797E+00  0.2155E+02
     29.494  0.9691E+00  0.2175E+02
     29.701  0.3489E+00  0.2182E+02
     29.909  0.1203E+01  0.2207E+02
     30.116  0.1153E+01  0.2231E+02
     30.324  0.9907E+00  0.2251E+02
     30.531  0.8631E+00  0.2269E+02
     30.738  0.8547E+00  0.2287E+02
     30.946  0.1589E+01  0.2320E+02
     31.153  0.1766E+01  0.2356E+02
     31.361  0.9688E+00  0.2377E+02
     31.568  0.1464E+01  0.2407E+02
     31.775  0.2017E+01  0.2449E+02
     31.983  0.1805E+01  0.2486E+02
     32.190  0.2553E+01  0.2539E+02
     32.398  0.1478E+01  0.2570E+02
     32.605  0.7987E+00  0.2586E+02
     32.812  0.9236E+00  0.2606E+02
     33.020  0.7148E+00  0.2620E+02
     33.227  0.5425E+00  0.2632E+02
     33.435  0.9028E+00  0.2650E+02
     33.642  0.6035E+00  0.2663E+02
     33.849  0.6314E+00  0.2676E+02
     34.057  0.3403E+00  0.2683E+02
     34.264  0.4542E+00  0.2692E+02
     34.472  0.2408E+00  0.2697E+02
     34.679  0.9472E+00  0.2717E+02
     34.886  0.8294E+00  0.2734E+02
     35.094  0.5862E+00  0.2746E+02
     35.301  0.3931E+00  0.2755E+02
     35.508  0.1144E+01  0.2778E+02
     35.716  0.8797E+00  0.2797E+02
     35.923  0.9481E+00  0.2816E+02
     36.131  0.7887E+00  0.2833E+02
     36.338  0.9129E+00  0.2851E+02
     36.545  0.4943E+00  0.2862E+02
     36.753  0.1263E+01  0.2888E+02
     36.960  0.1187E+01  0.2913E+02
     37.168  0.5642E+00  0.2924E+02
     37.375  0.8963E+00  0.2943E+02
     37.582  0.5663E+00  0.2955E+02
     37.790  0.2808E+00  0.2960E+02
     37.997  0.6097E+00  0.2973E+02
     38.205  0.7395E+00  0.2988E+02
     38.412  0.3411E+00  0.2995E+02
     38.619  0.1194E+01  0.3020E+02
     38.827  0.1562E+01  0.3053E+02
     39.034  0.3761E+00  0.3060E+02
     39.242  0.7819E+00  0.3077E+02
     39.449  0.5050E+00  0.3087E+02
     39.656  0.4380E+00  0.3096E+02
     39.864  0.7631E+00  0.3112E+02
     40.071  0.3473E+00  0.3119E+02
     40.278  0.1829E+00  0.3123E+02
     40.486  0.3746E+00  0.3131E+02
     40.693  0.3932E+00  0.3139E+02
     40.901  0.1278E+01  0.3165E+02
     41.108  0.6953E+00  0.3180E+02
     41.315  0.4158E+00  0.3189E+02
     41.523  0.1957E-01  0.3189E+02
     41.730  0.3026E+00  0.3195E+02
     41.938  0.9832E-01  0.3197E+02
     42.145  0.1043E-07  0.3197E+02
     42.352  0.2205E-02  0.3197E+02
     42.560  0.1317E+00  0.3200E+02
     42.767  0.1268E-04  0.3200E+02
     42.975  0.0000E+00  0.3200E+02
     43.182  0.0000E+00  0.3200E+02
     43.389  0.0000E+00  0.3200E+02
     43.597  0.0000E+00  0.3200E+02
     43.804  0.0000E+00  0.3200E+02
     44.012  0.0000E+00  0.3200E+02
     44.219  0.0000E+00  0.3200E+02
     44.426  0.0000E+00  0.3200E+02
     44.634  0.0000E+00  0.3200E+02
     44.841  0.0000E+00  0.3200E+02
     45.048  0.0000E+00  0.3200E+02
     45.256  0.0000E+00  0.3200E+02
     45.25587054    -16.96163531  301      3.20720617      1.00000000
    -16.962  0.0000E+00  0.0000E+00  0.0000E+00  0.0000E+00  0.0000E+00  0.0000E+00  0.0000E+00  0.0000E+00  0.0000E+00
    -16.754  0.0000E+00  0.0000E+00  0.0000E+00  0.0000E+00  0.0000E+00  0.0000E+00  0.0000E+00  0.0000E+00  0.0000E+00
    -16.547  0.0000E+00  0.0000E+00  0.0000E+00  0.0000E+00  0.0000E+00  0.0000E+00  0.0000E+00  0.0000E+00  0.0000E+00
    -16.339  0.0000E+00  0.0000E+00  0.0000E+00  0.0000E+00  0.0000E+00  0.0000E+00  0.0000E+00  0.0000E+00  0.0000E+00
    -16.132  0.0000E+00  0.0000E+00  0.0000E+00  0.0000E+00  0.0000E+00  0.0000E+00  0.0000E+00  0.0000E+00  0.0000E+00
    -15.925  0.0000E+00  0.0000E+00  0.0000E+00  0.0000E+00  0.0000E+00  0.0000E+00  0.0000E+00  0.0000E+00  0.0000E+00
    -15.717  0.0000E+00  0.0000E+00  0.0000E+00  0.0000E+00  0.0000E+00  0.0000E+00  0.0000E+00  0.0000E+00  0.0000E+00
    -15.510  0.0000E+00  0.0000E+00  0.0000E+00  0.0000E+00  0.0000E+00  0.0000E+00  0.0000E+00  0.0000E+00  0.0000E+00
    -15.303  0.0000E+00  0.0000E+00  0.0000E+00  0.0000E+00  0.0000E+00  0.0000E+00  0.0000E+00  0.0000E+00  0.0000E+00
    -15.095  0.0000E+00  0.0000E+00  0.0000E+00  0.0000E+00  0.0000E+00  0.0000E+00  0.0000E+00  0.0000E+00  0.0000E+00
    -14.888  0.0000E+00  0.0000E+00  0.0000E+00  0.0000E+00  0.0000E+00  0.0000E+00  0.0000E+00  0.0000E+00  0.0000E+00
    -14.680  0.0000E+00  0.0000E+00  0.0000E+00  0.0000E+00  0.0000E+00  0.0000E+00  0.0000E+00  0.0000E+00  0.0000E+00
    -14.473  0.0000E+00  0.0000E+00  0.0000E+00  0.0000E+00  0.0000E+00  0.0000E+00  0.0000E+00  0.0000E+00  0.0000E+00
    -14.266  0.2192E-07  0.7838E-13  0.7838E-13  0.8219E-13  0.1369E-16  0.1369E-16  0.1706E-16  0.1369E-16  0.5117E-16
    -14.058  0.1591E-02  0.8817E-05  0.8817E-05  0.2226E-04  0.1523E-08  0.1587E-08  0.6106E-07  0.1523E-08  0.1832E-06
    -13.851  0.8806E-02  0.1742E-03  0.1742E-03  0.3879E-03  0.7567E-07  0.8825E-07  0.3226E-05  0.7567E-07  0.9678E-05
    -13.643  0.1084E-01  0.6271E-03  0.4558E-03  0.1020E-02  0.5222E-06  0.5010E-06  0.2809E-04  0.1675E-06  0.4684E-04
    -13.436  0.1194E-01  0.1135E-02  0.8106E-03  0.2175E-02  0.1361E-05  0.9789E-06  0.9247E-04  0.5776E-06  0.1615E-03
    -13.229  0.1333E-01  0.1987E-02  0.1495E-02  0.3863E-02  0.2613E-05  0.1490E-05  0.2336E-03  0.1287E-05  0.4401E-03
    -13.021  0.1375E-01  0.4771E-02  0.3523E-02  0.6173E-02  0.5018E-05  0.3654E-05  0.8015E-03  0.1551E-05  0.1143E-02
    -12.814  0.1057E-01  0.1166E-01  0.8887E-02  0.1017E-01  0.6190E-05  0.7047E-05  0.2623E-02  0.1656E-05  0.3578E-02
    -12.606  0.6023E-02  0.1562E-01  0.7365E-02  0.5512E-02  0.4261E-05  0.6767E-05  0.8046E-02  0.5902E-06  0.1036E-01
    -12.399  0.1961E-03  0.7981E-03  0.1436E-03  0.4800E-04  0.5074E-07  0.1256E-06  0.5699E-03  0.2935E-08  0.5903E-03
    -12.192  0.0000E+00  0.0000E+00  0.0000E+00  0.0000E+00  0.0000E+00  0.0000E+00  0.0000E+00  0.0000E+00  0.0000E+00
    -11.984  0.0000E+00  0.0000E+00  0.0000E+00  0.0000E+00  0.0000E+00  0.0000E+00  0.0000E+00  0.0000E+00  0.0000E+00
    -11.777  0.0000E+00  0.0000E+00  0.0000E+00  0.0000E+00  0.0000E+00  0.0000E+00  0.0000E+00  0.0000E+00  0.0000E+00
    -11.569  0.0000E+00  0.0000E+00  0.0000E+00  0.0000E+00  0.0000E+00  0.0000E+00  0.0000E+00  0.0000E+00  0.0000E+00
    -11.362  0.0000E+00  0.0000E+00  0.0000E+00  0.0000E+00  0.0000E+00  0.0000E+00  0.0000E+00  0.0000E+00  0.0000E+00
    -11.155  0.0000E+00  0.0000E+00  0.0000E+00  0.0000E+00  0.0000E+00  0.0000E+00  0.0000E+00  0.0000E+00  0.0000E+00
    -10.947  0.0000E+00  0.0000E+00  0.0000E+00  0.0000E+00  0.0000E+00  0.0000E+00  0.0000E+00  0.0000E+00  0.0000E+00
    -10.740  0.0000E+00  0.0000E+00  0.0000E+00  0.0000E+00  0.0000E+00  0.0000E+00  0.0000E+00  0.0000E+00  0.0000E+00
    -10.532  0.0000E+00  0.0000E+00  0.0000E+00  0.0000E+00  0.0000E+00  0.0000E+00  0.0000E+00  0.0000E+00  0.0000E+00
    -10.325  0.0000E+00  0.0000E+00  0.0000E+00  0.0000E+00  0.0000E+00  0.0000E+00  0.0000E+00  0.0000E+00  0.0000E+00
    -10.118  0.0000E+00  0.0000E+00  0.0000E+00  0.0000E+00  0.0000E+00  0.0000E+00  0.0000E+00  0.0000E+00  0.0000E+00
     -9.910  0.0000E+00  0.0000E+00  0.0000E+00  0.0000E+00  0.0000E+00  0.0000E+00  0.0000E+00  0.0000E+00  0.0000E+00
     -9.703  0.0000E+00  0.0000E+00  0.0000E+00  0.0000E+00  0.0000E+00  0.0000E+00  0.0000E+00  0.0000E+00  0.0000E+00
     -9.496  0.0000E+00  0.0000E+00  0.0000E+00  0.0000E+00  0.0000E+00  0.0000E+00  0.0000E+00  0.0000E+00  0.0000E+00
     -9.288  0.0000E+00  0.0000E+00  0.0000E+00  0.0000E+00  0.0000E+00  0.0000E+00  0.0000E+00  0.0000E+00  0.0000E+00
     -9.081  0.0000E+00  0.0000E+00  0.0000E+00  0.0000E+00  0.0000E+00  0.0000E+00  0.0000E+00  0.0000E+00  0.0000E+00
     -8.873  0.0000E+00  0.0000E+00  0.0000E+00  0.0000E+00  0.0000E+00  0.0000E+00  0.0000E+00  0.0000E+00  0.0000E+00
     -8.666  0.0000E+00  0.0000E+00  0.0000E+00  0.0000E+00  0.0000E+00  0.0000E+00  0.0000E+00  0.0000E+00  0.0000E+00
     -8.459  0.0000E+00  0.0000E+00  0.0000E+00  0.0000E+00  0.0000E+00  0.0000E+00  0.0000E+00  0.0000E+00  0.0000E+00
     -8.251  0.0000E+00  0.0000E+00  0.0000E+00  0.0000E+00  0.0000E+00  0.0000E+00  0.0000E+00  0.0000E+00  0.0000E+00
     -8.044  0.0000E+00  0.0000E+00  0.0000E+00  0.0000E+00  0.0000E+00  0.0000E+00  0.0000E+00  0.0000E+00  0.0000E+00
     -7.836  0.0000E+00  0.0000E+00  0.0000E+00  0.0000E+00  0.0000E+00  0.0000E+00  0.0000E+00  0.0000E+00  0.0000E+00
     -7.629  0.0000E+00  0.0000E+00  0.0000E+00  0.0000E+00  0.0000E+00  0.0000E+00  0.0000E+00  0.0000E+00  0.0000E+00
     -7.422  0.0000E+00  0.0000E+00  0.0000E+00  0.0000E+00  0.0000E+00  0.0000E+00  0.0000E+00  0.0000E+00  0.0000E+00
     -7.214  0.0000E+00  0.0000E+00  0.0000E+00  0.0000E+00  0.0000E+00  0.0000E+00  0.0000E+00  0.0000E+00  0.0000E+00
     -7.007  0.0000E+00  0.0000E+00  0.0000E+00  0.0000E+00  0.0000E+00  0.0000E+00  0.0000E+00  0.0000E+00  0.0000E+00
     -6.799  0.0000E+00  0.0000E+00  0.0000E+00  0.0000E+00  0.0000E+00  0.0000E+00  0.0000E+00  0.0000E+00  0.0000E+00
     -6.592  0.0000E+00  0.0000E+00  0.0000E+00  0.0000E+00  0.0000E+00  0.0000E+00  0.0000E+00  0.0000E+00  0.0000E+00
     -6.385  0.0000E+00  0.0000E+00  0.0000E+00  0.0000E+00  0.0000E+00  0.0000E+00  0.0000E+00  0.0000E+00  0.0000E+00
     -6.177  0.0000E+00  0.0000E+00  0.0000E+00  0.0000E+00  0.0000E+00  0.0000E+00  0.0000E+00  0.0000E+00  0.0000E+00
     -5.970  0.0000E+00  0.0000E+00  0.0000E+00  0.0000E+00  0.0000E+00  0.0000E+00  0.0000E+00  0.0000E+00  0.0000E+00
     -5.762  0.0000E+00  0.0000E+00  0.0000E+00  0.0000E+00  0.0000E+00  0.0000E+00  0.0000E+00  0.0000E+00  0.0000E+00
     -5.555  0.0000E+00  0.0000E+00  0.0000E+00  0.0000E+00  0.0000E+00  0.0000E+00  0.0000E+00  0.0000E+00  0.0000E+00
     -5.348  0.0000E+00  0.0000E+00  0.0000E+00  0.0000E+00  0.0000E+00  0.0000E+00  0.0000E+00  0.0000E+00  0.0000E+00
     -5.140  0.0000E+00  0.0000E+00  0.0000E+00  0.0000E+00  0.0000E+00  0.0000E+00  0.0000E+00  0.0000E+00  0.0000E+00
     -4.933  0.0000E+00  0.0000E+00  0.0000E+00  0.0000E+00  0.0000E+00  0.0000E+00  0.0000E+00  0.0000E+00  0.0000E+00
     -4.726  0.0000E+00  0.0000E+00  0.0000E+00  0.0000E+00  0.0000E+00  0.0000E+00  0.0000E+00  0.0000E+00  0.0000E+00
     -4.518  0.0000E+00  0.0000E+00  0.0000E+00  0.0000E+00  0.0000E+00  0.0000E+00  0.0000E+00  0.0000E+00  0.0000E+00
     -4.311  0.0000E+00  0.0000E+00  0.0000E+00  0.0000E+00  0.0000E+00  0.0000E+00  0.0000E+00  0.0000E+00  0.0000E+00
     -4.103  0.0000E+00  0.0000E+00  0.0000E+00  0.0000E+00  0.0000E+00  0.0000E+00  0.0000E+00  0.0000E+00  0.0000E+00
     -3.896  0.0000E+00  0.0000E+00  0.0000E+00  0.0000E+00  0.0000E+00  0.0000E+00  0.0000E+00  0.0000E+00  0.0000E+00
     -3.689  0.0000E+00  0.0000E+00  0.0000E+00  0.0000E+00  0.0000E+00  0.0000E+00  0.0000E+00  0.0000E+00  0.0000E+00
     -3.481  0.0000E+00  0.0000E+00  0.0000E+00  0.0000E+00  0.0000E+00  0.0000E+00  0.0000E+00  0.0000E+00  0.0000E+00
     -3.274  0.0000E+00  0.0000E+00  0.0000E+00  0.0000E+00  0.0000E+00  0.0000E+00  0.0000E+00  0.0000E+00  0.0000E+00
     -3.066  0.0000E+00  0.0000E+00  0.0000E+00  0.0000E+00  0.0000E+00  0.0000E+00  0.0000E+00  0.0000E+00  0.0000E+00
     -2.859  0.0000E+00  0.0000E+00  0.0000E+00  0.0000E+00  0.0000E+00  0.0000E+00  0.0000E+00  0.0000E+00  0.0000E+00
     -2.652  0.0000E+00  0.0000E+00  0.0000E+00  0.0000E+00  0.0000E+00  0.0000E+00  0.0000E+00  0.0000E+00  0.0000E+00
     -2.444  0.0000E+00  0.0000E+00  0.0000E+00  0.0000E+00  0.0000E+00  0.0000E+00  0.0000E+00  0.0000E+00  0.0000E+00
     -2.237  0.0000E+00  0.0000E+00  0.0000E+00  0.0000E+00  0.0000E+00  0.0000E+00  0.0000E+00  0.0000E+00  0.0000E+00
     -2.029  0.0000E+00  0.0000E+00  0.0000E+00  0.0000E+00  0.0000E+00  0.0000E+00  0.0000E+00  0.0000E+00  0.0000E+00
     -1.822  0.0000E+00  0.0000E+00  0.0000E+00  0.0000E+00  0.0000E+00  0.0000E+00  0.0000E+00  0.0000E+00  0.0000E+00
     -1.615  0.1980E-05  0.3238E-14  0.3238E-14  0.7789E-14  0.6746E-07  0.6746E-07  0.1114E-16  0.6746E-07  0.3341E-16
     -1.407  0.5632E-02  0.2505E-04  0.2505E-04  0.6084E-04  0.1922E-03  0.1924E-03  0.9498E-07  0.1922E-03  0.2849E-06
     -1.200  0.3612E-01  0.1073E-03  0.5736E-03  0.1013E-02  0.1226E-02  0.1305E-02  0.5578E-05  0.1171E-02  0.1673E-04
     -0.992  0.5345E-01  0.7162E-03  0.1825E-02  0.3730E-02  0.1969E-02  0.1771E-02  0.1601E-03  0.1673E-02  0.9100E-04
     -0.785  0.5688E-01  0.3678E-03  0.3733E-02  0.2609E-01  0.1979E-02  0.2393E-02  0.2625E-03  0.1483E-02  0.5227E-03
     -0.578  0.8215E-01  0.2156E-02  0.3809E-02  0.6924E-01  0.3705E-02  0.2412E-02  0.1474E-02  0.2170E-02  0.2216E-02
     -0.370  0.1243E+00  0.1794E-02  0.1087E-01  0.6159E-01  0.5599E-02  0.4325E-02  0.3775E-02  0.1825E-02  0.3508E-02
     -0.163  0.5516E-01  0.1041E-02  0.3711E-02  0.3131E-01  0.2741E-02  0.1812E-02  0.1599E-02  0.8212E-03  0.1995E-02
      0.044  0.3553E-01  0.8330E-03  0.5738E-02  0.7126E-02  0.5411E-03  0.1589E-02  0.1069E-02  0.5229E-03  0.2257E-02
      0.252  0.1482E-01  0.2660E-03  0.2290E-02  0.9494E-02  0.1034E-02  0.3899E-03  0.5911E-03  0.2457E-03  0.6916E-03
      0.459  0.3681E-01  0.1502E-02  0.1690E-01  0.1661E-01  0.1662E-02  0.2702E-02  0.1529E-02  0.4413E-03  0.2314E-02
      0.667  0.7104E-02  0.1434E-02  0.7587E-02  0.1365E-01  0.9914E-03  0.1151E-02  0.6977E-03  0.4417E-03  0.7670E-03
      0.874  0.2078E-01  0.1711E-02  0.2465E-01  0.1629E-01  0.8668E-03  0.3135E-02  0.1631E-02  0.1010E-02  0.3545E-02
      1.081  0.1742E-01  0.3052E-02  0.1954E-01  0.1142E-01  0.9848E-03  0.2500E-02  0.1479E-02  0.5625E-03  0.1908E-02
      1.289  0.1104E-01  0.3854E-02  0.1773E-01  0.2324E-01  0.1711E-02  0.2610E-02  0.2827E-02  0.1284E-02  0.3685E-02
      1.496  0.1293E-01  0.2928E-02  0.2070E-01  0.8663E-02  0.3578E-03  0.2074E-02  0.2794E-02  0.6700E-03  0.5454E-02
      1.704  0.2145E-01  0.1704E-01  0.2150E-01  0.1676E-01  0.1287E-02  0.1725E-02  0.4844E-02  0.1385E-02  0.9495E-02
      1.911  0.1792E-01  0.2265E-01  0.4391E-01  0.1220E-01  0.1266E-02  0.2325E-02  0.1256E-01  0.1945E-02  0.1556E-01
      2.118  0.8717E-02  0.1814E-01  0.2722E-01  0.6778E-02  0.1355E-02  0.1072E-02  0.1459E-01  0.1980E-02  0.1668E-01
      2.326  0.2482E-02  0.1294E-01  0.2194E-01  0.8302E-02  0.1934E-02  0.1853E-02  0.2195E-01  0.3024E-02  0.2714E-01
      2.533  0.1638E-02  0.9890E-02  0.1028E-01  0.3859E-02  0.1936E-02  0.8984E-03  0.2005E-01  0.2182E-02  0.1912E-01
      2.741  0.6934E-03  0.6335E-02  0.3783E-02  0.2726E-02  0.9027E-03  0.3409E-03  0.7350E-02  0.7262E-03  0.9705E-02
      2.948  0.2781E-04  0.4149E-02  0.3671E-02  0.1863E-02  0.3401E-03  0.9539E-04  0.2568E-02  0.3014E-03  0.1974E-02
      3.155  0.4242E-09  0.5637E-03  0.5636E-03  0.3911E-03  0.8979E-05  0.5479E-05  0.1710E-03  0.8980E-05  0.9585E-04
      3.363  0.2235E-27  0.1427E-08  0.1427E-08  0.1427E-08  0.7912E-29  0.7967E-29  0.1860E-36  0.7967E-29  0.4466E-37
      3.570  0.0000E+00  0.0000E+00  0.0000E+00  0.0000E+00  0.0000E+00  0.0000E+00  0.0000E+00  0.0000E+00  0.0000E+00
      3.778  0.0000E+00  0.0000E+00  0.0000E+00  0.0000E+00  0.0000E+00  0.0000E+00  0.0000E+00  0.0000E+00  0.0000E+00
      3.985  0.0000E+00  0.0000E+00  0.0000E+00  0.0000E+00  0.0000E+00  0.0000E+00  0.0000E+00  0.0000E+00  0.0000E+00
      4.192  0.0000E+00  0.0000E+00  0.0000E+00  0.0000E+00  0.0000E+00  0.0000E+00  0.0000E+00  0.0000E+00  0.0000E+00
      4.400  0.0000E+00  0.0000E+00  0.0000E+00  0.0000E+00  0.0000E+00  0.0000E+00  0.0000E+00  0.0000E+00  0.0000E+00
      4.607  0.0000E+00  0.0000E+00  0.0000E+00  0.0000E+00  0.0000E+00  0.0000E+00  0.0000E+00  0.0000E+00  0.0000E+00
      4.814  0.0000E+00  0.0000E+00  0.0000E+00  0.0000E+00  0.0000E+00  0.0000E+00  0.0000E+00  0.0000E+00  0.0000E+00
      5.022  0.0000E+00  0.0000E+00  0.0000E+00  0.0000E+00  0.0000E+00  0.0000E+00  0.0000E+00  0.0000E+00  0.0000E+00
      5.229  0.0000E+00  0.0000E+00  0.0000E+00  0.0000E+00  0.0000E+00  0.0000E+00  0.0000E+00  0.0000E+00  0.0000E+00
      5.437  0.0000E+00  0.0000E+00  0.0000E+00  0.0000E+00  0.0000E+00  0.0000E+00  0.0000E+00  0.0000E+00  0.0000E+00
      5.644  0.0000E+00  0.0000E+00  0.0000E+00  0.0000E+00  0.0000E+00  0.0000E+00  0.0000E+00  0.0000E+00  0.0000E+00
      5.851  0.0000E+00  0.0000E+00  0.0000E+00  0.0000E+00  0.0000E+00  0.0000E+00  0.0000E+00  0.0000E+00  0.0000E+00
      6.059  0.0000E+00  0.0000E+00  0.0000E+00  0.0000E+00  0.0000E+00  0.0000E+00  0.0000E+00  0.0000E+00  0.0000E+00
      6.266  0.0000E+00  0.0000E+00  0.0000E+00  0.0000E+00  0.0000E+00  0.0000E+00  0.0000E+00  0.0000E+00  0.0000E+00
      6.474  0.0000E+00  0.0000E+00  0.0000E+00  0.0000E+00  0.0000E+00  0.0000E+00  0.0000E+00  0.0000E+00  0.0000E+00
      6.681  0.0000E+00  0.0000E+00  0.0000E+00  0.0000E+00  0.0000E+00  0.0000E+00  0.0000E+00  0.0000E+00  0.0000E+00
      6.888  0.0000E+00  0.0000E+00  0.0000E+00  0.0000E+00  0.0000E+00  0.0000E+00  0.0000E+00  0.0000E+00  0.0000E+00
      7.096  0.0000E+00  0.0000E+00  0.0000E+00  0.0000E+00  0.0000E+00  0.0000E+00  0.0000E+00  0.0000E+00  0.0000E+00
      7.303  0.8573E-11  0.1183E-30  0.3515E-30  0.4532E-30  0.5864E-28  0.5875E-28  0.2714E-27  0.5875E-28  0.2752E-28
      7.511  0.7598E-03  0.1048E-22  0.3115E-22  0.4016E-22  0.5196E-20  0.5206E-20  0.2405E-19  0.5206E-20  0.2439E-20
      7.718  0.5714E-03  0.2966E-15  0.2966E-15  0.2966E-15  0.3615E-17  0.3615E-17  0.1809E-19  0.3615E-17  0.1834E-20
      7.925  0.1405E-02  0.1877E-04  0.1877E-04  0.1877E-04  0.2286E-06  0.2286E-06  0.5740E-12  0.2286E-06  0.1722E-11
      8.133  0.1336E-01  0.1091E-03  0.1091E-03  0.3336E-03  0.1328E-05  0.1328E-05  0.4680E-05  0.1328E-05  0.1404E-04
      8.340  0.1809E-02  0.9385E-10  0.9385E-10  0.7811E-04  0.1142E-11  0.1143E-11  0.1628E-05  0.1142E-11  0.4885E-05
      8.548  0.2718E-02  0.1352E-03  0.1352E-03  0.1117E-22  0.8340E-20  0.3897E-05  0.2029E-05  0.7212E-20  0.6088E-05
      8.755  0.1003E-01  0.4988E-03  0.4988E-03  0.6430E-07  0.5448E-09  0.1438E-04  0.7492E-05  0.5448E-09  0.2248E-04
      8.962  0.3000E-01  0.7544E-03  0.7544E-03  0.2372E-02  0.2898E-04  0.1803E-04  0.6207E-04  0.2898E-04  0.1862E-03
      9.170  0.2201E-02  0.9608E-04  0.9608E-04  0.1484E-03  0.3285E-05  0.2931E-05  0.2009E-05  0.3285E-05  0.6028E-05
      9.377  0.1198E-02  0.8180E-08  0.8180E-08  0.1176E-03  0.9367E-10  0.2289E-09  0.9746E-05  0.9367E-10  0.2924E-04
      9.585  0.2394E-01  0.2294E-02  0.2291E-02  0.8847E-03  0.2630E-04  0.6412E-04  0.8021E-04  0.2624E-04  0.2399E-03
      9.792  0.2414E-01  0.1728E-02  0.2690E-03  0.2889E-02  0.4447E-04  0.8863E-05  0.2670E-03  0.4398E-05  0.2951E-03
      9.999  0.2477E-01  0.2599E-02  0.2596E-02  0.4149E-02  0.1029E-03  0.1345E-03  0.8047E-04  0.1028E-03  0.2404E-03
     10.207  0.5166E-02  0.1061E-03  0.1061E-03  0.6179E-03  0.2134E-05  0.3877E-05  0.6402E-04  0.2134E-05  0.1920E-03
     10.414  0.2595E-01  0.2979E-02  0.2979E-02  0.3196E-02  0.9228E-04  0.5147E-04  0.2477E-03  0.9228E-04  0.7430E-03
     10.621  0.4560E-01  0.1147E-01  0.8292E-02  0.9934E-02  0.2069E-03  0.4051E-03  0.6062E-03  0.2051E-03  0.6994E-03
     10.829  0.2315E-01  0.8130E-02  0.6038E-02  0.9247E-02  0.9082E-04  0.2579E-03  0.4036E-03  0.8959E-04  0.4732E-03
     11.036  0.2832E-01  0.1636E-01  0.1543E-01  0.1516E-01  0.3172E-03  0.5680E-03  0.5092E-03  0.3153E-03  0.1194E-02
     11.244  0.2781E-01  0.1654E-01  0.1546E-01  0.1646E-01  0.1310E-03  0.6134E-03  0.6136E-03  0.1368E-03  0.1454E-02
     11.451  0.3155E-01  0.1632E-01  0.1056E-01  0.1065E-01  0.8244E-04  0.9401E-03  0.9727E-03  0.2273E-03  0.8648E-03
     11.658  0.5294E-01  0.2940E-01  0.2291E-01  0.2127E-01  0.3630E-03  0.2749E-02  0.2295E-02  0.9928E-04  0.2470E-02
     11.866  0.3119E-01  0.2491E-01  0.1987E-01  0.1618E-01  0.4788E-03  0.2424E-02  0.1318E-02  0.3089E-03  0.2041E-02
     12.073  0.1898E-01  0.1011E-01  0.8133E-02  0.6804E-02  0.1390E-03  0.1744E-02  0.6200E-03  0.1367E-03  0.1174E-02
     12.281  0.4819E-01  0.1390E-01  0.1135E-01  0.4103E-02  0.3603E-03  0.7298E-02  0.1353E-02  0.4371E-04  0.2096E-02
     12.488  0.4680E-01  0.2866E-01  0.2056E-01  0.1232E-01  0.9686E-03  0.3615E-01  0.2205E-02  0.7789E-04  0.2122E-02
     12.695  0.6109E-01  0.3610E-01  0.3143E-01  0.1446E-01  0.1855E-02  0.4611E-01  0.1926E-02  0.1367E-03  0.2545E-02
     12.903  0.8695E-01  0.2881E-01  0.2166E-01  0.8641E-02  0.6263E-03  0.5894E-01  0.1971E-02  0.2238E-03  0.2451E-02
     13.110  0.1263E+00  0.2238E-01  0.2185E-01  0.2184E-02  0.2674E-03  0.5296E-01  0.1379E-02  0.1353E-04  0.1468E-02
     13.318  0.3584E-01  0.3470E-01  0.3223E-01  0.7604E-02  0.1785E-02  0.4428E-01  0.1834E-02  0.1211E-03  0.9939E-03
     13.525  0.7401E-02  0.1308E-01  0.1063E-01  0.8030E-02  0.2937E-02  0.2053E-01  0.9566E-03  0.6243E-04  0.3512E-03
     13.732  0.1354E+00  0.3515E-02  0.6992E-02  0.8664E-03  0.4768E-03  0.8299E-01  0.6136E-03  0.5272E-03  0.5190E-03
     13.940  0.7470E-01  0.1022E-01  0.1377E-01  0.2428E-02  0.1054E-02  0.3001E-01  0.1134E-02  0.1820E-03  0.1818E-03
     14.147  0.1991E-01  0.5528E-02  0.1740E-01  0.3358E-04  0.1569E-03  0.5480E-01  0.4329E-03  0.1595E-02  0.1459E-03
     14.355  0.2134E-01  0.7860E-03  0.3993E-02  0.5843E-03  0.4137E-03  0.2886E-01  0.1433E-03  0.8816E-03  0.2849E-04
     14.562  0.1649E+00  0.4127E-02  0.1549E-01  0.2702E-01  0.3278E-01  0.7437E-01  0.5950E-03  0.7261E-02  0.1892E-03
     14.769  0.9759E-01  0.3714E-02  0.8419E-02  0.3146E-01  0.2991E-01  0.2610E-01  0.5361E-03  0.1159E-01  0.1790E-03
     14.977  0.1450E+00  0.2496E-02  0.1586E-01  0.4535E-01  0.3359E-01  0.8100E-01  0.1628E-03  0.2480E-01  0.3626E-03
     15.184  0.2031E+00  0.3717E-02  0.9257E-02  0.3702E-01  0.2937E-01  0.2494E-01  0.3293E-03  0.2292E-01  0.1355E-02
     15.391  0.1493E+00  0.2851E-02  0.5471E-02  0.3376E-01  0.1277E-01  0.1076E-01  0.7755E-04  0.7058E-02  0.8560E-03