    2    2    1    1
  0.9568522E+01  0.3002364E-09  0.3002364E-09  0.3002364E-09  0.5000000E-15
  1.000000000000000E-004
  CAR 
 unknown system                          
    8   72   16
 
  0.0000000E+00  0.0000000E+00  0.0000000E+00  0.5787037E-03
   1      -14.133567
   2        3.008022
   3        3.008023
   4        3.008023
   5        7.504280
   6       18.672069
   7       18.672069
   8       18.672069
   9       22.525641
  10       24.272310
  11       24.272310
  12       26.795975
  13       26.795975
  14       26.795975
  15       40.799906
  16       40.799906
 
  0.8333333E-01  0.0000000E+00  0.0000000E+00  0.4629630E-02
   1      -14.062900
   2        2.539525
   3        2.962473
   4        2.962474
   5        7.962501
   6       17.718551
   7       18.836150
   8       18.836150
   9       23.681342
  10       23.681343
  11       23.768457
  12       26.787919
  13       27.678723
  14       27.678723
  15       39.530738
  16       40.742138
 
  0.1666667E+00  0.0000000E+00  0.0000000E+00  0.4629630E-02
   1      -13.862963
   2        1.517112
   3        2.840991
   4        2.840992
   5        8.930524
   6       16.347194
   7       19.217109
   8       19.217109
   9       22.944689
  10       22.944689
  11       24.939800
  12       27.874444
  13       29.327861
  14       29.327861
  15       37.935187
  16       40.442819
 
  0.2500000E+00  0.0000000E+00  0.0000000E+00  0.4629630E-02
   1      -13.572101
   2        0.394218
   3        2.681364
   4        2.681365
   5        9.877930
   6       15.429465
   7       19.461581
   8       19.461581
   9       22.878162
  10       22.878163
  11       24.604761
  12       30.484776
  13       31.050308
  14       31.050308
  15       36.738465
  16       39.446262
 
  0.3333333E+00  0.0000000E+00  0.0000000E+00  0.4629630E-02
   1      -13.256439
   2       -0.587804
   3        2.528367
   4        2.528368
   5       10.484721
   6       15.124975
   7       19.354975
   8       19.354975
   9       23.643025
  10       23.643025
  11       24.057806
  12       31.819686
  13       32.495623
  14       32.495624
  15       37.597456
  16       37.597456
 
  0.4166667E+00  0.0000000E+00  0.0000000E+00  0.4629630E-02
   1      -13.006295
   2       -1.262243
   3        2.420146
   4        2.420147
   5       10.712285
   6       15.235950
   7       19.155800
   8       19.155800
   9       23.672106
  10       24.689294
  11       24.689294
  12       31.422017
  13       33.339723
  14       33.339723
  15       35.837652
  16       35.837652
 
  0.5000000E+00  0.0000000E+00  0.0000000E+00  0.2314815E-02
   1      -12.909949
   2       -1.503850
   3        2.381289
   4        2.381289
   5       10.753454
   6       15.340705
   7       19.072035
   8       19.072035
   9       23.539800
  10       25.205726
  11       25.205726
  12       31.125720
  13       33.488241
  14       33.488241
  15       35.202423
  16       35.202424
 
  0.8333333E-01  0.8333333E-01  0.0000000E+00  0.3472222E-02
   1      -14.039740
   2        2.484998
   3        2.903113
   4        2.903113
   5        8.109811
   6       17.445889
   7       18.895225
   8       18.895226
   9       22.724402
  10       24.212996
  11       24.482897
  12       27.135010
  13       27.135011
  14       28.130087
  15       39.543546
  16       40.493391
 
  0.1666667E+00  0.8333333E-01  0.0000000E+00  0.1388889E-01
   1      -13.884242
   2        1.725340
   3        2.771599
   4        2.800338
   5        8.896522
   6       16.344858
   7       19.190720
   8       19.202725
   9       21.719856
  10       24.227269
  11       25.645341
  12       27.721410
  13       28.275217
  14       29.418437
  15       38.269042
  16       40.026731
 
  0.2500000E+00  0.8333333E-01  0.0000000E+00  0.1388889E-01
   1      -13.625101
   2        0.706563
   3        2.608435
   4        2.638239
   5        9.860709
   6       15.403001
   7       19.274282
   8       19.492305
   9       21.468488
  10       24.020140
  11       25.659472
  12       30.000134
  13       30.121518
  14       30.898992
  15       36.863463
  16       38.902608
 
  0.3333333E+00  0.8333333E-01  0.0000000E+00  0.1388889E-01
   1      -13.318297
   2       -0.267824
   3        2.441201
   4        2.458440
   5       10.616846
   6       14.985476
   7       18.876933
   8       19.519155
   9       22.229116
  10       24.432744
  11       25.202146
  12       31.862234
  13       32.051240
  14       32.076969
  15       36.905508
  16       37.015967
 
  0.4166667E+00  0.8333333E-01  0.0000000E+00  0.1388889E-01
   1      -13.045206
   2       -1.011786
   3        2.262986
   4        2.358368
   5       10.978307
   6       15.069554
   7       18.481247
   8       19.366412
   9       23.318861
  10       24.869078
  11       25.163252
  12       31.901665
  13       32.618993
  14       33.760431
  15       34.788930
  16       38.120193
 
  0.5000000E+00  0.8333333E-01  0.0000000E+00  0.1388889E-01
   1      -12.895479
   2       -1.383765
   3        2.147286
   4        2.330606
   5       11.074861
   6       15.261737
   7       18.290893
   8       19.247005
   9       24.129961
  10       24.841141
  11       25.421093
  12       31.792058
  13       32.842745
  14       33.265391
  15       35.383730
  16       36.300223
 
 -0.4166667E+00  0.8333333E-01  0.0000000E+00  0.1388889E-01
   1      -12.926945
   2       -1.305359
   3        2.119918
   4        2.381175
   5       11.065941
   6       15.227237
   7       18.324692
   8       19.279794
   9       24.442514
  10       24.638415
  11       24.952028
  12       31.893499
  13       32.857809
  14       33.631629
  15       34.754460
  16       36.927600
 
 -0.3333333E+00  0.8333333E-01  0.0000000E+00  0.1388889E-01
   1      -13.126821
   2       -0.794591
   3        2.188426
   4        2.499277
   5       10.909311
   6       15.041191
   7       18.555512
   8       19.493042
   9       23.268065
  10       24.386036
  11       24.975453
  12       32.112641
  13       32.603555
  14       33.020180
  15       35.501846
  16       38.797677
 
 -0.2500000E+00  0.8333333E-01  0.0000000E+00  0.1388889E-01
   1      -13.421300
   2        0.041587
   3        2.342283
   4        2.657844
   5       10.409156
   6       15.118115
   7       18.877014
   8       19.779007
   9       22.049732
  10       23.824417
  11       25.374360
  12       30.858858
  13       31.849549
  14       32.059412
  15       36.018426
  16       38.440370
 
 -0.1666667E+00  0.8333333E-01  0.0000000E+00  0.1388889E-01
   1      -13.720116
   2        1.040552
   3        2.554036
   4        2.816567
   5        9.536523
   6       15.743824
   7       19.064684
   8       19.647238
   9       21.781704
  10       23.508971
  11       25.735923
  12       28.813200
  13       29.788472
  14       30.583771
  15       36.962943
  16       39.677621
 
 -0.8333333E-01  0.8333333E-01  0.0000000E+00  0.6944444E-02
   1      -13.949569
   2        1.979952
   3        2.785268
   4        2.930035
   5        8.575663
   6       16.797483
   7       18.986686
   8       19.130035
   9       22.546656
  10       23.704529
  11       25.047452
  12       27.584581
  13       27.744226
  14       29.072428
  15       38.520999
  16       40.271912
 
  0.1666667E+00  0.1666667E+00  0.0000000E+00  0.3472222E-02
   1      -13.779803
   2        1.441162
   3        2.631465
   4        2.631466
   5        9.406820
   6       15.634369
   7       19.476377
   8       19.476378
   9       20.386679
  10       25.107452
  11       27.407568
  12       28.164682
  13       28.164682
  14       29.741767
  15       38.322115
  16       39.597871
 
  0.2500000E+00  0.1666667E+00  0.0000000E+00  0.1388889E-01
   1      -13.569387
   2        0.754554
   3        2.442840
   4        2.463476
   5       10.232410
   6       14.846746
   7       18.994935
   8       19.807067
   9       20.295626
  10       25.244947
  11       27.787619
  12       29.507225
  13       30.174290
  14       30.633277
  15       37.239794
  16       38.677851
 
  0.3333333E+00  0.1666667E+00  0.0000000E+00  0.1388889E-01
   1      -13.297501
   2       -0.017925
   3        2.170323
   4        2.313225
   5       11.076967
   6       14.433193
   7       18.045462
   8       19.947076
   9       21.097899
  10       25.492147
  11       27.475927
  12       31.049570
  13       31.476014
  14       32.775163
  15       36.823020
  16       36.868787
 
  0.4166667E+00  0.1666667E+00  0.0000000E+00  0.1388889E-01
   1      -13.032321
   2       -0.671884
   3        1.864919
   4        2.216950
   5       11.620792
   6       14.570008
   7       17.369078
   8       19.861988
   9       21.927229
  10       25.993660
  11       27.194230
  12       31.251852
  13       33.340157
  14       33.344996
  15       34.798648
  16       39.234563
 
  0.5000000E+00  0.1666667E+00  0.0000000E+00  0.1388889E-01
   1      -12.854305
   2       -1.065054
   3        1.611377
   4        2.195907
   5       11.832111
   6       14.969505
   7       17.006286
   8       19.719971
   9       22.663162
  10       26.078774
  11       26.958557
  12       31.641434
  13       32.709646
  14       33.218706
  15       35.874529
  16       38.452944
 
 -0.4166667E+00  0.1666667E+00  0.0000000E+00  0.1388889E-01
   1      -12.826991
   2       -1.108542
   3        1.475567
   4        2.254699
   5       11.892730
   6       15.117344
   7       16.947794
   8       19.677325
   9       23.369652
  10       25.090375
  11       26.806540
  12       32.252678
  13       32.323087
  14       33.487987
  15       36.091239
  16       37.904114
 
 -0.3333333E+00  0.1666667E+00  0.0000000E+00  0.1388889E-01
   1      -12.960515
   2       -0.799651
   3        1.500558
   4        2.380958
   5       11.793765
   6       14.911580
   7       17.214853
   8       19.822764
   9       23.469482
  10       23.969749
  11       26.852125
  12       32.148430
  13       32.424367
  14       33.912223
  15       35.035224
  16       40.127171
 
 -0.2500000E+00  0.1666667E+00  0.0000000E+00  0.1388889E-01
   1      -13.205501
   2       -0.234926
   3        1.711236
   4        2.545654
   5       11.326388
   6       14.784025
   7       17.782415
   8       20.201462
   9       21.862714
  10       24.136819
  11       27.033299
  12       30.871989
  13       32.283417
  14       33.680672
  15       35.169540
  16       39.196356
 
 -0.1666667E+00  0.1666667E+00  0.0000000E+00  0.6944444E-02
   1      -13.483449
   2        0.426305
   3        2.098268
   4        2.706366
   5       10.461730
   6       15.100206
   7       18.490908
   8       20.502387
   9       20.898102
  10       23.868045
  11       26.881052
  12       29.309301
  13       31.651692
  14       32.212602
  15       35.336341
  16       39.454310
 
  0.2500000E+00  0.2500000E+00  0.0000000E+00  0.3472222E-02
   1      -13.415814
   2        0.422871
   3        2.291018
   4        2.291019
   5       10.833891
   6       14.111045
   7       18.227231
   8       20.216197
   9       20.216198
  10       26.118555
  11       29.857644
  12       29.857644
  13       30.273345
  14       31.234755
  15       38.034575
  16       38.362841
 
  0.3333333E+00  0.2500000E+00  0.0000000E+00  0.1388889E-01
   1      -13.197849
   2       -0.067172
   3        2.040150
   4        2.137726
   5       11.577349
   6       13.631008
   7       17.291807
   8       20.484791
   9       20.719353
  10       26.589633
  11       29.953680
  12       30.305871
  13       31.283018
  14       33.809795
  15       37.166972
  16       37.184546
 
  0.4166667E+00  0.2500000E+00  0.0000000E+00  0.1388889E-01
   1      -12.968917
   2       -0.488375
   3        1.620973
   4        2.040313
   5       12.225856
   6       13.716477
   7       16.550689
   8       20.499305
   9       21.194596
  10       27.063101
  11       29.839843
  12       30.147636
  13       32.665504
  14       34.729823
  15       35.619478
  16       39.076880
 
  0.5000000E+00  0.2500000E+00  0.0000000E+00  0.1388889E-01
   1      -12.794357
   2       -0.720290
   3        1.144634
   4        2.020048
   5       12.538059
   6       14.373757
   7       16.056274
   8       20.354966
   9       21.489913
  10       27.182148
  11       29.346720
  12       30.593611
  13       32.037493
  14       34.647044
  15       36.618705
  16       40.795571
 
 -0.4166667E+00  0.2500000E+00  0.0000000E+00  0.1388889E-01
   1      -12.730734
   2       -0.722815
   3        0.777877
   4        2.081399
   5       12.728517
   6       14.910428
   7       15.822328
   8       20.209265
   9       21.889014
  10       26.130379
  11       28.971546
  12       31.206882
  13       31.683722
  14       34.927913
  15       38.183064
  16       38.768648
 
 -0.3333333E+00  0.2500000E+00  0.0000000E+00  0.1388889E-01
   1      -12.799753
   2       -0.571660
   3        0.705497
   4        2.211619
   5       12.748087
   6       14.846680
   7       16.035712
   8       20.163964
   9       22.722910
  10       24.387410
  11       28.753157
  12       31.467251
  13       32.019070
  14       34.938519
  15       36.594028
  16       41.097441
 
 -0.2500000E+00  0.2500000E+00  0.0000000E+00  0.6944444E-02
   1      -12.976986
   2       -0.415467
   3        1.064967
   4        2.380893
   5       12.266325
   6       14.647219
   7       16.749019
   8       20.232387
   9       22.782865
  10       23.684251
  11       28.312234
  12       31.214621
  13       32.311196
  14       33.782560
  15       36.565085
  16       40.860834
 
  0.3333333E+00  0.3333333E+00  0.0000000E+00  0.3472222E-02
   1      -13.042279
   2       -0.355926
   3        1.979873
   4        1.979873
   5       12.040330
   6       12.998096
   7       16.624444
   8       20.918296
   9       20.918296
  10       27.438185
  11       29.467626
  12       31.903875
  13       31.903875
  14       35.569292
  15       37.455396
  16       37.455396
 
  0.4166667E+00  0.3333333E+00  0.0000000E+00  0.1388889E-01
   1      -12.870285
   2       -0.617520
   3        1.702770
   4        1.877424
   5       12.516016
   6       12.846079
   7       16.106234
   8       21.082760
   9       21.176200
  10       28.094251
  11       29.085835
  12       32.160594
  13       32.643030
  14       36.518281
  15       36.735404
  16       39.138615
 
  0.5000000E+00  0.3333333E+00  0.0000000E+00  0.1388889E-01
   1      -12.729702
   2       -0.683262
   3        1.159737
   4        1.852748
   5       12.675957
   6       13.580169
   7       15.718740
   8       20.982566
   9       21.143394
  10       28.571493
  11       29.225281
  12       31.600784
  13       31.687439
  14       36.495497
  15       37.543044
  16       42.427802
 
 -0.4166667E+00  0.3333333E+00  0.0000000E+00  0.1388889E-01
   1      -12.662664
   2       -0.480656
   3        0.498315
   4        1.911103
   5       12.943621
   6       14.478356
   7       15.389428
   8       20.740635
   9       21.040285
  10       27.781531
  11       29.825440
  12       30.940571
  13       31.026848
  14       36.897300
  15       39.453648
  16       39.787965
 
 -0.3333333E+00  0.3333333E+00  0.0000000E+00  0.6944444E-02
   1      -12.689270
   2       -0.138209
   3        0.021978
   4        2.040432
   5       13.157661
   6       15.020891
   7       15.218020
   8       20.460026
   9       21.526283
  10       25.952515
  11       30.112721
  12       30.664234
  13       31.442825
  14       36.833210
  15       37.507942
  16       40.968947
 
  0.4166667E+00  0.4166667E+00  0.0000000E+00  0.3472222E-02
   1      -12.763267
   2       -0.824225
   3        1.767743
   4        1.767744
   5       12.324370
   6       12.641222
   7       15.920211
   8       21.427033
   9       21.427034
  10       28.345686
  11       28.823272
  12       33.206865
  13       33.206866
  14       38.077577
  15       38.139282
  16       38.139282
 
  0.5000000E+00  0.4166667E+00  0.0000000E+00  0.1388889E-01
   1      -12.679252
   2       -0.879851
   3        1.510218
   4        1.735147
   5       12.331738
   6       12.932436
   7       15.790189
   8       21.398956
   9       21.444279
  10       28.266577
  11       29.441783
  12       32.250585
  13       32.973092
  14       38.057500
  15       38.653498
  16       39.794176
 
 -0.4166667E+00  0.4166667E+00  0.0000000E+00  0.6944444E-02
   1      -12.642741
   2       -0.715431
   3        0.969141
   4        1.786465
   5       12.628977
   6       13.641716
   7       15.594280
   8       21.057155
   9       21.181252
  10       28.898141
  11       29.928647
  12       30.174262
  13       32.162897
  14       38.669001
  15       39.409748
  16       40.830276
 
  0.5000000E+00  0.5000000E+00  0.0000000E+00  0.1736111E-02
   1      -12.659995
   2       -0.977882
   3        1.693127
   4        1.693128
   5       12.099038
   6       12.718056
   7       15.852826
   8       21.615720
   9       21.615721
  10       27.852500
  11       29.536242
  12       33.392760
  13       33.392761
  14       36.904932
  15       39.684966
  16       39.684966
 
  0.2500000E+00  0.1666667E+00  0.8333333E-01  0.1388889E-01
   1      -13.700244
   2        1.085814
   3        2.481180
   4        2.723028
   5        9.689593
   6       15.506010
   7       19.076487
   8       19.747003
   9       20.871451
  10       24.332991
  11       26.773068
  12       28.500716
  13       29.694936
  14       30.486535
  15       37.086694
  16       39.579015
 
  0.3333333E+00  0.1666667E+00  0.8333333E-01  0.2777778E-01
   1      -13.434320
   2        0.280707
   3        2.169257
   4        2.582838
   5       10.612246
   6       14.878600
   7       18.507796
   8       20.059499
   9       21.034384
  10       24.486681
  11       26.886929
  12       30.043276
  13       31.476247
  14       32.279580
  15       35.757613
  16       38.687544
 
  0.4166667E+00  0.1666667E+00  0.8333333E-01  0.2777778E-01
   1      -13.148484
   2       -0.481785
   3        1.919482
   4        2.418498
   5       11.302187
   6       14.740978
   7       17.868244
   8       19.810608
   9       22.128384
  10       24.846736
  11       26.606063
  12       31.792972
  13       32.049554
  14       33.511064
  15       35.363327
  16       38.596563
 
  0.5000000E+00  0.1666667E+00  0.8333333E-01  0.2777778E-01
   1      -12.924274
   2       -1.026431
   3        1.762086
   4        2.290511
   5       11.593610
   6       14.996288
   7       17.440436
   8       19.573806
   9       23.253682
  10       24.965375
  11       26.518195
  12       32.045151
  13       32.572289
  14       33.845908
  15       34.727090
  16       38.821813
 
 -0.4166667E+00  0.1666667E+00  0.8333333E-01  0.1388889E-01
   1      -12.838448
   2       -1.224434
   3        1.708834
   4        2.242621
   5       11.652469
   6       15.166932
   7       17.299060
   8       19.483080
   9       23.837911
  10       24.801456
  11       26.593490
  12       32.312649
  13       32.571925
  14       32.837711
  15       36.648158
  16       36.698180
 
  0.3333333E+00  0.2500000E+00  0.8333333E-01  0.1388889E-01
   1      -13.354019
   2        0.233769
   3        2.101613
   4        2.361551
   5       11.032505
   6       14.258084
   7       18.034170
   8       20.259698
   9       20.513183
  10       25.634261
  11       28.892389
  12       29.885742
  13       30.903128
  14       32.738924
  15       36.194568
  16       38.572983
 
  0.4166667E+00  0.2500000E+00  0.8333333E-01  0.2777778E-01
   1      -13.103736
   2       -0.289992
   3        1.725312
   4        2.205892
   5       11.850369
   6       14.068281
   7       17.143471
   8       20.159685
   9       21.340207
  10       25.893017
  11       28.968250
  12       30.810363
  13       31.634682
  14       34.607609
  15       35.476371
  16       38.474724
 
  0.5000000E+00  0.2500000E+00  0.8333333E-01  0.2777778E-01
   1      -12.885844
   2       -0.690234
   3        1.373715
   4        2.083891
   5       12.332033
   6       14.431342
   7       16.517413
   8       19.919408
   9       22.114240
  10       25.914331
  11       28.867613
  12       31.040443
  13       32.317415
  14       34.598791
  15       35.352213
  16       40.820912
 
 -0.4166667E+00  0.2500000E+00  0.8333333E-01  0.2777778E-01
   1      -12.768913
   2       -0.874204
   3        1.122838
   4        2.055275
   5       12.505383
   6       14.901916
   7       16.212667
   8       19.734300
   9       22.721960
  10       25.412871
  11       28.809388
  12       31.270829
  13       32.075558
  14       34.153742
  15       37.293493
  16       38.725207
 
 -0.3333333E+00  0.2500000E+00  0.8333333E-01  0.2777778E-01
   1      -12.794334
   2       -0.804041
   3        1.050241
   4        2.127123
   5       12.531492
   6       14.901962
   7       16.266816
   8       19.748264
   9       23.263052
  10       24.460358
  11       28.581906
  12       31.589146
  13       32.060292
  14       34.558799
  15       36.291070
  16       39.717183
 
 -0.2500000E+00  0.2500000E+00  0.8333333E-01  0.2777778E-01
   1      -12.952630
   2       -0.526931
   3        1.216948
   4        2.273725
   5       12.281188
   6       14.564867
   7       16.733472
   8       19.961467
   9       22.655473
  10       24.380353
  11       28.449200
  12       31.547135
  13       31.919330
  14       34.253106
  15       35.922048
  16       40.808261
 
 -0.1666667E+00  0.2500000E+00  0.8333333E-01  0.1388889E-01
   1      -13.189494
   2       -0.142966
   3        1.628934
   4        2.446691
   5       11.553211
   6       14.521530
   7       17.535040
   8       20.264816
   9       21.431606
  10       24.651729
  11       28.136962
  12       30.464702
  13       31.833014
  14       34.419867
  15       34.954953
  16       39.329083
 
  0.4166667E+00  0.3333333E+00  0.8333333E-01  0.1388889E-01
   1      -13.002579
   2       -0.391570
   3        1.755882
   4        1.982955
   5       12.271914
   6       13.296163
   7       16.546172
   8       20.537907
   9       21.218267
  10       27.099474
  11       29.858153
  12       31.362013
  13       31.584284
  14       35.754234
  15       35.999393
  16       38.483584
 
  0.5000000E+00  0.3333333E+00  0.8333333E-01  0.2777778E-01
   1      -12.819574
   2       -0.580329
   3        1.304152
   4        1.853255
   5       12.838907
   6       13.585898
   7       15.951566
   8       20.225541
   9       21.768073
  10       27.190039
  11       29.959564
  12       31.033592
  13       32.173999
  14       35.761838
  15       36.252974
  16       41.079942
 
 -0.4166667E+00  0.3333333E+00  0.8333333E-01  0.2777778E-01
   1      -12.702780
   2       -0.559937
   3        0.762004
   4        1.834694
   5       13.073108
   6       14.421659
   7       15.534832
   8       19.824820
   9       22.114796
  10       26.708504
  11       30.127277
  12       30.800550
  13       31.796482
  14       35.633299
  15       38.043830
  16       40.868766
 
 -0.3333333E+00  0.3333333E+00  0.8333333E-01  0.2777778E-01
   1      -12.689227
   2       -0.381528
   3        0.366659
   4        1.922707
   5       13.274877
   6       14.867946
   7       15.366688
   8       19.674081
   9       22.534967
  10       25.446162
  11       30.294144
  12       30.769723
  13       31.656095
  14       36.063954
  15       37.922498
  16       40.503316
 
 -0.2500000E+00  0.3333333E+00  0.8333333E-01  0.1388889E-01
   1      -12.782676
   2       -0.411769
   3        0.570499
   4        2.086094
   5       13.108922
   6       14.613339
   7       15.838206
   8       19.832460
   9       23.362514
  10       23.910805
  11       29.861237
  12       31.020906
  13       31.818238
  14       35.328470
  15       36.901474
  16       41.003853
 
  0.5000000E+00  0.4166667E+00  0.8333333E-01  0.1388889E-01
   1      -12.743071
   2       -0.739946
   3        1.520733
   4        1.695108
   5       12.700477
   6       12.997292
   7       15.794456
   8       20.743591
   9       21.719015
  10       28.339027
  11       29.157328
  12       31.594382
  13       33.215250
  14       37.184283
  15       37.283902
  16       39.953455
 
 -0.4166667E+00  0.4166667E+00  0.8333333E-01  0.2777778E-01
   1      -12.657571
   2       -0.649311
   3        1.013753
   4        1.650292
   5       12.920008
   6       13.724425
   7       15.524167
   8       20.122494
   9       22.038293
  10       28.329843
  11       29.275471
  12       30.597079
  13       33.014106
  14       37.511883
  15       38.720984
  16       41.263172
 
 -0.3333333E+00  0.4166667E+00  0.8333333E-01  0.1388889E-01
   1      -12.638273
   2       -0.337732
   3        0.375075
   4        1.746071
   5       13.248529
   6       14.567760
   7       15.215578
   8       19.654761
   9       22.173473
  10       27.099884
  11       29.531482
  12       31.040609
  13       32.046646
  14       37.647428
  15       39.088831
  16       40.377643
 
 -0.4166667E+00  0.5000000E+00  0.8333333E-01  0.6944444E-02
   1      -12.647928
   2       -0.845750
   3        1.437990
   4        1.586040
   5       12.499481
   6       13.127950
   7       15.712426
   8       20.785903
   9       21.902902
  10       28.310711
  11       29.922770
  12       30.739120
  13       33.554542
  14       38.388624
  15       38.948417
  16       40.424683
 
  0.5000000E+00  0.3333333E+00  0.1666667E+00  0.1388889E-01
   1      -12.901432
   2       -0.453308
   3        1.208084
   4        2.022717
   5       12.768819
   6       13.969980
   7       16.300412
   8       19.889733
   9       22.193275
  10       25.580641
  11       30.450796
  12       30.784635
  13       31.385618
  14       35.083332
  15       36.230111
  16       40.534036
 
 -0.4166667E+00  0.3333333E+00  0.1666667E+00  0.2777778E-01
   1      -12.747094
   2       -0.499200
   3        0.781446
   4        1.848152
   5       13.305731
   6       14.382668
   7       15.698734
   8       19.442121
   9       23.109535
  10       24.967655
  11       30.460030
  12       30.982654
  13       31.765101
  14       35.608298
  15       36.730641
  16       41.618635
 
 -0.3333333E+00  0.3333333E+00  0.1666667E+00  0.1388889E-01
   1      -12.689188
   2       -0.492572
   3        0.605723
   4        1.778464
   5       13.404315
   6       14.753481
   7       15.473171
   8       19.197454
   9       23.499209
  10       24.692360
  11       30.317664
  12       30.972825
  13       32.012387
  14       35.287472
  15       38.511919
  16       39.824549
 
 -0.4166667E+00  0.4166667E+00  0.1666667E+00  0.1388889E-01
   1      -12.696622
   2       -0.500396
   3        0.924860
   4        1.585766
   5       13.591034
   6       13.798584
   7       15.442080
   8       19.458805
   9       22.677874
  10       26.536307
  11       29.742783
  12       31.058852
  13       33.053176
  14       36.428207
  15       37.336763
  16       40.967989
 
 -0.3333333E+00  0.4166667E+00  0.1666667E+00  0.2777778E-01
   1      -12.635602
   2       -0.237555
   3        0.430217
   4        1.488201
   5       13.858729
   6       14.594585
   7       15.052425
   8       18.773407
   9       23.399954
  10       25.678863
  11       29.346860
  12       31.369181
  13       33.305997
  14       36.575022
  15       39.239289
  16       40.722565
 
 -0.2500000E+00  0.4166667E+00  0.1666667E+00  0.1388889E-01
   1      -12.654546
   2       -0.127482
   3        0.242469
   4        1.607149
   5       14.000272
   6       14.531051
   7       15.142997
   8       18.816349
   9       24.047018
  10       24.469957
  11       29.743331
  12       31.561086
  13       32.546416
  14       36.698770
  15       37.893219
  16       41.752140
 
 -0.3333333E+00  0.5000000E+00  0.1666667E+00  0.6944444E-02
   1      -12.623395
   2       -0.462069
   3        0.825750
   4        1.380859
   5       13.457593
   6       14.142657
   7       15.270470
   8       19.173249
   9       22.847718
  10       27.328562
  11       28.786549
  12       30.939002
  13       33.965963
  14       37.706766
  15       39.181488
  16       41.147193
 
 -0.2500000E+00  0.5000000E+00  0.2500000E+00  0.3472222E-02
   1      -12.611052
   2        0.128372
   3        0.128372
   4        1.282243
   5       14.492886
   6       14.492886
   7       14.884000
   8       18.202073
   9       24.630153
  10       24.630153
  11       28.930987
  12       31.499252
  13       34.254516
  14       37.089338
  15       40.014455
  16       40.014456
