       N       E                     dE             d eps       ncg     rms          rms(c)
DAV:   1    -0.123140674578E+02   -0.12314E+02   -0.56369E+02  2624   0.689E+01    0.621E+00
DAV:   2    -0.119076104291E+02    0.40646E+00   -0.76540E+00  2912   0.134E+01    0.191E+00
DAV:   3    -0.119114267729E+02   -0.38163E-02   -0.31989E-02  2912   0.114E+00    0.115E+00
DAV:   4    -0.119126280624E+02   -0.12013E-02   -0.15604E-03  3328   0.250E-01    0.614E-02
DAV:   5    -0.119125723354E+02    0.55727E-04   -0.43020E-04  2736   0.762E-02    0.122E-02
DAV:   6    -0.119125794782E+02   -0.71428E-05   -0.83924E-06  3120   0.165E-02    0.320E-03
DAV:   7    -0.119125798383E+02   -0.36010E-06   -0.54528E-08  2896   0.144E-03    0.136E-03
DAV:   8    -0.119125798291E+02    0.92133E-08   -0.62759E-08  1904   0.114E-03
   1 F= -.11912580E+02 E0= -.11912580E+02  d E =-.623886E-11
 Linear response reoptimize wavefunctions
DAV:   1    -0.119125798297E+02   -0.65899E-09   -0.24182E-10  3280   0.107E-04
DAV:   2    -0.119125798297E+02   -0.56843E-13   -0.16628E-12  1552   0.330E-06
 Linear response to external field (no local field effect), progress :
  Direction:   1
       N       E                     dE             d eps       ncg     rms          rms(c)
RMM:   1    -0.832327401440E-01   -0.83233E-01   -0.21891E-01   868   0.863E-01
RMM:   2    -0.838206092957E-01   -0.58787E-03   -0.40110E-04   864   0.832E-02
RMM:   3    -0.838214133809E-01   -0.80409E-06   -0.10817E-06   813   0.400E-03
RMM:   4    -0.838214153902E-01   -0.20093E-08   -0.42805E-09   408   0.246E-04
 Linear response to external field (no local field effect), progress :
  Direction:   2
       N       E                     dE             d eps       ncg     rms          rms(c)
RMM:   1    -0.135259274607E+00   -0.13526E+00   -0.43600E-01   846   0.111E+00
RMM:   2    -0.135772000031E+00   -0.51273E-03   -0.73035E-04   859   0.114E-01
RMM:   3    -0.135774739625E+00   -0.27396E-05   -0.20590E-06   860   0.566E-03
RMM:   4    -0.135774745061E+00   -0.54361E-08   -0.89031E-09   516   0.358E-04
 Linear response to external field (no local field effect), progress :
  Direction:   3
       N       E                     dE             d eps       ncg     rms          rms(c)
RMM:   1    -0.132979885558E+00   -0.13298E+00   -0.41782E-01   838   0.111E+00
RMM:   2    -0.133526990606E+00   -0.54711E-03   -0.68908E-04   859   0.113E-01
RMM:   3    -0.133528553185E+00   -0.15626E-05   -0.16842E-06   847   0.524E-03
RMM:   4    -0.133528556516E+00   -0.33307E-08   -0.66132E-09   494   0.322E-04
 Linear response to external field, progress :
  Direction:   1
       N       E                     dE             d eps       ncg     rms          rms(c)
RMM:   1    -0.117141974153E+00   -0.11714E+00   -0.35740E-01  1906   0.103E+00
RMM:   2    -0.117712077079E+00   -0.57010E-03   -0.60786E-04  1949   0.104E-01    0.536E-01
RMM:   3    -0.116977177333E+00    0.73490E-03   -0.78769E-04  7660   0.157E-01    0.327E-01
RMM:   4    -0.125224750456E+00   -0.82476E-02   -0.15717E-03  9077   0.235E-01    0.329E-02
RMM:   5    -0.126103093947E+00   -0.87834E-03   -0.15468E-05  9154   0.263E-02    0.654E-03
RMM:   6    -0.126205137185E+00   -0.10204E-03   -0.28927E-07  9171   0.336E-03    0.271E-03
RMM:   7    -0.126254451377E+00   -0.49314E-04   -0.13522E-07  8950   0.218E-03    0.140E-04
RMM:   8    -0.126256171797E+00   -0.17204E-05   -0.48871E-10  8261   0.142E-04    0.460E-05
RMM:   9    -0.126256234895E+00   -0.63098E-07   -0.12180E-11  5936   0.499E-05    0.650E-06
 Linear response to external field, progress :
  Direction:   2
       N       E                     dE             d eps       ncg     rms          rms(c)
RMM:   1    -0.117148194334E+00   -0.11715E+00   -0.35746E-01  1906   0.103E+00
RMM:   2    -0.117717414527E+00   -0.56922E-03   -0.60777E-04  1949   0.104E-01    0.536E-01
RMM:   3    -0.116978941331E+00    0.73847E-03   -0.78754E-04  7660   0.157E-01    0.327E-01
RMM:   4    -0.125229383262E+00   -0.82504E-02   -0.15714E-03  9105   0.235E-01    0.329E-02
RMM:   5    -0.126108412352E+00   -0.87903E-03   -0.15454E-05  9158   0.263E-02    0.654E-03
RMM:   6    -0.126209639920E+00   -0.10123E-03   -0.28699E-07  9168   0.334E-03    0.272E-03
RMM:   7    -0.126259163974E+00   -0.49524E-04   -0.13564E-07  8948   0.218E-03    0.139E-04
RMM:   8    -0.126260874635E+00   -0.17107E-05   -0.48664E-10  8255   0.142E-04    0.457E-05
RMM:   9    -0.126260949152E+00   -0.74517E-07   -0.11977E-11  5934   0.499E-05    0.651E-06
 Linear response to external field, progress :
  Direction:   3
       N       E                     dE             d eps       ncg     rms          rms(c)
RMM:   1    -0.117179828793E+00   -0.11718E+00   -0.35785E-01  1896   0.103E+00
RMM:   2    -0.117688138354E+00   -0.50831E-03   -0.60495E-04  1949   0.103E-01    0.536E-01
RMM:   3    -0.116945852504E+00    0.74229E-03   -0.78786E-04  7660   0.157E-01    0.327E-01
RMM:   4    -0.125199687914E+00   -0.82538E-02   -0.15713E-03  9106   0.235E-01    0.329E-02
RMM:   5    -0.126079443071E+00   -0.87976E-03   -0.15504E-05  9119   0.263E-02    0.654E-03
RMM:   6    -0.126179707614E+00   -0.10026E-03   -0.28468E-07  9155   0.333E-03    0.272E-03
RMM:   7    -0.126229489904E+00   -0.49782E-04   -0.13628E-07  8923   0.219E-03    0.139E-04
RMM:   8    -0.126231182634E+00   -0.16927E-05   -0.47916E-10  8227   0.141E-04    0.451E-05
RMM:   9    -0.126231277171E+00   -0.94537E-07   -0.12039E-11  5925   0.501E-05    0.656E-06
 Linear response DOF=           2
 Linear response progress:
  Degree of freedom:   1/  2
       N       E                     dE             d eps       ncg     rms          rms(c)
RMM:   1    -0.184114596100E-02   -0.18411E-02    0.19637E-05 12351   0.312E-01
RMM:   2    -0.179357227923E-02    0.47574E-04   -0.10925E-04  8093   0.423E-02    0.320E-02
RMM:   3    -0.177435245606E-02    0.19220E-04   -0.90722E-06  8297   0.153E-02    0.170E-02
RMM:   4    -0.177791474128E-02   -0.35623E-05   -0.83001E-06  8279   0.153E-02    0.323E-03
RMM:   5    -0.177947280769E-02   -0.15581E-05   -0.25660E-07  8382   0.303E-03    0.377E-04
RMM:   6    -0.177954284389E-02   -0.70036E-07   -0.33290E-09  8560   0.345E-04    0.170E-04
 Linear response progress:
  Degree of freedom:   2/  2
       N       E                     dE             d eps       ncg     rms          rms(c)
RMM:   1    -0.355711999995E+00   -0.35571E+00    0.40550E-01  8932   0.269E+00
RMM:   2    -0.356237296271E+00   -0.52530E-03   -0.83808E-04  8374   0.149E-01    0.129E-01
RMM:   3    -0.357836062206E+00   -0.15988E-02   -0.23523E-04  8347   0.787E-02    0.704E-02
RMM:   4    -0.360199993739E+00   -0.23639E-02   -0.25486E-04  7870   0.842E-02    0.203E-02
RMM:   5    -0.360252262870E+00   -0.52269E-04   -0.33255E-06  8844   0.133E-02    0.187E-03
RMM:   6    -0.360243047590E+00    0.92153E-05   -0.26028E-08  9341   0.102E-03    0.103E-03
RMM:   7    -0.360232382275E+00    0.10665E-04   -0.14383E-08  8937   0.785E-04    0.514E-05
RMM:   8    -0.360232238794E+00    0.14348E-06   -0.95231E-11  9256   0.302E-05    0.265E-05
RMM:   9    -0.360232359224E+00   -0.12043E-06   -0.10626E-10  9148   0.386E-05    0.227E-06
RMM:  10    -0.360232371002E+00   -0.11778E-07   -0.82816E-11  6253   0.443E-06    0.911E-07
 Linear response finished
