 vasp.5.4.4.18Apr17-6-g9f103f2a35 (build Apr 25 2017 10:43:04) complex          
  
 executed on             LinuxIFC date 2019.08.24  15:44:05
 running on   36 total cores
 distrk:  each k-point on   36 cores,    1 groups
 distr:  one band on NCORES_PER_BAND=   1 cores,   36 groups


--------------------------------------------------------------------------------------------------------


 INCAR:
 POTCAR:    PAW_PBE Mg 13Apr2007                  
 POTCAR:    PAW_PBE O 08Apr2002                   

 ----------------------------------------------------------------------------- 
|                                                                             |
|           W    W    AA    RRRRR   N    N  II  N    N   GGGG   !!!           |
|           W    W   A  A   R    R  NN   N  II  NN   N  G    G  !!!           |
|           W    W  A    A  R    R  N N  N  II  N N  N  G       !!!           |
|           W WW W  AAAAAA  RRRRR   N  N N  II  N  N N  G  GGG   !            |
|           WW  WW  A    A  R   R   N   NN  II  N   NN  G    G                |
|           W    W  A    A  R    R  N    N  II  N    N   GGGG   !!!           |
|                                                                             |
|      For optimal performance we recommend to set                            |
|        NCORE= 4 - approx SQRT( number of cores)                             |
|      NCORE specifies how many cores store one orbital (NPAR=cpu/NCORE).     |
|      This setting can  greatly improve the performance of VASP for DFT.     |
|      The default,   NCORE=1            might be grossly inefficient         |
|      on modern multi-core architectures or massively parallel machines.     |
|      Do your own testing !!!!                                               |
|      Unfortunately you need to use the default for GW and RPA calculations. |
|      (for HF NCORE is supported but not extensively tested yet)             |
|                                                                             |
 ----------------------------------------------------------------------------- 

 POTCAR:    PAW_PBE Mg 13Apr2007                  
   VRHFIN =Mg: s2p0                                                             
   LEXCH  = PE                                                                  
   EATOM  =    23.0369 eV,    1.6932 Ry                                         
                                                                                
   TITEL  = PAW_PBE Mg 13Apr2007                                                
   LULTRA =        F    use ultrasoft PP ?                                      
   IUNSCR =        1    unscreen: 0-lin 1-nonlin 2-no                           
   RPACOR =    1.500    partial core radius                                     
   POMASS =   24.305; ZVAL   =    2.000    mass and valenz                      
   RCORE  =    2.000    outmost cutoff radius                                   
   RWIGS  =    2.880; RWIGS  =    1.524    wigner-seitz radius (au A)           
   ENMAX  =  200.000; ENMIN  =  100.000 eV                                      
   RCLOC  =    1.506    cutoff for local pot                                    
   LCOR   =        T    correct aug charges                                     
   LPAW   =        T    paw PP                                                  
   EAUG   =  454.734                                                            
   DEXC   =    0.000                                                            
   RMAX   =    2.045    core radius for proj-oper                               
   RAUG   =    1.300    factor for augmentation sphere                          
   RDEP   =    2.025    radius for radial grids                                 
   RDEPT  =    1.942    core radius for aug-charge                              
                                                                                
   Atomic configuration                                                         
    6 entries                                                                   
     n  l   j            E        occ.                                          
     1  0  0.50     -1259.6230   2.0000                                         
     2  0  0.50       -79.8442   2.0000                                         
     2  1  1.50       -46.6121   6.0000                                         
     3  0  0.50        -4.7055   2.0000                                         
     3  1  0.50        -1.3660   0.0000                                         
     3  2  1.50        -1.3606   0.0000                                         
   Description                                                                  
     l       E           TYP  RCUT    TYP  RCUT                                 
     0     -4.7054661     23  2.000                                             
     0     27.2116520     23  2.000                                             
     1      1.3605826     23  2.000                                             
     1     27.2116520     23  2.000                                             
     2     -1.3605826     23  2.000                                             
  local pseudopotential read in
  partial core-charges read in
  partial kinetic energy density read in
  atomic valenz-charges read in
  non local Contribution for L=           0  read in
    real space projection operators read in
  non local Contribution for L=           0  read in
    real space projection operators read in
  non local Contribution for L=           1  read in
    real space projection operators read in
  non local Contribution for L=           1  read in
    real space projection operators read in
  non local Contribution for L=           2  read in
    real space projection operators read in
    PAW grid and wavefunctions read in
 
   number of l-projection  operators is LMAX  =           5
   number of lm-projection operators is LMMAX =          13
 
 POTCAR:    PAW_PBE O 08Apr2002                   
   VRHFIN =O: s2p4                                                              
   LEXCH  = PE                                                                  
   EATOM  =   432.3788 eV,   31.7789 Ry                                         
                                                                                
   TITEL  = PAW_PBE O 08Apr2002                                                 
   LULTRA =        F    use ultrasoft PP ?                                      
   IUNSCR =        1    unscreen: 0-lin 1-nonlin 2-no                           
   RPACOR =    1.200    partial core radius                                     
   POMASS =   16.000; ZVAL   =    6.000    mass and valenz                      
   RCORE  =    1.520    outmost cutoff radius                                   
   RWIGS  =    1.550; RWIGS  =    0.820    wigner-seitz radius (au A)           
   ENMAX  =  400.000; ENMIN  =  300.000 eV                                      
   ICORE  =        2    local potential                                         
   LCOR   =        T    correct aug charges                                     
   LPAW   =        T    paw PP                                                  
   EAUG   =  605.392                                                            
   DEXC   =    0.000                                                            
   RMAX   =    1.553    core radius for proj-oper                               
   RAUG   =    1.300    factor for augmentation sphere                          
   RDEP   =    1.550    radius for radial grids                                 
   RDEPT  =    1.329    core radius for aug-charge                              
                                                                                
   Atomic configuration                                                         
    4 entries                                                                   
     n  l   j            E        occ.                                          
     1  0  0.50      -514.6923   2.0000                                         
     2  0  0.50       -23.9615   2.0000                                         
     2  1  0.50        -9.0305   4.0000                                         
     3  2  1.50        -9.5241   0.0000                                         
   Description                                                                  
     l       E           TYP  RCUT    TYP  RCUT                                 
     0    -23.9615318     23  1.200                                             
     0     -9.5240782     23  1.200                                             
     1     -9.0304911     23  1.520                                             
     1      8.1634956     23  1.520                                             
     2     -9.5240782      7  1.500                                             
  local pseudopotential read in
  partial core-charges read in
  partial kinetic energy density read in
  kinetic energy density of atom read in
  atomic valenz-charges read in
  non local Contribution for L=           0  read in
    real space projection operators read in
  non local Contribution for L=           0  read in
    real space projection operators read in
  non local Contribution for L=           1  read in
    real space projection operators read in
  non local Contribution for L=           1  read in
    real space projection operators read in
    PAW grid and wavefunctions read in
 
   number of l-projection  operators is LMAX  =           4
   number of lm-projection operators is LMMAX =           8
 
 Optimization of the real space projectors (new method)

 maximal supplied QI-value         = 18.90
 optimisation between [QCUT,QGAM] = [ 10.20, 20.41] = [ 29.16,116.64] Ry 
 Optimized for a Real-space Cutoff    1.30 Angstroem

   l    n(q)    QCUT    max X(q) W(low)/X(q) W(high)/X(q)  e(spline) 
   0      8    10.205    28.265    0.22E-03    0.17E-03    0.53E-07
   0      8    10.205    10.429    0.17E-03    0.15E-03    0.43E-07
   1      7    10.205    13.073    0.71E-04    0.41E-03    0.76E-07
   1      7    10.205     9.625    0.71E-04    0.33E-03    0.63E-07
   2      7    10.205     4.652    0.24E-03    0.41E-03    0.55E-07
 Optimization of the real space projectors (new method)

 maximal supplied QI-value         = 24.76
 optimisation between [QCUT,QGAM] = [ 10.15, 20.30] = [ 28.85,115.39] Ry 
 Optimized for a Real-space Cutoff    1.38 Angstroem

   l    n(q)    QCUT    max X(q) W(low)/X(q) W(high)/X(q)  e(spline) 
   0      8    10.150    20.381    0.22E-03    0.32E-03    0.29E-06
   0      8    10.150    15.268    0.23E-03    0.35E-03    0.30E-06
   1      8    10.150     5.964    0.46E-03    0.53E-03    0.21E-06
   1      8    10.150     5.382    0.38E-03    0.45E-03    0.19E-06

 ----------------------------------------------------------------------------- 
|                                                                             |
|  ADVICE TO THIS USER RUNNING 'VASP/VAMP'   (HEAR YOUR MASTER'S VOICE ...):  |
|                                                                             |
|      You enforced a specific xc-type in the INCAR file,                     |
|      a different type was found on the POTCAR file                          |
|          I HOPE YOU KNOW, WHAT YOU ARE  DOING                               |
|                                                                             |
 ----------------------------------------------------------------------------- 

  PAW_PBE Mg 13Apr2007                  :
 energy of atom  1       EATOM=  -23.0369
 kinetic energy error for atom=    0.0001 (will be added to EATOM!!)
  PAW_PBE O 08Apr2002                   :
 energy of atom  2       EATOM= -432.3788
 kinetic energy error for atom=    0.1156 (will be added to EATOM!!)
 
 
 POSCAR: Mg33 O32                                
  positions in direct lattice
  velocities in cartesian coordinates
 exchange correlation table for  LEXCH =       14
   RHO(1)=    0.500       N(1)  =     2000
   RHO(2)=  100.500       N(2)  =     4000
 


--------------------------------------------------------------------------------------------------------


 ion  position               nearest neighbor table
   1  0.125  0.125  0.125-  34 1.86  42 1.86  50 1.86  58 1.86   2 2.28  10 2.28  18 2.28  26 2.28
                             4 3.50  19 3.50  20 3.50  22 3.50   6 3.50  27 3.50  28 3.50  30 3.50
   2  0.969  0.969  0.969-  51 1.93  38 1.93  60 1.93   1 2.28  58 2.42  34 2.42  50 2.42  13 2.68
                            23 2.68  32 2.68  19 3.02  22 3.02  12 3.02  28 3.02  30 3.02  11 3.02
   3  0.999  0.999  0.501-  51 2.04  50 2.09  39 2.10  61 2.10  59 2.13  35 2.13  13 2.97  23 2.97
                            33 2.97  11 2.97  19 2.97  12 2.98  22 2.98  27 2.99  31 3.01  29 3.01
   4  0.999  0.501  0.999-  60 2.04  58 2.09  53 2.10  40 2.10  52 2.13  36 2.13  13 2.97  32 2.97
                            25 2.97  28 2.97  12 2.97  30 2.98  11 2.98  20 2.99  21 3.01  24 3.01
   5  0.999  0.506  0.506-  61 2.06  53 2.06  41 2.10  37 2.11  59 2.13  52 2.13  10 2.68  13 2.84
                            21 2.92  29 2.92  25 2.94  33 2.94  12 2.97  11 2.97  20 3.01  27 3.01
   6  0.501  0.999  0.999-  38 2.04  34 2.09  55 2.10  64 2.10  62 2.13  54 2.13  23 2.97  32 2.97
                            17 2.97  30 2.97  22 2.97  19 2.98  28 2.98  14 2.99  16 3.01  15 3.01
   7  0.506  0.999  0.506-  39 2.06  55 2.06  65 2.10  63 2.11  54 2.13  35 2.13  18 2.68  23 2.84
                            15 2.92  31 2.92  17 2.94  33 2.94  22 2.97  19 2.97  14 3.01  27 3.01
   8  0.506  0.506  0.999-  40 2.06  64 2.06  57 2.10  56 2.11  62 2.13  36 2.13  26 2.68  32 2.84
                            16 2.92  24 2.92  17 2.94  25 2.94  30 2.97  28 2.97  14 3.01  20 3.01
   9  0.500  0.500  0.500-  41 2.10  57 2.10  65 2.10  56 2.11  63 2.11  37 2.11  15 2.94  16 2.94
                            21 2.94  24 2.94  29 2.94  31 2.94  27 2.97  14 2.97  20 2.97  25 2.97
  10  0.969  0.281  0.281-  59 1.93  52 1.93  46 1.93   1 2.28  42 2.42  50 2.42  58 2.42   5 2.68
                            24 2.68  31 2.68  20 3.02  22 3.02   4 3.02  27 3.02  30 3.02   3 3.02
  11  0.999  0.251  0.749-  59 2.04  58 2.09  47 2.10  53 2.10  51 2.13  43 2.13   5 2.97  31 2.97
                            25 2.97  27 2.97   3 2.97  30 2.98   4 2.98  19 2.99  21 3.01  23 3.01
  12  0.999  0.749  0.251-  52 2.04  50 2.09  61 2.10  48 2.10  60 2.13  44 2.13   5 2.97  24 2.97
                            33 2.97   4 2.97  20 2.97   3 2.98  22 2.98  28 2.99  32 3.01  29 3.01
  13  0.999  0.744  0.744-  53 2.06  61 2.06  49 2.10  45 2.11  60 2.13  51 2.13   2 2.68   5 2.84
                            21 2.92  29 2.92  25 2.94  33 2.94   4 2.97   3 2.97  19 3.01  28 3.01
  14  0.501  0.251  0.251-  46 2.04  42 2.09  63 2.10  56 2.10  62 2.13  54 2.13  24 2.97  31 2.97
                             9 2.97  30 2.97  22 2.97  20 2.98  27 2.98   6 2.99   8 3.01   7 3.01
  15  0.506  0.251  0.744-  47 2.06  63 2.06  57 2.10  55 2.11  62 2.13  43 2.13  26 2.68  31 2.84
                             7 2.92  23 2.92   9 2.94  25 2.94  30 2.97  27 2.97   6 3.01  19 3.01
  16  0.506  0.744  0.251-  48 2.06  56 2.06  65 2.10  64 2.11  54 2.13  44 2.13  18 2.68  24 2.84
                             8 2.92  32 2.92   9 2.94  33 2.94  22 2.97  20 2.97   6 3.01  28 3.01
  17  0.500  0.750  0.750-  49 2.10  57 2.10  65 2.10  64 2.11  55 2.11  45 2.11   7 2.94   8 2.94
                            21 2.94  23 2.94  29 2.94  32 2.94  28 2.97   6 2.97  19 2.97  25 2.97
  18  0.281  0.969  0.281-  35 1.93  44 1.93  54 1.93   1 2.28  50 2.42  42 2.42  34 2.42   7 2.68
                            16 2.68  29 2.68  12 3.02  14 3.02   6 3.02  27 3.02  28 3.02   3 3.02
  19  0.251  0.999  0.749-  35 2.04  34 2.09  45 2.10  55 2.10  51 2.13  43 2.13   7 2.97  29 2.97
                            17 2.97  27 2.97   3 2.97  28 2.98   6 2.98  11 2.99  13 3.01  15 3.01
  20  0.251  0.501  0.251-  44 2.04  42 2.09  37 2.10  56 2.10  52 2.13  36 2.13  16 2.97  29 2.97
                             9 2.97  28 2.97  12 2.97  14 2.98  27 2.98   4 2.99   8 3.01   5 3.01
  21  0.251  0.506  0.744-  45 2.06  37 2.06  57 2.10  53 2.11  43 2.13  36 2.13  26 2.68  29 2.84
                             5 2.92  13 2.92   9 2.94  17 2.94  28 2.97  27 2.97   4 3.01  11 3.01
  22  0.749  0.999  0.251-  54 2.04  50 2.09  39 2.10  48 2.10  46 2.13  38 2.13   7 2.97  16 2.97
                            33 2.97   6 2.97  14 2.97  12 2.98   3 2.98  30 2.99  32 3.01  31 3.01
  23  0.744  0.999  0.744-  55 2.06  39 2.06  49 2.10  47 2.11  51 2.13  38 2.13   2 2.68   7 2.84
                            15 2.92  31 2.92  17 2.94  33 2.94   6 2.97   3 2.97  11 3.01  30 3.01
  24  0.744  0.506  0.251-  48 2.06  56 2.06  41 2.10  40 2.11  52 2.13  46 2.13  10 2.68  16 2.84
                             8 2.92  32 2.92   9 2.94  33 2.94  14 2.97  12 2.97   4 3.01  30 3.01
  25  0.750  0.500  0.750-  41 2.10  49 2.10  57 2.10  40 2.11  53 2.11  47 2.11   5 2.94   8 2.94
                            13 2.94  15 2.94  31 2.94  32 2.94  30 2.97   4 2.97  11 2.97  17 2.97
  26  0.281  0.281  0.969-  43 1.93  36 1.93  62 1.93   1 2.28  58 2.42  34 2.42  42 2.42   8 2.68
                            15 2.68  21 2.68  11 3.02  14 3.02   6 3.02  19 3.02  20 3.02   4 3.02
  27  0.251  0.251  0.501-  43 2.04  42 2.09  37 2.10  63 2.10  59 2.13  35 2.13  15 2.97  21 2.97
                             9 2.97  19 2.97  11 2.97  20 2.98  14 2.98   3 2.99   7 3.01   5 3.01
  28  0.251  0.749  0.999-  36 2.04  34 2.09  45 2.10  64 2.10  60 2.13  44 2.13   8 2.97  21 2.97
                            17 2.97  20 2.97   4 2.97   6 2.98  19 2.98  12 2.99  13 3.01  16 3.01
  29  0.251  0.744  0.506-  37 2.06  45 2.06  65 2.10  61 2.11  44 2.13  35 2.13  18 2.68  21 2.84
                             5 2.92  13 2.92   9 2.94  17 2.94  20 2.97  19 2.97   3 3.01  12 3.01
  30  0.749  0.251  0.999-  62 2.04  58 2.09  47 2.10  40 2.10  46 2.13  38 2.13   8 2.97  15 2.97
                            25 2.97   6 2.97  14 2.97  11 2.98   4 2.98  22 2.99  24 3.01  23 3.01
  31  0.744  0.251  0.506-  63 2.06  47 2.06  41 2.10  39 2.11  59 2.13  46 2.13  10 2.68  15 2.84
                             7 2.92  23 2.92   9 2.94  25 2.94  14 2.97  11 2.97   3 3.01  22 3.01
  32  0.744  0.744  0.999-  40 2.06  64 2.06  49 2.10  48 2.11  60 2.13  38 2.13   2 2.68   8 2.84
                            16 2.92  24 2.92  17 2.94  25 2.94   6 2.97   4 2.97  12 3.01  22 3.01
  33  0.750  0.750  0.500-  41 2.10  49 2.10  65 2.10  48 2.11  61 2.11  39 2.11   5 2.94   7 2.94
                            13 2.94  16 2.94  23 2.94  24 2.94  22 2.97   3 2.97  12 2.97  17 2.97
  34  0.253  0.997  0.997-   1 1.86  19 2.09   6 2.09  28 2.09  26 2.42   2 2.42  18 2.42
  35  0.252  0.998  0.507-  18 1.93  19 2.04   3 2.13  27 2.13   7 2.13  29 2.13
  36  0.252  0.507  0.998-  26 1.93  28 2.04   4 2.13  20 2.13   8 2.13  21 2.13
  37  0.250  0.500  0.500-  29 2.06  21 2.06  20 2.10  27 2.10   5 2.11   9 2.11
  38  0.743  0.998  0.998-   2 1.93   6 2.04  22 2.13  30 2.13  23 2.13  32 2.13
  39  0.750  0.000  0.500-   7 2.06  23 2.06  22 2.10   3 2.10  31 2.11  33 2.11
  40  0.750  0.500  0.000-   8 2.06  32 2.06  30 2.10   4 2.10  24 2.11  25 2.11
  41  0.750  0.500  0.500-   5 2.10  24 2.10  31 2.10  25 2.10   9 2.10  33 2.10
  42  0.253  0.253  0.253-   1 1.86  27 2.09  20 2.09  14 2.09  10 2.42  18 2.42  26 2.42
  43  0.252  0.252  0.743-  26 1.93  27 2.04  11 2.13  19 2.13  15 2.13  21 2.13
  44  0.252  0.743  0.252-  18 1.93  20 2.04  12 2.13  28 2.13  16 2.13  29 2.13
  45  0.250  0.750  0.750-  21 2.06  29 2.06  28 2.10  19 2.10  13 2.11  17 2.11
  46  0.743  0.252  0.252-  10 1.93  14 2.04  22 2.13  30 2.13  24 2.13  31 2.13
  47  0.750  0.250  0.750-  15 2.06  31 2.06  30 2.10  11 2.10  23 2.11  25 2.11
  48  0.750  0.750  0.250-  16 2.06  24 2.06  22 2.10  12 2.10  32 2.11  33 2.11
  49  0.750  0.750  0.750-  13 2.10  23 2.10  32 2.10  25 2.10  17 2.10  33 2.10
  50  0.997  0.997  0.253-   1 1.86   3 2.09  12 2.09  22 2.09  18 2.42  10 2.42   2 2.42
  51  0.998  0.998  0.743-   2 1.93   3 2.04  11 2.13  19 2.13  13 2.13  23 2.13
  52  0.998  0.507  0.252-  10 1.93  12 2.04   4 2.13  20 2.13   5 2.13  24 2.13
  53  0.000  0.500  0.750-  13 2.06   5 2.06   4 2.10  11 2.10  21 2.11  25 2.11
  54  0.507  0.998  0.252-  18 1.93  22 2.04   6 2.13  14 2.13   7 2.13  16 2.13
  55  0.500  0.000  0.750-  23 2.06   7 2.06   6 2.10  19 2.10  15 2.11  17 2.11
  56  0.500  0.500  0.250-  16 2.06  24 2.06  20 2.10  14 2.10   8 2.11   9 2.11
  57  0.500  0.500  0.750-   8 2.10  15 2.10  21 2.10  17 2.10   9 2.10  25 2.10
  58  0.997  0.253  0.997-   1 1.86  11 2.09   4 2.09  30 2.09  26 2.42   2 2.42  10 2.42
  59  0.998  0.252  0.507-  10 1.93  11 2.04   3 2.13  27 2.13   5 2.13  31 2.13
  60  0.998  0.743  0.998-   2 1.93   4 2.04  12 2.13  28 2.13  13 2.13  32 2.13
  61  0.000  0.750  0.500-   5 2.06  13 2.06  12 2.10   3 2.10  29 2.11  33 2.11
  62  0.507  0.252  0.998-  26 1.93  30 2.04   6 2.13  14 2.13   8 2.13  15 2.13
  63  0.500  0.250  0.500-  31 2.06  15 2.06  14 2.10  27 2.10   7 2.11   9 2.11
  64  0.500  0.750  0.000-   8 2.06  32 2.06  28 2.10   6 2.10  16 2.11  17 2.11
  65  0.500  0.750  0.500-   7 2.10  16 2.10  29 2.10  17 2.10   9 2.10  33 2.10
 
  LATTYP: Found a simple cubic cell.
 ALAT       =     8.4194560000
  
  Lattice vectors:
  
 A1 = (   8.4194560000,   0.0000000000,   0.0000000000)
 A2 = (   0.0000000000,   8.4194560000,   0.0000000000)
 A3 = (   0.0000000000,   0.0000000000,   8.4194560000)


Analysis of symmetry for initial positions (statically):
=====================================================================
 Subroutine PRICEL returns:
 Original cell was already a primitive cell.
 

 Routine SETGRP: Setting up the symmetry group for a 
 simple cubic supercell.


 Subroutine GETGRP returns: Found 24 space group operations
 (whereof  6 operations were pure point group operations)
 out of a pool of 48 trial point group operations.


The static configuration has the point symmetry C_3v.
 The point group associated with its full space group is T_d .


Analysis of symmetry for dynamics (positions and initial velocities):
=====================================================================
 Subroutine PRICEL returns:
 Original cell was already a primitive cell.
 

 Routine SETGRP: Setting up the symmetry group for a 
 simple cubic supercell.


 Subroutine GETGRP returns: Found 24 space group operations
 (whereof  6 operations were pure point group operations)
 out of a pool of 48 trial point group operations.


The dynamic configuration has the point symmetry C_3v.
 The point group associated with its full space group is T_d .


Analysis of structural, dynamic, and magnetic symmetry:
=====================================================================
 Subroutine PRICEL returns:
 Original cell was already a primitive cell.
 

 Routine SETGRP: Setting up the symmetry group for a 
 simple cubic supercell.


 Subroutine GETGRP returns: Found 24 space group operations
 (whereof  6 operations were pure point group operations)
 out of a pool of 48 trial point group operations.


The magnetic configuration has the point symmetry C_3v.
 The point group associated with its full space group is T_d .


 Subroutine INISYM returns: Found 24 space group operations
 (whereof  6 operations are pure point group operations),
 and found     1 'primitive' translations

 
 
 KPOINTS: mode: manual_set, kpt density: 2, factor

Automatic generation of k-mesh.
Space group operators:
 irot       det(A)        alpha          n_x          n_y          n_z        tau_x        tau_y        tau_z
    1     1.000000     0.000001     1.000000     0.000000     0.000000     0.000000     0.000000     0.000000
    2     1.000000   120.000000    -0.577350    -0.577350    -0.577350     0.000000     0.000000     0.000000
    3     1.000000   120.000000     0.577350     0.577350     0.577350     0.000000     0.000000     0.000000
    4    -1.000000   180.000000     0.000000    -0.707107     0.707107     0.000000     0.000000     0.000000
    5    -1.000000   180.000000     0.707107    -0.707107     0.000000     0.000000     0.000000     0.000000
    6    -1.000000   180.000000     0.707107     0.000000    -0.707107     0.000000     0.000000     0.000000
    7    -1.000000    90.000000     0.000000     0.000000    -1.000000     0.000000     0.250000     0.250000
    8    -1.000000   180.000000     0.000000     0.707107     0.707107     0.000000     0.250000     0.250000
    9    -1.000000    90.000000     0.000000     1.000000     0.000000     0.000000     0.250000     0.250000
   10     1.000000   180.000000     0.000000     0.000000     1.000000     0.250000     0.250000     0.000000
   11     1.000000   120.000000    -0.577350     0.577350     0.577350     0.250000     0.250000     0.000000
   12     1.000000   120.000000    -0.577350     0.577350    -0.577350     0.250000     0.250000     0.000000
   13    -1.000000    90.000000     0.000000     0.000000     1.000000     0.250000     0.000000     0.250000
   14    -1.000000    90.000000    -1.000000     0.000000     0.000000     0.250000     0.000000     0.250000
   15    -1.000000   180.000000     0.707107     0.000000     0.707107     0.250000     0.000000     0.250000
   16     1.000000   120.000000     0.577350    -0.577350     0.577350     0.000000     0.250000     0.250000
   17     1.000000   120.000000    -0.577350    -0.577350     0.577350     0.000000     0.250000     0.250000
   18     1.000000   180.000000     1.000000     0.000000     0.000000     0.000000     0.250000     0.250000
   19    -1.000000    90.000000     0.000000    -1.000000     0.000000     0.250000     0.250000     0.000000
   20    -1.000000   180.000000     0.707107     0.707107     0.000000     0.250000     0.250000     0.000000
   21    -1.000000    90.000000     1.000000     0.000000     0.000000     0.250000     0.250000     0.000000
   22     1.000000   120.000000     0.577350    -0.577350    -0.577350     0.250000     0.000000     0.250000
   23     1.000000   180.000000     0.000000     1.000000     0.000000     0.250000     0.000000     0.250000
   24     1.000000   120.000000     0.577350     0.577350    -0.577350     0.250000     0.000000     0.250000
 
 Subroutine IBZKPT returns following result:
 ===========================================
 
 Found      1 irreducible k-points:
 
 Following reciprocal coordinates:
            Coordinates               Weight
  0.250000  0.250000  0.250000      8.000000
 
 Following cartesian coordinates:
            Coordinates               Weight
  0.029693  0.029693  0.029693      8.000000
 


--------------------------------------------------------------------------------------------------------




 Dimension of arrays:
   k-points           NKPTS =      1   k-points in BZ     NKDIM =      1   number of bands    NBANDS=    216
   number of dos      NEDOS =    301   number of ions     NIONS =     65
   non local maximal  LDIM  =      5   non local SUM 2l+1 LMDIM =     13
   total plane-waves  NPLWV =  74088
   max r-space proj   IRMAX =   1418   max aug-charges    IRDMAX=   5472
   dimension x,y,z NGX =    42 NGY =   42 NGZ =   42
   dimension x,y,z NGXF=    84 NGYF=   84 NGZF=   84
   support grid    NGXF=    84 NGYF=   84 NGZF=   84
   ions per type =              33  32
   NGX,Y,Z   is equivalent  to a cutoff of   8.29,  8.29,  8.29 a.u.
   NGXF,Y,Z  is equivalent  to a cutoff of  16.59, 16.59, 16.59 a.u.

 SYSTEM =  unknown system                          
 POSCAR =  Mg33 O32                                

 Startparameter for this run:
   NWRITE =      2    write-flag & timer
   PREC   = n         normal or accurate (medium, high low for compatibility)
   ISTART =      1    job   : 0-new  1-cont  2-samecut
   ICHARG =      0    charge: 1-file 2-atom 10-const
   ISPIN  =      2    spin polarized calculation?
   LNONCOLLINEAR =      F non collinear calculations
   LSORBIT =      F    spin-orbit coupling
   INIWAV =      1    electr: 0-lowe 1-rand  2-diag
   LASPH  =      T    aspherical Exc in radial PAW
   METAGGA=      F    non-selfconsistent MetaGGA calc.

 Electronic Relaxation 1
   ENCUT  =  400.0 eV  29.40 Ry    5.42 a.u.  13.73 13.73 13.73*2*pi/ulx,y,z
   ENINI  =  400.0     initial cutoff
   ENAUG  =  605.4 eV  augmentation charge cutoff
   NELM   =    100;   NELMIN=  2; NELMDL=  0     # of ELM steps 
   EDIFF  = 0.1E-05   stopping-criterion for ELM
   LREAL  =      T    real-space projection
   NLSPLINE    = F    spline interpolate recip. space projectors
   LCOMPAT=      F    compatible to vasp.4.4
   GGA_COMPAT  = T    GGA compatible to vasp.4.4-vasp.4.6
   LMAXPAW     = -100 max onsite density
   LMAXMIX     =    2 max onsite mixed and CHGCAR
   VOSKOWN=      0    Vosko Wilk Nusair interpolation
   ROPT   =   -0.00050  -0.00050
 Ionic relaxation
   EDIFFG = -.4E-01   stopping-criterion for IOM
   NSW    =     50    number of steps for IOM
   NBLOCK =      1;   KBLOCK =     50    inner block; outer block 
   IBRION =      2    ionic relax: 0-MD 1-quasi-New 2-CG
   NFREE  =      1    steps in history (QN), initial steepest desc. (CG)
   ISIF   =      2    stress and relaxation
   IWAVPR =     11    prediction:  0-non 1-charg 2-wave 3-comb
   ISYM   =      2    0-nonsym 1-usesym 2-fastsym
   LCORR  =      T    Harris-Foulkes like correction to forces

   POTIM  = 0.5000    time-step for ionic-motion
   TEIN   =    0.0    initial temperature
   TEBEG  =    0.0;   TEEND  =   0.0 temperature during run
   SMASS  =  -3.00    Nose mass-parameter (am)
   estimated Nose-frequenzy (Omega)   =  0.10E-29 period in steps =****** mass=  -0.162E-26a.u.
   SCALEE = 1.0000    scale energy and forces
   NPACO  =    256;   APACO  = 16.0  distance and # of slots for P.C.
   PSTRESS=    0.0 pullay stress

  Mass of Ions in am
   POMASS =  24.30 16.00
  Ionic Valenz
   ZVAL   =   2.00  6.00
  Atomic Wigner-Seitz radii
   RWIGS  =  -1.00 -1.00
  virtual crystal weights 
   VCA    =   1.00  1.00
   NELECT =     257.0000    total number of electrons
   NUPDOWN=      -1.0000    fix difference up-down

 DOS related values:
   EMIN   =  10.00;   EMAX   =-10.00  energy-range for DOS
   EFERMI =   0.00
   ISMEAR =     0;   SIGMA  =   0.10  broadening in eV -4-tet -1-fermi 0-gaus

 Electronic relaxation 2 (details)
   IALGO  =     38    algorithm
   LDIAG  =      T    sub-space diagonalisation (order eigenvalues)
   LSUBROT=      F    optimize rotation matrix (better conditioning)
   TURBO    =      0    0=normal 1=particle mesh
   IRESTART =      0    0=no restart 2=restart with 2 vectors
   NREBOOT  =      0    no. of reboots
   NMIN     =      0    reboot dimension
   EREF     =   0.00    reference energy to select bands
   IMIX   =      4    mixing-type and parameters
     AMIX     =   0.40;   BMIX     =  1.00
     AMIX_MAG =   1.60;   BMIX_MAG =  1.00
     AMIN     =   0.10
     WC   =   100.;   INIMIX=   1;  MIXPRE=   1;  MAXMIX= -45

 Intra band minimization:
   WEIMIN = 0.0010     energy-eigenvalue tresh-hold
   EBREAK =  0.12E-08  absolut break condition
   DEPER  =   0.30     relativ break condition  

   TIME   =   0.40     timestep for ELM

  volume/ion in A,a.u.               =       9.18        61.96
  Fermi-wavevector in a.u.,A,eV,Ry     =   1.236237  2.336150 20.793548  1.528283
  Thomas-Fermi vector in A             =   2.370854
 
 Write flags
   LWAVE        =      T    write WAVECAR
   LDOWNSAMPLE  =      F    k-point downsampling of WAVECAR
   LCHARG       =      F    write CHGCAR
   LVTOT        =      F    write LOCPOT, total local potential
   LVHAR        =      F    write LOCPOT, Hartree potential only
   LELF         =      F    write electronic localiz. function (ELF)
   LORBIT       =     12    0 simple, 1 ext, 2 COOP (PROOUT), +10 PAW based schemes


 Dipole corrections
   LMONO  =      F    monopole corrections only (constant potential shift)
   LDIPOL =      F    correct potential (dipole corrections)
   IDIPOL =      0    1-x, 2-y, 3-z, 4-all directions 
   EPSILON=  1.0000000 bulk dielectric constant

 Exchange correlation treatment:
   GGA     =    PS    GGA type
   LEXCH   =    14    internal setting for exchange type
   VOSKOWN=      0    Vosko Wilk Nusair interpolation
   LHFCALC =     F    Hartree Fock is set to
   LHFONE  =     F    Hartree Fock one center treatment
   AEXX    =    0.0000 exact exchange contribution

 Linear response parameters
   LEPSILON=     F    determine dielectric tensor
   LRPA    =     F    only Hartree local field effects (RPA)
   LNABLA  =     F    use nabla operator in PAW spheres
   LVEL    =     F    velocity operator in full k-point grid
   LINTERFAST=   F  fast interpolation
   KINTER  =     0    interpolate to denser k-point grid
   CSHIFT  =0.1000    complex shift for real part using Kramers Kronig
   OMEGAMAX=  -1.0    maximum frequency
   DEG_THRESHOLD= 0.2000000E-02 threshold for treating states as degnerate
   RTIME   =   -0.100 relaxation time in fs
  (WPLASMAI=    0.000 imaginary part of plasma frequency in eV, 0.658/RTIME)
   DFIELD  = 0.0000000 0.0000000 0.0000000 field for delta impulse in time
 
 Orbital magnetization related:
   ORBITALMAG=     F  switch on orbital magnetization
   LCHIMAG   =     F  perturbation theory with respect to B field
   DQ        =  0.001000  dq finite difference perturbation B field
   LLRAUG    =     F  two centre corrections for induced B field



--------------------------------------------------------------------------------------------------------


 conjugate gradient relaxation of ions
 charge density and potential will be updated during run
 spin polarized calculation
 Variant of blocked Davidson
 Davidson routine will perform the subspace rotation
 perform sub-space diagonalisation
    after iterative eigenvector-optimisation
 modified Broyden-mixing scheme, WC =      100.0
 initial mixing is a Kerker type mixing with AMIX =  0.4000 and BMIX =      1.0000
 Hartree-type preconditioning will be used
 using additional bands           87
 real space projection scheme for non local part
 use partial core corrections
 calculate Harris-corrections to forces 
   (improved forces if not selfconsistent)
 use gradient corrections 
 use of overlap-Matrix (Vanderbilt PP)
 Gauss-broadening in eV      SIGMA  =   0.10


--------------------------------------------------------------------------------------------------------


  energy-cutoff  :      400.00
  volume of cell :      596.83
      direct lattice vectors                 reciprocal lattice vectors
     8.419456000  0.000000000  0.000000000     0.118772519  0.000000000  0.000000000
     0.000000000  8.419456000  0.000000000     0.000000000  0.118772519  0.000000000
     0.000000000  0.000000000  8.419456000     0.000000000  0.000000000  0.118772519

  length of vectors
     8.419456000  8.419456000  8.419456000     0.118772519  0.118772519  0.118772519


 
 old parameters found on file WAVECAR:
  energy-cutoff  :      400.00
  volume of cell :      596.83
      direct lattice vectors                 reciprocal lattice vectors
     8.419456000  0.000000000  0.000000000     0.118772519  0.000000000  0.000000000
     0.000000000  8.419456000  0.000000000     0.000000000  0.118772519  0.000000000
     0.000000000  0.000000000  8.419456000     0.000000000  0.000000000  0.118772519

  length of vectors

 
 k-points in units of 2pi/SCALE and weight: mode: manual_set, kpt density: 2, factor
   0.02969313  0.02969313  0.02969313       1.000
 
 k-points in reciprocal lattice and weights: mode: manual_set, kpt density: 2, factor
   0.25000000  0.25000000  0.25000000       1.000
 
 position of ions in fractional coordinates (direct lattice) 
   0.12500000  0.12500000  0.12500000
   0.96857989  0.96857989  0.96857989
   0.99923592  0.99923592  0.50106043
   0.99923592  0.50106043  0.99923592
   0.99944912  0.50579477  0.50579477
   0.50106043  0.99923592  0.99923592
   0.50579477  0.99944912  0.50579477
   0.50579477  0.50579477  0.99944912
   0.50022828  0.50022828  0.50022828
   0.96857989  0.28142011  0.28142011
   0.99923592  0.25076408  0.74893957
   0.99923592  0.74893957  0.25076408
   0.99944912  0.74420523  0.74420523
   0.50106043  0.25076408  0.25076408
   0.50579477  0.25055088  0.74420523
   0.50579477  0.74420523  0.25055088
   0.50022828  0.74977172  0.74977172
   0.28142011  0.96857989  0.28142011
   0.25076408  0.99923592  0.74893957
   0.25076408  0.50106043  0.25076408
   0.25055088  0.50579477  0.74420523
   0.74893957  0.99923592  0.25076408
   0.74420523  0.99944912  0.74420523
   0.74420523  0.50579477  0.25055088
   0.74977172  0.50022828  0.74977172
   0.28142011  0.28142011  0.96857989
   0.25076408  0.25076408  0.50106043
   0.25076408  0.74893957  0.99923592
   0.25055088  0.74420523  0.50579477
   0.74893957  0.25076408  0.99923592
   0.74420523  0.25055088  0.50579477
   0.74420523  0.74420523  0.99944912
   0.74977172  0.74977172  0.50022828
   0.25258010  0.99741990  0.99741990
   0.25230160  0.99769840  0.50676685
   0.25230160  0.50676685  0.99769840
   0.24952067  0.49966198  0.49966198
   0.74323315  0.99769840  0.99769840
   0.75033802  0.00047933  0.49966198
   0.75033802  0.49966198  0.00047933
   0.75001862  0.49998138  0.49998138
   0.25258010  0.25258010  0.25258010
   0.25230160  0.25230160  0.74323315
   0.25230160  0.74323315  0.25230160
   0.24952067  0.75033802  0.75033802
   0.74323315  0.25230160  0.25230160
   0.75033802  0.24952067  0.75033802
   0.75033802  0.75033802  0.24952067
   0.75001862  0.75001862  0.75001862
   0.99741990  0.99741990  0.25258010
   0.99769840  0.99769840  0.74323315
   0.99769840  0.50676685  0.25230160
   0.00047933  0.49966198  0.75033802
   0.50676685  0.99769840  0.25230160
   0.49966198  0.00047933  0.75033802
   0.49966198  0.49966198  0.24952067
   0.49998138  0.49998138  0.75001862
   0.99741990  0.25258010  0.99741990
   0.99769840  0.25230160  0.50676685
   0.99769840  0.74323315  0.99769840
   0.00047933  0.75033802  0.49966198
   0.50676685  0.25230160  0.99769840
   0.49966198  0.24952067  0.49966198
   0.49966198  0.75033802  0.00047933
   0.49998138  0.75001862  0.49998138
 
 position of ions in cartesian coordinates  (Angst):
   1.05243200  1.05243200  1.05243200
   8.15491579  8.15491579  8.15491579
   8.41302290  8.41302290  4.21865624
   8.41302290  4.21865624  8.41302290
   8.41481788  4.25851680  4.25851680
   4.21865624  8.41302290  8.41302290
   4.25851680  8.41481788  4.25851680
   4.25851680  4.25851680  8.41481788
   4.21164996  4.21164996  4.21164996
   8.15491579  2.36940421  2.36940421
   8.41302290  2.11129710  6.30566376
   8.41302290  6.30566376  2.11129710
   8.41481788  6.26580320  6.26580320
   4.21865624  2.11129710  2.11129710
   4.25851680  2.10950212  6.26580320
   4.25851680  6.26580320  2.10950212
   4.21164996  6.31267004  6.31267004
   2.36940421  8.15491579  2.36940421
   2.11129710  8.41302290  6.30566376
   2.11129710  4.21865624  2.11129710
   2.10950212  4.25851680  6.26580320
   6.30566376  8.41302290  2.11129710
   6.26580320  8.41481788  6.26580320
   6.26580320  4.25851680  2.10950212
   6.31267004  4.21164996  6.31267004
   2.36940421  2.36940421  8.15491579
   2.11129710  2.11129710  4.21865624
   2.11129710  6.30566376  8.41302290
   2.10950212  6.26580320  4.25851680
   6.30566376  2.11129710  8.41302290
   6.26580320  2.10950212  4.25851680
   6.26580320  6.26580320  8.41481788
   6.31267004  6.31267004  4.21164996
   2.12658702  8.39773298  8.39773298
   2.12424223  8.40007777  4.26670118
   2.12424223  4.26670118  8.40007777
   2.10082829  4.20688202  4.20688202
   6.25761882  8.40007777  8.40007777
   6.31743798  0.00403571  4.20688202
   6.31743798  4.20688202  0.00403571
   6.31474881  4.20957119  4.20957119
   2.12658702  2.12658702  2.12658702
   2.12424223  2.12424223  6.25761882
   2.12424223  6.25761882  2.12424223
   2.10082829  6.31743798  6.31743798
   6.25761882  2.12424223  2.12424223
   6.31743798  2.10082829  6.31743798
   6.31743798  6.31743798  2.10082829
   6.31474881  6.31474881  6.31474881
   8.39773298  8.39773298  2.12658702
   8.40007777  8.40007777  6.25761882
   8.40007777  4.26670118  2.12424223
   0.00403571  4.20688202  6.31743798
   4.26670118  8.40007777  2.12424223
   4.20688202  0.00403571  6.31743798
   4.20688202  4.20688202  2.10082829
   4.20957119  4.20957119  6.31474881
   8.39773298  2.12658702  8.39773298
   8.40007777  2.12424223  4.26670118
   8.40007777  6.25761882  8.40007777
   0.00403571  6.31743798  4.20688202
   4.26670118  2.12424223  8.40007777
   4.20688202  2.10082829  4.20688202
   4.20688202  6.31743798  0.00403571
   4.20957119  6.31474881  4.20957119
 


--------------------------------------------------------------------------------------------------------


 k-point  1 :   0.2500 0.2500 0.2500  plane waves:   10834

 maximum and minimum number of plane-waves per node :     10834    10834

 maximum number of plane-waves:     10834
 maximum index in each direction: 
   IXMAX=   13   IYMAX=   13   IZMAX=   13
   IXMIN=  -13   IYMIN=  -13   IZMIN=  -13


 serial   3D FFT for wavefunctions
 parallel 3D FFT for charge:
    minimum data exchange during FFTs selected (reduces bandwidth)


 total amount of memory used by VASP MPI-rank0    50714. kBytes
=======================================================================

   base      :      30000. kBytes
   nonlr-proj:       8726. kBytes
   fftplans  :       1007. kBytes
   grid      :       7709. kBytes
   one-center:       1054. kBytes
   wavefun   :       2218. kBytes
 
     INWAV:  cpu time    0.2080: real time    0.3349
 Broyden mixing: mesh for mixing (old mesh)
   NGX = 27   NGY = 27   NGZ = 27
  (NGX  = 84   NGY  = 84   NGZ  = 84)
  gives a total of  19683 points

 charge density for first step will be calculated from the start-wavefunctions


--------------------------------------------------------------------------------------------------------


 Maximum index for non-local projection operator         1343
 Maximum index for augmentation-charges          418 (set IRDMAX)


--------------------------------------------------------------------------------------------------------


 initial charge from wavefunction
 First call to EWALD:  gamma=   0.211
 Maximum number of real-space cells 3x 3x 3
 Maximum number of reciprocal cells 3x 3x 3

    FEWALD:  cpu time    0.0000: real time    0.0025


--------------------------------------- Iteration      1(   1)  ---------------------------------------


    POTLOK:  cpu time    0.0320: real time    0.0355
    SETDIJ:  cpu time    0.5360: real time    0.5347
     EDDAV:  cpu time    0.6680: real time    0.6923
       DOS:  cpu time    0.0000: real time    0.0008
    CHARGE:  cpu time    0.0480: real time    0.0454
    MIXING:  cpu time    0.0000: real time    0.0005
    --------------------------------------------
      LOOP:  cpu time    1.2840: real time    1.3092

 eigenvalue-minimisations  :   648
 total energy-change (2. order) :-0.4002292E+03  (-0.9626258E-07)
 number of electron     257.0001561 magnetization      -0.0000000
 augmentation part       21.1948994 magnetization      -0.0000000

 Broyden mixing:
  rms(total) = 0.19619E-03    rms(broyden)= 0.19604E-03
  rms(prec ) = 0.27878E-03
  weight for this iteration     100.00

 Free energy of the ion-electron system (eV)
  ---------------------------------------------------
  alpha Z        PSCENC =       641.37084423
  Ewald energy   TEWEN  =    -11524.49522911
  -Hartree energ DENC   =     -4473.58599539
  -exchange      EXHF   =         0.00000000
  -V(xc)+E(xc)   XCENC  =      -606.43244685
  PAW double counting   =     17926.56128767   -16301.16327727
  entropy T*S    EENTRO =        -0.05641896
  eigenvalues    EBANDS =      -591.44483715
  atomic energy  EATOM  =     14529.01688503
  Solvation  Ediel_sol  =         0.00000000
  ---------------------------------------------------
  free energy    TOTEN  =      -400.22918780 eV

  energy without entropy =     -400.17276884  energy(sigma->0) =     -400.20097832


--------------------------------------------------------------------------------------------------------




--------------------------------------- Iteration      1(   2)  ---------------------------------------


    POTLOK:  cpu time    0.0280: real time    0.0331
    SETDIJ:  cpu time    0.5520: real time    0.5531
     EDDAV:  cpu time    0.5880: real time    0.6287
       DOS:  cpu time    0.0040: real time    0.0023
    --------------------------------------------
      LOOP:  cpu time    1.1720: real time    1.2172

 eigenvalue-minimisations  :   432
 total energy-change (2. order) : 0.1023982E-06  (-0.1895722E-07)
 number of electron     257.0001561 magnetization      -0.0000000
 augmentation part       21.1948994 magnetization      -0.0000000

 Free energy of the ion-electron system (eV)
  ---------------------------------------------------
  alpha Z        PSCENC =       641.37084423
  Ewald energy   TEWEN  =    -11524.49522911
  -Hartree energ DENC   =     -4473.58766249
  -exchange      EXHF   =         0.00000000
  -V(xc)+E(xc)   XCENC  =      -606.43232599
  PAW double counting   =     17926.56546358   -16301.16749402
  entropy T*S    EENTRO =        -0.05641896
  eigenvalues    EBANDS =      -591.44324998
  atomic energy  EATOM  =     14529.01688503
  Solvation  Ediel_sol  =         0.00000000
  ---------------------------------------------------
  free energy    TOTEN  =      -400.22918770 eV

  energy without entropy =     -400.17276874  energy(sigma->0) =     -400.20097822


--------------------------------------------------------------------------------------------------------




 average (electrostatic) potential at core
  the test charge radii are     1.0714  0.7215
  (the norm of the test charge is              1.0000)
       1 -35.1239       2 -35.0165       3 -34.3411       4 -34.3411       5 -34.3482
       6 -34.3411       7 -34.3482       8 -34.3482       9 -34.2874      10 -35.0165
      11 -34.3411      12 -34.3411      13 -34.3482      14 -34.3411      15 -34.3482
      16 -34.3482      17 -34.2874      18 -35.0165      19 -34.3411      20 -34.3411
      21 -34.3482      22 -34.3411      23 -34.3482      24 -34.3482      25 -34.2874
      26 -35.0165      27 -34.3411      28 -34.3411      29 -34.3482      30 -34.3411
      31 -34.3482      32 -34.3482      33 -34.2874      34 -69.9880      35 -69.5545
      36 -69.5545      37 -69.3449      38 -69.5545      39 -69.3449      40 -69.3449
      41 -69.3139      42 -69.9880      43 -69.5545      44 -69.5545      45 -69.3449
      46 -69.5545      47 -69.3449      48 -69.3449      49 -69.3139      50 -69.9880
      51 -69.5545      52 -69.5545      53 -69.3449      54 -69.5545      55 -69.3449
      56 -69.3449      57 -69.3139      58 -69.9880      59 -69.5545      60 -69.5545
      61 -69.3449      62 -69.5545      63 -69.3449      64 -69.3449      65 -69.3139
 
 
 
 E-fermi :   8.5040     XC(G=0): -11.3755     alpha+bet :-13.4594


 spin component 1

 k-point     1 :       0.2500    0.2500    0.2500
  band No.  band energies     occupation 
      1     -13.9520      1.00000
      2     -13.5758      1.00000
      3     -13.5360      1.00000
      4     -13.5360      1.00000
      5     -13.2479      1.00000
      6     -13.2171      1.00000
      7     -13.2171      1.00000
      8     -13.1234      1.00000
      9     -13.0452      1.00000
     10     -13.0452      1.00000
     11     -12.9243      1.00000
     12     -12.8831      1.00000
     13     -12.8831      1.00000
     14     -12.8396      1.00000
     15     -12.8007      1.00000
     16     -12.7304      1.00000
     17     -12.7304      1.00000
     18     -12.6667      1.00000
     19     -12.6535      1.00000
     20     -12.6535      1.00000
     21     -12.5832      1.00000
     22     -12.5832      1.00000
     23     -12.5508      1.00000
     24     -12.4969      1.00000
     25     -12.4969      1.00000
     26     -12.4732      1.00000
     27     -12.4078      1.00000
     28     -12.3946      1.00000
     29     -12.3946      1.00000
     30     -12.3271      1.00000
     31     -12.3271      1.00000
     32     -12.3269      1.00000
     33      -1.3710      1.00000
     34      -1.2672      1.00000
     35      -1.2672      1.00000
     36      -1.0471      1.00000
     37      -0.9357      1.00000
     38      -0.7708      1.00000
     39      -0.7708      1.00000
     40      -0.7094      1.00000
     41      -0.7094      1.00000
     42      -0.7091      1.00000
     43      -0.6372      1.00000
     44      -0.6372      1.00000
     45      -0.6102      1.00000
     46      -0.6038      1.00000
     47      -0.6038      1.00000
     48      -0.5708      1.00000
     49      -0.4378      1.00000
     50      -0.4378      1.00000
     51      -0.4309      1.00000
     52      -0.3632      1.00000
     53      -0.3593      1.00000
     54      -0.3593      1.00000
     55      -0.2344      1.00000
     56      -0.2242      1.00000
     57      -0.2242      1.00000
     58      -0.0671      1.00000
     59      -0.0671      1.00000
     60      -0.0623      1.00000
     61       0.5152      1.00000
     62       0.5152      1.00000
     63       0.6118      1.00000
     64       0.6444      1.00000
     65       0.6472      1.00000
     66       0.6472      1.00000
     67       0.7103      1.00000
     68       0.7103      1.00000
     69       0.7619      1.00000
     70       0.8337      1.00000
     71       0.8337      1.00000
     72       0.8725      1.00000
     73       1.2795      1.00000
     74       1.2816      1.00000
     75       1.2816      1.00000
     76       1.3370      1.00000
     77       1.3811      1.00000
     78       1.3811      1.00000
     79       1.4406      1.00000
     80       1.4406      1.00000
     81       1.4482      1.00000
     82       1.6631      1.00000
     83       1.6631      1.00000
     84       1.6692      1.00000
     85       1.7032      1.00000
     86       1.7543      1.00000
     87       1.7543      1.00000
     88       1.8464      1.00000
     89       1.8814      1.00000
     90       1.8814      1.00000
     91       1.9245      1.00000
     92       1.9343      1.00000
     93       1.9343      1.00000
     94       1.9421      1.00000
     95       1.9794      1.00000
     96       1.9794      1.00000
     97       2.0894      1.00000
     98       2.0894      1.00000
     99       2.1041      1.00000
    100       2.1795      1.00000
    101       2.1874      1.00000
    102       2.1874      1.00000
    103       2.2069      1.00000
    104       2.2069      1.00000
    105       2.2473      1.00000
    106       2.2794      1.00000
    107       2.2794      1.00000
    108       2.2894      1.00000
    109       2.3416      1.00000
    110       2.3416      1.00000
    111       2.3416      1.00000
    112       2.3790      1.00000
    113       2.4339      1.00000
    114       2.4339      1.00000
    115       2.4700      1.00000
    116       2.5877      1.00000
    117       2.5877      1.00000
    118       2.6514      1.00000
    119       2.6514      1.00000
    120       2.6920      1.00000
    121       2.7101      1.00000
    122       2.7252      1.00000
    123       2.7252      1.00000
    124       2.8111      1.00000
    125       2.8111      1.00000
    126       2.8171      1.00000
    127       3.0972      1.00000
    128       3.0972      1.00000
    129       8.5040      0.50000
    130       9.7826      0.00000
    131      10.2130      0.00000
    132      10.2130      0.00000
    133      10.6551      0.00000
    134      11.0292      0.00000
    135      11.0292      0.00000
    136      11.0525      0.00000
    137      11.3224      0.00000
    138      11.4811      0.00000
    139      11.4811      0.00000
    140      11.6087      0.00000
    141      11.7889      0.00000
    142      11.7889      0.00000
    143      12.3104      0.00000
    144      12.4081      0.00000
    145      12.4081      0.00000
    146      12.5242      0.00000
    147      12.5242      0.00000
    148      12.5960      0.00000
    149      12.6669      0.00000
    150      12.6669      0.00000
    151      12.6782      0.00000
    152      12.7116      0.00000
    153      12.7782      0.00000
    154      12.7782      0.00000
    155      13.0588      0.00000
    156      13.0588      0.00000
    157      13.1378      0.00000
    158      13.5107      0.00000
    159      13.5107      0.00000
    160      13.6564      0.00000
    161      13.6670      0.00000
    162      13.6670      0.00000
    163      13.7412      0.00000
    164      13.7412      0.00000
    165      13.7866      0.00000
    166      13.8052      0.00000
    167      14.1622      0.00000
    168      14.1622      0.00000
    169      14.3141      0.00000
    170      14.5855      0.00000
    171      14.5855      0.00000
    172      14.6889      0.00000
    173      14.7102      0.00000
    174      14.7102      0.00000
    175      14.8607      0.00000
    176      14.9022      0.00000
    177      14.9022      0.00000
    178      15.0082      0.00000
    179      15.0094      0.00000
    180      15.0094      0.00000
    181      15.1018      0.00000
    182      15.1018      0.00000
    183      15.1422      0.00000
    184      15.1904      0.00000
    185      15.2385      0.00000
    186      15.2385      0.00000
    187      15.3241      0.00000
    188      15.3688      0.00000
    189      15.3688      0.00000
    190      15.3871      0.00000
    191      15.6359      0.00000
    192      15.6359      0.00000
    193      15.6930      0.00000
    194      15.7619      0.00000
    195      15.7619      0.00000
    196      15.7881      0.00000
    197      15.8023      0.00000
    198      16.0424      0.00000
    199      16.1110      0.00000
    200      16.1110      0.00000
    201      16.1689      0.00000
    202      16.1689      0.00000
    203      16.3732      0.00000
    204      16.5732      0.00000
    205      16.5732      0.00000
    206      16.9185      0.00000
    207      16.9791      0.00000
    208      16.9791      0.00000
    209      17.0515      0.00000
    210      17.2386      0.00000
    211      17.2386      0.00000
    212      17.3348      0.00000
    213      17.6582      0.00000
    214      17.9005      0.00000
    215      17.9005      0.00000
    216      18.0867      0.00000

 spin component 2

 k-point     1 :       0.2500    0.2500    0.2500
  band No.  band energies     occupation 
      1     -13.9520      1.00000
      2     -13.5758      1.00000
      3     -13.5360      1.00000
      4     -13.5360      1.00000
      5     -13.2479      1.00000
      6     -13.2171      1.00000
      7     -13.2171      1.00000
      8     -13.1234      1.00000
      9     -13.0452      1.00000
     10     -13.0452      1.00000
     11     -12.9243      1.00000
     12     -12.8831      1.00000
     13     -12.8831      1.00000
     14     -12.8396      1.00000
     15     -12.8007      1.00000
     16     -12.7304      1.00000
     17     -12.7304      1.00000
     18     -12.6667      1.00000
     19     -12.6535      1.00000
     20     -12.6535      1.00000
     21     -12.5832      1.00000
     22     -12.5832      1.00000
     23     -12.5508      1.00000
     24     -12.4969      1.00000
     25     -12.4969      1.00000
     26     -12.4732      1.00000
     27     -12.4078      1.00000
     28     -12.3946      1.00000
     29     -12.3946      1.00000
     30     -12.3271      1.00000
     31     -12.3271      1.00000
     32     -12.3269      1.00000
     33      -1.3710      1.00000
     34      -1.2672      1.00000
     35      -1.2672      1.00000
     36      -1.0471      1.00000
     37      -0.9357      1.00000
     38      -0.7708      1.00000
     39      -0.7708      1.00000
     40      -0.7094      1.00000
     41      -0.7094      1.00000
     42      -0.7091      1.00000
     43      -0.6372      1.00000
     44      -0.6372      1.00000
     45      -0.6102      1.00000
     46      -0.6038      1.00000
     47      -0.6038      1.00000
     48      -0.5708      1.00000
     49      -0.4378      1.00000
     50      -0.4378      1.00000
     51      -0.4309      1.00000
     52      -0.3632      1.00000
     53      -0.3593      1.00000
     54      -0.3593      1.00000
     55      -0.2344      1.00000
     56      -0.2242      1.00000
     57      -0.2242      1.00000
     58      -0.0671      1.00000
     59      -0.0671      1.00000
     60      -0.0623      1.00000
     61       0.5152      1.00000
     62       0.5152      1.00000
     63       0.6118      1.00000
     64       0.6444      1.00000
     65       0.6472      1.00000
     66       0.6472      1.00000
     67       0.7103      1.00000
     68       0.7103      1.00000
     69       0.7619      1.00000
     70       0.8337      1.00000
     71       0.8337      1.00000
     72       0.8725      1.00000
     73       1.2795      1.00000
     74       1.2816      1.00000
     75       1.2816      1.00000
     76       1.3370      1.00000
     77       1.3811      1.00000
     78       1.3811      1.00000
     79       1.4406      1.00000
     80       1.4406      1.00000
     81       1.4482      1.00000
     82       1.6631      1.00000
     83       1.6631      1.00000
     84       1.6692      1.00000
     85       1.7032      1.00000
     86       1.7543      1.00000
     87       1.7543      1.00000
     88       1.8464      1.00000
     89       1.8814      1.00000
     90       1.8814      1.00000
     91       1.9245      1.00000
     92       1.9343      1.00000
     93       1.9343      1.00000
     94       1.9421      1.00000
     95       1.9794      1.00000
     96       1.9794      1.00000
     97       2.0894      1.00000
     98       2.0894      1.00000
     99       2.1041      1.00000
    100       2.1795      1.00000
    101       2.1874      1.00000
    102       2.1874      1.00000
    103       2.2069      1.00000
    104       2.2069      1.00000
    105       2.2473      1.00000
    106       2.2794      1.00000
    107       2.2794      1.00000
    108       2.2894      1.00000
    109       2.3416      1.00000
    110       2.3416      1.00000
    111       2.3416      1.00000
    112       2.3790      1.00000
    113       2.4339      1.00000
    114       2.4339      1.00000
    115       2.4700      1.00000
    116       2.5877      1.00000
    117       2.5877      1.00000
    118       2.6514      1.00000
    119       2.6514      1.00000
    120       2.6920      1.00000
    121       2.7101      1.00000
    122       2.7252      1.00000
    123       2.7252      1.00000
    124       2.8111      1.00000
    125       2.8111      1.00000
    126       2.8171      1.00000
    127       3.0972      1.00000
    128       3.0972      1.00000
    129       8.5040      0.50000
    130       9.7826      0.00000
    131      10.2130      0.00000
    132      10.2130      0.00000
    133      10.6551      0.00000
    134      11.0292      0.00000
    135      11.0292      0.00000
    136      11.0525      0.00000
    137      11.3224      0.00000
    138      11.4811      0.00000
    139      11.4811      0.00000
    140      11.6087      0.00000
    141      11.7889      0.00000
    142      11.7889      0.00000
    143      12.3104      0.00000
    144      12.4081      0.00000
    145      12.4081      0.00000
    146      12.5242      0.00000
    147      12.5242      0.00000
    148      12.5960      0.00000
    149      12.6669      0.00000
    150      12.6669      0.00000
    151      12.6782      0.00000
    152      12.7116      0.00000
    153      12.7782      0.00000
    154      12.7782      0.00000
    155      13.0588      0.00000
    156      13.0588      0.00000
    157      13.1378      0.00000
    158      13.5107      0.00000
    159      13.5107      0.00000
    160      13.6564      0.00000
    161      13.6670      0.00000
    162      13.6670      0.00000
    163      13.7412      0.00000
    164      13.7412      0.00000
    165      13.7866      0.00000
    166      13.8052      0.00000
    167      14.1622      0.00000
    168      14.1622      0.00000
    169      14.3141      0.00000
    170      14.5855      0.00000
    171      14.5855      0.00000
    172      14.6889      0.00000
    173      14.7102      0.00000
    174      14.7102      0.00000
    175      14.8607      0.00000
    176      14.9022      0.00000
    177      14.9022      0.00000
    178      15.0082      0.00000
    179      15.0094      0.00000
    180      15.0094      0.00000
    181      15.1018      0.00000
    182      15.1018      0.00000
    183      15.1422      0.00000
    184      15.1904      0.00000
    185      15.2385      0.00000
    186      15.2385      0.00000
    187      15.3241      0.00000
    188      15.3688      0.00000
    189      15.3688      0.00000
    190      15.3871      0.00000
    191      15.6359      0.00000
    192      15.6359      0.00000
    193      15.6930      0.00000
    194      15.7619      0.00000
    195      15.7619      0.00000
    196      15.7881      0.00000
    197      15.8023      0.00000
    198      16.0424      0.00000
    199      16.1110      0.00000
    200      16.1110      0.00000
    201      16.1689      0.00000
    202      16.1689      0.00000
    203      16.3732      0.00000
    204      16.5732      0.00000
    205      16.5732      0.00000
    206      16.9185      0.00000
    207      16.9791      0.00000
    208      16.9791      0.00000
    209      17.0515      0.00000
    210      17.2386      0.00000
    211      17.2386      0.00000
    212      17.3348      0.00000
    213      17.6582      0.00000
    214      17.9005      0.00000
    215      17.9005      0.00000
    216      18.0867      0.00000


--------------------------------------------------------------------------------------------------------


 soft charge-density along one line, spin component           1
         0         1         2         3         4         5         6         7         8         9
 total charge-density along one line
 
 soft charge-density along one line, spin component           2
         0         1         2         3         4         5         6         7         8         9
 total charge-density along one line
 
 pseudopotential strength for first ion, spin component:           1
  3.030   9.603  -0.000  -0.000   0.000  -0.000  -0.000   0.000
  9.603  30.293  -0.000  -0.000   0.000  -0.000  -0.000   0.000
 -0.000  -0.000   7.497  -0.000  -0.000  10.824  -0.000  -0.000
 -0.000  -0.000  -0.000   7.497  -0.000  -0.000  10.824  -0.000
  0.000   0.000  -0.000  -0.000   7.497  -0.000  -0.000  10.824
 -0.000  -0.000  10.824  -0.000  -0.000  14.855  -0.000  -0.000
 -0.000  -0.000  -0.000  10.824  -0.000  -0.000  14.855  -0.000
  0.000   0.000  -0.000  -0.000  10.824  -0.000  -0.000  14.855
 -0.000  -0.000   0.000  -0.004  -0.000   0.000  -0.006  -0.000
 -0.000  -0.000  -0.000  -0.000  -0.004  -0.000  -0.000  -0.006
 -0.000  -0.000   0.000  -0.000  -0.000   0.000  -0.000  -0.000
 -0.000  -0.000  -0.004   0.000  -0.000  -0.006   0.000  -0.000
 -0.000  -0.000   0.000   0.000   0.000   0.000   0.000   0.000
 pseudopotential strength for first ion, spin component:           2
  3.030   9.603  -0.000  -0.000   0.000  -0.000  -0.000   0.000
  9.603  30.293  -0.000  -0.000   0.000  -0.000  -0.000   0.000
 -0.000  -0.000   7.497  -0.000  -0.000  10.824  -0.000  -0.000
 -0.000  -0.000  -0.000   7.497  -0.000  -0.000  10.824  -0.000
  0.000   0.000  -0.000  -0.000   7.497  -0.000  -0.000  10.824
 -0.000  -0.000  10.824  -0.000  -0.000  14.855  -0.000  -0.000
 -0.000  -0.000  -0.000  10.824  -0.000  -0.000  14.855  -0.000
  0.000   0.000  -0.000  -0.000  10.824  -0.000  -0.000  14.855
 -0.000  -0.000   0.000  -0.004  -0.000   0.000  -0.006  -0.000
 -0.000  -0.000  -0.000  -0.000  -0.004  -0.000  -0.000  -0.006
 -0.000  -0.000   0.000  -0.000  -0.000   0.000  -0.000  -0.000
 -0.000  -0.000  -0.004   0.000  -0.000  -0.006   0.000  -0.000
 -0.000  -0.000   0.000   0.000   0.000   0.000   0.000   0.000
 total augmentation occupancy for first ion, spin component:           1
  1.816  -0.090   0.000  -0.000  -0.000  -0.000  -0.000  -0.000   0.000   0.000   0.000  -0.000  -0.000
 -0.090   0.006  -0.000   0.000   0.000   0.000  -0.000  -0.000  -0.000   0.000  -0.000  -0.000   0.000
  0.000  -0.000   0.209  -0.000   0.000  -0.021   0.000  -0.000   0.000   0.000   0.000   0.070  -0.000
 -0.000   0.000  -0.000   0.209   0.000  -0.000  -0.021   0.000   0.070  -0.000   0.000   0.000   0.000
 -0.000   0.000   0.000   0.000   0.209   0.000  -0.000  -0.021  -0.000   0.070   0.000   0.000   0.000
 -0.000   0.000  -0.021  -0.000   0.000   0.002  -0.000  -0.000  -0.000   0.000  -0.000  -0.007  -0.000
 -0.000  -0.000   0.000  -0.021  -0.000  -0.000   0.002   0.000  -0.007  -0.000   0.000   0.000   0.000
 -0.000  -0.000  -0.000   0.000  -0.021  -0.000   0.000   0.002  -0.000  -0.007  -0.000   0.000  -0.000
  0.000  -0.000   0.000   0.070  -0.000  -0.000  -0.007   0.000   0.069   0.000   0.000   0.000  -0.000
  0.000  -0.000   0.000  -0.000   0.070   0.000  -0.000  -0.007   0.000   0.069  -0.000   0.000   0.000
  0.000   0.000  -0.000   0.000   0.000  -0.000   0.000   0.000   0.000  -0.000   0.031  -0.000   0.000
 -0.000  -0.000   0.070   0.000   0.000  -0.007   0.000   0.000   0.000   0.000  -0.000   0.069  -0.000
  0.000   0.000   0.000   0.000  -0.000   0.000   0.000   0.000   0.000   0.000   0.000   0.000   0.031
 total augmentation occupancy for first ion, spin component:           2
 -0.000   0.000   0.000   0.000  -0.000  -0.000  -0.000   0.000   0.000  -0.000   0.000  -0.000   0.000
  0.000  -0.000   0.000   0.000  -0.000   0.000   0.000   0.000   0.000   0.000   0.000   0.000  -0.000
  0.000   0.000   0.000  -0.000  -0.000   0.000   0.000  -0.000   0.000  -0.000   0.000   0.000  -0.000
  0.000   0.000  -0.000   0.000   0.000   0.000   0.000   0.000   0.000   0.000  -0.000   0.000   0.000
 -0.000  -0.000  -0.000   0.000   0.000   0.000   0.000   0.000  -0.000   0.000  -0.000   0.000  -0.000
 -0.000   0.000   0.000   0.000   0.000  -0.000  -0.000   0.000  -0.000   0.000  -0.000   0.000   0.000
 -0.000   0.000   0.000   0.000   0.000  -0.000  -0.000   0.000   0.000   0.000   0.000   0.000  -0.000
  0.000   0.000  -0.000   0.000   0.000   0.000   0.000  -0.000  -0.000   0.000  -0.000  -0.000  -0.000
  0.000   0.000   0.000   0.000  -0.000  -0.000   0.000  -0.000  -0.000   0.000   0.000  -0.000   0.000
 -0.000   0.000  -0.000   0.000   0.000   0.000   0.000   0.000   0.000  -0.000   0.000  -0.000   0.000
  0.000   0.000   0.000  -0.000   0.000   0.000   0.000   0.000  -0.000   0.000   0.000   0.000   0.000
 -0.000   0.000   0.000   0.000   0.000   0.000   0.000  -0.000  -0.000  -0.000  -0.000  -0.000  -0.000
  0.000   0.000  -0.000  -0.000   0.000   0.000   0.000  -0.000   0.000   0.000   0.000   0.000   0.000


------------------------ aborting loop because EDIFF is reached ----------------------------------------


 


 total charge     
 
# of ion       s       p       d       tot
------------------------------------------
    1        0.261   0.316   0.148   0.725
    2        0.191   0.215   0.096   0.503
    3        0.153   0.181   0.080   0.414
    4        0.153   0.181   0.080   0.414
    5        0.157   0.187   0.083   0.427
    6        0.153   0.181   0.080   0.414
    7        0.157   0.187   0.083   0.427
    8        0.157   0.187   0.083   0.427
    9        0.152   0.181   0.079   0.412
   10        0.192   0.215   0.096   0.503
   11        0.153   0.181   0.080   0.414
   12        0.153   0.181   0.080   0.414
   13        0.157   0.187   0.083   0.426
   14        0.153   0.181   0.080   0.414
   15        0.157   0.187   0.083   0.427
   16        0.157   0.187   0.083   0.427
   17        0.152   0.181   0.079   0.412
   18        0.192   0.215   0.096   0.503
   19        0.153   0.181   0.080   0.414
   20        0.153   0.181   0.080   0.414
   21        0.157   0.187   0.083   0.427
   22        0.153   0.181   0.080   0.414
   23        0.157   0.187   0.083   0.426
   24        0.157   0.187   0.083   0.427
   25        0.152   0.181   0.079   0.412
   26        0.192   0.215   0.096   0.503
   27        0.153   0.181   0.080   0.414
   28        0.153   0.181   0.080   0.414
   29        0.157   0.187   0.083   0.427
   30        0.153   0.181   0.080   0.414
   31        0.157   0.187   0.083   0.427
   32        0.157   0.187   0.083   0.426
   33        0.152   0.181   0.079   0.412
   34        1.582   3.531   0.000   5.113
   35        1.570   3.566   0.000   5.136
   36        1.570   3.566   0.000   5.136
   37        1.566   3.561   0.000   5.127
   38        1.570   3.567   0.000   5.136
   39        1.567   3.561   0.000   5.127
   40        1.567   3.561   0.000   5.127
   41        1.566   3.549   0.000   5.116
   42        1.581   3.532   0.000   5.113
   43        1.570   3.566   0.000   5.136
   44        1.570   3.566   0.000   5.136
   45        1.566   3.561   0.000   5.127
   46        1.570   3.566   0.000   5.136
   47        1.566   3.561   0.000   5.127
   48        1.566   3.561   0.000   5.127
   49        1.566   3.549   0.000   5.116
   50        1.582   3.531   0.000   5.113
   51        1.570   3.567   0.000   5.136
   52        1.570   3.566   0.000   5.136
   53        1.567   3.561   0.000   5.127
   54        1.570   3.566   0.000   5.136
   55        1.567   3.561   0.000   5.127
   56        1.566   3.561   0.000   5.127
   57        1.566   3.549   0.000   5.116
   58        1.582   3.531   0.000   5.113
   59        1.570   3.566   0.000   5.136
   60        1.570   3.567   0.000   5.136
   61        1.567   3.561   0.000   5.127
   62        1.570   3.566   0.000   5.136
   63        1.566   3.561   0.000   5.127
   64        1.567   3.561   0.000   5.127
   65        1.566   3.549   0.000   5.116
--------------------------------------------------
tot         55.579 120.165   2.801 178.545
 


 magnetization (x)
 
# of ion       s       p       d       tot
------------------------------------------
    1       -0.000   0.000  -0.000  -0.000
    2       -0.000  -0.000  -0.000  -0.000
    3       -0.000  -0.000  -0.000  -0.000
    4       -0.000  -0.000   0.000  -0.000
    5       -0.000  -0.000   0.000  -0.000
    6       -0.000  -0.000  -0.000  -0.000
    7       -0.000  -0.000  -0.000  -0.000
    8       -0.000   0.000   0.000  -0.000
    9       -0.000   0.000  -0.000  -0.000
   10       -0.000   0.000  -0.000  -0.000
   11       -0.000  -0.000   0.000  -0.000
   12       -0.000  -0.000  -0.000  -0.000
   13       -0.000   0.000  -0.000  -0.000
   14       -0.000  -0.000  -0.000  -0.000
   15       -0.000  -0.000   0.000  -0.000
   16       -0.000   0.000  -0.000  -0.000
   17       -0.000  -0.000   0.000  -0.000
   18       -0.000  -0.000  -0.000  -0.000
   19       -0.000  -0.000  -0.000  -0.000
   20       -0.000  -0.000   0.000  -0.000
   21       -0.000  -0.000  -0.000  -0.000
   22       -0.000   0.000   0.000  -0.000
   23       -0.000  -0.000  -0.000  -0.000
   24       -0.000   0.000  -0.000  -0.000
   25       -0.000  -0.000  -0.000  -0.000
   26       -0.000  -0.000  -0.000  -0.000
   27       -0.000  -0.000  -0.000  -0.000
   28       -0.000  -0.000  -0.000  -0.000
   29       -0.000   0.000   0.000  -0.000
   30       -0.000  -0.000   0.000  -0.000
   31       -0.000  -0.000  -0.000  -0.000
   32       -0.000   0.000  -0.000  -0.000
   33       -0.000  -0.000  -0.000  -0.000
   34       -0.000  -0.000   0.000  -0.000
   35       -0.000   0.000   0.000  -0.000
   36        0.000   0.000   0.000   0.000
   37        0.000   0.000   0.000   0.000
   38       -0.000   0.000   0.000  -0.000
   39       -0.000   0.000   0.000  -0.000
   40       -0.000   0.000   0.000   0.000
   41        0.000   0.000   0.000   0.000
   42        0.000  -0.000   0.000   0.000
   43       -0.000   0.000   0.000  -0.000
   44       -0.000   0.000   0.000  -0.000
   45       -0.000   0.000   0.000   0.000
   46       -0.000  -0.000   0.000  -0.000
   47       -0.000  -0.000   0.000  -0.000
   48       -0.000   0.000   0.000  -0.000
   49       -0.000   0.000   0.000  -0.000
   50        0.000  -0.000   0.000  -0.000
   51       -0.000   0.000   0.000  -0.000
   52       -0.000  -0.000   0.000  -0.000
   53       -0.000   0.000   0.000  -0.000
   54       -0.000   0.000   0.000   0.000
   55       -0.000  -0.000   0.000  -0.000
   56        0.000   0.000   0.000   0.000
   57       -0.000   0.000   0.000  -0.000
   58       -0.000  -0.000   0.000  -0.000
   59       -0.000   0.000   0.000  -0.000
   60       -0.000  -0.000   0.000  -0.000
   61       -0.000   0.000   0.000  -0.000
   62        0.000  -0.000   0.000  -0.000
   63        0.000   0.000   0.000   0.000
   64       -0.000   0.000   0.000   0.000
   65       -0.000   0.000   0.000  -0.000
--------------------------------------------------
tot         -0.000   0.000  -0.000  -0.000
 
    CHARGE:  cpu time    0.0480: real time    0.0457
    FORLOC:  cpu time    0.0040: real time    0.0041
    FORNL :  cpu time    0.1680: real time    0.1679
    STRESS:  cpu time    0.5680: real time    0.5697
    FORCOR:  cpu time    0.0360: real time    0.0368
    FORHAR:  cpu time    0.0080: real time    0.0080
    MIXING:  cpu time    0.0000: real time    0.0010
    OFIELD:  cpu time    0.0000: real time    0.0000

  FORCE on cell =-STRESS in cart. coord.  units (eV):
  Direction    XX          YY          ZZ          XY          YZ          ZX
  --------------------------------------------------------------------------------------
  Alpha Z   641.37084   641.37084   641.37084
  Ewald   -3841.51938 -3841.51938 -3841.51938    -0.00000    -0.00000    -0.00000
  Hartree  1491.19578  1491.19578  1491.19578    -0.00000    -0.00000    -0.00000
  E(xc)   -1161.51618 -1161.51618 -1161.51618     0.00000     0.00000    -0.00000
  Local   -1310.08644 -1310.08644 -1310.08644    -0.00000     0.00000    -0.00000
  n-local  -578.88081  -578.88081  -578.88081    -0.00482    -0.00482    -0.00482
  augment   218.36701   218.36701   218.36701    -0.00000    -0.00000     0.00000
  Kinetic  4544.61575  4544.61575  4544.61574    -0.80022    -0.80022    -0.80022
  Fock        0.00000     0.00000     0.00000     0.00000     0.00000     0.00000
  -------------------------------------------------------------------------------------
  Total       3.54657     3.54657     3.54657     0.00000     0.00000     0.00000
  in kB       9.52066     9.52066     9.52066     0.00000     0.00000     0.00000
  external pressure =        9.52 kB  Pullay stress =        0.00 kB


 VOLUME and BASIS-vectors are now :
 -----------------------------------------------------------------------------
  energy-cutoff  :      400.00
  volume of cell :      596.83
      direct lattice vectors                 reciprocal lattice vectors
     8.419456000  0.000000000  0.000000000     0.118772519  0.000000000  0.000000000
     0.000000000  8.419456000  0.000000000     0.000000000  0.118772519  0.000000000
     0.000000000  0.000000000  8.419456000     0.000000000  0.000000000  0.118772519

  length of vectors
     8.419456000  8.419456000  8.419456000     0.118772519  0.118772519  0.118772519


 FORCES acting on ions
    electron-ion (+dipol)            ewald-force                    non-local-force                 convergence-correction
 -----------------------------------------------------------------------------------------------
   0.189E-08 0.189E-08 0.282E-08   -.111E-13 0.466E-14 -.111E-14   0.217E-18 0.217E-18 0.217E-18   0.883E-14 0.330E-15 0.230E-14
   -.109E+02 -.109E+02 -.109E+02   0.879E+01 0.879E+01 0.879E+01   0.213E+01 0.213E+01 0.213E+01   0.949E-05 0.949E-05 0.949E-05
   -.287E+01 -.287E+01 0.500E+01   0.255E+01 0.255E+01 -.447E+01   0.317E+00 0.317E+00 -.524E+00   -.108E-05 -.108E-05 0.190E-05
   -.287E+01 0.500E+01 -.287E+01   0.255E+01 -.447E+01 0.255E+01   0.317E+00 -.524E+00 0.317E+00   -.108E-05 0.190E-05 -.108E-05
   -.505E+00 0.248E+01 0.248E+01   0.450E+00 -.201E+01 -.201E+01   0.581E-01 -.462E+00 -.462E+00   0.858E-04 0.149E-04 0.149E-04
   0.500E+01 -.287E+01 -.287E+01   -.447E+01 0.255E+01 0.255E+01   -.524E+00 0.317E+00 0.317E+00   0.190E-05 -.108E-05 -.108E-05
   0.248E+01 -.505E+00 0.248E+01   -.201E+01 0.450E+00 -.201E+01   -.462E+00 0.581E-01 -.462E+00   0.149E-04 0.858E-04 0.149E-04
   0.248E+01 0.248E+01 -.505E+00   -.201E+01 -.201E+01 0.450E+00   -.462E+00 -.462E+00 0.581E-01   0.149E-04 0.149E-04 0.858E-04
   0.220E+00 0.220E+00 0.220E+00   -.155E+00 -.155E+00 -.155E+00   -.734E-01 -.734E-01 -.734E-01   -.767E-04 -.767E-04 -.767E-04
   -.109E+02 0.109E+02 0.109E+02   0.879E+01 -.879E+01 -.879E+01   0.213E+01 -.213E+01 -.213E+01   0.949E-05 -.949E-05 -.949E-05
   -.287E+01 0.287E+01 -.500E+01   0.255E+01 -.255E+01 0.447E+01   0.317E+00 -.317E+00 0.524E+00   -.108E-05 0.108E-05 -.190E-05
   -.287E+01 -.500E+01 0.287E+01   0.255E+01 0.447E+01 -.255E+01   0.317E+00 0.524E+00 -.317E+00   -.108E-05 -.190E-05 0.108E-05
   -.505E+00 -.248E+01 -.248E+01   0.450E+00 0.201E+01 0.201E+01   0.581E-01 0.462E+00 0.462E+00   0.858E-04 -.149E-04 -.149E-04
   0.500E+01 0.287E+01 0.287E+01   -.447E+01 -.255E+01 -.255E+01   -.524E+00 -.317E+00 -.317E+00   0.190E-05 0.108E-05 0.108E-05
   0.248E+01 0.505E+00 -.248E+01   -.201E+01 -.450E+00 0.201E+01   -.462E+00 -.581E-01 0.462E+00   0.149E-04 -.858E-04 -.149E-04
   0.248E+01 -.248E+01 0.505E+00   -.201E+01 0.201E+01 -.450E+00   -.462E+00 0.462E+00 -.581E-01   0.149E-04 -.149E-04 -.858E-04
   0.220E+00 -.220E+00 -.220E+00   -.155E+00 0.155E+00 0.155E+00   -.734E-01 0.734E-01 0.734E-01   -.767E-04 0.767E-04 0.767E-04
   0.109E+02 -.109E+02 0.109E+02   -.879E+01 0.879E+01 -.879E+01   -.213E+01 0.213E+01 -.213E+01   -.949E-05 0.949E-05 -.949E-05
   0.287E+01 -.287E+01 -.500E+01   -.255E+01 0.255E+01 0.447E+01   -.317E+00 0.317E+00 0.524E+00   0.108E-05 -.108E-05 -.190E-05
   0.287E+01 0.500E+01 0.287E+01   -.255E+01 -.447E+01 -.255E+01   -.317E+00 -.524E+00 -.317E+00   0.108E-05 0.190E-05 0.108E-05
   0.505E+00 0.248E+01 -.248E+01   -.450E+00 -.201E+01 0.201E+01   -.581E-01 -.462E+00 0.462E+00   -.858E-04 0.149E-04 -.149E-04
   -.500E+01 -.287E+01 0.287E+01   0.447E+01 0.255E+01 -.255E+01   0.524E+00 0.317E+00 -.317E+00   -.190E-05 -.108E-05 0.108E-05
   -.248E+01 -.505E+00 -.248E+01   0.201E+01 0.450E+00 0.201E+01   0.462E+00 0.581E-01 0.462E+00   -.149E-04 0.858E-04 -.149E-04
   -.248E+01 0.248E+01 0.505E+00   0.201E+01 -.201E+01 -.450E+00   0.462E+00 -.462E+00 -.581E-01   -.149E-04 0.149E-04 -.858E-04
   -.220E+00 0.220E+00 -.220E+00   0.155E+00 -.155E+00 0.155E+00   0.734E-01 -.734E-01 0.734E-01   0.767E-04 -.767E-04 0.767E-04
   0.109E+02 0.109E+02 -.109E+02   -.879E+01 -.879E+01 0.879E+01   -.213E+01 -.213E+01 0.213E+01   -.949E-05 -.949E-05 0.949E-05
   0.287E+01 0.287E+01 0.500E+01   -.255E+01 -.255E+01 -.447E+01   -.317E+00 -.317E+00 -.524E+00   0.108E-05 0.108E-05 0.190E-05
   0.287E+01 -.500E+01 -.287E+01   -.255E+01 0.447E+01 0.255E+01   -.317E+00 0.524E+00 0.317E+00   0.108E-05 -.190E-05 -.108E-05
   0.505E+00 -.248E+01 0.248E+01   -.450E+00 0.201E+01 -.201E+01   -.581E-01 0.462E+00 -.462E+00   -.858E-04 -.149E-04 0.149E-04
   -.500E+01 0.287E+01 -.287E+01   0.447E+01 -.255E+01 0.255E+01   0.524E+00 -.317E+00 0.317E+00   -.190E-05 0.108E-05 -.108E-05
   -.248E+01 0.505E+00 0.248E+01   0.201E+01 -.450E+00 -.201E+01   0.462E+00 -.581E-01 -.462E+00   -.149E-04 -.858E-04 0.149E-04
   -.248E+01 -.248E+01 -.505E+00   0.201E+01 0.201E+01 0.450E+00   0.462E+00 0.462E+00 0.581E-01   -.149E-04 -.149E-04 0.858E-04
   -.220E+00 -.220E+00 0.220E+00   0.155E+00 0.155E+00 -.155E+00   0.734E-01 0.734E-01 -.734E-01   0.767E-04 0.767E-04 -.767E-04
   0.255E+01 -.255E+01 -.255E+01   -.126E+00 0.126E+00 0.126E+00   -.242E+01 0.242E+01 0.242E+01   0.190E-03 -.190E-03 -.190E-03
   0.571E+01 -.571E+01 0.698E+01   -.670E+01 0.670E+01 -.412E+01   0.992E+00 -.992E+00 -.286E+01   -.872E-04 0.872E-04 0.231E-03
   0.571E+01 0.698E+01 -.571E+01   -.670E+01 -.412E+01 0.670E+01   0.992E+00 -.286E+01 -.992E+00   -.872E-04 0.231E-03 0.872E-04
   0.183E+00 0.330E+01 0.330E+01   -.186E+00 -.427E+01 -.427E+01   -.183E-02 0.972E+00 0.972E+00   -.473E-03 0.297E-03 0.297E-03
   -.698E+01 -.571E+01 -.571E+01   0.412E+01 0.670E+01 0.670E+01   0.286E+01 -.992E+00 -.992E+00   -.231E-03 0.872E-04 0.872E-04
   -.330E+01 -.183E+00 0.330E+01   0.427E+01 0.186E+00 -.427E+01   -.972E+00 0.183E-02 0.972E+00   -.297E-03 0.473E-03 0.297E-03
   -.330E+01 0.330E+01 -.183E+00   0.427E+01 -.427E+01 0.186E+00   -.972E+00 0.972E+00 0.183E-02   -.297E-03 0.297E-03 0.473E-03
   0.822E+00 -.822E+00 -.822E+00   -.678E+00 0.678E+00 0.678E+00   -.150E+00 0.150E+00 0.150E+00   0.665E-03 -.665E-03 -.665E-03
   0.255E+01 0.255E+01 0.255E+01   -.126E+00 -.126E+00 -.126E+00   -.242E+01 -.242E+01 -.242E+01   0.190E-03 0.190E-03 0.190E-03
   0.571E+01 0.571E+01 -.698E+01   -.670E+01 -.670E+01 0.412E+01   0.992E+00 0.992E+00 0.286E+01   -.872E-04 -.872E-04 -.231E-03
   0.571E+01 -.698E+01 0.571E+01   -.670E+01 0.412E+01 -.670E+01   0.992E+00 0.286E+01 0.992E+00   -.872E-04 -.231E-03 -.872E-04
   0.183E+00 -.330E+01 -.330E+01   -.186E+00 0.427E+01 0.427E+01   -.183E-02 -.972E+00 -.972E+00   -.473E-03 -.297E-03 -.297E-03
   -.698E+01 0.571E+01 0.571E+01   0.412E+01 -.670E+01 -.670E+01   0.286E+01 0.992E+00 0.992E+00   -.231E-03 -.872E-04 -.872E-04
   -.330E+01 0.183E+00 -.330E+01   0.427E+01 -.186E+00 0.427E+01   -.972E+00 -.183E-02 -.972E+00   -.297E-03 -.473E-03 -.297E-03
   -.330E+01 -.330E+01 0.183E+00   0.427E+01 0.427E+01 -.186E+00   -.972E+00 -.972E+00 -.183E-02   -.297E-03 -.297E-03 -.473E-03
   0.822E+00 0.822E+00 0.822E+00   -.678E+00 -.678E+00 -.678E+00   -.150E+00 -.150E+00 -.150E+00   0.665E-03 0.665E-03 0.665E-03
   -.255E+01 -.255E+01 0.255E+01   0.126E+00 0.126E+00 -.126E+00   0.242E+01 0.242E+01 -.242E+01   -.190E-03 -.190E-03 0.190E-03
   -.571E+01 -.571E+01 -.698E+01   0.670E+01 0.670E+01 0.412E+01   -.992E+00 -.992E+00 0.286E+01   0.872E-04 0.872E-04 -.231E-03
   -.571E+01 0.698E+01 0.571E+01   0.670E+01 -.412E+01 -.670E+01   -.992E+00 -.286E+01 0.992E+00   0.872E-04 0.231E-03 -.872E-04
   -.183E+00 0.330E+01 -.330E+01   0.186E+00 -.427E+01 0.427E+01   0.183E-02 0.972E+00 -.972E+00   0.473E-03 0.297E-03 -.297E-03
   0.698E+01 -.571E+01 0.571E+01   -.412E+01 0.670E+01 -.670E+01   -.286E+01 -.992E+00 0.992E+00   0.231E-03 0.872E-04 -.872E-04
   0.330E+01 -.183E+00 -.330E+01   -.427E+01 0.186E+00 0.427E+01   0.972E+00 0.183E-02 -.972E+00   0.297E-03 0.473E-03 -.297E-03
   0.330E+01 0.330E+01 0.183E+00   -.427E+01 -.427E+01 -.186E+00   0.972E+00 0.972E+00 -.183E-02   0.297E-03 0.297E-03 -.473E-03
   -.822E+00 -.822E+00 0.822E+00   0.678E+00 0.678E+00 -.678E+00   0.150E+00 0.150E+00 -.150E+00   -.665E-03 -.665E-03 0.665E-03
   -.255E+01 0.255E+01 -.255E+01   0.126E+00 -.126E+00 0.126E+00   0.242E+01 -.242E+01 0.242E+01   -.190E-03 0.190E-03 -.190E-03
   -.571E+01 0.571E+01 0.698E+01   0.670E+01 -.670E+01 -.412E+01   -.992E+00 0.992E+00 -.286E+01   0.872E-04 -.872E-04 0.231E-03
   -.571E+01 -.698E+01 -.571E+01   0.670E+01 0.412E+01 0.670E+01   -.992E+00 0.286E+01 -.992E+00   0.872E-04 -.231E-03 0.872E-04
   -.183E+00 -.330E+01 0.330E+01   0.186E+00 0.427E+01 -.427E+01   0.183E-02 -.972E+00 0.972E+00   0.473E-03 -.297E-03 0.297E-03
   0.698E+01 0.571E+01 -.571E+01   -.412E+01 -.670E+01 0.670E+01   -.286E+01 0.992E+00 -.992E+00   0.231E-03 -.872E-04 0.872E-04
   0.330E+01 0.183E+00 0.330E+01   -.427E+01 -.186E+00 -.427E+01   0.972E+00 -.183E-02 0.972E+00   0.297E-03 -.473E-03 0.297E-03
   0.330E+01 -.330E+01 -.183E+00   -.427E+01 0.427E+01 0.186E+00   0.972E+00 -.972E+00 0.183E-02   0.297E-03 -.297E-03 0.473E-03
   -.822E+00 0.822E+00 -.822E+00   0.678E+00 -.678E+00 0.678E+00   0.150E+00 -.150E+00 0.150E+00   -.665E-03 0.665E-03 -.665E-03
 -----------------------------------------------------------------------------------------------
   0.309E-04 0.309E-04 0.896E-06   -.919E-13 -.854E-13 -.172E-13   -.108E-14 -.278E-15 -.103E-14   -.199E-12 -.824E-13 0.115E-12
 
 
 POSITION                                       TOTAL-FORCE (eV/Angst)
 -----------------------------------------------------------------------------------
      1.05243      1.05243      1.05243         0.000000      0.000000     -0.000000
      8.15492      8.15492      8.15492         0.011915      0.011915      0.011915
      8.41302      8.41302      4.21866        -0.005052     -0.005052      0.000765
      8.41302      4.21866      8.41302        -0.005052      0.000765     -0.005052
      8.41482      4.25852      4.25852         0.003016      0.005609      0.005609
      4.21866      8.41302      8.41302         0.000765     -0.005052     -0.005052
      4.25852      8.41482      4.25852         0.005609      0.003016      0.005609
      4.25852      4.25852      8.41482         0.005609      0.005609      0.003016
      4.21165      4.21165      4.21165        -0.008672     -0.008672     -0.008672
      8.15492      2.36940      2.36940         0.011915     -0.011915     -0.011915
      8.41302      2.11130      6.30566        -0.005052      0.005052     -0.000765
      8.41302      6.30566      2.11130        -0.005052     -0.000765      0.005052
      8.41482      6.26580      6.26580         0.003016     -0.005609     -0.005609
      4.21866      2.11130      2.11130         0.000765      0.005052      0.005052
      4.25852      2.10950      6.26580         0.005609     -0.003016     -0.005609
      4.25852      6.26580      2.10950         0.005609     -0.005609     -0.003016
      4.21165      6.31267      6.31267        -0.008672      0.008672      0.008672
      2.36940      8.15492      2.36940        -0.011915      0.011915     -0.011915
      2.11130      8.41302      6.30566         0.005052     -0.005052     -0.000765
      2.11130      4.21866      2.11130         0.005052      0.000765      0.005052
      2.10950      4.25852      6.26580        -0.003016      0.005609     -0.005609
      6.30566      8.41302      2.11130        -0.000765     -0.005052      0.005052
      6.26580      8.41482      6.26580        -0.005609      0.003016     -0.005609
      6.26580      4.25852      2.10950        -0.005609      0.005609     -0.003016
      6.31267      4.21165      6.31267         0.008672     -0.008672      0.008672
      2.36940      2.36940      8.15492        -0.011915     -0.011915      0.011915
      2.11130      2.11130      4.21866         0.005052      0.005052      0.000765
      2.11130      6.30566      8.41302         0.005052     -0.000765     -0.005052
      2.10950      6.26580      4.25852        -0.003016     -0.005609      0.005609
      6.30566      2.11130      8.41302        -0.000765      0.005052     -0.005052
      6.26580      2.10950      4.25852        -0.005609     -0.003016      0.005609
      6.26580      6.26580      8.41482        -0.005609     -0.005609      0.003016
      6.31267      6.31267      4.21165         0.008672      0.008672     -0.008672
      2.12659      8.39773      8.39773         0.004090     -0.004090     -0.004090
      2.12424      8.40008      4.26670        -0.003789      0.003789      0.002611
      2.12424      4.26670      8.40008        -0.003789      0.002611      0.003789
      2.10083      4.20688      4.20688        -0.004701      0.001364      0.001364
      6.25762      8.40008      8.40008        -0.002611      0.003789      0.003789
      6.31744      0.00404      4.20688        -0.001364      0.004701      0.001364
      6.31744      4.20688      0.00404        -0.001364      0.001364      0.004701
      6.31475      4.20957      4.20957        -0.005628      0.005628      0.005628
      2.12659      2.12659      2.12659         0.004090      0.004090      0.004090
      2.12424      2.12424      6.25762        -0.003789     -0.003789     -0.002611
      2.12424      6.25762      2.12424        -0.003789     -0.002611     -0.003789
      2.10083      6.31744      6.31744        -0.004701     -0.001364     -0.001364
      6.25762      2.12424      2.12424        -0.002611     -0.003789     -0.003789
      6.31744      2.10083      6.31744        -0.001364     -0.004701     -0.001364
      6.31744      6.31744      2.10083        -0.001364     -0.001364     -0.004701
      6.31475      6.31475      6.31475        -0.005628     -0.005628     -0.005628
      8.39773      8.39773      2.12659        -0.004090     -0.004090      0.004090
      8.40008      8.40008      6.25762         0.003789      0.003789     -0.002611
      8.40008      4.26670      2.12424         0.003789      0.002611     -0.003789
      0.00404      4.20688      6.31744         0.004701      0.001364     -0.001364
      4.26670      8.40008      2.12424         0.002611      0.003789     -0.003789
      4.20688      0.00404      6.31744         0.001364      0.004701     -0.001364
      4.20688      4.20688      2.10083         0.001364      0.001364     -0.004701
      4.20957      4.20957      6.31475         0.005628      0.005628     -0.005628
      8.39773      2.12659      8.39773        -0.004090      0.004090     -0.004090
      8.40008      2.12424      4.26670         0.003789     -0.003789      0.002611
      8.40008      6.25762      8.40008         0.003789     -0.002611      0.003789
      0.00404      6.31744      4.20688         0.004701     -0.001364      0.001364
      4.26670      2.12424      8.40008         0.002611     -0.003789      0.003789
      4.20688      2.10083      4.20688         0.001364     -0.004701      0.001364
      4.20688      6.31744      0.00404         0.001364     -0.001364      0.004701
      4.20957      6.31475      4.20957         0.005628     -0.005628      0.005628
 -----------------------------------------------------------------------------------
    total drift:                                0.000031      0.000031      0.000001


--------------------------------------------------------------------------------------------------------



  FREE ENERGIE OF THE ION-ELECTRON SYSTEM (eV)
  ---------------------------------------------------
  free  energy   TOTEN  =      -400.22918770 eV

  energy  without entropy=     -400.17276874  energy(sigma->0) =     -400.20097822
 


--------------------------------------------------------------------------------------------------------


    POTLOK:  cpu time    0.6120: real time    0.6120


--------------------------------------------------------------------------------------------------------




--------------------------------------------------------------------------------------------------------


  
 reached required accuracy - stopping structural energy minimisation
 writing wavefunctions
     LOOP+:  cpu time    4.9760: real time    5.4276
    4ORBIT:  cpu time    0.0000: real time    0.0000
 


 total charge     
 
# of ion       s       p       d       tot
------------------------------------------
    1        0.261   0.316   0.148   0.725
    2        0.191   0.215   0.096   0.503
    3        0.153   0.181   0.080   0.414
    4        0.153   0.181   0.080   0.414
    5        0.157   0.187   0.083   0.427
    6        0.153   0.181   0.080   0.414
    7        0.157   0.187   0.083   0.427
    8        0.157   0.187   0.083   0.427
    9        0.152   0.181   0.079   0.412
   10        0.192   0.215   0.096   0.503
   11        0.153   0.181   0.080   0.414
   12        0.153   0.181   0.080   0.414
   13        0.157   0.187   0.083   0.426
   14        0.153   0.181   0.080   0.414
   15        0.157   0.187   0.083   0.427
   16        0.157   0.187   0.083   0.427
   17        0.152   0.181   0.079   0.412
   18        0.192   0.215   0.096   0.503
   19        0.153   0.181   0.080   0.414
   20        0.153   0.181   0.080   0.414
   21        0.157   0.187   0.083   0.427
   22        0.153   0.181   0.080   0.414
   23        0.157   0.187   0.083   0.426
   24        0.157   0.187   0.083   0.427
   25        0.152   0.181   0.079   0.412
   26        0.192   0.215   0.096   0.503
   27        0.153   0.181   0.080   0.414
   28        0.153   0.181   0.080   0.414
   29        0.157   0.187   0.083   0.427
   30        0.153   0.181   0.080   0.414
   31        0.157   0.187   0.083   0.427
   32        0.157   0.187   0.083   0.426
   33        0.152   0.181   0.079   0.412
   34        1.582   3.531   0.000   5.113
   35        1.570   3.566   0.000   5.136
   36        1.570   3.566   0.000   5.136
   37        1.566   3.561   0.000   5.127
   38        1.570   3.567   0.000   5.136
   39        1.567   3.561   0.000   5.127
   40        1.567   3.561   0.000   5.127
   41        1.566   3.549   0.000   5.116
   42        1.581   3.532   0.000   5.113
   43        1.570   3.566   0.000   5.136
   44        1.570   3.566   0.000   5.136
   45        1.566   3.561   0.000   5.127
   46        1.570   3.566   0.000   5.136
   47        1.566   3.561   0.000   5.127
   48        1.566   3.561   0.000   5.127
   49        1.566   3.549   0.000   5.116
   50        1.582   3.531   0.000   5.113
   51        1.570   3.567   0.000   5.136
   52        1.570   3.566   0.000   5.136
   53        1.567   3.561   0.000   5.127
   54        1.570   3.566   0.000   5.136
   55        1.567   3.561   0.000   5.127
   56        1.566   3.561   0.000   5.127
   57        1.566   3.549   0.000   5.116
   58        1.582   3.531   0.000   5.113
   59        1.570   3.566   0.000   5.136
   60        1.570   3.567   0.000   5.136
   61        1.567   3.561   0.000   5.127
   62        1.570   3.566   0.000   5.136
   63        1.566   3.561   0.000   5.127
   64        1.567   3.561   0.000   5.127
   65        1.566   3.549   0.000   5.116
--------------------------------------------------
tot         55.579 120.165   2.801 178.545
 


 magnetization (x)
 
# of ion       s       p       d       tot
------------------------------------------
    1       -0.000   0.000  -0.000  -0.000
    2       -0.000  -0.000  -0.000  -0.000
    3       -0.000  -0.000  -0.000  -0.000
    4       -0.000  -0.000   0.000  -0.000
    5       -0.000  -0.000   0.000  -0.000
    6       -0.000  -0.000  -0.000  -0.000
    7       -0.000  -0.000  -0.000  -0.000
    8       -0.000   0.000   0.000  -0.000
    9       -0.000   0.000  -0.000  -0.000
   10       -0.000   0.000  -0.000  -0.000
   11       -0.000  -0.000   0.000  -0.000
   12       -0.000  -0.000  -0.000  -0.000
   13       -0.000   0.000  -0.000  -0.000
   14       -0.000  -0.000  -0.000  -0.000
   15       -0.000  -0.000   0.000  -0.000
   16       -0.000   0.000  -0.000  -0.000
   17       -0.000  -0.000   0.000  -0.000
   18       -0.000  -0.000  -0.000  -0.000
   19       -0.000  -0.000  -0.000  -0.000
   20       -0.000  -0.000   0.000  -0.000
   21       -0.000  -0.000  -0.000  -0.000
   22       -0.000   0.000   0.000  -0.000
   23       -0.000  -0.000  -0.000  -0.000
   24       -0.000   0.000  -0.000  -0.000
   25       -0.000  -0.000  -0.000  -0.000
   26       -0.000  -0.000  -0.000  -0.000
   27       -0.000  -0.000  -0.000  -0.000
   28       -0.000  -0.000  -0.000  -0.000
   29       -0.000   0.000   0.000  -0.000
   30       -0.000  -0.000   0.000  -0.000
   31       -0.000  -0.000  -0.000  -0.000
   32       -0.000   0.000  -0.000  -0.000
   33       -0.000  -0.000  -0.000  -0.000
   34       -0.000  -0.000   0.000  -0.000
   35       -0.000   0.000   0.000  -0.000
   36        0.000   0.000   0.000   0.000
   37        0.000   0.000   0.000   0.000
   38       -0.000   0.000   0.000  -0.000
   39       -0.000   0.000   0.000  -0.000
   40       -0.000   0.000   0.000   0.000
   41        0.000   0.000   0.000   0.000
   42        0.000  -0.000   0.000   0.000
   43       -0.000   0.000   0.000  -0.000
   44       -0.000   0.000   0.000  -0.000
   45       -0.000   0.000   0.000   0.000
   46       -0.000  -0.000   0.000  -0.000
   47       -0.000  -0.000   0.000  -0.000
   48       -0.000   0.000   0.000  -0.000
   49       -0.000   0.000   0.000  -0.000
   50        0.000  -0.000   0.000  -0.000
   51       -0.000   0.000   0.000  -0.000
   52       -0.000  -0.000   0.000  -0.000
   53       -0.000   0.000   0.000  -0.000
   54       -0.000   0.000   0.000   0.000
   55       -0.000  -0.000   0.000  -0.000
   56        0.000   0.000   0.000   0.000
   57       -0.000   0.000   0.000  -0.000
   58       -0.000  -0.000   0.000  -0.000
   59       -0.000   0.000   0.000  -0.000
   60       -0.000  -0.000   0.000  -0.000
   61       -0.000   0.000   0.000  -0.000
   62        0.000  -0.000   0.000  -0.000
   63        0.000   0.000   0.000   0.000
   64       -0.000   0.000   0.000   0.000
   65       -0.000   0.000   0.000  -0.000
--------------------------------------------------
tot         -0.000   0.000  -0.000  -0.000
 

 total amount of memory used by VASP MPI-rank0    50714. kBytes
=======================================================================

   base      :      30000. kBytes
   nonlr-proj:       8726. kBytes
   fftplans  :       1007. kBytes
   grid      :       7709. kBytes
   one-center:       1054. kBytes
   wavefun   :       2218. kBytes
 
  
  
 General timing and accounting informations for this job:
 ========================================================
  
                  Total CPU time used (sec):        6.660
                            User time (sec):        6.116
                          System time (sec):        0.544
                         Elapsed time (sec):        7.548
  
                   Maximum memory used (kb):       96224.
                   Average memory used (kb):           0.
  
                          Minor page faults:       114692
                          Major page faults:           10
                 Voluntary context switches:         3102
