   16   16   20    2
  0.9574673E+01  0.6006014E-09  0.6006014E-09  0.6006014E-09  0.5000000E-15
  1.000000000000000E-004
  CAR 
 unknown system                          
     58     16     48
 
  0.2500000E+00  0.2500000E+00  0.2500000E+00  0.6250000E-01
    1      -14.300942    -14.300922   1.000000   1.000000
    2      -13.160922    -13.160892   1.000000   1.000000
    3      -12.629343    -12.629310   1.000000   1.000000
    4      -12.499420    -12.499386   1.000000   1.000000
    5      -12.331424    -12.331381   1.000000   1.000000
    6      -12.220671    -12.220633   1.000000   1.000000
    7      -12.184493    -12.184451   1.000000   1.000000
    8       -1.294706     -1.294715   1.000000   1.000000
    9       -1.214788     -1.214796   1.000000   1.000000
   10       -1.070241     -1.070248   1.000000   1.000000
   11       -0.623092     -0.623090   1.000000   1.000000
   12       -0.394360     -0.394357   1.000000   1.000000
   13        0.010030      0.010036   1.000000   1.000000
   14        0.082246      0.082251   1.000000   1.000000
   15        1.004904      1.004917   1.000000   1.000000
   16        1.412204      1.412220   1.000000   1.000000
   17        1.452636      1.452651   1.000000   1.000000
   18        1.762363      1.762382   1.000000   1.000000
   19        1.848775      1.848797   1.000000   1.000000
   20        2.055117      2.055131   1.000000   1.000000
   21        2.124381      2.124404   1.000000   1.000000
   22        2.384724      2.384748   1.000000   1.000000
   23        2.439551      2.439578   1.000000   1.000000
   24        2.752768      2.752803   1.000000   1.000000
   25        2.905901      2.905932   1.000000   1.000000
   26        2.957597      2.957627   1.000000   1.000000
   27        3.051431      3.051463   1.000000   1.000000
   28        3.099100      3.099132   1.000000   1.000000
   29        3.949779      3.949780   1.000000   1.000000
   30        8.678426      8.678422   0.000000   0.000000
   31        9.721134      9.721134   0.000000   0.000000
   32        9.760613      9.760610   0.000000   0.000000
   33       10.515839     10.515839   0.000000   0.000000
   34       11.357135     11.357128   0.000000   0.000000
   35       11.588908     11.588899   0.000000   0.000000
   36       11.729526     11.729517   0.000000   0.000000
   37       12.152059     12.152038   0.000000   0.000000
   38       12.434097     12.434066   0.000000   0.000000
   39       12.818592     12.818573   0.000000   0.000000
   40       13.212403     13.212388   0.000000   0.000000
   41       13.291253     13.291233   0.000000   0.000000
   42       13.513100     13.513084   0.000000   0.000000
   43       14.978832     14.978852   0.000000   0.000000
   44       15.216833     15.216854   0.000000   0.000000
   45       15.323574     15.323595   0.000000   0.000000
   46       15.683713     15.683721   0.000000   0.000000
   47       17.156975     17.156943   0.000000   0.000000
   48       17.303691     17.303696   0.000000   0.000000
 
  0.2500000E+00  0.0000000E+00  0.0000000E+00  0.6250000E-01
    1      -14.300322    -14.300301   1.000000   1.000000
    2      -13.160557    -13.160527   1.000000   1.000000
    3      -12.632181    -12.632148   1.000000   1.000000
    4      -12.499555    -12.499520   1.000000   1.000000
    5      -12.337908    -12.337865   1.000000   1.000000
    6      -12.219196    -12.219159   1.000000   1.000000
    7      -12.177444    -12.177402   1.000000   1.000000
    8       -1.337899     -1.337908   1.000000   1.000000
    9       -1.214673     -1.214682   1.000000   1.000000
   10       -1.029678     -1.029685   1.000000   1.000000
   11       -0.554243     -0.554239   1.000000   1.000000
   12       -0.390633     -0.390631   1.000000   1.000000
   13       -0.069243     -0.069238   1.000000   1.000000
   14        0.067608      0.067613   1.000000   1.000000
   15        1.001130      1.001143   1.000000   1.000000
   16        1.435031      1.435046   1.000000   1.000000
   17        1.457762      1.457778   1.000000   1.000000
   18        1.793917      1.793936   1.000000   1.000000
   19        1.840432      1.840453   1.000000   1.000000
   20        2.070176      2.070194   1.000000   1.000000
   21        2.090156      2.090178   1.000000   1.000000
   22        2.391480      2.391508   1.000000   1.000000
   23        2.484271      2.484296   1.000000   1.000000
   24        2.656886      2.656916   1.000000   1.000000
   25        2.902337      2.902367   1.000000   1.000000
   26        2.968114      2.968144   1.000000   1.000000
   27        3.041078      3.041108   1.000000   1.000000
   28        3.124468      3.124499   1.000000   1.000000
   29        3.990720      3.990723   1.000000   1.000000
   30        8.629566      8.629560   0.000000   0.000000
   31        9.680344      9.680340   0.000000   0.000000
   32        9.757219      9.757218   0.000000   0.000000
   33       10.664477     10.664479   0.000000   0.000000
   34       11.309750     11.309741   0.000000   0.000000
   35       11.489538     11.489529   0.000000   0.000000
   36       11.632016     11.632007   0.000000   0.000000
   37       12.142008     12.141988   0.000000   0.000000
   38       12.524606     12.524578   0.000000   0.000000
   39       12.911108     12.911096   0.000000   0.000000
   40       13.150626     13.150611   0.000000   0.000000
   41       13.290491     13.290470   0.000000   0.000000
   42       13.464808     13.464786   0.000000   0.000000
   43       15.074312     15.074331   0.000000   0.000000
   44       15.322061     15.322083   0.000000   0.000000
   45       15.416877     15.416898   0.000000   0.000000
   46       15.649765     15.649777   0.000000   0.000000
   47       17.140692     17.140672   0.000000   0.000000
   48       17.226584     17.226586   0.000000   0.000000
 
  0.0000000E+00  0.0000000E+00 -0.2500000E+00  0.6250000E-01
    1      -14.300368    -14.300348   1.000000   1.000000
    2      -13.160422    -13.160393   1.000000   1.000000
    3      -12.632505    -12.632472   1.000000   1.000000
    4      -12.499524    -12.499489   1.000000   1.000000
    5      -12.337092    -12.337050   1.000000   1.000000
    6      -12.219565    -12.219527   1.000000   1.000000
    7      -12.177676    -12.177634   1.000000   1.000000
    8       -1.337439     -1.337448   1.000000   1.000000
    9       -1.217334     -1.217342   1.000000   1.000000
   10       -1.027941     -1.027948   1.000000   1.000000
   11       -0.555478     -0.555474   1.000000   1.000000
   12       -0.390026     -0.390024   1.000000   1.000000
   13       -0.069881     -0.069876   1.000000   1.000000
   14        0.069256      0.069262   1.000000   1.000000
   15        1.001483      1.001496   1.000000   1.000000
   16        1.435375      1.435390   1.000000   1.000000
   17        1.458215      1.458231   1.000000   1.000000
   18        1.793245      1.793266   1.000000   1.000000
   19        1.840552      1.840573   1.000000   1.000000
   20        2.069775      2.069794   1.000000   1.000000
   21        2.090246      2.090268   1.000000   1.000000
   22        2.391461      2.391489   1.000000   1.000000
   23        2.483847      2.483874   1.000000   1.000000
   24        2.656019      2.656049   1.000000   1.000000
   25        2.903361      2.903390   1.000000   1.000000
   26        2.970059      2.970089   1.000000   1.000000
   27        3.040562      3.040591   1.000000   1.000000
   28        3.124377      3.124408   1.000000   1.000000
   29        3.989946      3.989949   1.000000   1.000000
   30        8.628109      8.628102   0.000000   0.000000
   31        9.679255      9.679250   0.000000   0.000000
   32        9.760174      9.760174   0.000000   0.000000
   33       10.664497     10.664498   0.000000   0.000000
   34       11.309934     11.309925   0.000000   0.000000
   35       11.490407     11.490398   0.000000   0.000000
   36       11.628380     11.628372   0.000000   0.000000
   37       12.143213     12.143192   0.000000   0.000000
   38       12.521707     12.521680   0.000000   0.000000
   39       12.912309     12.912298   0.000000   0.000000
   40       13.150158     13.150143   0.000000   0.000000
   41       13.288950     13.288929   0.000000   0.000000
   42       13.466939     13.466918   0.000000   0.000000
   43       15.077072     15.077090   0.000000   0.000000
   44       15.322283     15.322305   0.000000   0.000000
   45       15.414463     15.414484   0.000000   0.000000
   46       15.648672     15.648684   0.000000   0.000000
   47       17.141474     17.141441   0.000000   0.000000
   48       17.225251     17.225235   0.000000   0.000000
 
  0.0000000E+00  0.2500000E+00  0.0000000E+00  0.6250000E-01
    1      -14.300902    -14.300881   1.000000   1.000000
    2      -13.160983    -13.160954   1.000000   1.000000
    3      -12.629663    -12.629631   1.000000   1.000000
    4      -12.499420    -12.499386   1.000000   1.000000
    5      -12.331097    -12.331055   1.000000   1.000000
    6      -12.220371    -12.220333   1.000000   1.000000
    7      -12.184762    -12.184720   1.000000   1.000000
    8       -1.295705     -1.295714   1.000000   1.000000
    9       -1.212456     -1.212465   1.000000   1.000000
   10       -1.071048     -1.071055   1.000000   1.000000
   11       -0.622106     -0.622103   1.000000   1.000000
   12       -0.394553     -0.394549   1.000000   1.000000
   13        0.008941      0.008947   1.000000   1.000000
   14        0.081101      0.081106   1.000000   1.000000
   15        1.002483      1.002497   1.000000   1.000000
   16        1.412237      1.412253   1.000000   1.000000
   17        1.453975      1.453990   1.000000   1.000000
   18        1.763376      1.763395   1.000000   1.000000
   19        1.848505      1.848527   1.000000   1.000000
   20        2.054312      2.054328   1.000000   1.000000
   21        2.125788      2.125811   1.000000   1.000000
   22        2.385144      2.385169   1.000000   1.000000
   23        2.441344      2.441371   1.000000   1.000000
   24        2.750989      2.751023   1.000000   1.000000
   25        2.906545      2.906576   1.000000   1.000000
   26        2.956825      2.956854   1.000000   1.000000
   27        3.051803      3.051834   1.000000   1.000000
   28        3.098947      3.098978   1.000000   1.000000
   29        3.950610      3.950612   1.000000   1.000000
   30        8.679723      8.679719   0.000000   0.000000
   31        9.717791      9.717791   0.000000   0.000000
   32        9.760802      9.760800   0.000000   0.000000
   33       10.516468     10.516468   0.000000   0.000000
   34       11.355049     11.355042   0.000000   0.000000
   35       11.586775     11.586765   0.000000   0.000000
   36       11.730629     11.730620   0.000000   0.000000
   37       12.152052     12.152031   0.000000   0.000000
   38       12.435425     12.435394   0.000000   0.000000
   39       12.818663     12.818644   0.000000   0.000000
   40       13.212053     13.212039   0.000000   0.000000
   41       13.293972     13.293952   0.000000   0.000000
   42       13.514628     13.514612   0.000000   0.000000
   43       14.977187     14.977207   0.000000   0.000000
   44       15.216046     15.216067   0.000000   0.000000
   45       15.324712     15.324732   0.000000   0.000000
   46       15.683911     15.683920   0.000000   0.000000
   47       17.152584     17.152553   0.000000   0.000000
   48       17.308143     17.308101   0.000000   0.000000
 
 -0.2500000E+00  0.2500000E+00  0.2500000E+00  0.6250000E-01
    1      -14.237391    -14.237370   1.000000   1.000000
    2      -13.021917    -13.021888   1.000000   1.000000
    3      -12.782162    -12.782129   1.000000   1.000000
    4      -12.574559    -12.574524   1.000000   1.000000
    5      -12.342655    -12.342615   1.000000   1.000000
    6      -12.285109    -12.285071   1.000000   1.000000
    7      -12.156596    -12.156555   1.000000   1.000000
    8       -0.976541     -0.976548   1.000000   1.000000
    9       -0.799869     -0.799876   1.000000   1.000000
   10       -0.682103     -0.682108   1.000000   1.000000
   11       -0.319877     -0.319877   1.000000   1.000000
   12        0.061444      0.061450   1.000000   1.000000
   13        0.210004      0.210012   1.000000   1.000000
   14        0.463081      0.463090   1.000000   1.000000
   15        0.659872      0.659881   1.000000   1.000000
   16        0.950259      0.950271   1.000000   1.000000
   17        1.006891      1.006905   1.000000   1.000000
   18        1.367735      1.367750   1.000000   1.000000
   19        1.589953      1.589973   1.000000   1.000000
   20        1.765349      1.765369   1.000000   1.000000
   21        1.824276      1.824295   1.000000   1.000000
   22        1.932170      1.932191   1.000000   1.000000
   23        2.272153      2.272175   1.000000   1.000000
   24        2.447246      2.447271   1.000000   1.000000
   25        2.588937      2.588967   1.000000   1.000000
   26        2.801557      2.801585   1.000000   1.000000
   27        2.924773      2.924802   1.000000   1.000000
   28        3.046829      3.046861   1.000000   1.000000
   29        5.065104      5.065116   1.000000   1.000000
   30        7.858221      7.858201   0.000000   0.000000
   31        8.872690      8.872683   0.000000   0.000000
   32        9.988563      9.988565   0.000000   0.000000
   33       10.903755     10.903754   0.000000   0.000000
   34       11.904788     11.904791   0.000000   0.000000
   35       12.343009     12.343007   0.000000   0.000000
   36       12.441836     12.441833   0.000000   0.000000
   37       12.969924     12.969928   0.000000   0.000000
   38       13.162379     13.162373   0.000000   0.000000
   39       13.534106     13.534105   0.000000   0.000000
   40       13.875089     13.875084   0.000000   0.000000
   41       14.188584     14.188582   0.000000   0.000000
   42       14.568783     14.568785   0.000000   0.000000
   43       14.702036     14.702036   0.000000   0.000000
   44       14.998346     14.998343   0.000000   0.000000
   45       15.083180     15.083171   0.000000   0.000000
   46       15.489459     15.489446   0.000000   0.000000
   47       15.843667     15.843647   0.000000   0.000000
   48       16.211004     16.210972   0.000000   0.000000
 
  0.2500000E+00 -0.2500000E+00  0.2500000E+00  0.6250000E-01
    1      -14.238335    -14.238314   1.000000   1.000000
    2      -13.015390    -13.015360   1.000000   1.000000
    3      -12.788969    -12.788936   1.000000   1.000000
    4      -12.565257    -12.565225   1.000000   1.000000
    5      -12.369149    -12.369109   1.000000   1.000000
    6      -12.259993    -12.259955   1.000000   1.000000
    7      -12.163509    -12.163467   1.000000   1.000000
    8       -0.950661     -0.950667   1.000000   1.000000
    9       -0.787030     -0.787037   1.000000   1.000000
   10       -0.712989     -0.712993   1.000000   1.000000
   11       -0.352993     -0.352994   1.000000   1.000000
   12        0.046593      0.046599   1.000000   1.000000
   13        0.205717      0.205725   1.000000   1.000000
   14        0.514324      0.514332   1.000000   1.000000
   15        0.695825      0.695837   1.000000   1.000000
   16        0.947067      0.947079   1.000000   1.000000
   17        1.025559      1.025572   1.000000   1.000000
   18        1.318021      1.318034   1.000000   1.000000
   19        1.627785      1.627804   1.000000   1.000000
   20        1.689989      1.690006   1.000000   1.000000
   21        1.796369      1.796389   1.000000   1.000000
   22        1.941131      1.941151   1.000000   1.000000
   23        2.323632      2.323654   1.000000   1.000000
   24        2.445166      2.445190   1.000000   1.000000
   25        2.621595      2.621628   1.000000   1.000000
   26        2.801133      2.801162   1.000000   1.000000
   27        2.906117      2.906148   1.000000   1.000000
   28        3.032528      3.032560   1.000000   1.000000
   29        5.032592      5.032603   1.000000   1.000000
   30        7.931984      7.931968   0.000000   0.000000
   31        8.922506      8.922500   0.000000   0.000000
   32        9.775637      9.775635   0.000000   0.000000
   33       11.012436     11.012435   0.000000   0.000000
   34       11.935158     11.935161   0.000000   0.000000
   35       12.317325     12.317322   0.000000   0.000000
   36       12.617823     12.617819   0.000000   0.000000
   37       12.975887     12.975892   0.000000   0.000000
   38       13.136936     13.136930   0.000000   0.000000
   39       13.668499     13.668492   0.000000   0.000000
   40       13.824294     13.824290   0.000000   0.000000
   41       14.123347     14.123345   0.000000   0.000000
   42       14.418366     14.418368   0.000000   0.000000
   43       14.570385     14.570382   0.000000   0.000000
   44       14.772538     14.772534   0.000000   0.000000
   45       15.013410     15.013408   0.000000   0.000000
   46       15.639572     15.639557   0.000000   0.000000
   47       15.959162     15.959145   0.000000   0.000000
   48       16.399278     16.399253   0.000000   0.000000
 
  0.2500000E+00  0.2500000E+00 -0.2500000E+00  0.6250000E-01
    1      -14.235992    -14.235971   1.000000   1.000000
    2      -13.071357    -13.071329   1.000000   1.000000
    3      -12.729295    -12.729261   1.000000   1.000000
    4      -12.542140    -12.542106   1.000000   1.000000
    5      -12.357680    -12.357638   1.000000   1.000000
    6      -12.276748    -12.276707   1.000000   1.000000
    7      -12.186024    -12.185986   1.000000   1.000000
    8       -0.971454     -0.971460   1.000000   1.000000
    9       -0.838623     -0.838629   1.000000   1.000000
   10       -0.722107     -0.722113   1.000000   1.000000
   11       -0.316710     -0.316710   1.000000   1.000000
   12        0.011632      0.011637   1.000000   1.000000
   13        0.189890      0.189896   1.000000   1.000000
   14        0.538403      0.538412   1.000000   1.000000
   15        0.636234      0.636244   1.000000   1.000000
   16        0.959740      0.959750   1.000000   1.000000
   17        1.057901      1.057914   1.000000   1.000000
   18        1.441592      1.441611   1.000000   1.000000
   19        1.572400      1.572418   1.000000   1.000000
   20        1.713828      1.713848   1.000000   1.000000
   21        1.933705      1.933727   1.000000   1.000000
   22        1.989858      1.989880   1.000000   1.000000
   23        2.200636      2.200660   1.000000   1.000000
   24        2.424233      2.424257   1.000000   1.000000
   25        2.622623      2.622650   1.000000   1.000000
   26        2.819938      2.819965   1.000000   1.000000
   27        2.873554      2.873583   1.000000   1.000000
   28        3.048784      3.048814   1.000000   1.000000
   29        4.942755      4.942764   1.000000   1.000000
   30        8.112142      8.112127   0.000000   0.000000
   31        9.126019      9.126016   0.000000   0.000000
   32        9.441199      9.441200   0.000000   0.000000
   33       10.929666     10.929663   0.000000   0.000000
   34       11.923434     11.923440   0.000000   0.000000
   35       12.485446     12.485448   0.000000   0.000000
   36       12.683296     12.683291   0.000000   0.000000
   37       12.785397     12.785393   0.000000   0.000000
   38       13.216837     13.216831   0.000000   0.000000
   39       13.497247     13.497247   0.000000   0.000000
   40       13.814437     13.814423   0.000000   0.000000
   41       14.293374     14.293365   0.000000   0.000000
   42       14.479338     14.479325   0.000000   0.000000
   43       14.584685     14.584690   0.000000   0.000000
   44       14.822060     14.822066   0.000000   0.000000
   45       14.951736     14.951732   0.000000   0.000000
   46       15.543019     15.543001   0.000000   0.000000
   47       15.720827     15.720813   0.000000   0.000000
   48       16.350770     16.350749   0.000000   0.000000
 
  0.2500000E+00  0.0000000E+00  0.5000000E+00  0.6250000E-01
    1      -14.237878    -14.237857   1.000000   1.000000
    2      -13.011447    -13.011417   1.000000   1.000000
    3      -12.785439    -12.785406   1.000000   1.000000
    4      -12.596770    -12.596737   1.000000   1.000000
    5      -12.320520    -12.320481   1.000000   1.000000
    6      -12.284890    -12.284852   1.000000   1.000000
    7      -12.163602    -12.163559   1.000000   1.000000
    8       -1.003030     -1.003038   1.000000   1.000000
    9       -0.780260     -0.780266   1.000000   1.000000
   10       -0.650331     -0.650335   1.000000   1.000000
   11       -0.333239     -0.333240   1.000000   1.000000
   12        0.058450      0.058456   1.000000   1.000000
   13        0.219916      0.219924   1.000000   1.000000
   14        0.405449      0.405457   1.000000   1.000000
   15        0.705836      0.705847   1.000000   1.000000
   16        0.917126      0.917139   1.000000   1.000000
   17        1.040333      1.040346   1.000000   1.000000
   18        1.346127      1.346143   1.000000   1.000000
   19        1.595628      1.595649   1.000000   1.000000
   20        1.793787      1.793805   1.000000   1.000000
   21        1.831101      1.831121   1.000000   1.000000
   22        1.937183      1.937204   1.000000   1.000000
   23        2.254755      2.254776   1.000000   1.000000
   24        2.432080      2.432105   1.000000   1.000000
   25        2.578775      2.578807   1.000000   1.000000
   26        2.789974      2.790003   1.000000   1.000000
   27        2.950796      2.950826   1.000000   1.000000
   28        3.040295      3.040326   1.000000   1.000000
   29        5.075797      5.075810   1.000000   1.000000
   30        7.878788      7.878771   0.000000   0.000000
   31        8.801876      8.801866   0.000000   0.000000
   32       10.015053     10.015055   0.000000   0.000000
   33       10.913523     10.913521   0.000000   0.000000
   34       11.829883     11.829887   0.000000   0.000000
   35       12.346316     12.346312   0.000000   0.000000
   36       12.508501     12.508500   0.000000   0.000000
   37       12.945457     12.945460   0.000000   0.000000
   38       13.151886     13.151886   0.000000   0.000000
   39       13.569647     13.569640   0.000000   0.000000
   40       13.913536     13.913534   0.000000   0.000000
   41       14.155631     14.155630   0.000000   0.000000
   42       14.555141     14.555133   0.000000   0.000000
   43       14.739431     14.739439   0.000000   0.000000
   44       14.947302     14.947294   0.000000   0.000000
   45       15.076698     15.076693   0.000000   0.000000
   46       15.558534     15.558520   0.000000   0.000000
   47       15.819163     15.819146   0.000000   0.000000
   48       16.188364     16.188330   0.000000   0.000000
 
 -0.2500000E+00  0.5000000E+00  0.5000000E+00  0.6250000E-01
    1      -14.237996    -14.237975   1.000000   1.000000
    2      -13.025587    -13.025557   1.000000   1.000000
    3      -12.772725    -12.772693   1.000000   1.000000
    4      -12.576534    -12.576499   1.000000   1.000000
    5      -12.334263    -12.334223   1.000000   1.000000
    6      -12.294209    -12.294170   1.000000   1.000000
    7      -12.159126    -12.159085   1.000000   1.000000
    8       -0.967844     -0.967851   1.000000   1.000000
    9       -0.791042     -0.791048   1.000000   1.000000
   10       -0.675396     -0.675400   1.000000   1.000000
   11       -0.360791     -0.360793   1.000000   1.000000
   12        0.037844      0.037851   1.000000   1.000000
   13        0.204776      0.204784   1.000000   1.000000
   14        0.458611      0.458620   1.000000   1.000000
   15        0.732335      0.732345   1.000000   1.000000
   16        0.942061      0.942072   1.000000   1.000000
   17        1.042130      1.042142   1.000000   1.000000
   18        1.304411      1.304424   1.000000   1.000000
   19        1.646069      1.646090   1.000000   1.000000
   20        1.714423      1.714441   1.000000   1.000000
   21        1.807468      1.807487   1.000000   1.000000
   22        1.949233      1.949253   1.000000   1.000000
   23        2.290487      2.290509   1.000000   1.000000
   24        2.423491      2.423517   1.000000   1.000000
   25        2.632944      2.632975   1.000000   1.000000
   26        2.808485      2.808514   1.000000   1.000000
   27        2.919968      2.919998   1.000000   1.000000
   28        3.019487      3.019518   1.000000   1.000000
   29        5.012259      5.012269   1.000000   1.000000
   30        8.000097      8.000083   0.000000   0.000000
   31        8.815385      8.815377   0.000000   0.000000
   32        9.867010      9.867011   0.000000   0.000000
   33       11.050593     11.050592   0.000000   0.000000
   34       11.860333     11.860337   0.000000   0.000000
   35       12.354367     12.354364   0.000000   0.000000
   36       12.654891     12.654888   0.000000   0.000000
   37       12.964362     12.964365   0.000000   0.000000
   38       13.145439     13.145436   0.000000   0.000000
   39       13.580253     13.580238   0.000000   0.000000
   40       13.832402     13.832405   0.000000   0.000000
   41       14.090904     14.090899   0.000000   0.000000
   42       14.350865     14.350858   0.000000   0.000000
   43       14.600925     14.600931   0.000000   0.000000
   44       14.850262     14.850257   0.000000   0.000000
   45       15.014658     15.014655   0.000000   0.000000
   46       15.651690     15.651673   0.000000   0.000000
   47       15.889725     15.889711   0.000000   0.000000
   48       16.412669     16.412640   0.000000   0.000000
 
  0.2500000E+00  0.5000000E+00  0.0000000E+00  0.6250000E-01
    1      -14.236485    -14.236464   1.000000   1.000000
    2      -13.073024    -13.072995   1.000000   1.000000
    3      -12.724211    -12.724177   1.000000   1.000000
    4      -12.542174    -12.542140   1.000000   1.000000
    5      -12.349726    -12.349685   1.000000   1.000000
    6      -12.284860    -12.284818   1.000000   1.000000
    7      -12.188826    -12.188789   1.000000   1.000000
    8       -0.971568     -0.971574   1.000000   1.000000
    9       -0.830360     -0.830367   1.000000   1.000000
   10       -0.693926     -0.693931   1.000000   1.000000
   11       -0.362656     -0.362656   1.000000   1.000000
   12       -0.021672     -0.021665   1.000000   1.000000
   13        0.176408      0.176414   1.000000   1.000000
   14        0.553547      0.553556   1.000000   1.000000
   15        0.707279      0.707289   1.000000   1.000000
   16        0.941467      0.941477   1.000000   1.000000
   17        1.066831      1.066844   1.000000   1.000000
   18        1.456025      1.456043   1.000000   1.000000
   19        1.556501      1.556519   1.000000   1.000000
   20        1.689416      1.689437   1.000000   1.000000
   21        1.925256      1.925277   1.000000   1.000000
   22        1.968601      1.968622   1.000000   1.000000
   23        2.241367      2.241390   1.000000   1.000000
   24        2.417389      2.417415   1.000000   1.000000
   25        2.661066      2.661095   1.000000   1.000000
   26        2.822167      2.822195   1.000000   1.000000
   27        2.862416      2.862444   1.000000   1.000000
   28        3.024634      3.024663   1.000000   1.000000
   29        4.894972      4.894980   1.000000   1.000000
   30        8.312682      8.312674   0.000000   0.000000
   31        9.043618      9.043611   0.000000   0.000000
   32        9.305301      9.305302   0.000000   0.000000
   33       11.034155     11.034152   0.000000   0.000000
   34       11.873368     11.873374   0.000000   0.000000
   35       12.577217     12.577218   0.000000   0.000000
   36       12.759250     12.759247   0.000000   0.000000
   37       12.907938     12.907934   0.000000   0.000000
   38       13.284199     13.284190   0.000000   0.000000
   39       13.470003     13.469991   0.000000   0.000000
   40       13.757379     13.757372   0.000000   0.000000
   41       14.120721     14.120714   0.000000   0.000000
   42       14.340222     14.340225   0.000000   0.000000
   43       14.382634     14.382621   0.000000   0.000000
   44       14.725117     14.725127   0.000000   0.000000
   45       15.068727     15.068727   0.000000   0.000000
   46       15.446069     15.446048   0.000000   0.000000
   47       15.837780     15.837770   0.000000   0.000000
   48       16.362564     16.362540   0.000000   0.000000
 
  0.0000000E+00  0.5000000E+00 -0.2500000E+00  0.6250000E-01
    1      -14.237953    -14.237932   1.000000   1.000000
    2      -13.025566    -13.025537   1.000000   1.000000
    3      -12.773255    -12.773223   1.000000   1.000000
    4      -12.576376    -12.576341   1.000000   1.000000
    5      -12.332538    -12.332499   1.000000   1.000000
    6      -12.295757    -12.295718   1.000000   1.000000
    7      -12.158985    -12.158944   1.000000   1.000000
    8       -0.967483     -0.967490   1.000000   1.000000
    9       -0.789834     -0.789841   1.000000   1.000000
   10       -0.674458     -0.674462   1.000000   1.000000
   11       -0.361950     -0.361951   1.000000   1.000000
   12        0.036889      0.036895   1.000000   1.000000
   13        0.203539      0.203546   1.000000   1.000000
   14        0.456070      0.456079   1.000000   1.000000
   15        0.732451      0.732462   1.000000   1.000000
   16        0.941020      0.941032   1.000000   1.000000
   17        1.043414      1.043427   1.000000   1.000000
   18        1.304987      1.305001   1.000000   1.000000
   19        1.648894      1.648915   1.000000   1.000000
   20        1.715138      1.715156   1.000000   1.000000
   21        1.806896      1.806915   1.000000   1.000000