   16   16   20    2
  0.9574673E+01  0.6006014E-09  0.6006014E-09  0.6006014E-09  0.5000000E-15
  1.000000000000000E-004
  CAR 
 unknown system                          
     58      8     48
 
  0.0000000E+00  0.0000000E+00  0.0000000E+00  0.1250000E+00
    1      -14.330762    -14.330750   1.000000   1.000000
    2      -13.193760    -13.193741   1.000000   1.000000
    3      -12.520696    -12.520676   1.000000   1.000000
    4      -12.495813    -12.495789   1.000000   1.000000
    5      -12.291550    -12.291522   1.000000   1.000000
    6      -12.168747    -12.168722   1.000000   1.000000
    7      -12.124249    -12.124222   1.000000   1.000000
    8       -1.465778     -1.465784   1.000000   1.000000
    9       -1.393215     -1.393221   1.000000   1.000000
   10       -1.389696     -1.389702   1.000000   1.000000
   11       -0.833749     -0.833744   1.000000   1.000000
   12       -0.350992     -0.350989   1.000000   1.000000
   13       -0.175206     -0.175203   1.000000   1.000000
   14       -0.144442     -0.144440   1.000000   1.000000
   15        1.386281      1.386294   1.000000   1.000000
   16        1.552849      1.552858   1.000000   1.000000
   17        1.575865      1.575874   1.000000   1.000000
   18        1.964484      1.964494   1.000000   1.000000
   19        2.076608      2.076622   1.000000   1.000000
   20        2.081505      2.081519   1.000000   1.000000
   21        2.716223      2.716220   1.000000   1.000000
   22        2.754539      2.754556   1.000000   1.000000
   23        2.802221      2.802242   1.000000   1.000000
   24        2.899351      2.899372   1.000000   1.000000
   25        2.988698      2.988717   1.000000   1.000000
   26        3.077572      3.077591   1.000000   1.000000
   27        3.184570      3.184590   1.000000   1.000000
   28        3.186390      3.186411   1.000000   1.000000
   29        3.252457      3.252469   1.000000   1.000000
   30        8.794229      8.794256   0.000000   0.000000
   31       10.182666     10.182672   0.000000   0.000000
   32       10.200724     10.200730   0.000000   0.000000
   33       10.797372     10.797388   0.000000   0.000000
   34       10.848454     10.848467   0.000000   0.000000
   35       10.940784     10.940799   0.000000   0.000000
   36       11.612373     11.612373   0.000000   0.000000
   37       11.704020     11.704029   0.000000   0.000000
   38       11.945702     11.945702   0.000000   0.000000
   39       12.199667     12.199638   0.000000   0.000000
   40       12.315425     12.315421   0.000000   0.000000
   41       12.476432     12.476434   0.000000   0.000000
   42       12.916049     12.916043   0.000000   0.000000
   43       15.363046     15.363101   0.000000   0.000000
   44       15.385828     15.385880   0.000000   0.000000
   45       15.621626     15.621674   0.000000   0.000000
   46       15.761380     15.761428   0.000000   0.000000
   47       18.019562     18.019540   0.000000   0.000000
   48       18.298429     18.298205   0.000000   0.000000
 
  0.5000000E+00  0.0000000E+00  0.0000000E+00  0.1250000E+00
    1      -14.232311    -14.232299   1.000000   1.000000
    2      -13.057893    -13.057875   1.000000   1.000000
    3      -12.787480    -12.787458   1.000000   1.000000
    4      -12.467589    -12.467567   1.000000   1.000000
    5      -12.282586    -12.282560   1.000000   1.000000
    6      -12.229833    -12.229808   1.000000   1.000000
    7      -12.183857    -12.183830   1.000000   1.000000
    8       -1.071183     -1.071188   1.000000   1.000000
    9       -0.954637     -0.954642   1.000000   1.000000
   10       -0.700389     -0.700392   1.000000   1.000000
   11       -0.328014     -0.328012   1.000000   1.000000
   12       -0.140208     -0.140205   1.000000   1.000000
   13        0.264884      0.264890   1.000000   1.000000
   14        0.386700      0.386704   1.000000   1.000000
   15        0.756823      0.756828   1.000000   1.000000
   16        0.900882      0.900891   1.000000   1.000000
   17        1.276096      1.276103   1.000000   1.000000
   18        1.473873      1.473886   1.000000   1.000000
   19        1.637003      1.637014   1.000000   1.000000
   20        1.686137      1.686150   1.000000   1.000000
   21        1.879957      1.879973   1.000000   1.000000
   22        1.992139      1.992151   1.000000   1.000000
   23        2.301558      2.301570   1.000000   1.000000
   24        2.516204      2.516222   1.000000   1.000000
   25        2.899051      2.899070   1.000000   1.000000
   26        2.964382      2.964400   1.000000   1.000000
   27        3.064736      3.064756   1.000000   1.000000
   28        3.120129      3.120150   1.000000   1.000000
   29        4.866231      4.866239   1.000000   1.000000
   30        7.570957      7.570944   0.000000   0.000000
   31        9.531600      9.531601   0.000000   0.000000
   32       10.348798     10.348812   0.000000   0.000000
   33       10.772900     10.772916   0.000000   0.000000
   34       11.225599     11.225635   0.000000   0.000000
   35       12.044061     12.044066   0.000000   0.000000
   36       12.304317     12.304326   0.000000   0.000000
   37       12.549828     12.549850   0.000000   0.000000
   38       12.693376     12.693391   0.000000   0.000000
   39       13.697667     13.697695   0.000000   0.000000
   40       14.010708     14.010721   0.000000   0.000000
   41       14.402496     14.402521   0.000000   0.000000
   42       14.504236     14.504259   0.000000   0.000000
   43       14.634638     14.634668   0.000000   0.000000
   44       14.884422     14.884424   0.000000   0.000000
   45       15.283308     15.283337   0.000000   0.000000
   46       15.729285     15.729293   0.000000   0.000000
   47       16.072472     16.072489   0.000000   0.000000
   48       16.310099     16.310921   0.000000   0.000000
 
  0.0000000E+00  0.5000000E+00  0.0000000E+00  0.1250000E+00
    1      -14.233567    -14.233555   1.000000   1.000000
    2      -13.060243    -13.060225   1.000000   1.000000
    3      -12.781017    -12.780995   1.000000   1.000000
    4      -12.463977    -12.463955   1.000000   1.000000
    5      -12.263762    -12.263735   1.000000   1.000000
    6      -12.232201    -12.232175   1.000000   1.000000
    7      -12.207016    -12.206990   1.000000   1.000000
    8       -1.019068     -1.019073   1.000000   1.000000
    9       -0.950187     -0.950192   1.000000   1.000000
   10       -0.795651     -0.795654   1.000000   1.000000
   11       -0.336959     -0.336955   1.000000   1.000000
   12       -0.104994     -0.104991   1.000000   1.000000
   13        0.272208      0.272213   1.000000   1.000000
   14        0.405921      0.405925   1.000000   1.000000
   15        0.737522      0.737527   1.000000   1.000000
   16        0.993050      0.993060   1.000000   1.000000
   17        1.279954      1.279961   1.000000   1.000000
   18        1.429754      1.429766   1.000000   1.000000
   19        1.510358      1.510367   1.000000   1.000000
   20        1.701265      1.701278   1.000000   1.000000
   21        1.864277      1.864292   1.000000   1.000000
   22        2.030894      2.030906   1.000000   1.000000
   23        2.286562      2.286574   1.000000   1.000000
   24        2.636000      2.636022   1.000000   1.000000
   25        2.915879      2.915898   1.000000   1.000000
   26        2.959803      2.959821   1.000000   1.000000
   27        3.046369      3.046389   1.000000   1.000000
   28        3.068156      3.068176   1.000000   1.000000
   29        4.786475      4.786481   1.000000   1.000000
   30        7.724359      7.724351   0.000000   0.000000
   31        9.514891      9.514894   0.000000   0.000000
   32       10.131867     10.131878   0.000000   0.000000
   33       10.896187     10.896204   0.000000   0.000000
   34       11.282925     11.282962   0.000000   0.000000
   35       12.193241     12.193244   0.000000   0.000000
   36       12.370252     12.370260   0.000000   0.000000
   37       12.665878     12.665896   0.000000   0.000000
   38       12.735420     12.735436   0.000000   0.000000
   39       13.654131     13.654149   0.000000   0.000000
   40       13.903411     13.903425   0.000000   0.000000
   41       14.261428     14.261465   0.000000   0.000000
   42       14.323521     14.323554   0.000000   0.000000
   43       14.483733     14.483745   0.000000   0.000000
   44       14.909863     14.909864   0.000000   0.000000
   45       14.965871     14.965904   0.000000   0.000000
   46       15.735150     15.735154   0.000000   0.000000
   47       16.212625     16.212643   0.000000   0.000000
   48       16.325373     16.325365   0.000000   0.000000
 
  0.5000000E+00  0.5000000E+00  0.0000000E+00  0.1250000E+00
    1      -14.202997    -14.202984   1.000000   1.000000
    2      -13.082846    -13.082829   1.000000   1.000000
    3      -12.592154    -12.592135   1.000000   1.000000
    4      -12.560036    -12.560013   1.000000   1.000000
    5      -12.358069    -12.358043   1.000000   1.000000
    6      -12.355392    -12.355365   1.000000   1.000000
    7      -12.123151    -12.123127   1.000000   1.000000
    8       -1.013656     -1.013661   1.000000   1.000000
    9       -0.648383     -0.648388   1.000000   1.000000
   10       -0.645896     -0.645901   1.000000   1.000000
   11       -0.068526     -0.068524   1.000000   1.000000
   12        0.158640      0.158647   1.000000   1.000000
   13        0.208435      0.208438   1.000000   1.000000
   14        0.567381      0.567388   1.000000   1.000000
   15        0.579504      0.579511   1.000000   1.000000
   16        1.141522      1.141530   1.000000   1.000000
   17        1.159238      1.159248   1.000000   1.000000
   18        1.425604      1.425614   1.000000   1.000000
   19        1.458325      1.458336   1.000000   1.000000
   20        1.547516      1.547522   1.000000   1.000000
   21        1.625025      1.625039   1.000000   1.000000
   22        1.788801      1.788817   1.000000   1.000000
   23        2.198036      2.198050   1.000000   1.000000
   24        2.208697      2.208712   1.000000   1.000000
   25        2.780391      2.780407   1.000000   1.000000
   26        2.814709      2.814726   1.000000   1.000000
   27        2.873633      2.873652   1.000000   1.000000
   28        3.080798      3.080817   1.000000   1.000000
   29        5.074695      5.074703   1.000000   1.000000
   30        8.437917      8.437914   0.000000   0.000000
   31        8.941374      8.941375   0.000000   0.000000
   32        9.091238      9.091242   0.000000   0.000000
   33       11.236190     11.236215   0.000000   0.000000
   34       12.148587     12.148615   0.000000   0.000000
   35       12.611147     12.611179   0.000000   0.000000
   36       13.122868     13.122894   0.000000   0.000000
   37       13.193462     13.193497   0.000000   0.000000
   38       13.506856     13.506855   0.000000   0.000000
   39       13.593293     13.593320   0.000000   0.000000
   40       13.661502     13.661532   0.000000   0.000000
   41       14.230342     14.230336   0.000000   0.000000
   42       14.332187     14.332192   0.000000   0.000000
   43       14.450191     14.450207   0.000000   0.000000
   44       14.983834     14.983849   0.000000   0.000000
   45       14.986968     14.986984   0.000000   0.000000
   46       15.196408     15.196432   0.000000   0.000000
   47       15.652248     15.652247   0.000000   0.000000
   48       16.130677     16.130685   0.000000   0.000000
 
  0.0000000E+00  0.0000000E+00  0.5000000E+00  0.1250000E+00
    1      -14.232233    -14.232220   1.000000   1.000000
    2      -13.058777    -13.058759   1.000000   1.000000
    3      -12.786131    -12.786110   1.000000   1.000000
    4      -12.468264    -12.468242   1.000000   1.000000
    5      -12.282846    -12.282820   1.000000   1.000000
    6      -12.229274    -12.229249   1.000000   1.000000
    7      -12.184045    -12.184018   1.000000   1.000000
    8       -1.070808     -1.070813   1.000000   1.000000
    9       -0.952382     -0.952387   1.000000   1.000000
   10       -0.698594     -0.698598   1.000000   1.000000
   11       -0.330025     -0.330023   1.000000   1.000000
   12       -0.140592     -0.140590   1.000000   1.000000
   13        0.264641      0.264647   1.000000   1.000000
   14        0.385175      0.385179   1.000000   1.000000
   15        0.757011      0.757017   1.000000   1.000000
   16        0.898714      0.898723   1.000000   1.000000
   17        1.275849      1.275857   1.000000   1.000000
   18        1.472335      1.472348   1.000000   1.000000
   19        1.639099      1.639111   1.000000   1.000000
   20        1.686083      1.686095   1.000000   1.000000
   21        1.878558      1.878574   1.000000   1.000000
   22        1.992014      1.992027   1.000000   1.000000
   23        2.302997      2.303010   1.000000   1.000000
   24        2.515055      2.515073   1.000000   1.000000
   25        2.899717      2.899734   1.000000   1.000000
   26        2.964959      2.964978   1.000000   1.000000
   27        3.063733      3.063752   1.000000   1.000000
   28        3.121855      3.121875   1.000000   1.000000
   29        4.867429      4.867438   1.000000   1.000000
   30        7.572163      7.572150   0.000000   0.000000
   31        9.528297      9.528299   0.000000   0.000000
   32       10.350509     10.350522   0.000000   0.000000
   33       10.771189     10.771206   0.000000   0.000000
   34       11.224404     11.224440   0.000000   0.000000
   35       12.043106     12.043110   0.000000   0.000000
   36       12.304195     12.304203   0.000000   0.000000
   37       12.555026     12.555048   0.000000   0.000000
   38       12.691720     12.691734   0.000000   0.000000
   39       13.701043     13.701070   0.000000   0.000000
   40       14.008388     14.008400   0.000000   0.000000
   41       14.404016     14.404040   0.000000   0.000000
   42       14.504267     14.504291   0.000000   0.000000
   43       14.635156     14.635186   0.000000   0.000000
   44       14.883945     14.883947   0.000000   0.000000
   45       15.285382     15.285410   0.000000   0.000000
   46       15.735386     15.735394   0.000000   0.000000
   47       16.071239     16.071257   0.000000   0.000000
   48       16.312954     16.316039   0.000000   0.000000
 
  0.5000000E+00  0.0000000E+00  0.5000000E+00  0.1250000E+00
    1      -14.207067    -14.207055   1.000000   1.000000
    2      -12.897960    -12.897938   1.000000   1.000000
    3      -12.861277    -12.861258   1.000000   1.000000
    4      -12.561891    -12.561871   1.000000   1.000000
    5      -12.373437    -12.373411   1.000000   1.000000
    6      -12.288950    -12.288925   1.000000   1.000000
    7      -12.086857    -12.086830   1.000000   1.000000
    8       -0.965603     -0.965608   1.000000   1.000000
    9       -0.636798     -0.636805   1.000000   1.000000
   10       -0.564080     -0.564083   1.000000   1.000000
   11       -0.111458     -0.111462   1.000000   1.000000
   12        0.298985      0.298996   1.000000   1.000000
   13        0.394571      0.394578   1.000000   1.000000
   14        0.490276      0.490285   1.000000   1.000000
   15        0.649888      0.649897   1.000000   1.000000
   16        0.887321      0.887325   1.000000   1.000000
   17        1.032620      1.032627   1.000000   1.000000
   18        1.122579      1.122587   1.000000   1.000000
   19        1.497705      1.497713   1.000000   1.000000
   20        1.547532      1.547546   1.000000   1.000000
   21        1.763573      1.763587   1.000000   1.000000
   22        1.818173      1.818186   1.000000   1.000000
   23        2.004732      2.004741   1.000000   1.000000
   24        2.270415      2.270429   1.000000   1.000000
   25        2.777917      2.777938   1.000000   1.000000
   26        2.785625      2.785644   1.000000   1.000000
   27        2.956852      2.956873   1.000000   1.000000
   28        3.108230      3.108250   1.000000   1.000000
   29        5.423075      5.423088   1.000000   1.000000
   30        7.501794      7.501778   0.000000   0.000000
   31        8.844633      8.844629   0.000000   0.000000
   32        9.969926      9.969934   0.000000   0.000000
   33       11.281316     11.281337   0.000000   0.000000
   34       12.132476     12.132508   0.000000   0.000000
   35       12.165729     12.165750   0.000000   0.000000
   36       12.957162     12.957193   0.000000   0.000000
   37       13.053124     13.053165   0.000000   0.000000
   38       13.462472     13.462495   0.000000   0.000000
   39       13.890543     13.890558   0.000000   0.000000
   40       14.041382     14.041403   0.000000   0.000000
   41       14.156264     14.156305   0.000000   0.000000
   42       14.541520     14.541519   0.000000   0.000000
   43       14.898826     14.898846   0.000000   0.000000
   44       14.927445     14.927438   0.000000   0.000000
   45       14.959960     14.959975   0.000000   0.000000
   46       15.262173     15.262197   0.000000   0.000000
   47       16.029713     16.029721   0.000000   0.000000
   48       16.205187     16.207777   0.000000   0.000000
 
  0.0000000E+00  0.5000000E+00  0.5000000E+00  0.1250000E+00
    1      -14.206335    -14.206322   1.000000   1.000000
    2      -12.953740    -12.953721   1.000000   1.000000
    3      -12.800524    -12.800504   1.000000   1.000000
    4      -12.558608    -12.558585   1.000000   1.000000
    5      -12.356726    -12.356699   1.000000   1.000000
    6      -12.317770    -12.317747   1.000000   1.000000
    7      -12.083495    -12.083468   1.000000   1.000000
    8       -0.961050     -0.961056   1.000000   1.000000
    9       -0.629004     -0.629010   1.000000   1.000000
   10       -0.581052     -0.581055   1.000000   1.000000
   11       -0.104652     -0.104656   1.000000   1.000000
   12        0.280683      0.280693   1.000000   1.000000
   13        0.370777      0.370784   1.000000   1.000000
   14        0.532405      0.532413   1.000000   1.000000
   15        0.610560      0.610567   1.000000   1.000000
   16        0.931518      0.931527   1.000000   1.000000
   17        1.008505      1.008513   1.000000   1.000000
   18        1.126236      1.126243   1.000000   1.000000
   19        1.495778      1.495787   1.000000   1.000000
   20        1.557408      1.557422   1.000000   1.000000
   21        1.789300      1.789315   1.000000   1.000000
   22        1.806876      1.806889   1.000000   1.000000
   23        1.998999      1.999009   1.000000   1.000000
   24        2.273143      2.273158   1.000000   1.000000
   25        2.741476      2.741493   1.000000   1.000000
   26        2.835364      2.835385   1.000000   1.000000
   27        2.949898      2.949918   1.000000   1.000000
   28        3.102037      3.102056   1.000000   1.000000
   29        5.392423      5.392435   1.000000   1.000000
   30        7.531404      7.531389   0.000000   0.000000
   31        8.832817      8.832814   0.000000   0.000000
   32       10.042758     10.042769   0.000000   0.000000
   33       11.296384     11.296405   0.000000   0.000000
   34       12.135357     12.135377   0.000000   0.000000
   35       12.154455     12.154488   0.000000   0.000000
   36       12.918764     12.918795   0.000000   0.000000
   37       13.077715     13.077752   0.000000   0.000000
   38       13.484015     13.484038   0.000000   0.000000
   39       13.902649     13.902662   0.000000   0.000000
   40       13.991900     13.991920   0.000000   0.000000
   41       14.111987     14.112026   0.000000   0.000000
   42       14.361845     14.361848   0.000000   0.000000
   43       14.873214     14.873221   0.000000   0.000000
   44       15.004696     15.004711   0.000000   0.000000
   45       15.132250     15.132254   0.000000   0.000000
   46       15.249272     15.249293   0.000000   0.000000
   47       15.916238     15.916240   0.000000   0.000000
   48       16.241362     16.230885   0.000000   0.000000
 
  0.5000000E+00  0.5000000E+00  0.5000000E+00  0.1250000E+00
    1      -14.233636    -14.233624   1.000000   1.000000
    2      -13.059859    -13.059840   1.000000   1.000000
    3      -12.781066    -12.781045   1.000000   1.000000
    4      -12.464762    -12.464740   1.000000   1.000000
    5      -12.263503    -12.263477   1.000000   1.000000
    6      -12.231712    -12.231686   1.000000   1.000000
    7      -12.207195    -12.207169   1.000000   1.000000
    8       -1.020267     -1.020271   1.000000   1.000000
    9       -0.948477     -0.948481   1.000000   1.000000
   10       -0.798310     -0.798313   1.000000   1.000000
   11       -0.336244     -0.336241   1.000000   1.000000
   12       -0.104620     -0.104618   1.000000   1.000000
   13        0.273095      0.273100   1.000000   1.000000
   14        0.405609      0.405614   1.000000   1.000000
   15        0.736889      0.736894   1.000000   1.000000
   16        0.994611      0.994621   1.000000   1.000000
   17        1.279632      1.279639   1.000000   1.000000
   18        1.428845      1.428856   1.000000   1.000000
   19        1.509468      1.509477   1.000000   1.000000
   20        1.699702      1.699714   1.000000   1.000000
   21        1.863688      1.863701   1.000000   1.000000
   22        2.032077      2.032090   1.000000   1.000000
   23        2.288660      2.288674   1.000000   1.000000
   24        2.637194      2.637217   1.000000   1.000000
   25        2.917464      2.917484   1.000000   1.000000
   26        2.960391      2.960410   1.000000   1.000000
   27        3.045726      3.045747   1.000000   1.000000
   28        3.067804      3.067825   1.000000   1.000000
   29        4.785327      4.785333   1.000000   1.000000
   30        7.724726      7.724718   0.000000   0.000000
   31        9.511673      9.511677   0.000000   0.000000
   32       10.132606     10.132617   0.000000   0.000000
   33       10.896769     10.896785   0.000000   0.000000
   34       11.282096     11.282133   0.000000   0.000000
   35       12.198518     12.198521   0.000000   0.000000
   36       12.370974     12.370982   0.000000   0.000000
   37       12.665075     12.665092   0.000000   0.000000
   38       12.732045     12.732060   0.000000   0.000000
   39       13.654237     13.654255   0.000000   0.000000
   40       13.903649     13.903662   0.000000   0.000000
   41       14.258957     14.258994   0.000000   0.000000
   42       14.323210     14.323242   0.000000   0.000000
   43       14.482890     14.482900   0.000000   0.000000
   44       14.917351     14.917353   0.000000   0.000000
   45       14.966187     14.966221   0.000000   0.000000
   46       15.733927     15.733931   0.000000   0.000000
   47       16.209716     16.209734   0.000000   0.000000
   48       16.319648     16.319639   0.000000   0.000000
