 vasp.5.4.1 05Feb16 (build Mar 31 2016 13:39:20) complex                        
  
 executed on           IFC91_ompi date 2018.04.28  12:50:34
 running on   16 total cores
 distrk:  each k-point on   16 cores,    1 groups
 distr:  one band on NCORES_PER_BAND=   4 cores,    4 groups


--------------------------------------------------------------------------------------------------------


 INCAR:
 POTCAR:    PAW_PBE Mg 13Apr2007                  
 POTCAR:    PAW_PBE O 08Apr2002                   
 POTCAR:    PAW_PBE Mg 13Apr2007                  
   VRHFIN =Mg: s2p0                                                             
   LEXCH  = PE                                                                  
   EATOM  =    23.0369 eV,    1.6932 Ry                                         
                                                                                
   TITEL  = PAW_PBE Mg 13Apr2007                                                
   LULTRA =        F    use ultrasoft PP ?                                      
   IUNSCR =        1    unscreen: 0-lin 1-nonlin 2-no                           
   RPACOR =    1.500    partial core radius                                     
   POMASS =   24.305; ZVAL   =    2.000    mass and valenz                      
   RCORE  =    2.000    outmost cutoff radius                                   
   RWIGS  =    2.880; RWIGS  =    1.524    wigner-seitz radius (au A)           
   ENMAX  =  126.143; ENMIN  =   94.607 eV                                      
   RCLOC  =    1.506    cutoff for local pot                                    
   LCOR   =        T    correct aug charges                                     
   LPAW   =        T    paw PP                                                  
   EAUG   =  454.734                                                            
   DEXC   =    0.000                                                            
   RMAX   =    2.045    core radius for proj-oper                               
   RAUG   =    1.300    factor for augmentation sphere                          
   RDEP   =    2.025    radius for radial grids                                 
   RDEPT  =    1.942    core radius for aug-charge                              
                                                                                
   Atomic configuration                                                         
    6 entries                                                                   
     n  l   j            E        occ.                                          
     1  0  0.50     -1259.6230   2.0000                                         
     2  0  0.50       -79.8442   2.0000                                         
     2  1  1.50       -46.6121   6.0000                                         
     3  0  0.50        -4.7055   2.0000                                         
     3  1  0.50        -1.3660   0.0000                                         
     3  2  1.50        -1.3606   0.0000                                         
   Description                                                                  
     l       E           TYP  RCUT    TYP  RCUT                                 
     0     -4.7054661     23  2.000                                             
     0     27.2116520     23  2.000                                             
     1      1.3605826     23  2.000                                             
     1     27.2116520     23  2.000                                             
     2     -1.3605826     23  2.000                                             
  local pseudopotential read in
  partial core-charges read in
  partial kinetic energy density read in
  atomic valenz-charges read in
  non local Contribution for L=           0  read in
    real space projection operators read in
  non local Contribution for L=           0  read in
    real space projection operators read in
  non local Contribution for L=           1  read in
    real space projection operators read in
  non local Contribution for L=           1  read in
    real space projection operators read in
  non local Contribution for L=           2  read in
    real space projection operators read in
    PAW grid and wavefunctions read in
 
   number of l-projection  operators is LMAX  =           5
   number of lm-projection operators is LMMAX =          13
 
 POTCAR:    PAW_PBE O 08Apr2002                   
   VRHFIN =O: s2p4                                                              
   LEXCH  = PE                                                                  
   EATOM  =   432.3788 eV,   31.7789 Ry                                         
                                                                                
   TITEL  = PAW_PBE O 08Apr2002                                                 
   LULTRA =        F    use ultrasoft PP ?                                      
   IUNSCR =        1    unscreen: 0-lin 1-nonlin 2-no                           
   RPACOR =    1.200    partial core radius                                     
   POMASS =   16.000; ZVAL   =    6.000    mass and valenz                      
   RCORE  =    1.520    outmost cutoff radius                                   
   RWIGS  =    1.550; RWIGS  =    0.820    wigner-seitz radius (au A)           
   ENMAX  =  400.000; ENMIN  =  300.000 eV                                      
   ICORE  =        2    local potential                                         
   LCOR   =        T    correct aug charges                                     
   LPAW   =        T    paw PP                                                  
   EAUG   =  605.392                                                            
   DEXC   =    0.000                                                            
   RMAX   =    1.553    core radius for proj-oper                               
   RAUG   =    1.300    factor for augmentation sphere                          
   RDEP   =    1.550    radius for radial grids                                 
   RDEPT  =    1.329    core radius for aug-charge                              
                                                                                
   Atomic configuration                                                         
    4 entries                                                                   
     n  l   j            E        occ.                                          
     1  0  0.50      -514.6923   2.0000                                         
     2  0  0.50       -23.9615   2.0000                                         
     2  1  0.50        -9.0305   4.0000                                         
     3  2  1.50        -9.5241   0.0000                                         
   Description                                                                  
     l       E           TYP  RCUT    TYP  RCUT                                 
     0    -23.9615318     23  1.200                                             
     0     -9.5240782     23  1.200                                             
     1     -9.0304911     23  1.520                                             
     1      8.1634956     23  1.520                                             
     2     -9.5240782      7  1.500                                             
  local pseudopotential read in
  partial core-charges read in
  partial kinetic energy density read in
  kinetic energy density of atom read in
  atomic valenz-charges read in
  non local Contribution for L=           0  read in
    real space projection operators read in
  non local Contribution for L=           0  read in
    real space projection operators read in
  non local Contribution for L=           1  read in
    real space projection operators read in
  non local Contribution for L=           1  read in
    real space projection operators read in
    PAW grid and wavefunctions read in
 
   number of l-projection  operators is LMAX  =           4
   number of lm-projection operators is LMMAX =           8
 
 Optimization of the real space projectors (new method)

 maximal supplied QI-value         = 18.90
 optimisation between [QCUT,QGAM] = [ 10.20, 20.41] = [ 29.16,116.64] Ry 
 Optimized for a Real-space Cutoff    1.30 Angstroem

   l    n(q)    QCUT    max X(q) W(low)/X(q) W(high)/X(q)  e(spline) 
   0      8    10.205    28.265    0.22E-03    0.17E-03    0.53E-07
   0      8    10.205    10.429    0.17E-03    0.15E-03    0.43E-07
   1      7    10.205    13.073    0.71E-04    0.41E-03    0.76E-07
   1      7    10.205     9.625    0.71E-04    0.33E-03    0.63E-07
   2      7    10.205     4.652    0.24E-03    0.41E-03    0.55E-07
 Optimization of the real space projectors (new method)

 maximal supplied QI-value         = 24.76
 optimisation between [QCUT,QGAM] = [ 10.15, 20.30] = [ 28.85,115.39] Ry 
 Optimized for a Real-space Cutoff    1.38 Angstroem

   l    n(q)    QCUT    max X(q) W(low)/X(q) W(high)/X(q)  e(spline) 
   0      8    10.150    20.381    0.22E-03    0.32E-03    0.29E-06
   0      8    10.150    15.268    0.23E-03    0.35E-03    0.30E-06
   1      8    10.150     5.964    0.46E-03    0.53E-03    0.21E-06
   1      8    10.150     5.382    0.38E-03    0.45E-03    0.19E-06
  PAW_PBE Mg 13Apr2007                  :
 energy of atom  1       EATOM=  -23.0369
 kinetic energy error for atom=    0.0001 (will be added to EATOM!!)
  PAW_PBE O 08Apr2002                   :
 energy of atom  2       EATOM= -432.3788
 kinetic energy error for atom=    0.1156 (will be added to EATOM!!)
 
 
 POSCAR: Mg9 O7                                  
  positions in direct lattice
  velocities in cartesian coordinates
 exchange correlation table for  LEXCH =        8
   RHO(1)=    0.500       N(1)  =     2000
   RHO(2)=  100.500       N(2)  =     4000
 


--------------------------------------------------------------------------------------------------------


 ion  position               nearest neighbor table
   1  0.300  0.346  0.202-   8 2.01  11 2.16   5 2.25  13 2.38   7 2.38   4 2.39  12 2.39   6 2.51
                            14 2.63   3 2.74   9 3.17   2 3.17   9 3.45   2 3.46
   2  0.990  0.984  0.011-  10 2.12  14 2.12  15 2.13  13 2.13  12 2.13  11 2.14   6 2.97   3 2.98
                             7 2.99   4 3.00   4 3.01   5 3.01   5 3.02   7 3.02   3 3.03   6 3.03
   3  0.001  0.002  0.501-  16 1.95  14 2.23  12 2.31  13 2.31  11 2.35   1 2.74   5 2.96   9 2.98
                             2 2.98   7 2.99   4 2.99   6 3.00   6 3.01   4 3.02   7 3.03   2 3.03
   4  0.977  0.499  0.993-  16 2.01  12 2.11  15 2.13  10 2.13  13 2.16   1 2.39   8 2.51   5 2.74
                             6 2.87   9 2.99   3 2.99   2 3.00   2 3.01   9 3.02   3 3.02   6 3.14
   5  0.963  0.510  0.539-  16 1.97  11 2.10  15 2.10  14 2.10  10 2.10   1 2.25   8 2.41   7 2.74
                             4 2.74   3 2.96   9 3.01   2 3.01   2 3.02   9 3.02   3 3.06   4 3.27
   6  0.503  0.980  0.000-  16 2.02  14 2.12  15 2.16  10 2.16  11 2.23   1 2.51   8 2.61   4 2.87
                             7 2.87   2 2.97   9 2.97   3 3.00   3 3.01   9 3.03   2 3.03   7 3.14
   7  0.509  0.967  0.525-  16 2.01  13 2.11  10 2.13  15 2.13  12 2.17   1 2.38   8 2.51   5 2.74
                             6 2.87   3 2.99   2 2.99   9 3.00   9 3.01   2 3.02   3 3.03   6 3.14
   8  0.564  0.551  0.938-  16 1.82   1 2.01  12 2.04  13 2.04  14 2.04  11 2.07   5 2.41   7 2.51
                             4 2.51   6 2.61   9 3.04   2 3.04   2 3.08   9 3.09   6 3.45   4 3.53
   9  0.491  0.482  0.513-  14 2.12  10 2.12  15 2.12  12 2.13  13 2.13  11 2.14   6 2.97   3 2.98
                             4 2.99   7 3.00   5 3.01   7 3.01   5 3.02   4 3.02   6 3.03   3 3.04
  10  0.238  0.235  0.756-   5 2.10   2 2.12   9 2.12   7 2.13   4 2.13   6 2.16
  11  0.255  0.703  0.248-   8 2.07   5 2.10   2 2.14   9 2.14   1 2.16   6 2.23   3 2.35
  12  0.258  0.708  0.786-   8 2.04   4 2.11   9 2.13   2 2.13   7 2.17   3 2.31   1 2.39
  13  0.716  0.251  0.244-   8 2.04   7 2.11   2 2.13   9 2.13   4 2.16   3 2.31   1 2.38
  14  0.728  0.252  0.775-   8 2.04   5 2.10   6 2.12   9 2.12   2 2.12   3 2.23   1 2.63
  15  0.746  0.727  0.265-   5 2.10   9 2.12   7 2.13   2 2.13   4 2.13   6 2.16
  16  0.769  0.774  0.733-   8 1.82   3 1.95   5 1.97   7 2.01   4 2.01   6 2.02
 
  LATTYP: Found a face centered cubic cell.
 ALAT       =     8.4937860000
  
  Lattice vectors:
  
 A1 = (   0.0000000000,   4.2468930000,   4.2468930000)
 A2 = (   4.2468930000,   0.0000000000,   4.2468930000)
 A3 = (   4.2468930000,   4.2468930000,   0.0000000000)


Analysis of symmetry for initial positions (statically):
=====================================================================
 Subroutine PRICEL returns:
 Original cell was already a primitive cell.
 

 Routine SETGRP: Setting up the symmetry group for a 
 face centered cubic supercell.


 Subroutine GETGRP returns: Found  1 space group operations
 (whereof  1 operations were pure point group operations)
 out of a pool of 48 trial point group operations.


The static configuration has the point symmetry C_1 .


Analysis of symmetry for dynamics (positions and initial velocities):
=====================================================================
 Subroutine PRICEL returns:
 Original cell was already a primitive cell.
 

 Routine SETGRP: Setting up the symmetry group for a 
 face centered cubic supercell.


 Subroutine GETGRP returns: Found  1 space group operations
 (whereof  1 operations were pure point group operations)
 out of a pool of 48 trial point group operations.


The dynamic configuration has the point symmetry C_1 .


Analysis of structural, dynamic, and magnetic symmetry:
=====================================================================
 Subroutine PRICEL returns:
 Original cell was already a primitive cell.
 

 Routine SETGRP: Setting up the symmetry group for a 
 face centered cubic supercell.


 Subroutine GETGRP returns: Found  1 space group operations
 (whereof  1 operations were pure point group operations)
 out of a pool of 48 trial point group operations.


The magnetic configuration has the point symmetry C_1 .


 Subroutine INISYM returns: Found  1 space group operations
 (whereof  1 operations are pure point group operations),
 and found     1 'primitive' translations

 
 
 KPOINTS: k-point mesh                            

Automatic generation of k-mesh.
Space group operators:
 irot       det(A)        alpha          n_x          n_y          n_z        tau_x        tau_y        tau_z
    1     1.000000     0.000000     1.000000     0.000000     0.000000     0.000000     0.000000     0.000000
 
 Subroutine IBZKPT returns following result:
 ===========================================
 
 Found      8 irreducible k-points:
 
 Following reciprocal coordinates:
            Coordinates               Weight
  0.000000  0.000000  0.000000      1.000000
  0.500000  0.000000  0.000000      1.000000
  0.000000  0.500000  0.000000      1.000000
  0.500000  0.500000  0.000000      1.000000
  0.000000  0.000000  0.500000      1.000000
  0.500000  0.000000  0.500000      1.000000
  0.000000  0.500000  0.500000      1.000000
  0.500000  0.500000  0.500000      1.000000
 
 Following cartesian coordinates:
            Coordinates               Weight
  0.000000  0.000000  0.000000      1.000000
 -0.058867  0.058867  0.058867      1.000000
  0.058867 -0.058867  0.058867      1.000000
  0.000000  0.000000  0.117733      1.000000
  0.058867  0.058867 -0.058867      1.000000
  0.000000  0.117733  0.000000      1.000000
  0.117733  0.000000  0.000000      1.000000
  0.058867  0.058867  0.058867      1.000000
 


--------------------------------------------------------------------------------------------------------




 Dimension of arrays:
   k-points           NKPTS =      8   k-points in BZ     NKDIM =      8   number of bands    NBANDS=     48
   number of dos      NEDOS =    301   number of ions     NIONS =     16
   non local maximal  LDIM  =      5   non local SUM 2l+1 LMDIM =     13
   total plane-waves  NPLWV =  27000
   max r-space proj   IRMAX =   1992   max aug-charges    IRDMAX=   7686
   dimension x,y,z NGX =    30 NGY =   30 NGZ =   30
   dimension x,y,z NGXF=    60 NGYF=   60 NGZF=   60
   support grid    NGXF=    60 NGYF=   60 NGZF=   60
   ions per type =               9   7
 NGX,Y,Z   is equivalent  to a cutoff of   8.30,  8.30,  8.30 a.u.
 NGXF,Y,Z  is equivalent  to a cutoff of  16.61, 16.61, 16.61 a.u.


 I would recommend the setting:
   dimension x,y,z NGX =    29 NGY =   29 NGZ =   29
 SYSTEM =  unknown system                          
 POSCAR =  Mg9 O7                                  

 Startparameter for this run:
   NWRITE =      2    write-flag & timer
   PREC   = n         normal or accurate (medium, high low for compatibility)
   ISTART =      0    job   : 0-new  1-cont  2-samecut
   ICHARG =      2    charge: 1-file 2-atom 10-const
   ISPIN  =      2    spin polarized calculation?
   LNONCOLLINEAR =      F non collinear calculations
   LSORBIT =      F    spin-orbit coupling
   INIWAV =      1    electr: 0-lowe 1-rand  2-diag
   LASPH  =      T    aspherical Exc in radial PAW
   METAGGA=      F    non-selfconsistent MetaGGA calc.

 Electronic Relaxation 1
   ENCUT  =  400.0 eV  29.40 Ry    5.42 a.u.   9.79  9.79  9.79*2*pi/ulx,y,z
   ENINI  =  400.0     initial cutoff
   ENAUG  =  605.4 eV  augmentation charge cutoff
   NELM   =    100;   NELMIN=  4; NELMDL=  0     # of ELM steps 
   EDIFF  = 0.1E-05   stopping-criterion for ELM
   LREAL  =      T    real-space projection
   NLSPLINE    = F    spline interpolate recip. space projectors
   LCOMPAT=      F    compatible to vasp.4.4
   GGA_COMPAT  = T    GGA compatible to vasp.4.4-vasp.4.6
   LMAXPAW     = -100 max onsite density
   LMAXMIX     =    2 max onsite mixed and CHGCAR
   VOSKOWN=      0    Vosko Wilk Nusair interpolation
   ROPT   =   -0.00050  -0.00050
 Ionic relaxation
   EDIFFG = -.5E-01   stopping-criterion for IOM
   NSW    =     20    number of steps for IOM
   NBLOCK =      1;   KBLOCK =     20    inner block; outer block 
   IBRION =      2    ionic relax: 0-MD 1-quasi-New 2-CG
   NFREE  =      1    steps in history (QN), initial steepest desc. (CG)
   ISIF   =      2    stress and relaxation
   IWAVPR =     11    prediction:  0-non 1-charg 2-wave 3-comb
   ISYM   =      2    0-nonsym 1-usesym 2-fastsym
   LCORR  =      T    Harris-Foulkes like correction to forces

   POTIM  = 0.5000    time-step for ionic-motion
   TEIN   =    0.0    initial temperature
   TEBEG  =    0.0;   TEEND  =   0.0 temperature during run
   SMASS  =  -3.00    Nose mass-parameter (am)
   estimated Nose-frequenzy (Omega)   =  0.10E-29 period in steps =****** mass=  -0.824E-27a.u.
   SCALEE = 1.0000    scale energy and forces
   NPACO  =    256;   APACO  = 16.0  distance and # of slots for P.C.
   PSTRESS=    0.0 pullay stress

  Mass of Ions in am
   POMASS =  24.30 16.00
  Ionic Valenz
   ZVAL   =   2.00  6.00
  Atomic Wigner-Seitz radii
   RWIGS  =  -1.00 -1.00
  virtual crystal weights 
   VCA    =   1.00  1.00
   NELECT =      58.0000    total number of electrons
   NUPDOWN=      -1.0000    fix difference up-down

 DOS related values:
   EMIN   =  10.00;   EMAX   =-10.00  energy-range for DOS
   EFERMI =   0.00
   ISMEAR =     0;   SIGMA  =   0.05  broadening in eV -4-tet -1-fermi 0-gaus

 Electronic relaxation 2 (details)
   IALGO  =     38    algorithm
   LDIAG  =      T    sub-space diagonalisation (order eigenvalues)
   LSUBROT=      F    optimize rotation matrix (better conditioning)
   TURBO    =      0    0=normal 1=particle mesh
   IRESTART =      0    0=no restart 2=restart with 2 vectors
   NREBOOT  =      0    no. of reboots
   NMIN     =      0    reboot dimension
   EREF     =   0.00    reference energy to select bands
   IMIX   =      4    mixing-type and parameters
     AMIX     =   0.40;   BMIX     =  1.00
     AMIX_MAG =   1.60;   BMIX_MAG =  1.00
     AMIN     =   0.10
     WC   =   100.;   INIMIX=   1;  MIXPRE=   1;  MAXMIX= -45

 Intra band minimization:
   WEIMIN = 0.0010     energy-eigenvalue tresh-hold
   EBREAK =  0.52E-08  absolut break condition
   DEPER  =   0.30     relativ break condition  

   TIME   =   0.40     timestep for ELM

  volume/ion in A,a.u.               =       9.57        64.61
  Fermi-wavevector in a.u.,A,eV,Ry     =   1.184321  2.238043 19.083760  1.402617
  Thomas-Fermi vector in A             =   2.320538
 
 Write flags
   LWAVE  =      F    write WAVECAR
   LCHARG =      F    write CHGCAR
   LVTOT  =      F    write LOCPOT, total local potential
   LVHAR  =      F    write LOCPOT, Hartree potential only
   LELF   =      F    write electronic localiz. function (ELF)
   LORBIT =     12    0 simple, 1 ext, 2 COOP (PROOUT)


 Dipole corrections
   LMONO  =      F    monopole corrections only (constant potential shift)
   LDIPOL =      F    correct potential (dipole corrections)
   IDIPOL =      0    1-x, 2-y, 3-z, 4-all directions 
   EPSILON=  1.0000000 bulk dielectric constant

 Exchange correlation treatment:
   GGA     =    --    GGA type
   LEXCH   =     8    internal setting for exchange type
   VOSKOWN=      0    Vosko Wilk Nusair interpolation
   LHFCALC =     F    Hartree Fock is set to
   LHFONE  =     F    Hartree Fock one center treatment
   AEXX    =    0.0000 exact exchange contribution

 Linear response parameters
   LEPSILON=     F    determine dielectric tensor
   LRPA    =     F    only Hartree local field effects (RPA)
   LNABLA  =     F    use nabla operator in PAW spheres
   LVEL    =     F    velocity operator in full k-point grid
   LINTERFAST=   F  fast interpolation
   KINTER  =     0    interpolate to denser k-point grid
   CSHIFT  =0.1000    complex shift for real part using Kramers Kronig
   OMEGAMAX=  -1.0    maximum frequency
   DEG_THRESHOLD= 0.2000000E-02 threshold for treating states as degnerate
   RTIME   =    0.100 relaxation time in fs

 Orbital magnetization related:
   ORBITALMAG=     F  switch on orbital magnetization
   LCHIMAG   =     F  perturbation theory with respect to B field
   DQ        =  0.001000  dq finite difference perturbation B field



--------------------------------------------------------------------------------------------------------


 conjugate gradient relaxation of ions
 charge density and potential will be updated during run
 spin polarized calculation
 Variant of blocked Davidson
 Davidson routine will perform the subspace rotation
 perform sub-space diagonalisation
    after iterative eigenvector-optimisation
 modified Broyden-mixing scheme, WC =      100.0
 initial mixing is a Kerker type mixing with AMIX =  0.4000 and BMIX =      1.0000
 Hartree-type preconditioning will be used
 using additional bands           19
 real space projection scheme for non local part
 use partial core corrections
 calculate Harris-corrections to forces 
   (improved forces if not selfconsistent)
 use gradient corrections 
 use of overlap-Matrix (Vanderbilt PP)
 Gauss-broadening in eV      SIGMA  =   0.05


--------------------------------------------------------------------------------------------------------


  energy-cutoff  :      400.00
  volume of cell :      153.19
      direct lattice vectors                 reciprocal lattice vectors
     0.000000000  4.246893000  4.246893000    -0.117733129  0.117733129  0.117733129
     4.246893000  0.000000000  4.246893000     0.117733129 -0.117733129  0.117733129
     4.246893000  4.246893000  0.000000000     0.117733129  0.117733129 -0.117733129

  length of vectors
     6.006013679  6.006013679  6.006013679     0.203919761  0.203919761  0.203919761


 
 k-points in units of 2pi/SCALE and weight: k-point mesh                            
   0.00000000  0.00000000  0.00000000       0.125
  -0.05886656  0.05886656  0.05886656       0.125
   0.05886656 -0.05886656  0.05886656       0.125
   0.00000000  0.00000000  0.11773313       0.125
   0.05886656  0.05886656 -0.05886656       0.125
   0.00000000  0.11773313  0.00000000       0.125
   0.11773313  0.00000000  0.00000000       0.125
   0.05886656  0.05886656  0.05886656       0.125
 
 k-points in reciprocal lattice and weights: k-point mesh                            
   0.00000000  0.00000000  0.00000000       0.125
   0.50000000  0.00000000  0.00000000       0.125
   0.00000000  0.50000000  0.00000000       0.125
   0.50000000  0.50000000  0.00000000       0.125
   0.00000000  0.00000000  0.50000000       0.125
   0.50000000  0.00000000  0.50000000       0.125
   0.00000000  0.50000000  0.50000000       0.125
   0.50000000  0.50000000  0.50000000       0.125
 
 position of ions in fractional coordinates (direct lattice) 
   0.30049140  0.34565132  0.20229103
   0.99029246  0.98383131  0.01111488
   0.00138838  0.00160287  0.50112916
   0.97704898  0.49919998  0.99328306
   0.96327017  0.51038894  0.53901021
   0.50290971  0.97950785  0.00045374
   0.50931265  0.96702940  0.52541376
   0.56419473  0.55076809  0.93797749
   0.49134135  0.48173607  0.51290313
   0.23809098  0.23516712  0.75640097
   0.25468785  0.70279105  0.24793481
   0.25826359  0.70811720  0.78615806
   0.71619543  0.25050976  0.24389864
   0.72751002  0.25154549  0.77525905
   0.74598089  0.72720935  0.26492632
   0.76913439  0.77417618  0.73333869
 
 position of ions in cartesian coordinates  (Angst):
   2.32705253  2.13526318  2.74409902
   4.22543001  4.25286981  8.38389244
   2.13504915  2.13413821  0.01270352
   6.33841578  8.36778935  6.26947138
   4.45668589  6.38002404  6.25847256
   4.16179202  2.13773075  6.29566877
   6.33824642  4.39437233  6.26986672
   6.32254320  6.37956471  4.73512781
   4.22412627  4.26491884  4.13255570
   4.21108355  4.22350088  2.00987649
   4.03763104  2.13458468  4.06631046
   6.34602716  4.43554702  4.10411583
   2.09969957  4.07741678  4.10549352
   4.36072901  6.38209946  4.15794401
   4.21349406  4.29321479  6.25648135
   6.40225435  6.38084241  6.55427483
 


--------------------------------------------------------------------------------------------------------


 k-point  1 :   0.0000 0.0000 0.0000  plane waves:    2733
 k-point  2 :   0.5000 0.0000 0.0000  plane waves:    2788
 k-point  3 :   0.0000 0.5000 0.0000  plane waves:    2788
 k-point  4 :   0.5000 0.5000 0.0000  plane waves:    2778
 k-point  5 :   0.0000 0.0000 0.5000  plane waves:    2788
 k-point  6 :   0.5000 0.0000 0.5000  plane waves:    2778
 k-point  7 :   0.0000 0.5000 0.5000  plane waves:    2778
 k-point  8 :   0.5000 0.5000 0.5000  plane waves:    2788

 maximum and minimum number of plane-waves per node :       715      668

 maximum number of plane-waves:      2788
 maximum index in each direction: 
   IXMAX=    9   IYMAX=    9   IZMAX=    9
   IXMIN=  -10   IYMIN=  -10   IZMIN=  -10

 WARNING: aliasing errors must be expected set NGX to  40 to avoid them
 WARNING: aliasing errors must be expected set NGY to  40 to avoid them
 WARNING: aliasing errors must be expected set NGZ to  40 to avoid them
 aliasing errors are usually negligible using standard VASP settings
 and one can safely disregard these warnings

 real space projection operators:
  total allocation   :       2263.98 KBytes
  max/ min on nodes  :        605.22        528.94


 parallel 3D FFT for wavefunctions:
    minimum data exchange during FFTs selected (reduces bandwidth)
 parallel 3D FFT for charge:
    minimum data exchange during FFTs selected (reduces bandwidth)


 total amount of memory used by VASP on root node    36162. kBytes
========================================================================

   base      :      30000. kBytes
   nonlr-proj:       1277. kBytes
   fftplans  :        708. kBytes
   grid      :       1766. kBytes
   one-center:         64. kBytes
   wavefun   :       2347. kBytes
 
     INWAV:  cpu time    0.0000: real time    0.0004
 Broyden mixing: mesh for mixing (old mesh)
   NGX = 19   NGY = 19   NGZ = 19
  (NGX  = 60   NGY  = 60   NGZ  = 60)
  gives a total of   6859 points

 initial charge density was supplied:
 charge density of overlapping atoms calculated
 number of electron      60.0000000 magnetization      16.0000000
 keeping initial charge density in first step


--------------------------------------------------------------------------------------------------------


 Maximum index for non-local projection operator          529
 Maximum index for augmentation-charges          586 (set IRDMAX)


--------------------------------------------------------------------------------------------------------


 First call to EWALD:  gamma=   0.331
 Maximum number of real-space cells 3x 3x 3
 Maximum number of reciprocal cells 3x 3x 3

 FEWALD executed in parallel
    FEWALD:  cpu time    0.0000: real time    0.0017


----------------------------------------- Iteration    1(   1)  ---------------------------------------


    POTLOK:  cpu time    0.0200: real time    0.0210
    SETDIJ:  cpu time    0.6760: real time    0.6747
     EDDAV:  cpu time    0.5320: real time    0.5332
       DOS:  cpu time    0.0000: real time    0.0005
    --------------------------------------------
      LOOP:  cpu time    1.2320: real time    1.2407

 eigenvalue-minimisations  :  1608
 total energy-change (2. order) : 0.2199587E+03  (-0.2418424E+04)
 number of electron      60.0000000 magnetization      16.0000000
 augmentation part       60.0000000 magnetization      16.0000000

 Free energy of the ion-electron system (eV)
  ---------------------------------------------------
  alpha Z        PSCENC =       142.81396753
  Ewald energy   TEWEN  =     -2459.87988882
  -Hartree energ DENC   =      -965.78686594
  -exchange      EXHF   =         0.00000000
  -V(xc)+E(xc)   XCENC  =      -236.29001874
  PAW double counting   =      3011.45132117    -2557.24446474
  entropy T*S    EENTRO =        -0.00083080
  eigenvalues    EBANDS =        51.72213787
  atomic energy  EATOM  =      3233.17333345
  Solvation  Ediel_sol  =         0.00000000
  ---------------------------------------------------
  free energy    TOTEN  =       219.95869099 eV

  energy without entropy =      219.95952179  energy(sigma->0) =      219.95910639


--------------------------------------------------------------------------------------------------------




----------------------------------------- Iteration    1(   2)  ---------------------------------------


     EDDAV:  cpu time    0.6040: real time    0.6049
       DOS:  cpu time    0.0000: real time    0.0002
    --------------------------------------------
      LOOP:  cpu time    0.6040: real time    0.6091

 eigenvalue-minimisations  :  1968
 total energy-change (2. order) :-0.2969075E+03  (-0.2871027E+03)
 number of electron      60.0000000 magnetization      16.0000000
 augmentation part       60.0000000 magnetization      16.0000000

 Free energy of the ion-electron system (eV)
  ---------------------------------------------------
  alpha Z        PSCENC =       142.81396753
  Ewald energy   TEWEN  =     -2459.87988882
  -Hartree energ DENC   =      -965.78686594
  -exchange      EXHF   =         0.00000000
  -V(xc)+E(xc)   XCENC  =      -236.29001874
  PAW double counting   =      3011.45132117    -2557.24446474
  entropy T*S    EENTRO =        -0.00000000
  eigenvalues    EBANDS =      -245.18621793
  atomic energy  EATOM  =      3233.17333345
  Solvation  Ediel_sol  =         0.00000000
  ---------------------------------------------------
  free energy    TOTEN  =       -76.94883401 eV

  energy without entropy =      -76.94883401  energy(sigma->0) =      -76.94883401


--------------------------------------------------------------------------------------------------------




----------------------------------------- Iteration    1(   3)  ---------------------------------------


     EDDAV:  cpu time    0.6000: real time    0.6001
       DOS:  cpu time    0.0000: real time    0.0003
    --------------------------------------------
      LOOP:  cpu time    0.6000: real time    0.6031

 eigenvalue-minimisations  :  1896
 total energy-change (2. order) :-0.1669249E+02  (-0.1660370E+02)
 number of electron      60.0000000 magnetization      16.0000000
 augmentation part       60.0000000 magnetization      16.0000000

 Free energy of the ion-electron system (eV)
  ---------------------------------------------------
  alpha Z        PSCENC =       142.81396753
  Ewald energy   TEWEN  =     -2459.87988882
  -Hartree energ DENC   =      -965.78686594
  -exchange      EXHF   =         0.00000000
  -V(xc)+E(xc)   XCENC  =      -236.29001874
  PAW double counting   =      3011.45132117    -2557.24446474
  entropy T*S    EENTRO =        -0.00000000
  eigenvalues    EBANDS =      -261.87870877
  atomic energy  EATOM  =      3233.17333345
  Solvation  Ediel_sol  =         0.00000000
  ---------------------------------------------------
  free energy    TOTEN  =       -93.64132485 eV

  energy without entropy =      -93.64132485  energy(sigma->0) =      -93.64132485


--------------------------------------------------------------------------------------------------------




----------------------------------------- Iteration    1(   4)  ---------------------------------------


     EDDAV:  cpu time    0.5560: real time    0.5570
       DOS:  cpu time    0.0000: real time    0.0002
    --------------------------------------------
      LOOP:  cpu time    0.5560: real time    0.5602

 eigenvalue-minimisations  :  1784
 total energy-change (2. order) :-0.9705864E-01  (-0.9701699E-01)
 number of electron      60.0000000 magnetization      16.0000000
 augmentation part       60.0000000 magnetization      16.0000000

 Free energy of the ion-electron system (eV)
  ---------------------------------------------------
  alpha Z        PSCENC =       142.81396753
  Ewald energy   TEWEN  =     -2459.87988882
  -Hartree energ DENC   =      -965.78686594
  -exchange      EXHF   =         0.00000000
  -V(xc)+E(xc)   XCENC  =      -236.29001874
  PAW double counting   =      3011.45132117    -2557.24446474
  entropy T*S    EENTRO =        -0.00000000
  eigenvalues    EBANDS =      -261.97576742
  atomic energy  EATOM  =      3233.17333345
  Solvation  Ediel_sol  =         0.00000000
  ---------------------------------------------------
  free energy    TOTEN  =       -93.73838349 eV

  energy without entropy =      -93.73838349  energy(sigma->0) =      -93.73838349


--------------------------------------------------------------------------------------------------------




----------------------------------------- Iteration    1(   5)  ---------------------------------------


     EDDAV:  cpu time    0.5840: real time    0.5839
       DOS:  cpu time    0.0000: real time    0.0002
    CHARGE:  cpu time    0.0200: real time    0.0208
    MIXING:  cpu time    0.0000: real time    0.0007
    --------------------------------------------
      LOOP:  cpu time    0.6040: real time    0.6090

 eigenvalue-minimisations  :  1888
 total energy-change (2. order) :-0.4957291E-03  (-0.4956968E-03)
 number of electron      57.9999976 magnetization       0.0909435
 augmentation part        5.5190662 magnetization       0.1378985

 Broyden mixing:
  rms(total) = 0.27054E+01    rms(broyden)= 0.27000E+01
  rms(prec ) = 0.44375E+01
  weight for this iteration     100.00

 Free energy of the ion-electron system (eV)
  ---------------------------------------------------
  alpha Z        PSCENC =       142.81396753
  Ewald energy   TEWEN  =     -2459.87988882
  -Hartree energ DENC   =      -965.78686594
  -exchange      EXHF   =         0.00000000
  -V(xc)+E(xc)   XCENC  =      -236.29001874
  PAW double counting   =      3011.45132117    -2557.24446474
  entropy T*S    EENTRO =        -0.00000000
  eigenvalues    EBANDS =      -261.97626315
  atomic energy  EATOM  =      3233.17333345
  Solvation  Ediel_sol  =         0.00000000
  ---------------------------------------------------
  free energy    TOTEN  =       -93.73887922 eV

  energy without entropy =      -93.73887922  energy(sigma->0) =      -93.73887922


--------------------------------------------------------------------------------------------------------




----------------------------------------- Iteration    1(   6)  ---------------------------------------


    POTLOK:  cpu time    0.0200: real time    0.0205
    SETDIJ:  cpu time    0.6760: real time    0.6771
     EDDAV:  cpu time    0.5640: real time    0.5646
       DOS:  cpu time    0.0000: real time    0.0003
    CHARGE:  cpu time    0.0200: real time    0.0214
    MIXING:  cpu time    0.0040: real time    0.0005
    --------------------------------------------
      LOOP:  cpu time    1.2880: real time    1.2877

 eigenvalue-minimisations  :  1776
 total energy-change (2. order) : 0.3485738E+01  (-0.3313570E+01)
 number of electron      57.9999980 magnetization       0.0064401
 augmentation part        4.5968090 magnetization      -0.1046907

 Broyden mixing:
  rms(total) = 0.75585E+00    rms(broyden)= 0.75466E+00
  rms(prec ) = 0.10452E+01
  weight for this iteration     100.00

 eigenvalues of (default mixing * dielectric matrix)
  average eigenvalue GAMMA=   0.8311
  0.8311

 Free energy of the ion-electron system (eV)
  ---------------------------------------------------
  alpha Z        PSCENC =       142.81396753
  Ewald energy   TEWEN  =     -2459.87988882
  -Hartree energ DENC   =     -1096.37385785
  -exchange      EXHF   =         0.00000000
  -V(xc)+E(xc)   XCENC  =      -236.07028727
  PAW double counting   =      3538.64221986    -3086.61583939
  entropy T*S    EENTRO =        -0.00000000
  eigenvalues    EBANDS =      -125.94278909
  atomic energy  EATOM  =      3233.17333345
  Solvation  Ediel_sol  =         0.00000000
  ---------------------------------------------------
  free energy    TOTEN  =       -90.25314159 eV

  energy without entropy =      -90.25314159  energy(sigma->0) =      -90.25314159


--------------------------------------------------------------------------------------------------------




----------------------------------------- Iteration    1(   7)  ---------------------------------------


    POTLOK:  cpu time    0.0200: real time    0.0218
    SETDIJ:  cpu time    0.6760: real time    0.6772
     EDDAV:  cpu time    0.5640: real time    0.5612
       DOS:  cpu time    0.0000: real time    0.0002
    CHARGE:  cpu time    0.0200: real time    0.0208
    MIXING:  cpu time    0.0000: real time    0.0006
    --------------------------------------------
      LOOP:  cpu time    1.2800: real time    1.2852

 eigenvalue-minimisations  :  1784
 total energy-change (2. order) :-0.1437088E+00  (-0.1264714E+00)
 number of electron      57.9999980 magnetization      -0.0028823
 augmentation part        4.5949669 magnetization      -0.0140892

 Broyden mixing:
  rms(total) = 0.38955E+00    rms(broyden)= 0.38948E+00
  rms(prec ) = 0.61288E+00
  weight for this iteration     100.00

 eigenvalues of (default mixing * dielectric matrix)
  average eigenvalue GAMMA=   0.9711
  0.9711  0.9711

 Free energy of the ion-electron system (eV)
  ---------------------------------------------------
  alpha Z        PSCENC =       142.81396753
  Ewald energy   TEWEN  =     -2459.87988882
  -Hartree energ DENC   =     -1097.72082766
  -exchange      EXHF   =         0.00000000
  -V(xc)+E(xc)   XCENC  =      -235.87414278
  PAW double counting   =      3714.33804081    -3262.09101973
  entropy T*S    EENTRO =        -0.00000000
  eigenvalues    EBANDS =      -125.15631324
  atomic energy  EATOM  =      3233.17333345
  Solvation  Ediel_sol  =         0.00000000
  ---------------------------------------------------
  free energy    TOTEN  =       -90.39685042 eV

  energy without entropy =      -90.39685042  energy(sigma->0) =      -90.39685042


--------------------------------------------------------------------------------------------------------




----------------------------------------- Iteration    1(   8)  ---------------------------------------


    POTLOK:  cpu time    0.0240: real time    0.0217
    SETDIJ:  cpu time    0.6760: real time    0.6772
     EDDAV:  cpu time    0.5840: real time    0.5822
       DOS:  cpu time    0.0000: real time    0.0002
    CHARGE:  cpu time    0.0200: real time    0.0207
    MIXING:  cpu time    0.0000: real time    0.0006
    --------------------------------------------
      LOOP:  cpu time    1.3040: real time    1.3062

 eigenvalue-minimisations  :  1872
 total energy-change (2. order) : 0.9020576E-01  (-0.1599652E-01)
 number of electron      57.9999980 magnetization      -0.0023611
 augmentation part        4.6172047 magnetization      -0.0028954

 Broyden mixing:
  rms(total) = 0.15024E+00    rms(broyden)= 0.15022E+00
  rms(prec ) = 0.23560E+00
  weight for this iteration     100.00

 eigenvalues of (default mixing * dielectric matrix)
  average eigenvalue GAMMA=   1.2575
  2.0479  0.9015  0.8232

 Free energy of the ion-electron system (eV)
  ---------------------------------------------------
  alpha Z        PSCENC =       142.81396753
  Ewald energy   TEWEN  =     -2459.87988882
  -Hartree energ DENC   =     -1101.77358513
  -exchange      EXHF   =         0.00000000
  -V(xc)+E(xc)   XCENC  =      -235.21998127
  PAW double counting   =      3914.85026734    -3462.41914867
  entropy T*S    EENTRO =        -0.00000000
  eigenvalues    EBANDS =      -121.85160910
  atomic energy  EATOM  =      3233.17333345
  Solvation  Ediel_sol  =         0.00000000
  ---------------------------------------------------
  free energy    TOTEN  =       -90.30664466 eV

  energy without entropy =      -90.30664466  energy(sigma->0) =      -90.30664466


--------------------------------------------------------------------------------------------------------




----------------------------------------- Iteration    1(   9)  ---------------------------------------


    POTLOK:  cpu time    0.0200: real time    0.0205
    SETDIJ:  cpu time    0.6800: real time    0.6777
     EDDAV:  cpu time    0.6040: real time    0.6061
       DOS:  cpu time    0.0000: real time    0.0003
    CHARGE:  cpu time    0.0200: real time    0.0207
    MIXING:  cpu time    0.0000: real time    0.0006
    --------------------------------------------
      LOOP:  cpu time    1.3240: real time    1.3291

 eigenvalue-minimisations  :  1976
 total energy-change (2. order) : 0.5272107E-02  (-0.4120775E-02)
 number of electron      57.9999980 magnetization      -0.0006012
 augmentation part        4.6088865 magnetization       0.0011736

 Broyden mixing:
  rms(total) = 0.49560E-01    rms(broyden)= 0.49550E-01
  rms(prec ) = 0.56808E-01
  weight for this iteration     100.00

 eigenvalues of (default mixing * dielectric matrix)
  average eigenvalue GAMMA=   1.2505
  2.4292  0.9603  0.9603  0.6520

 Free energy of the ion-electron system (eV)
  ---------------------------------------------------
  alpha Z        PSCENC =       142.81396753
  Ewald energy   TEWEN  =     -2459.87988882
  -Hartree energ DENC   =     -1106.83359453
  -exchange      EXHF   =         0.00000000
  -V(xc)+E(xc)   XCENC  =      -234.62675287
  PAW double counting   =      4017.54562667    -3565.08201921
  entropy T*S    EENTRO =        -0.00000000
  eigenvalues    EBANDS =      -117.41204479
  atomic energy  EATOM  =      3233.17333345
  Solvation  Ediel_sol  =         0.00000000
  ---------------------------------------------------
  free energy    TOTEN  =       -90.30137256 eV

  energy without entropy =      -90.30137256  energy(sigma->0) =      -90.30137256


--------------------------------------------------------------------------------------------------------




----------------------------------------- Iteration    1(  10)  ---------------------------------------


    POTLOK:  cpu time    0.0200: real time    0.0203
    SETDIJ:  cpu time    0.6760: real time    0.6759
     EDDAV:  cpu time    0.5680: real time    0.5684
       DOS:  cpu time    0.0000: real time    0.0003
    CHARGE:  cpu time    0.0200: real time    0.0208
    MIXING:  cpu time    0.0000: real time    0.0007
    --------------------------------------------
      LOOP:  cpu time    1.2880: real time    1.2897

 eigenvalue-minimisations  :  1824
 total energy-change (2. order) : 0.8790635E-03  (-0.3397000E-03)
 number of electron      57.9999980 magnetization       0.0001884
 augmentation part        4.6040173 magnetization       0.0012472

 Broyden mixing:
  rms(total) = 0.15039E-01    rms(broyden)= 0.15035E-01
  rms(prec ) = 0.21952E-01
  weight for this iteration     100.00

 eigenvalues of (default mixing * dielectric matrix)
  average eigenvalue GAMMA=   1.2099
  2.5084  1.1025  0.9385  0.8605  0.6395

 Free energy of the ion-electron system (eV)
  ---------------------------------------------------
  alpha Z        PSCENC =       142.81396753
  Ewald energy   TEWEN  =     -2459.87988882
  -Hartree energ DENC   =     -1107.46240382
  -exchange      EXHF   =         0.00000000
  -V(xc)+E(xc)   XCENC  =      -234.55671062
  PAW double counting   =      4012.62488760    -3560.17762905
  entropy T*S    EENTRO =        -0.00000000
  eigenvalues    EBANDS =      -116.83604977
  atomic energy  EATOM  =      3233.17333345
  Solvation  Ediel_sol  =         0.00000000
  ---------------------------------------------------
  free energy    TOTEN  =       -90.30049349 eV

  energy without entropy =      -90.30049349  energy(sigma->0) =      -90.30049349


--------------------------------------------------------------------------------------------------------




----------------------------------------- Iteration    1(  11)  ---------------------------------------


    POTLOK:  cpu time    0.0200: real time    0.0203
    SETDIJ:  cpu time    0.6760: real time    0.6768
     EDDAV:  cpu time    0.5920: real time    0.5922
       DOS:  cpu time    0.0040: real time    0.0002
    CHARGE:  cpu time    0.0200: real time    0.0207
    MIXING:  cpu time    0.0000: real time    0.0007
    --------------------------------------------
      LOOP:  cpu time    1.3120: real time    1.3223

 eigenvalue-minimisations  :  1912
 total energy-change (2. order) :-0.2391547E-03  (-0.3578494E-04)
 number of electron      57.9999980 magnetization       0.0001688
 augmentation part        4.6046609 magnetization      -0.0000784

 Broyden mixing:
  rms(total) = 0.78336E-02    rms(broyden)= 0.78331E-02
  rms(prec ) = 0.11318E-01
  weight for this iteration     100.00

 eigenvalues of (default mixing * dielectric matrix)
  average eigenvalue GAMMA=   1.3378
  2.6469  2.0126  0.9814  0.9814  0.7711  0.6332

 Free energy of the ion-electron system (eV)
  ---------------------------------------------------
  alpha Z        PSCENC =       142.81396753
  Ewald energy   TEWEN  =     -2459.87988882
  -Hartree energ DENC   =     -1107.37897512
  -exchange      EXHF   =         0.00000000
  -V(xc)+E(xc)   XCENC  =      -234.54389111
  PAW double counting   =      4003.88756947    -3551.44696297
  entropy T*S    EENTRO =        -0.00000000
  eigenvalues    EBANDS =      -116.92588508
  atomic energy  EATOM  =      3233.17333345
  Solvation  Ediel_sol  =         0.00000000
  ---------------------------------------------------
  free energy    TOTEN  =       -90.30073265 eV

  energy without entropy =      -90.30073265  energy(sigma->0) =      -90.30073265


--------------------------------------------------------------------------------------------------------




----------------------------------------- Iteration    1(  12)  ---------------------------------------


    POTLOK:  cpu time    0.0200: real time    0.0202
    SETDIJ:  cpu time    0.6760: real time    0.6762
     EDDAV:  cpu time    0.5640: real time    0.5653
       DOS:  cpu time    0.0000: real time    0.0002
    CHARGE:  cpu time    0.0240: real time    0.0206
    MIXING:  cpu time    0.0000: real time    0.0007
    --------------------------------------------
      LOOP:  cpu time    1.2840: real time    1.2868

 eigenvalue-minimisations  :  1792
 total energy-change (2. order) :-0.1492663E-03  (-0.1792475E-04)
 number of electron      57.9999980 magnetization       0.0000312
 augmentation part        4.6051265 magnetization      -0.0002025

 Broyden mixing:
  rms(total) = 0.22542E-02    rms(broyden)= 0.22531E-02
  rms(prec ) = 0.33878E-02
  weight for this iteration     100.00

 eigenvalues of (default mixing * dielectric matrix)
  average eigenvalue GAMMA=   1.3088
  2.6963  2.3361  0.9902  0.9902  0.7590  0.7590  0.6310

 Free energy of the ion-electron system (eV)
  ---------------------------------------------------
  alpha Z        PSCENC =       142.81396753
  Ewald energy   TEWEN  =     -2459.87988882
  -Hartree energ DENC   =     -1107.33486763
  -exchange      EXHF   =         0.00000000
  -V(xc)+E(xc)   XCENC  =      -234.52794636
  PAW double counting   =      3994.51288520    -3542.08028310
  entropy T*S    EENTRO =        -0.00000000
  eigenvalues    EBANDS =      -116.97808218
  atomic energy  EATOM  =      3233.17333345
  Solvation  Ediel_sol  =         0.00000000
  ---------------------------------------------------
  free energy    TOTEN  =       -90.30088191 eV

  energy without entropy =      -90.30088191  energy(sigma->0) =      -90.30088191


--------------------------------------------------------------------------------------------------------




----------------------------------------- Iteration    1(  13)  ---------------------------------------


    POTLOK:  cpu time    0.0200: real time    0.0201
    SETDIJ:  cpu time    0.6760: real time    0.6778
     EDDAV:  cpu time    0.5880: real time    0.5857
       DOS:  cpu time    0.0000: real time    0.0003
    CHARGE:  cpu time    0.0200: real time    0.0207
    MIXING:  cpu time    0.0000: real time    0.0008
    --------------------------------------------
      LOOP:  cpu time    1.3040: real time    1.3088

 eigenvalue-minimisations  :  1880
 total energy-change (2. order) :-0.4018435E-05  (-0.2227411E-05)
 number of electron      57.9999980 magnetization      -0.0000065
 augmentation part        4.6049105 magnetization      -0.0000832

 Broyden mixing:
  rms(total) = 0.10161E-02    rms(broyden)= 0.10154E-02
  rms(prec ) = 0.13495E-02
  weight for this iteration     100.00

 eigenvalues of (default mixing * dielectric matrix)
  average eigenvalue GAMMA=   1.2885
  2.6909  2.4442  1.0347  0.9654  0.9654  0.8927  0.6858  0.6288

 Free energy of the ion-electron system (eV)
  ---------------------------------------------------
  alpha Z        PSCENC =       142.81396753
  Ewald energy   TEWEN  =     -2459.87988882
  -Hartree energ DENC   =     -1107.36790090
  -exchange      EXHF   =         0.00000000
  -V(xc)+E(xc)   XCENC  =      -234.52439993
  PAW double counting   =      3993.27395090    -3540.84314861
  entropy T*S    EENTRO =        -0.00000000
  eigenvalues    EBANDS =      -116.94679956
  atomic energy  EATOM  =      3233.17333345
  Solvation  Ediel_sol  =         0.00000000
  ---------------------------------------------------
  free energy    TOTEN  =       -90.30088593 eV

  energy without entropy =      -90.30088593  energy(sigma->0) =      -90.30088593


--------------------------------------------------------------------------------------------------------




----------------------------------------- Iteration    1(  14)  ---------------------------------------


    POTLOK:  cpu time    0.0240: real time    0.0206
    SETDIJ:  cpu time    0.6760: real time    0.6795
     EDDAV:  cpu time    0.5760: real time    0.5746
       DOS:  cpu time    0.0000: real time    0.0002
    CHARGE:  cpu time    0.0200: real time    0.0206
    MIXING:  cpu time    0.0000: real time    0.0009
    --------------------------------------------
      LOOP:  cpu time    1.2960: real time    1.3002

 eigenvalue-minimisations  :  1824
 total energy-change (2. order) :-0.1572873E-05  (-0.6457671E-06)
 number of electron      57.9999980 magnetization      -0.0000095
 augmentation part        4.6048293 magnetization      -0.0000027

 Broyden mixing:
  rms(total) = 0.44232E-03    rms(broyden)= 0.44195E-03
  rms(prec ) = 0.68145E-03
  weight for this iteration     100.00

 eigenvalues of (default mixing * dielectric matrix)
  average eigenvalue GAMMA=   1.2523
  2.7309  2.4222  1.1525  0.9686  0.9318  0.9318  0.8284  0.6286  0.6761

 Free energy of the ion-electron system (eV)
  ---------------------------------------------------
  alpha Z        PSCENC =       142.81396753
  Ewald energy   TEWEN  =     -2459.87988882
  -Hartree energ DENC   =     -1107.37767762
  -exchange      EXHF   =         0.00000000
  -V(xc)+E(xc)   XCENC  =      -234.52340666
  PAW double counting   =      3992.87338862    -3540.44317989
  entropy T*S    EENTRO =        -0.00000000
  eigenvalues    EBANDS =      -116.93742412
  atomic energy  EATOM  =      3233.17333345
  Solvation  Ediel_sol  =         0.00000000
  ---------------------------------------------------
  free energy    TOTEN  =       -90.30088750 eV

  energy without entropy =      -90.30088750  energy(sigma->0) =      -90.30088750


--------------------------------------------------------------------------------------------------------




----------------------------------------- Iteration    1(  15)  ---------------------------------------


    POTLOK:  cpu time    0.0200: real time    0.0203
    SETDIJ:  cpu time    0.6760: real time    0.6783
     EDDAV:  cpu time    0.4200: real time    0.4203
       DOS:  cpu time    0.0000: real time    0.0002
    --------------------------------------------
      LOOP:  cpu time    1.1200: real time    1.1226

 eigenvalue-minimisations  :  1152
 total energy-change (2. order) :-0.1674380E-08  (-0.5209926E-07)
 number of electron      57.9999980 magnetization      -0.0000095
 augmentation part        4.6048293 magnetization      -0.0000027

 Free energy of the ion-electron system (eV)
  ---------------------------------------------------
  alpha Z        PSCENC =       142.81396753
  Ewald energy   TEWEN  =     -2459.87988882
  -Hartree energ DENC   =     -1107.37544484
  -exchange      EXHF   =         0.00000000
  -V(xc)+E(xc)   XCENC  =      -234.52348540
  PAW double counting   =      3992.87122614    -3540.44103076
  entropy T*S    EENTRO =        -0.00000000
  eigenvalues    EBANDS =      -116.93956481
  atomic energy  EATOM  =      3233.17333345
  Solvation  Ediel_sol  =         0.00000000
  ---------------------------------------------------
  free energy    TOTEN  =       -90.30088751 eV

  energy without entropy =      -90.30088751  energy(sigma->0) =      -90.30088751


--------------------------------------------------------------------------------------------------------




 average (electrostatic) potential at core
  the test charge radii are     1.0714  0.7215
  (the norm of the test charge is              1.0000)
       1 -36.4158       2 -34.0962       3 -34.8167       4 -34.9578       5 -35.0841
       6 -34.8818       7 -34.9577       8 -35.4908       9 -34.0956      10 -69.3445
      11 -69.5743      12 -69.5006      13 -69.5039      14 -69.4176      15 -69.3447
      16 -70.5077
 
 
 
 E-fermi :   5.7076     XC(G=0): -10.8757     alpha+bet :-13.3848


 spin component 1

 k-point     1 :       0.0000    0.0000    0.0000
  band No.  band energies     occupation 
      1     -14.3308      1.00000
      2     -13.1938      1.00000
      3     -12.5207      1.00000
      4     -12.4958      1.00000
      5     -12.2915      1.00000
      6     -12.1687      1.00000
      7     -12.1242      1.00000
      8      -1.4658      1.00000
      9      -1.3932      1.00000
     10      -1.3897      1.00000
     11      -0.8337      1.00000
     12      -0.3510      1.00000
     13      -0.1752      1.00000
     14      -0.1444      1.00000
     15       1.3863      1.00000
     16       1.5528      1.00000
     17       1.5759      1.00000
     18       1.9645      1.00000
     19       2.0766      1.00000
     20       2.0815      1.00000
     21       2.7162      1.00000
     22       2.7545      1.00000
     23       2.8022      1.00000
     24       2.8994      1.00000
     25       2.9887      1.00000
     26       3.0776      1.00000
     27       3.1846      1.00000
     28       3.1864      1.00000
     29       3.2525      1.00000
     30       8.7942      0.00000
     31      10.1827      0.00000
     32      10.2007      0.00000
     33      10.7974      0.00000
     34      10.8485      0.00000
     35      10.9408      0.00000
     36      11.6124      0.00000
     37      11.7040      0.00000
     38      11.9457      0.00000
     39      12.1997      0.00000
     40      12.3154      0.00000
     41      12.4764      0.00000
     42      12.9160      0.00000
     43      15.3630      0.00000
     44      15.3858      0.00000
     45      15.6216      0.00000
     46      15.7614      0.00000
     47      18.0196      0.00000
     48      18.2984      0.00000

 k-point     2 :       0.5000    0.0000    0.0000
  band No.  band energies     occupation 
      1     -14.2323      1.00000
      2     -13.0579      1.00000
      3     -12.7875      1.00000
      4     -12.4676      1.00000
      5     -12.2826      1.00000
      6     -12.2298      1.00000
      7     -12.1839      1.00000
      8      -1.0712      1.00000
      9      -0.9546      1.00000
     10      -0.7004      1.00000
     11      -0.3280      1.00000
     12      -0.1402      1.00000
     13       0.2649      1.00000
     14       0.3867      1.00000
     15       0.7568      1.00000
     16       0.9009      1.00000
     17       1.2761      1.00000
     18       1.4739      1.00000
     19       1.6370      1.00000
     20       1.6861      1.00000
     21       1.8800      1.00000
     22       1.9921      1.00000
     23       2.3016      1.00000
     24       2.5162      1.00000
     25       2.8991      1.00000
     26       2.9644      1.00000
     27       3.0647      1.00000
     28       3.1201      1.00000
     29       4.8662      1.00000
     30       7.5710      0.00000
     31       9.5316      0.00000
     32      10.3488      0.00000
     33      10.7729      0.00000
     34      11.2256      0.00000
     35      12.0441      0.00000
     36      12.3043      0.00000
     37      12.5498      0.00000
     38      12.6934      0.00000
     39      13.6977      0.00000
     40      14.0107      0.00000
     41      14.4025      0.00000
     42      14.5042      0.00000
     43      14.6346      0.00000
     44      14.8844      0.00000
     45      15.2833      0.00000
     46      15.7293      0.00000
     47      16.0725      0.00000
     48      16.3101      0.00000

 k-point     3 :       0.0000    0.5000    0.0000
  band No.  band energies     occupation 
      1     -14.2336      1.00000
      2     -13.0602      1.00000
      3     -12.7810      1.00000
      4     -12.4640      1.00000
      5     -12.2638      1.00000
      6     -12.2322      1.00000
      7     -12.2070      1.00000
      8      -1.0191      1.00000
      9      -0.9502      1.00000
     10      -0.7957      1.00000
     11      -0.3370      1.00000
     12      -0.1050      1.00000
     13       0.2722      1.00000
     14       0.4059      1.00000
     15       0.7375      1.00000
     16       0.9930      1.00000
     17       1.2800      1.00000
     18       1.4298      1.00000
     19       1.5104      1.00000
     20       1.7013      1.00000
     21       1.8643      1.00000
     22       2.0309      1.00000
     23       2.2866      1.00000
     24       2.6360      1.00000
     25       2.9159      1.00000
     26       2.9598      1.00000
     27       3.0464      1.00000
     28       3.0682      1.00000
     29       4.7865      1.00000
     30       7.7244      0.00000
     31       9.5149      0.00000
     32      10.1319      0.00000
     33      10.8962      0.00000
     34      11.2829      0.00000
     35      12.1932      0.00000
     36      12.3703      0.00000
     37      12.6659      0.00000
     38      12.7354      0.00000
     39      13.6541      0.00000
     40      13.9034      0.00000
     41      14.2614      0.00000
     42      14.3235      0.00000
     43      14.4837      0.00000
     44      14.9099      0.00000
     45      14.9659      0.00000
     46      15.7351      0.00000
     47      16.2126      0.00000
     48      16.3254      0.00000

 k-point     4 :       0.5000    0.5000    0.0000
  band No.  band energies     occupation 
      1     -14.2030      1.00000
      2     -13.0828      1.00000
      3     -12.5922      1.00000
      4     -12.5600      1.00000
      5     -12.3581      1.00000
      6     -12.3554      1.00000
      7     -12.1232      1.00000
      8      -1.0137      1.00000
      9      -0.6484      1.00000
     10      -0.6459      1.00000
     11      -0.0685      1.00000
     12       0.1586      1.00000
     13       0.2084      1.00000
     14       0.5674      1.00000
     15       0.5795      1.00000
     16       1.1415      1.00000
     17       1.1592      1.00000
     18       1.4256      1.00000
     19       1.4583      1.00000
     20       1.5475      1.00000
     21       1.6250      1.00000
     22       1.7888      1.00000
     23       2.1980      1.00000
     24       2.2087      1.00000
     25       2.7804      1.00000
     26       2.8147      1.00000
     27       2.8736      1.00000
     28       3.0808      1.00000
     29       5.0747      1.00000
     30       8.4379      0.00000
     31       8.9414      0.00000
     32       9.0912      0.00000
     33      11.2362      0.00000
     34      12.1486      0.00000
     35      12.6111      0.00000
     36      13.1229      0.00000
     37      13.1935      0.00000
     38      13.5069      0.00000
     39      13.5933      0.00000
     40      13.6615      0.00000
     41      14.2303      0.00000
     42      14.3322      0.00000
     43      14.4502      0.00000
     44      14.9838      0.00000
     45      14.9870      0.00000
     46      15.1964      0.00000
     47      15.6522      0.00000
     48      16.1307      0.00000

 k-point     5 :       0.0000    0.0000    0.5000
  band No.  band energies     occupation 
      1     -14.2322      1.00000
      2     -13.0588      1.00000
      3     -12.7861      1.00000
      4     -12.4683      1.00000
      5     -12.2828      1.00000
      6     -12.2293      1.00000
      7     -12.1840      1.00000
      8      -1.0708      1.00000
      9      -0.9524      1.00000
     10      -0.6986      1.00000
     11      -0.3300      1.00000
     12      -0.1406      1.00000
     13       0.2646      1.00000
     14       0.3852      1.00000
     15       0.7570      1.00000
     16       0.8987      1.00000
     17       1.2758      1.00000
     18       1.4723      1.00000
     19       1.6391      1.00000
     20       1.6861      1.00000
     21       1.8786      1.00000
     22       1.9920      1.00000
     23       2.3030      1.00000
     24       2.5151      1.00000
     25       2.8997      1.00000
     26       2.9650      1.00000
     27       3.0637      1.00000
     28       3.1219      1.00000
     29       4.8674      1.00000
     30       7.5722      0.00000
     31       9.5283      0.00000
     32      10.3505      0.00000
     33      10.7712      0.00000
     34      11.2244      0.00000
     35      12.0431      0.00000
     36      12.3042      0.00000
     37      12.5550      0.00000
     38      12.6917      0.00000
     39      13.7010      0.00000
     40      14.0084      0.00000
     41      14.4040      0.00000
     42      14.5043      0.00000
     43      14.6352      0.00000
     44      14.8839      0.00000
     45      15.2854      0.00000
     46      15.7354      0.00000
     47      16.0712      0.00000
     48      16.3130      0.00000

 k-point     6 :       0.5000    0.0000    0.5000
  band No.  band energies     occupation 
      1     -14.2071      1.00000
      2     -12.8980      1.00000
      3     -12.8613      1.00000
      4     -12.5619      1.00000
      5     -12.3734      1.00000
      6     -12.2889      1.00000
      7     -12.0869      1.00000
      8      -0.9656      1.00000
      9      -0.6368      1.00000
     10      -0.5641      1.00000
     11      -0.1115      1.00000
     12       0.2990      1.00000
     13       0.3946      1.00000
     14       0.4903      1.00000
     15       0.6499      1.00000
     16       0.8873      1.00000
     17       1.0326      1.00000
     18       1.1226      1.00000
     19       1.4977      1.00000
     20       1.5475      1.00000
     21       1.7636      1.00000
     22       1.8182      1.00000
     23       2.0047      1.00000
     24       2.2704      1.00000
     25       2.7779      1.00000
     26       2.7856      1.00000
     27       2.9569      1.00000
     28       3.1082      1.00000
     29       5.4231      1.00000
     30       7.5018      0.00000
     31       8.8446      0.00000
     32       9.9699      0.00000
     33      11.2813      0.00000
     34      12.1325      0.00000
     35      12.1657      0.00000
     36      12.9572      0.00000
     37      13.0531      0.00000
     38      13.4625      0.00000
     39      13.8905      0.00000
     40      14.0414      0.00000
     41      14.1563      0.00000
     42      14.5415      0.00000
     43      14.8988      0.00000
     44      14.9274      0.00000
     45      14.9600      0.00000
     46      15.2622      0.00000
     47      16.0297      0.00000
     48      16.2052      0.00000

 k-point     7 :       0.0000    0.5000    0.5000
  band No.  band energies     occupation 
      1     -14.2063      1.00000
      2     -12.9537      1.00000
      3     -12.8005      1.00000
      4     -12.5586      1.00000
      5     -12.3567      1.00000
      6     -12.3178      1.00000
      7     -12.0835      1.00000
      8      -0.9611      1.00000
      9      -0.6290      1.00000
     10      -0.5811      1.00000
     11      -0.1047      1.00000
     12       0.2807      1.00000
     13       0.3708      1.00000
     14       0.5324      1.00000
     15       0.6106      1.00000
     16       0.9315      1.00000
     17       1.0085      1.00000
     18       1.1262      1.00000
     19       1.4958      1.00000
     20       1.5574      1.00000
     21       1.7893      1.00000
     22       1.8069      1.00000
     23       1.9990      1.00000
     24       2.2731      1.00000
     25       2.7415      1.00000
     26       2.8354      1.00000
     27       2.9499      1.00000
     28       3.1020      1.00000
     29       5.3924      1.00000
     30       7.5314      0.00000
     31       8.8328      0.00000
     32      10.0428      0.00000
     33      11.2964      0.00000
     34      12.1354      0.00000
     35      12.1545      0.00000
     36      12.9188      0.00000
     37      13.0777      0.00000
     38      13.4840      0.00000
     39      13.9026      0.00000
     40      13.9919      0.00000
     41      14.1120      0.00000
     42      14.3618      0.00000
     43      14.8732      0.00000
     44      15.0047      0.00000
     45      15.1323      0.00000
     46      15.2493      0.00000
     47      15.9162      0.00000
     48      16.2414      0.00000

 k-point     8 :       0.5000    0.5000    0.5000
  band No.  band energies     occupation 
      1     -14.2336      1.00000
      2     -13.0599      1.00000
      3     -12.7811      1.00000
      4     -12.4648      1.00000
      5     -12.2635      1.00000
      6     -12.2317      1.00000
      7     -12.2072      1.00000
      8      -1.0203      1.00000
      9      -0.9485      1.00000
     10      -0.7983      1.00000
     11      -0.3362      1.00000
     12      -0.1046      1.00000
     13       0.2731      1.00000
     14       0.4056      1.00000
     15       0.7369      1.00000
     16       0.9946      1.00000
     17       1.2796      1.00000
     18       1.4288      1.00000
     19       1.5095      1.00000
     20       1.6997      1.00000
     21       1.8637      1.00000
     22       2.0321      1.00000
     23       2.2887      1.00000
     24       2.6372      1.00000
     25       2.9175      1.00000
     26       2.9604      1.00000
     27       3.0457      1.00000
     28       3.0678      1.00000
     29       4.7853      1.00000
     30       7.7247      0.00000
     31       9.5117      0.00000
     32      10.1326      0.00000
     33      10.8968      0.00000
     34      11.2821      0.00000
     35      12.1985      0.00000
     36      12.3710      0.00000
     37      12.6651      0.00000
     38      12.7320      0.00000
     39      13.6542      0.00000
     40      13.9036      0.00000
     41      14.2590      0.00000
     42      14.3232      0.00000
     43      14.4829      0.00000
     44      14.9174      0.00000
     45      14.9662      0.00000
     46      15.7339      0.00000
     47      16.2097      0.00000
     48      16.3196      0.00000

 spin component 2

 k-point     1 :       0.0000    0.0000    0.0000
  band No.  band energies     occupation 
      1     -14.3308      1.00000
      2     -13.1937      1.00000
      3     -12.5207      1.00000
      4     -12.4958      1.00000
      5     -12.2915      1.00000
      6     -12.1687      1.00000
      7     -12.1242      1.00000
      8      -1.4658      1.00000
      9      -1.3932      1.00000
     10      -1.3897      1.00000
     11      -0.8337      1.00000
     12      -0.3510      1.00000
     13      -0.1752      1.00000
     14      -0.1444      1.00000
     15       1.3863      1.00000
     16       1.5529      1.00000
     17       1.5759      1.00000
     18       1.9645      1.00000
     19       2.0766      1.00000
     20       2.0815      1.00000
     21       2.7162      1.00000
     22       2.7546      1.00000
     23       2.8022      1.00000
     24       2.8994      1.00000
     25       2.9887      1.00000
     26       3.0776      1.00000
     27       3.1846      1.00000
     28       3.1864      1.00000
     29       3.2525      1.00000
     30       8.7943      0.00000
     31      10.1827      0.00000
     32      10.2007      0.00000
     33      10.7974      0.00000
     34      10.8485      0.00000
     35      10.9408      0.00000
     36      11.6124      0.00000
     37      11.7040      0.00000
     38      11.9457      0.00000
     39      12.1996      0.00000
     40      12.3154      0.00000
     41      12.4764      0.00000
     42      12.9160      0.00000
     43      15.3631      0.00000
     44      15.3859      0.00000
     45      15.6217      0.00000
     46      15.7614      0.00000
     47      18.0195      0.00000
     48      18.2982      0.00000

 k-point     2 :       0.5000    0.0000    0.0000
  band No.  band energies     occupation 
      1     -14.2323      1.00000
      2     -13.0579      1.00000
      3     -12.7875      1.00000
      4     -12.4676      1.00000
      5     -12.2826      1.00000
      6     -12.2298      1.00000
      7     -12.1838      1.00000
      8      -1.0712      1.00000
      9      -0.9546      1.00000
     10      -0.7004      1.00000
     11      -0.3280      1.00000
     12      -0.1402      1.00000
     13       0.2649      1.00000
     14       0.3867      1.00000
     15       0.7568      1.00000
     16       0.9009      1.00000
     17       1.2761      1.00000
     18       1.4739      1.00000
     19       1.6370      1.00000
     20       1.6861      1.00000
     21       1.8800      1.00000
     22       1.9922      1.00000
     23       2.3016      1.00000
     24       2.5162      1.00000
     25       2.8991      1.00000
     26       2.9644      1.00000
     27       3.0648      1.00000
     28       3.1201      1.00000
     29       4.8662      1.00000
     30       7.5709      0.00000
     31       9.5316      0.00000
     32      10.3488      0.00000
     33      10.7729      0.00000
     34      11.2256      0.00000
     35      12.0441      0.00000
     36      12.3043      0.00000
     37      12.5498      0.00000
     38      12.6934      0.00000
     39      13.6977      0.00000
     40      14.0107      0.00000
     41      14.4025      0.00000
     42      14.5043      0.00000
     43      14.6347      0.00000
     44      14.8844      0.00000
     45      15.2833      0.00000
     46      15.7293      0.00000
     47      16.0725      0.00000
     48      16.3109      0.00000

 k-point     3 :       0.0000    0.5000    0.0000
  band No.  band energies     occupation 
      1     -14.2336      1.00000
      2     -13.0602      1.00000
      3     -12.7810      1.00000
      4     -12.4640      1.00000
      5     -12.2637      1.00000
      6     -12.2322      1.00000
      7     -12.2070      1.00000
      8      -1.0191      1.00000
      9      -0.9502      1.00000
     10      -0.7957      1.00000
     11      -0.3370      1.00000
     12      -0.1050      1.00000
     13       0.2722      1.00000
     14       0.4059      1.00000
     15       0.7375      1.00000
     16       0.9931      1.00000
     17       1.2800      1.00000
     18       1.4298      1.00000
     19       1.5104      1.00000
     20       1.7013      1.00000
     21       1.8643      1.00000
     22       2.0309      1.00000
     23       2.2866      1.00000
     24       2.6360      1.00000
     25       2.9159      1.00000
     26       2.9598      1.00000
     27       3.0464      1.00000
     28       3.0682      1.00000
     29       4.7865      1.00000
     30       7.7244      0.00000
     31       9.5149      0.00000
     32      10.1319      0.00000
     33      10.8962      0.00000
     34      11.2830      0.00000
     35      12.1932      0.00000
     36      12.3703      0.00000
     37      12.6659      0.00000
     38      12.7354      0.00000
     39      13.6541      0.00000
     40      13.9034      0.00000
     41      14.2615      0.00000
     42      14.3236      0.00000
     43      14.4837      0.00000
     44      14.9099      0.00000
     45      14.9659      0.00000
     46      15.7352      0.00000
     47      16.2126      0.00000
     48      16.3254      0.00000

 k-point     4 :       0.5000    0.5000    0.0000
  band No.  band energies     occupation 
      1     -14.2030      1.00000
      2     -13.0828      1.00000
      3     -12.5921      1.00000
      4     -12.5600      1.00000
      5     -12.3580      1.00000
      6     -12.3554      1.00000
      7     -12.1231      1.00000
      8      -1.0137      1.00000
      9      -0.6484      1.00000
     10      -0.6459      1.00000
     11      -0.0685      1.00000
     12       0.1586      1.00000
     13       0.2084      1.00000
     14       0.5674      1.00000
     15       0.5795      1.00000
     16       1.1415      1.00000
     17       1.1592      1.00000
     18       1.4256      1.00000
     19       1.4583      1.00000
     20       1.5475      1.00000
     21       1.6250      1.00000
     22       1.7888      1.00000
     23       2.1980      1.00000
     24       2.2087      1.00000
     25       2.7804      1.00000
     26       2.8147      1.00000
     27       2.8737      1.00000
     28       3.0808      1.00000
     29       5.0747      1.00000
     30       8.4379      0.00000
     31       8.9414      0.00000
     32       9.0912      0.00000
     33      11.2362      0.00000
     34      12.1486      0.00000
     35      12.6112      0.00000
     36      13.1229      0.00000
     37      13.1935      0.00000
     38      13.5069      0.00000
     39      13.5933      0.00000
     40      13.6615      0.00000
     41      14.2303      0.00000
     42      14.3322      0.00000
     43      14.4502      0.00000
     44      14.9838      0.00000
     45      14.9870      0.00000
     46      15.1964      0.00000
     47      15.6522      0.00000
     48      16.1307      0.00000

 k-point     5 :       0.0000    0.0000    0.5000
  band No.  band energies     occupation 
      1     -14.2322      1.00000
      2     -13.0588      1.00000
      3     -12.7861      1.00000
      4     -12.4682      1.00000
      5     -12.2828      1.00000
      6     -12.2292      1.00000
      7     -12.1840      1.00000
      8      -1.0708      1.00000
      9      -0.9524      1.00000
     10      -0.6986      1.00000
     11      -0.3300      1.00000
     12      -0.1406      1.00000
     13       0.2646      1.00000
     14       0.3852      1.00000
     15       0.7570      1.00000
     16       0.8987      1.00000
     17       1.2759      1.00000
     18       1.4723      1.00000
     19       1.6391      1.00000
     20       1.6861      1.00000
     21       1.8786      1.00000
     22       1.9920      1.00000
     23       2.3030      1.00000
     24       2.5151      1.00000
     25       2.8997      1.00000
     26       2.9650      1.00000
     27       3.0638      1.00000
     28       3.1219      1.00000
     29       4.8674      1.00000
     30       7.5722      0.00000
     31       9.5283      0.00000
     32      10.3505      0.00000
     33      10.7712      0.00000
     34      11.2244      0.00000
     35      12.0431      0.00000
     36      12.3042      0.00000
     37      12.5550      0.00000
     38      12.6917      0.00000
     39      13.7011      0.00000
     40      14.0084      0.00000
     41      14.4040      0.00000
     42      14.5043      0.00000
     43      14.6352      0.00000
     44      14.8839      0.00000
     45      15.2854      0.00000
     46      15.7354      0.00000
     47      16.0713      0.00000
     48      16.3160      0.00000

 k-point     6 :       0.5000    0.0000    0.5000
  band No.  band energies     occupation 
      1     -14.2071      1.00000
      2     -12.8979      1.00000
      3     -12.8613      1.00000
      4     -12.5619      1.00000
      5     -12.3734      1.00000
      6     -12.2889      1.00000
      7     -12.0868      1.00000
      8      -0.9656      1.00000
      9      -0.6368      1.00000
     10      -0.5641      1.00000
     11      -0.1115      1.00000
     12       0.2990      1.00000
     13       0.3946      1.00000
     14       0.4903      1.00000
     15       0.6499      1.00000
     16       0.8873      1.00000
     17       1.0326      1.00000
     18       1.1226      1.00000
     19       1.4977      1.00000
     20       1.5475      1.00000
     21       1.7636      1.00000
     22       1.8182      1.00000
     23       2.0047      1.00000
     24       2.2704      1.00000
     25       2.7779      1.00000
     26       2.7856      1.00000
     27       2.9569      1.00000
     28       3.1083      1.00000
     29       5.4231      1.00000
     30       7.5018      0.00000
     31       8.8446      0.00000
     32       9.9699      0.00000
     33      11.2813      0.00000
     34      12.1325      0.00000
     35      12.1657      0.00000
     36      12.9572      0.00000
     37      13.0532      0.00000
     38      13.4625      0.00000
     39      13.8906      0.00000
     40      14.0414      0.00000
     41      14.1563      0.00000
     42      14.5415      0.00000
     43      14.8988      0.00000
     44      14.9274      0.00000
     45      14.9600      0.00000
     46      15.2622      0.00000
     47      16.0297      0.00000
     48      16.2078      0.00000

 k-point     7 :       0.0000    0.5000    0.5000
  band No.  band energies     occupation 
      1     -14.2063      1.00000
      2     -12.9537      1.00000
      3     -12.8005      1.00000
      4     -12.5586      1.00000
      5     -12.3567      1.00000
      6     -12.3177      1.00000
      7     -12.0835      1.00000
      8      -0.9611      1.00000
      9      -0.6290      1.00000
[...]
     15       0.6106      1.00000
     16       0.9315      1.00000
     17       1.0085      1.00000
     18       1.1262      1.00000
     19       1.4958      1.00000
     20       1.5574      1.00000
     21       1.7893      1.00000
     22       1.8069      1.00000
     23       1.9990      1.00000
     24       2.2732      1.00000
     25       2.7415      1.00000
     26       2.8354      1.00000
     27       2.9499      1.00000
     28       3.1021      1.00000
     29       5.3924      1.00000
     30       7.5314      0.00000
     31       8.8328      0.00000
     32      10.0428      0.00000
     33      11.2964      0.00000
     34      12.1354      0.00000
     35      12.1545      0.00000
     36      12.9188      0.00000
     37      13.0778      0.00000
     38      13.4840      0.00000
     39      13.9027      0.00000
     40      13.9919      0.00000
     41      14.1120      0.00000
     42      14.3618      0.00000
     43      14.8732      0.00000
     44      15.0047      0.00000
     45      15.1323      0.00000
     46      15.2493      0.00000
     47      15.9162      0.00000
     48      16.2309      0.00000

 k-point     8 :       0.5000    0.5000    0.5000
  band No.  band energies     occupation 
      1     -14.2336      1.00000
      2     -13.0598      1.00000
      3     -12.7810      1.00000
      4     -12.4647      1.00000
      5     -12.2635      1.00000
      6     -12.2317      1.00000
      7     -12.2072      1.00000
      8      -1.0203      1.00000
      9      -0.9485      1.00000
     10      -0.7983      1.00000
     11      -0.3362      1.00000
     12      -0.1046      1.00000
     13       0.2731      1.00000
     14       0.4056      1.00000
     15       0.7369      1.00000
     16       0.9946      1.00000
     17       1.2796      1.00000
     18       1.4289      1.00000
     19       1.5095      1.00000
     20       1.6997      1.00000
     21       1.8637      1.00000
     22       2.0321      1.00000
     23       2.2887      1.00000
     24       2.6372      1.00000
     25       2.9175      1.00000
     26       2.9604      1.00000
     27       3.0457      1.00000
     28       3.0678      1.00000
     29       4.7853      1.00000
     30       7.7247      0.00000
     31       9.5117      0.00000
     32      10.1326      0.00000
     33      10.8968      0.00000
     34      11.2821      0.00000
     35      12.1985      0.00000
     36      12.3710      0.00000
     37      12.6651      0.00000
     38      12.7321      0.00000
     39      13.6543      0.00000
     40      13.9037      0.00000
     41      14.2590      0.00000
     42      14.3232      0.00000
     43      14.4829      0.00000
     44      14.9174      0.00000
     45      14.9662      0.00000
     46      15.7339      0.00000
     47      16.2097      0.00000
     48      16.3196      0.00000


--------------------------------------------------------------------------------------------------------


 soft charge-density along one line, spin component           1
         0         1         2         3         4         5         6         7         8         9
 total charge-density along one line
 
 soft charge-density along one line, spin component           2
         0         1         2         3         4         5         6         7         8         9
 total charge-density along one line
 
 pseudopotential strength for first ion, spin component:           1
  2.999   9.548  -0.000   0.004  -0.001   0.000   0.017   0.001
  9.548  30.238   0.000   0.027   0.000   0.000   0.067   0.005
 -0.000   0.000   7.299  -0.000  -0.000  10.627  -0.000  -0.000
  0.004   0.027  -0.000   7.309  -0.007  -0.000  10.641  -0.013
 -0.001   0.000  -0.000  -0.007   7.301  -0.000  -0.013  10.629
  0.000   0.000  10.627  -0.000  -0.000  14.671  -0.000  -0.000
  0.017   0.067  -0.000  10.641  -0.013  -0.000  14.690  -0.021
  0.001   0.005  -0.000  -0.013  10.629  -0.000  -0.021  14.674
 -0.000  -0.000   0.003   0.000   0.000   0.003   0.000   0.000
 -0.000  -0.000   0.023  -0.000   0.000   0.024  -0.000   0.000
  0.003   0.007  -0.000   0.042  -0.004  -0.000   0.045  -0.004
 -0.007  -0.017   0.000   0.001   0.023   0.000   0.001   0.024
  0.000   0.001  -0.000   0.000   0.005  -0.000   0.000   0.005
 pseudopotential strength for first ion, spin component:           2
  2.999   9.548  -0.000   0.004  -0.001   0.000   0.017   0.001
  9.548  30.238   0.000   0.027   0.000   0.000   0.067   0.005
 -0.000   0.000   7.299  -0.000  -0.000  10.627  -0.000  -0.000
  0.004   0.027  -0.000   7.309  -0.007  -0.000  10.641  -0.013
 -0.001   0.000  -0.000  -0.007   7.301  -0.000  -0.013  10.629
  0.000   0.000  10.627  -0.000  -0.000  14.671  -0.000  -0.000
  0.017   0.067  -0.000  10.641  -0.013  -0.000  14.690  -0.021
  0.001   0.005  -0.000  -0.013  10.629  -0.000  -0.021  14.674
 -0.000  -0.000   0.003   0.000   0.000   0.003   0.000   0.000
 -0.000  -0.000   0.023  -0.000   0.000   0.024  -0.000   0.000
  0.003   0.007  -0.000   0.042  -0.004  -0.000   0.045  -0.004
 -0.007  -0.017   0.000   0.001   0.023   0.000   0.001   0.024
  0.000   0.001  -0.000   0.000   0.005  -0.000   0.000   0.005
 total augmentation occupancy for first ion, spin component:           1
  1.920  -0.036  -0.000  -0.233  -0.043   0.000   0.025   0.003  -0.000   0.000   0.042   0.024   0.010
 -0.036   0.001  -0.000  -0.002  -0.002   0.000   0.000   0.000   0.000  -0.000  -0.000  -0.001  -0.000
 -0.000  -0.000   0.072   0.000  -0.000  -0.006  -0.000   0.000  -0.000   0.019  -0.000  -0.000  -0.000
 -0.233  -0.002   0.000   0.163   0.037  -0.000  -0.013  -0.003   0.000   0.000  -0.007   0.007   0.001
 -0.043  -0.002  -0.000   0.037   0.084   0.000  -0.003  -0.007   0.000  -0.000  -0.003   0.022   0.012
  0.000   0.000  -0.006  -0.000   0.000   0.001   0.000  -0.000  -0.000  -0.001   0.000   0.000   0.000
  0.025   0.000  -0.000  -0.013  -0.003   0.000   0.001   0.000  -0.000  -0.000   0.001  -0.001  -0.000
  0.003   0.000   0.000  -0.003  -0.007  -0.000   0.000   0.001  -0.000   0.000   0.000  -0.002  -0.001
 -0.000   0.000  -0.000   0.000   0.000  -0.000  -0.000  -0.000   0.009  -0.002  -0.000  -0.000  -0.000
  0.000  -0.000   0.019   0.000  -0.000  -0.001  -0.000   0.000  -0.002   0.014   0.000  -0.000  -0.000
  0.042  -0.000  -0.000  -0.007  -0.003   0.000   0.001   0.000  -0.000   0.000   0.008   0.003   0.000
  0.024  -0.001  -0.000   0.007   0.022   0.000  -0.001  -0.002  -0.000  -0.000   0.003   0.016   0.006
  0.010  -0.000  -0.000   0.001   0.012   0.000  -0.000  -0.001  -0.000  -0.000   0.000   0.006   0.018
 total augmentation occupancy for first ion, spin component:           2
  0.000  -0.000   0.000  -0.000  -0.000   0.000   0.000   0.000   0.000  -0.000  -0.000  -0.000  -0.000
 -0.000   0.000  -0.000   0.000   0.000  -0.000  -0.000  -0.000  -0.000  -0.000  -0.000  -0.000  -0.000
  0.000  -0.000  -0.000  -0.000  -0.000   0.000   0.000   0.000  -0.000   0.000  -0.000  -0.000  -0.000
 -0.000   0.000  -0.000   0.000   0.000   0.000  -0.000  -0.000  -0.000   0.000  -0.000   0.000   0.000
 -0.000   0.000  -0.000   0.000  -0.000   0.000  -0.000   0.000  -0.000   0.000   0.000   0.000   0.000
  0.000  -0.000   0.000   0.000   0.000  -0.000  -0.000  -0.000   0.000   0.000   0.000   0.000   0.000
  0.000  -0.000   0.000  -0.000  -0.000  -0.000   0.000   0.000   0.000   0.000   0.000  -0.000  -0.000
  0.000  -0.000   0.000  -0.000   0.000  -0.000   0.000  -0.000  -0.000   0.000   0.000  -0.000  -0.000
  0.000  -0.000  -0.000  -0.000  -0.000   0.000   0.000  -0.000   0.000  -0.000   0.000   0.000   0.000
 -0.000  -0.000   0.000   0.000   0.000   0.000   0.000   0.000  -0.000   0.000  -0.000  -0.000  -0.000
 -0.000  -0.000  -0.000  -0.000   0.000   0.000   0.000   0.000   0.000  -0.000  -0.000  -0.000  -0.000
 -0.000  -0.000  -0.000   0.000   0.000   0.000  -0.000  -0.000   0.000  -0.000  -0.000   0.000   0.000
 -0.000  -0.000  -0.000   0.000   0.000   0.000  -0.000  -0.000   0.000  -0.000  -0.000   0.000   0.000


------------------------ aborting loop because EDIFF is reached ----------------------------------------


 


 total charge     
 
# of ion     s       p       d       tot
----------------------------------------
  1        0.318   0.168   0.036   0.522
  2        0.135   0.159   0.068   0.362
  3        0.150   0.149   0.052   0.351
  4        0.157   0.179   0.073   0.409
  5        0.168   0.196   0.083   0.447
  6        0.150   0.166   0.065   0.381
  7        0.157   0.179   0.073   0.409
  8        0.202   0.249   0.115   0.566
  9        0.135   0.159   0.068   0.362
 10        1.569   3.507   0.000   5.076
 11        1.568   3.518   0.000   5.085
 12        1.569   3.512   0.000   5.081
 13        1.569   3.513   0.000   5.081
 14        1.569   3.517   0.000   5.086
 15        1.569   3.508   0.000   5.076
 16        1.575   3.653   0.000   5.228
------------------------------------------------
tot       12.558  26.330   0.633  39.521
 


 magnetization (x)
 
# of ion     s       p       d       tot
----------------------------------------
  1       -0.000  -0.000  -0.000  -0.000
  2       -0.000  -0.000  -0.000  -0.000
  3       -0.000  -0.000  -0.000  -0.000
  4       -0.000  -0.000  -0.000  -0.000
  5       -0.000  -0.000  -0.000  -0.000
  6       -0.000  -0.000  -0.000  -0.000
  7       -0.000  -0.000  -0.000  -0.000
  8       -0.000  -0.000  -0.000  -0.000
  9       -0.000  -0.000  -0.000  -0.000
 10        0.000   0.000   0.000   0.000
 11        0.000   0.000   0.000   0.000
 12        0.000   0.000   0.000   0.000
 13        0.000   0.000   0.000   0.000
 14        0.000   0.000   0.000   0.000
 15        0.000   0.000   0.000   0.000
 16        0.000   0.000   0.000   0.000
------------------------------------------------
tot        0.000   0.000  -0.000   0.000
 
    CHARGE:  cpu time    0.0200: real time    0.0204
    FORLOC:  cpu time    0.0000: real time    0.0015
    FORNL :  cpu time    0.1400: real time    0.1385
    STRESS:  cpu time    0.4160: real time    0.4156
    FORCOR:  cpu time    0.0240: real time    0.0212
    FORHAR:  cpu time    0.0000: real time    0.0030
    MIXING:  cpu time    0.0040: real time    0.0009
    OFIELD:  cpu time    0.0000: real time    0.0000

  FORCE on cell =-STRESS in cart. coord.  units (eV):
  Direction    XX          YY          ZZ          XY          YZ          ZX
  --------------------------------------------------------------------------------------
  Alpha Z   142.81397   142.81397   142.81397
  Ewald    -821.86449  -824.35862  -813.66160     0.05608    -0.00569    -0.47374
  Hartree   376.81814   378.15540   352.40296    -0.02195     0.00037    -3.25379
  E(xc)    -260.54069  -260.47099  -261.09437    -0.00146    -0.00192    -0.05939
  Local    -374.35112  -373.85437  -351.93362    -0.02732    -0.01367     0.96765
  n-local  -113.53414  -113.96290  -108.87236     0.01494     0.01026     0.57580
  augment    47.60015    47.60108    47.11852    -0.00036     0.00154    -0.03720
  Kinetic   998.70522   998.38301   994.41035    -0.00497     0.01631    -0.62256
  Fock        0.00000     0.00000     0.00000     0.00000     0.00000     0.00000
  -------------------------------------------------------------------------------------
  Total      -4.35297    -5.69341     1.18384     0.01496     0.00720    -2.90323
  in kB     -45.52522   -59.54418    12.38115     0.15650     0.07530   -30.36322
  external pressure =      -30.90 kB  Pullay stress =        0.00 kB


 VOLUME and BASIS-vectors are now :
 -----------------------------------------------------------------------------
  energy-cutoff  :      400.00
  volume of cell :      153.19
      direct lattice vectors                 reciprocal lattice vectors
     0.000000000  4.246893000  4.246893000    -0.117733129  0.117733129  0.117733129
     4.246893000  0.000000000  4.246893000     0.117733129 -0.117733129  0.117733129
     4.246893000  4.246893000  0.000000000     0.117733129  0.117733129 -0.117733129

  length of vectors
     6.006013679  6.006013679  6.006013679     0.203919761  0.203919761  0.203919761


 FORCES acting on ions
    electron-ion (+dipol)            ewald-force                    non-local-force                 convergence-correction
 -----------------------------------------------------------------------------------------------
   0.118E+02 0.896E-01 0.323E+02   -.123E+02 -.911E-01 -.372E+02   0.568E+00 0.280E-02 0.481E+01   0.424E-04 -.515E-06 -.175E-04
   -.106E+01 -.861E+00 -.251E+01   0.105E+01 0.721E+00 0.249E+01   -.159E-02 0.135E+00 -.482E-02   -.100E-04 0.759E-04 -.418E-04
   0.489E+01 0.699E-01 -.395E+02   -.445E+01 -.570E-01 0.393E+02   -.434E+00 -.304E-02 0.172E+00   -.731E-04 0.257E-06 -.116E-03
   0.113E+01 -.288E+02 0.586E+01   -.110E+01 0.281E+02 -.539E+01   -.342E-01 0.713E+00 -.461E+00   0.142E-04 -.742E-04 0.489E-04
   0.258E+02 -.107E+00 0.353E+01   -.246E+02 0.900E-01 -.339E+01   -.116E+01 0.272E-01 -.160E+00   0.725E-04 0.376E-06 0.127E-03
   -.315E+02 0.146E+00 0.788E+01   0.311E+02 -.128E+00 -.717E+01   0.431E+00 -.255E-01 -.711E+00   -.871E-04 0.281E-06 -.355E-04
   0.113E+01 0.288E+02 0.586E+01   -.110E+01 -.281E+02 -.540E+01   -.316E-01 -.707E+00 -.460E+00   0.141E-04 0.741E-04 0.484E-04
   0.519E-01 0.569E-01 0.141E+02   -.198E+00 -.549E-01 -.114E+02   0.123E+00 0.108E-02 -.265E+01   0.818E-04 -.512E-07 0.858E-04
   -.107E+01 0.790E+00 -.269E+01   0.106E+01 -.655E+00 0.265E+01   0.867E-02 -.141E+00 0.520E-01   -.974E-05 -.761E-04 -.417E-04
   -.114E+01 -.762E+01 0.778E+01   0.848E+00 0.843E+01 -.783E+01   0.293E+00 -.820E+00 0.460E-01   -.266E-03 0.238E-03 0.151E-03
   -.321E+02 0.765E-01 -.115E+02   0.366E+02 -.437E-01 0.135E+02   -.452E+01 -.351E-01 -.204E+01   0.180E-02 -.824E-06 0.249E-03
   0.336E+01 0.282E+02 -.212E+01   -.341E+01 -.317E+02 0.199E+01   0.507E-01 0.356E+01 0.138E+00   0.347E-04 -.148E-02 -.472E-03
   0.342E+01 -.284E+02 -.218E+01   -.348E+01 0.319E+02 0.205E+01   0.511E-01 -.351E+01 0.129E+00   0.294E-04 0.150E-02 -.472E-03
   0.254E+02 0.748E-01 0.468E+01   -.279E+02 -.462E-01 -.617E+01   0.252E+01 -.344E-01 0.150E+01   -.120E-02 0.781E-05 -.862E-03
   -.843E+00 0.768E+01 0.774E+01   0.517E+00 -.846E+01 -.779E+01   0.316E+00 0.791E+00 0.485E-01   -.298E-03 -.255E-03 0.157E-03
   -.504E+01 -.483E-01 -.208E+02   0.743E+01 0.550E-01 0.297E+02   -.240E+01 0.684E-03 -.889E+01   0.548E-03 0.972E-05 0.213E-02
 -----------------------------------------------------------------------------------------------
   0.420E+01 0.680E-01 0.849E+01   0.151E-13 -.924E-14 0.142E-13   -.422E+01 -.429E-01 -.848E+01   0.684E-03 0.187E-04 0.934E-03
 
 
 POSITION                                       TOTAL-FORCE (eV/Angst)
 -----------------------------------------------------------------------------------
      2.32705      2.13526      2.74410         0.016681     -0.000222     -0.013161
      4.22543      4.25287      8.38389        -0.010414     -0.007338     -0.019670
      2.13505      2.13414      0.01270         0.009388      0.008325     -0.004755
      6.33842      8.36779      6.26947        -0.004403      0.014528      0.004522
      4.45669      6.38002      6.25847         0.025526      0.008937     -0.014343
      4.16179      2.13773      6.29567         0.021112     -0.009608     -0.003395
      6.33825      4.39437      6.26987        -0.002195     -0.004283      0.000753
      6.32254      6.37956      4.73513        -0.022629      0.001535     -0.018643
      4.22413      4.26492      4.13256         0.004669     -0.006866      0.010601
      4.21108      4.22350      2.00988         0.004961     -0.016143     -0.003537
      4.03763      2.13458      4.06631         0.017383     -0.003938      0.011620
      6.34603      4.43555      4.10412        -0.005332      0.009358      0.006216
      2.09970      4.07742      4.10549        -0.002960      0.001194     -0.000412
      4.36073      6.38210      4.15794        -0.044346     -0.007337      0.017916
      4.21349      4.29321      6.25648        -0.008706      0.006074      0.005704
      6.40225      6.38084      6.55427         0.001264      0.005785      0.020584
 -----------------------------------------------------------------------------------
    total drift:                               -0.015429      0.025140      0.015958


--------------------------------------------------------------------------------------------------------



  FREE ENERGIE OF THE ION-ELECTRON SYSTEM (eV)
  ---------------------------------------------------
  free  energy   TOTEN  =       -90.30088751 eV

  energy  without entropy=      -90.30088751  energy(sigma->0) =      -90.30088751
 


--------------------------------------------------------------------------------------------------------


    POTLOK:  cpu time    0.6960: real time    0.6977


--------------------------------------------------------------------------------------------------------




--------------------------------------------------------------------------------------------------------


  
 reached required accuracy - stopping structural energy minimisation
     LOOP+:  cpu time   18.3800: real time   18.4506
    4ORBIT:  cpu time    0.0000: real time    0.0000
 


 total charge     
 
# of ion     s       p       d       tot
----------------------------------------
  1        0.318   0.168   0.036   0.522
  2        0.135   0.159   0.068   0.362
  3        0.150   0.149   0.052   0.351
  4        0.157   0.179   0.073   0.409
  5        0.168   0.196   0.083   0.447
  6        0.150   0.166   0.065   0.381
  7        0.157   0.179   0.073   0.409
  8        0.202   0.249   0.115   0.566
  9        0.135   0.159   0.068   0.362
 10        1.569   3.507   0.000   5.076
 11        1.568   3.518   0.000   5.085
 12        1.569   3.512   0.000   5.081
 13        1.569   3.513   0.000   5.081
 14        1.569   3.517   0.000   5.086
 15        1.569   3.508   0.000   5.076
 16        1.575   3.653   0.000   5.228
------------------------------------------------
tot       12.558  26.330   0.633  39.521
 


 magnetization (x)
 
# of ion     s       p       d       tot
----------------------------------------
  1       -0.000  -0.000  -0.000  -0.000
  2       -0.000  -0.000  -0.000  -0.000
  3       -0.000  -0.000  -0.000  -0.000
  4       -0.000  -0.000  -0.000  -0.000
  5       -0.000  -0.000  -0.000  -0.000
  6       -0.000  -0.000  -0.000  -0.000
  7       -0.000  -0.000  -0.000  -0.000
  8       -0.000  -0.000  -0.000  -0.000
  9       -0.000  -0.000  -0.000  -0.000
 10        0.000   0.000   0.000   0.000
 11        0.000   0.000   0.000   0.000
 12        0.000   0.000   0.000   0.000
 13        0.000   0.000   0.000   0.000
 14        0.000   0.000   0.000   0.000
 15        0.000   0.000   0.000   0.000
 16        0.000   0.000   0.000   0.000
------------------------------------------------
tot        0.000   0.000  -0.000   0.000
 

 total amount of memory used by VASP on root node    36162. kBytes
========================================================================

   base      :      30000. kBytes
   nonlr-proj:       1277. kBytes
   fftplans  :        708. kBytes
   grid      :       1766. kBytes
   one-center:         64. kBytes
   wavefun   :       2347. kBytes
 
  
  
 General timing and accounting informations for this job:
 ========================================================
  
                  Total CPU time used (sec):       19.560
                            User time (sec):       19.372
                          System time (sec):        0.188
                         Elapsed time (sec):       19.848
  
                   Maximum memory used (kb):       63800.
                   Average memory used (kb):           0.
  
                          Minor page faults:        19456
                          Major page faults:            9
                 Voluntary context switches:         1564
