 vasp.5.4.1 05Feb16 (build Mar 31 2016 13:39:20) complex                        
  
 executed on           IFC91_ompi date 2018.04.12  14:18:21
 running on   36 total cores
 distrk:  each k-point on   36 cores,    1 groups
 distr:  one band on NCORES_PER_BAND=   9 cores,    4 groups


--------------------------------------------------------------------------------------------------------


 INCAR:
 POTCAR:    PAW_PBE Mg 13Apr2007                  
 POTCAR:    PAW_PBE O 08Apr2002                   
 POTCAR:    PAW_PBE Mg 13Apr2007                  
   VRHFIN =Mg: s2p0                                                             
   LEXCH  = PE                                                                  
   EATOM  =    23.0369 eV,    1.6932 Ry                                         
                                                                                
   TITEL  = PAW_PBE Mg 13Apr2007                                                
   LULTRA =        F    use ultrasoft PP ?                                      
   IUNSCR =        1    unscreen: 0-lin 1-nonlin 2-no                           
   RPACOR =    1.500    partial core radius                                     
   POMASS =   24.305; ZVAL   =    2.000    mass and valenz                      
   RCORE  =    2.000    outmost cutoff radius                                   
   RWIGS  =    2.880; RWIGS  =    1.524    wigner-seitz radius (au A)           
   ENMAX  =  126.143; ENMIN  =   94.607 eV                                      
   RCLOC  =    1.506    cutoff for local pot                                    
   LCOR   =        T    correct aug charges                                     
   LPAW   =        T    paw PP                                                  
   EAUG   =  454.734                                                            
   DEXC   =    0.000                                                            
   RMAX   =    2.045    core radius for proj-oper                               
   RAUG   =    1.300    factor for augmentation sphere                          
   RDEP   =    2.025    radius for radial grids                                 
   RDEPT  =    1.942    core radius for aug-charge                              
                                                                                
   Atomic configuration                                                         
    6 entries                                                                   
     n  l   j            E        occ.                                          
     1  0  0.50     -1259.6230   2.0000                                         
     2  0  0.50       -79.8442   2.0000                                         
     2  1  1.50       -46.6121   6.0000                                         
     3  0  0.50        -4.7055   2.0000                                         
     3  1  0.50        -1.3660   0.0000                                         
     3  2  1.50        -1.3606   0.0000                                         
   Description                                                                  
     l       E           TYP  RCUT    TYP  RCUT                                 
     0     -4.7054661     23  2.000                                             
     0     27.2116520     23  2.000                                             
     1      1.3605826     23  2.000                                             
     1     27.2116520     23  2.000                                             
     2     -1.3605826     23  2.000                                             
  local pseudopotential read in
  partial core-charges read in
  partial kinetic energy density read in
  atomic valenz-charges read in
  non local Contribution for L=           0  read in
    real space projection operators read in
  non local Contribution for L=           0  read in
    real space projection operators read in
  non local Contribution for L=           1  read in
    real space projection operators read in
  non local Contribution for L=           1  read in
    real space projection operators read in
  non local Contribution for L=           2  read in
    real space projection operators read in
    PAW grid and wavefunctions read in
 
   number of l-projection  operators is LMAX  =           5
   number of lm-projection operators is LMMAX =          13
 
 POTCAR:    PAW_PBE O 08Apr2002                   
   VRHFIN =O: s2p4                                                              
   LEXCH  = PE                                                                  
   EATOM  =   432.3788 eV,   31.7789 Ry                                         
                                                                                
   TITEL  = PAW_PBE O 08Apr2002                                                 
   LULTRA =        F    use ultrasoft PP ?                                      
   IUNSCR =        1    unscreen: 0-lin 1-nonlin 2-no                           
   RPACOR =    1.200    partial core radius                                     
   POMASS =   16.000; ZVAL   =    6.000    mass and valenz                      
   RCORE  =    1.520    outmost cutoff radius                                   
   RWIGS  =    1.550; RWIGS  =    0.820    wigner-seitz radius (au A)           
   ENMAX  =  400.000; ENMIN  =  300.000 eV                                      
   ICORE  =        2    local potential                                         
   LCOR   =        T    correct aug charges                                     
   LPAW   =        T    paw PP                                                  
   EAUG   =  605.392                                                            
   DEXC   =    0.000                                                            
   RMAX   =    1.553    core radius for proj-oper                               
   RAUG   =    1.300    factor for augmentation sphere                          
   RDEP   =    1.550    radius for radial grids                                 
   RDEPT  =    1.329    core radius for aug-charge                              
                                                                                
   Atomic configuration                                                         
    4 entries                                                                   
     n  l   j            E        occ.                                          
     1  0  0.50      -514.6923   2.0000                                         
     2  0  0.50       -23.9615   2.0000                                         
     2  1  0.50        -9.0305   4.0000                                         
     3  2  1.50        -9.5241   0.0000                                         
   Description                                                                  
     l       E           TYP  RCUT    TYP  RCUT                                 
     0    -23.9615318     23  1.200                                             
     0     -9.5240782     23  1.200                                             
     1     -9.0304911     23  1.520                                             
     1      8.1634956     23  1.520                                             
     2     -9.5240782      7  1.500                                             
  local pseudopotential read in
  partial core-charges read in
  partial kinetic energy density read in
  kinetic energy density of atom read in
  atomic valenz-charges read in
  non local Contribution for L=           0  read in
    real space projection operators read in
  non local Contribution for L=           0  read in
    real space projection operators read in
  non local Contribution for L=           1  read in
    real space projection operators read in
  non local Contribution for L=           1  read in
    real space projection operators read in
    PAW grid and wavefunctions read in
 
   number of l-projection  operators is LMAX  =           4
   number of lm-projection operators is LMMAX =           8
 
 Optimization of the real space projectors (new method)

 maximal supplied QI-value         = 18.90
 optimisation between [QCUT,QGAM] = [ 10.20, 20.41] = [ 29.16,116.64] Ry 
 Optimized for a Real-space Cutoff    1.30 Angstroem

   l    n(q)    QCUT    max X(q) W(low)/X(q) W(high)/X(q)  e(spline) 
   0      8    10.205    28.265    0.22E-03    0.17E-03    0.53E-07
   0      8    10.205    10.429    0.17E-03    0.15E-03    0.43E-07
   1      7    10.205    13.073    0.71E-04    0.41E-03    0.76E-07
   1      7    10.205     9.625    0.71E-04    0.33E-03    0.63E-07
   2      7    10.205     4.652    0.24E-03    0.41E-03    0.55E-07
 Optimization of the real space projectors (new method)

 maximal supplied QI-value         = 24.76
 optimisation between [QCUT,QGAM] = [ 10.15, 20.30] = [ 28.85,115.39] Ry 
 Optimized for a Real-space Cutoff    1.38 Angstroem

   l    n(q)    QCUT    max X(q) W(low)/X(q) W(high)/X(q)  e(spline) 
   0      8    10.150    20.381    0.22E-03    0.32E-03    0.29E-06
   0      8    10.150    15.268    0.23E-03    0.35E-03    0.30E-06
   1      8    10.150     5.964    0.46E-03    0.53E-03    0.21E-06
   1      8    10.150     5.382    0.38E-03    0.45E-03    0.19E-06
  PAW_PBE Mg 13Apr2007                  :
 energy of atom  1       EATOM=  -23.0369
 kinetic energy error for atom=    0.0001 (will be added to EATOM!!)
  PAW_PBE O 08Apr2002                   :
 energy of atom  2       EATOM= -432.3788
 kinetic energy error for atom=    0.1156 (will be added to EATOM!!)
 
 
 POSCAR: Mg9 O7                                  
  positions in direct lattice
  velocities in cartesian coordinates
 exchange correlation table for  LEXCH =        8
   RHO(1)=    0.500       N(1)  =     2000
   RHO(2)=  100.500       N(2)  =     4000
 


--------------------------------------------------------------------------------------------------------


 ion  position               nearest neighbor table
   1  0.296  0.346  0.207-   8 2.02  11 2.17   5 2.24   7 2.38   4 2.38  13 2.40  12 2.41   6 2.52
                            14 2.67   3 2.73   2 3.17   9 3.17   2 3.48   9 3.48
   2  0.990  0.983  0.011-  15 2.12  14 2.12  10 2.12  13 2.13  12 2.13  11 2.14   6 2.97   3 2.97
                             7 2.99   4 3.00   5 3.01   4 3.01   5 3.02   7 3.02   6 3.03   3 3.04
   3  0.000  0.002  0.502-  16 1.95  14 2.21  13 2.30  12 2.30  11 2.35   1 2.73   5 2.95   9 2.97
                             2 2.97   7 2.98   4 2.99   6 3.00   6 3.02   4 3.03   7 3.03   2 3.04
   4  0.977  0.499  0.992-  16 2.00  12 2.11  15 2.13  10 2.13  13 2.16   1 2.38   8 2.52   5 2.73
                             6 2.87   3 2.99   9 2.99   2 3.00   2 3.01   9 3.02   3 3.03   6 3.13
   5  0.962  0.511  0.541-  16 1.96  14 2.10  10 2.10  15 2.10  11 2.10   1 2.24   8 2.40   4 2.73
                             7 2.73   3 2.95   2 3.01   9 3.01   9 3.02   2 3.02   3 3.07   7 3.28
   6  0.502  0.981  0.000-  16 2.02  14 2.12  10 2.16  15 2.17  11 2.23   1 2.52   8 2.62   7 2.87
                             4 2.87   2 2.97   9 2.97   3 3.00   3 3.02   9 3.03   2 3.03   4 3.13
   7  0.510  0.967  0.525-  16 2.00  13 2.11  10 2.13  15 2.13  12 2.16   1 2.38   8 2.52   5 2.73
                             6 2.87   3 2.98   2 2.99   9 3.00   9 3.01   2 3.02   3 3.03   6 3.14
   8  0.564  0.549  0.939-  16 1.83   1 2.02  12 2.05  13 2.05  14 2.05  11 2.08   5 2.40   7 2.52
                             4 2.52   6 2.62   9 3.03   2 3.04   2 3.08   9 3.09   6 3.43   4 3.52
   9  0.492  0.482  0.512-  14 2.12  15 2.12  12 2.13  10 2.13  13 2.13  11 2.14   6 2.97   3 2.97
                             4 2.99   7 3.00   7 3.01   5 3.01   5 3.02   4 3.02   6 3.03   8 3.03
  10  0.238  0.236  0.756-   5 2.10   2 2.12   9 2.13   4 2.13   7 2.13   6 2.16
  11  0.254  0.704  0.248-   8 2.08   5 2.10   2 2.14   9 2.14   1 2.17   6 2.23   3 2.35
  12  0.259  0.709  0.784-   8 2.05   4 2.11   9 2.13   2 2.13   7 2.16   3 2.30   1 2.41
  13  0.718  0.250  0.244-   8 2.05   7 2.11   2 2.13   9 2.13   4 2.16   3 2.30   1 2.40
  14  0.730  0.251  0.772-   8 2.05   5 2.10   9 2.12   2 2.12   6 2.12   3 2.21   1 2.67
  15  0.747  0.727  0.265-   5 2.10   9 2.12   2 2.12   4 2.13   7 2.13   6 2.17
  16  0.768  0.774  0.735-   8 1.83   3 1.95   5 1.96   7 2.00   4 2.00   6 2.02
 
  LATTYP: Found a face centered cubic cell.
 ALAT       =     8.4937860000
  
  Lattice vectors:
  
 A1 = (   0.0000000000,   4.2468930000,   4.2468930000)
 A2 = (   4.2468930000,   0.0000000000,   4.2468930000)
 A3 = (   4.2468930000,   4.2468930000,   0.0000000000)


Analysis of symmetry for initial positions (statically):
=====================================================================
 Subroutine PRICEL returns:
 Original cell was already a primitive cell.
 

 Routine SETGRP: Setting up the symmetry group for a 
 face centered cubic supercell.


 Subroutine GETGRP returns: Found  1 space group operations
 (whereof  1 operations were pure point group operations)
 out of a pool of 48 trial point group operations.


The static configuration has the point symmetry C_1 .


Analysis of symmetry for dynamics (positions and initial velocities):
=====================================================================
 Subroutine PRICEL returns:
 Original cell was already a primitive cell.
 

 Routine SETGRP: Setting up the symmetry group for a 
 face centered cubic supercell.


 Subroutine GETGRP returns: Found  1 space group operations
 (whereof  1 operations were pure point group operations)
 out of a pool of 48 trial point group operations.


The dynamic configuration has the point symmetry C_1 .


Analysis of structural, dynamic, and magnetic symmetry:
=====================================================================
 Subroutine PRICEL returns:
 Original cell was already a primitive cell.
 

 Routine SETGRP: Setting up the symmetry group for a 
 face centered cubic supercell.


 Subroutine GETGRP returns: Found  1 space group operations
 (whereof  1 operations were pure point group operations)
 out of a pool of 48 trial point group operations.


The magnetic configuration has the point symmetry C_1 .


 Subroutine INISYM returns: Found  1 space group operations
 (whereof  1 operations are pure point group operations),
 and found     1 'primitive' translations

 
 
 KPOINTS: k-point mesh                            

Automatic generation of k-mesh.
Space group operators:
 irot       det(A)        alpha          n_x          n_y          n_z        tau_x        tau_y        tau_z
    1     1.000000     0.000000     1.000000     0.000000     0.000000     0.000000     0.000000     0.000000
 
 Subroutine IBZKPT returns following result:
 ===========================================
 
 Found     16 irreducible k-points:
 
 Following reciprocal coordinates:
            Coordinates               Weight
  0.250000  0.250000  0.250000     24.000000
  0.250000  0.000000  0.000000     24.000000
  0.000000  0.000000 -0.250000     24.000000
  0.000000  0.250000  0.000000     24.000000
 -0.250000  0.250000  0.250000     24.000000
  0.250000 -0.250000  0.250000     24.000000
  0.250000  0.250000 -0.250000     24.000000
  0.250000  0.000000  0.500000     24.000000
 -0.250000  0.500000  0.500000     24.000000
  0.250000  0.500000  0.000000     24.000000
  0.000000  0.500000 -0.250000     24.000000
  0.500000  0.000000 -0.250000     24.000000
  0.500000  0.500000  0.250000     24.000000
  0.500000 -0.250000  0.500000     24.000000
  0.000000  0.250000  0.500000     24.000000
  0.500000  0.250000  0.000000     24.000000
 
 Following cartesian coordinates:
            Coordinates               Weight
  0.029433  0.029433  0.029433     24.000000
 -0.029433  0.029433  0.029433     24.000000
 -0.029433 -0.029433  0.029433     24.000000
  0.029433 -0.029433  0.029433     24.000000
  0.088300 -0.029433 -0.029433     24.000000
 -0.029433  0.088300 -0.029433     24.000000
 -0.029433 -0.029433  0.088300     24.000000
  0.029433  0.088300 -0.029433     24.000000
  0.147166 -0.029433 -0.029433     24.000000
  0.029433 -0.029433  0.088300     24.000000
  0.029433 -0.088300  0.088300     24.000000
 -0.088300  0.029433  0.088300     24.000000
  0.029433  0.029433  0.088300     24.000000
 -0.029433  0.147166 -0.029433     24.000000
  0.088300  0.029433 -0.029433     24.000000
 -0.029433  0.029433  0.088300     24.000000
 


--------------------------------------------------------------------------------------------------------




 Dimension of arrays:
   k-points           NKPTS =     16   k-points in BZ     NKDIM =     16   number of bands    NBANDS=     48
   number of dos      NEDOS =    301   number of ions     NIONS =     16
   non local maximal  LDIM  =      5   non local SUM 2l+1 LMDIM =     13
   total plane-waves  NPLWV =  27000
   max r-space proj   IRMAX =   1992   max aug-charges    IRDMAX=   7686
   dimension x,y,z NGX =    30 NGY =   30 NGZ =   30
   dimension x,y,z NGXF=    60 NGYF=   60 NGZF=   60
   support grid    NGXF=    60 NGYF=   60 NGZF=   60
   ions per type =               9   7
 NGX,Y,Z   is equivalent  to a cutoff of   8.30,  8.30,  8.30 a.u.
 NGXF,Y,Z  is equivalent  to a cutoff of  16.61, 16.61, 16.61 a.u.


 I would recommend the setting:
   dimension x,y,z NGX =    29 NGY =   29 NGZ =   29
 SYSTEM =  unknown system                          
 POSCAR =  Mg9 O7                                  

 Startparameter for this run:
   NWRITE =      2    write-flag & timer
   PREC   = n         normal or accurate (medium, high low for compatibility)
   ISTART =      0    job   : 0-new  1-cont  2-samecut
   ICHARG =      2    charge: 1-file 2-atom 10-const
   ISPIN  =      2    spin polarized calculation?
   LNONCOLLINEAR =      F non collinear calculations
   LSORBIT =      F    spin-orbit coupling
   INIWAV =      1    electr: 0-lowe 1-rand  2-diag
   LASPH  =      T    aspherical Exc in radial PAW
   METAGGA=      F    non-selfconsistent MetaGGA calc.

 Electronic Relaxation 1
   ENCUT  =  400.0 eV  29.40 Ry    5.42 a.u.   9.79  9.79  9.79*2*pi/ulx,y,z
   ENINI  =  400.0     initial cutoff
   ENAUG  =  605.4 eV  augmentation charge cutoff
   NELM   =    100;   NELMIN=  4; NELMDL=  0     # of ELM steps 
   EDIFF  = 0.1E-05   stopping-criterion for ELM
   LREAL  =      T    real-space projection
   NLSPLINE    = F    spline interpolate recip. space projectors
   LCOMPAT=      F    compatible to vasp.4.4
   GGA_COMPAT  = T    GGA compatible to vasp.4.4-vasp.4.6
   LMAXPAW     = -100 max onsite density
   LMAXMIX     =    2 max onsite mixed and CHGCAR
   VOSKOWN=      0    Vosko Wilk Nusair interpolation
   ROPT   =   -0.00050  -0.00050
 Ionic relaxation
   EDIFFG = -.5E-01   stopping-criterion for IOM
   NSW    =     20    number of steps for IOM
   NBLOCK =      1;   KBLOCK =     20    inner block; outer block 
   IBRION =      2    ionic relax: 0-MD 1-quasi-New 2-CG
   NFREE  =      1    steps in history (QN), initial steepest desc. (CG)
   ISIF   =      2    stress and relaxation
   IWAVPR =     11    prediction:  0-non 1-charg 2-wave 3-comb
   ISYM   =      2    0-nonsym 1-usesym 2-fastsym
   LCORR  =      T    Harris-Foulkes like correction to forces

   POTIM  = 0.5000    time-step for ionic-motion
   TEIN   =    0.0    initial temperature
   TEBEG  =    0.0;   TEEND  =   0.0 temperature during run
   SMASS  =  -3.00    Nose mass-parameter (am)
   estimated Nose-frequenzy (Omega)   =  0.10E-29 period in steps =****** mass=  -0.824E-27a.u.
   SCALEE = 1.0000    scale energy and forces
   NPACO  =    256;   APACO  = 16.0  distance and # of slots for P.C.
   PSTRESS=    0.0 pullay stress

  Mass of Ions in am
   POMASS =  24.30 16.00
  Ionic Valenz
   ZVAL   =   2.00  6.00
  Atomic Wigner-Seitz radii
   RWIGS  =  -1.00 -1.00
  virtual crystal weights 
   VCA    =   1.00  1.00
   NELECT =      58.0000    total number of electrons
   NUPDOWN=      -1.0000    fix difference up-down

 DOS related values:
   EMIN   =  10.00;   EMAX   =-10.00  energy-range for DOS
   EFERMI =   0.00
   ISMEAR =     0;   SIGMA  =   0.05  broadening in eV -4-tet -1-fermi 0-gaus

 Electronic relaxation 2 (details)
   IALGO  =     38    algorithm
   LDIAG  =      T    sub-space diagonalisation (order eigenvalues)
   LSUBROT=      F    optimize rotation matrix (better conditioning)
   TURBO    =      0    0=normal 1=particle mesh
   IRESTART =      0    0=no restart 2=restart with 2 vectors
   NREBOOT  =      0    no. of reboots
   NMIN     =      0    reboot dimension
   EREF     =   0.00    reference energy to select bands
   IMIX   =      4    mixing-type and parameters
     AMIX     =   0.40;   BMIX     =  1.00
     AMIX_MAG =   1.60;   BMIX_MAG =  1.00
     AMIN     =   0.10
     WC   =   100.;   INIMIX=   1;  MIXPRE=   1;  MAXMIX= -45

 Intra band minimization:
   WEIMIN = 0.0010     energy-eigenvalue tresh-hold
   EBREAK =  0.52E-08  absolut break condition
   DEPER  =   0.30     relativ break condition  

   TIME   =   0.40     timestep for ELM

  volume/ion in A,a.u.               =       9.57        64.61
  Fermi-wavevector in a.u.,A,eV,Ry     =   1.184321  2.238043 19.083760  1.402617
  Thomas-Fermi vector in A             =   2.320538
 
 Write flags
   LWAVE  =      F    write WAVECAR
   LCHARG =      F    write CHGCAR
   LVTOT  =      F    write LOCPOT, total local potential
   LVHAR  =      F    write LOCPOT, Hartree potential only
   LELF   =      F    write electronic localiz. function (ELF)
   LORBIT =     12    0 simple, 1 ext, 2 COOP (PROOUT)


 Dipole corrections
   LMONO  =      F    monopole corrections only (constant potential shift)
   LDIPOL =      F    correct potential (dipole corrections)
   IDIPOL =      0    1-x, 2-y, 3-z, 4-all directions 
   EPSILON=  1.0000000 bulk dielectric constant

 Exchange correlation treatment:
   GGA     =    --    GGA type
   LEXCH   =     8    internal setting for exchange type
   VOSKOWN=      0    Vosko Wilk Nusair interpolation
   LHFCALC =     F    Hartree Fock is set to
   LHFONE  =     F    Hartree Fock one center treatment
   AEXX    =    0.0000 exact exchange contribution

 Linear response parameters
   LEPSILON=     F    determine dielectric tensor
   LRPA    =     F    only Hartree local field effects (RPA)
   LNABLA  =     F    use nabla operator in PAW spheres
   LVEL    =     F    velocity operator in full k-point grid
   LINTERFAST=   F  fast interpolation
   KINTER  =     0    interpolate to denser k-point grid
   CSHIFT  =0.1000    complex shift for real part using Kramers Kronig
   OMEGAMAX=  -1.0    maximum frequency
   DEG_THRESHOLD= 0.2000000E-02 threshold for treating states as degnerate
   RTIME   =    0.100 relaxation time in fs

 Orbital magnetization related:
   ORBITALMAG=     F  switch on orbital magnetization
   LCHIMAG   =     F  perturbation theory with respect to B field
   DQ        =  0.001000  dq finite difference perturbation B field



--------------------------------------------------------------------------------------------------------


 conjugate gradient relaxation of ions
 charge density and potential will be updated during run
 spin polarized calculation
 Variant of blocked Davidson
 Davidson routine will perform the subspace rotation
 perform sub-space diagonalisation
    after iterative eigenvector-optimisation
 modified Broyden-mixing scheme, WC =      100.0
 initial mixing is a Kerker type mixing with AMIX =  0.4000 and BMIX =      1.0000
 Hartree-type preconditioning will be used
 using additional bands           19
 real space projection scheme for non local part
 use partial core corrections
 calculate Harris-corrections to forces 
   (improved forces if not selfconsistent)
 use gradient corrections 
 use of overlap-Matrix (Vanderbilt PP)
 Gauss-broadening in eV      SIGMA  =   0.05


--------------------------------------------------------------------------------------------------------


  energy-cutoff  :      400.00
  volume of cell :      153.19
      direct lattice vectors                 reciprocal lattice vectors
     0.000000000  4.246893000  4.246893000    -0.117733129  0.117733129  0.117733129
     4.246893000  0.000000000  4.246893000     0.117733129 -0.117733129  0.117733129
     4.246893000  4.246893000  0.000000000     0.117733129  0.117733129 -0.117733129

  length of vectors
     6.006013679  6.006013679  6.006013679     0.203919761  0.203919761  0.203919761


 
 k-points in units of 2pi/SCALE and weight: k-point mesh                            
   0.02943328  0.02943328  0.02943328       0.062
  -0.02943328  0.02943328  0.02943328       0.062
  -0.02943328 -0.02943328  0.02943328       0.062
   0.02943328 -0.02943328  0.02943328       0.062
   0.08829985 -0.02943328 -0.02943328       0.062
  -0.02943328  0.08829985 -0.02943328       0.062
  -0.02943328 -0.02943328  0.08829985       0.062
   0.02943328  0.08829985 -0.02943328       0.062
   0.14716641 -0.02943328 -0.02943328       0.062
   0.02943328 -0.02943328  0.08829985       0.062
   0.02943328 -0.08829985  0.08829985       0.062
  -0.08829985  0.02943328  0.08829985       0.062
   0.02943328  0.02943328  0.08829985       0.062
  -0.02943328  0.14716641 -0.02943328       0.062
   0.08829985  0.02943328 -0.02943328       0.062
  -0.02943328  0.02943328  0.08829985       0.062
 
 k-points in reciprocal lattice and weights: k-point mesh                            
   0.25000000  0.25000000  0.25000000       0.062
   0.25000000  0.00000000  0.00000000       0.062
   0.00000000  0.00000000 -0.25000000       0.062
   0.00000000  0.25000000  0.00000000       0.062
  -0.25000000  0.25000000  0.25000000       0.062
   0.25000000 -0.25000000  0.25000000       0.062
   0.25000000  0.25000000 -0.25000000       0.062
   0.25000000  0.00000000  0.50000000       0.062
  -0.25000000  0.50000000  0.50000000       0.062
   0.25000000  0.50000000  0.00000000       0.062
   0.00000000  0.50000000 -0.25000000       0.062
   0.50000000  0.00000000 -0.25000000       0.062
   0.50000000  0.50000000  0.25000000       0.062
   0.50000000 -0.25000000  0.50000000       0.062
   0.00000000  0.25000000  0.50000000       0.062
   0.50000000  0.25000000  0.00000000       0.062
 
 position of ions in fractional coordinates (direct lattice) 
   0.29635061  0.34563802  0.20656423
   0.99047329  0.98302896  0.01083278
   0.00044826  0.00166787  0.50162234
   0.97747527  0.49944154  0.99248584
   0.96246544  0.51121395  0.54051523
   0.50216034  0.98059740  0.00012580
   0.51032426  0.96676747  0.52549345
   0.56385254  0.54857748  0.93858291
   0.49170418  0.48248406  0.51206880
   0.23793695  0.23568417  0.75580873
   0.25429164  0.70410243  0.24809392
   0.25869627  0.70942631  0.78413408
   0.71805611  0.24970651  0.24396538
   0.73042439  0.25061418  0.77192433
   0.74730985  0.72652413  0.26457947
   0.76814359  0.77375753  0.73469571
 
 position of ions in cartesian coordinates  (Angst):
   2.34514390  2.13582554  2.72645704
   4.22082448  4.25243977  8.38125290
   2.13741967  2.13224013  0.00898697
   6.33605596  8.36621406  6.27230769
   4.46658128  6.38299811  6.25855869
   4.16502645  2.13315546  6.29711343
   6.33747243  4.39900698  6.27305053
   6.31581102  6.38068259  4.72437127
   4.22375958  4.26291642  4.13727323
   4.21076425  4.22033156  2.01141822
   4.04387602  2.13357772  4.07019706
   6.34299116  4.42878893  4.11151299
   2.09657167  4.08560232  4.10998428
   4.34261165  6.38031427  4.16636582
   4.20911097  4.29738568  6.25921521
   6.40623951  6.38239771  6.54828910
 


--------------------------------------------------------------------------------------------------------


 k-point  1 :   0.2500 0.2500 0.2500  plane waves:    2782
 k-point  2 :   0.2500 0.0000 0.0000  plane waves:    2782
 k-point  3 :   0.0000 0.0000-0.2500  plane waves:    2782
 k-point  4 :   0.0000 0.2500 0.0000  plane waves:    2782
 k-point  5 :  -0.2500 0.2500 0.2500  plane waves:    2788
 k-point  6 :   0.2500-0.2500 0.2500  plane waves:    2788
 k-point  7 :   0.2500 0.2500-0.2500  plane waves:    2788
 k-point  8 :   0.2500 0.0000 0.5000  plane waves:    2788
 k-point  9 :  -0.2500 0.5000 0.5000  plane waves:    2788
 k-point 10 :   0.2500 0.5000 0.0000  plane waves:    2788
 k-point 11 :   0.0000 0.5000-0.2500  plane waves:    2788
 k-point 12 :   0.5000 0.0000-0.2500  plane waves:    2788
 k-point 13 :   0.5000 0.5000 0.2500  plane waves:    2788
 k-point 14 :   0.5000-0.2500 0.5000  plane waves:    2788
 k-point 15 :   0.0000 0.2500 0.5000  plane waves:    2788
 k-point 16 :   0.5000 0.2500 0.0000  plane waves:    2788

 maximum and minimum number of plane-waves per node :       326      286

 maximum number of plane-waves:      2788
 maximum index in each direction: 
   IXMAX=   10   IYMAX=   10   IZMAX=   10
   IXMIN=  -10   IYMIN=  -10   IZMIN=  -10

 WARNING: aliasing errors must be expected set NGX to  42 to avoid them
 WARNING: aliasing errors must be expected set NGY to  42 to avoid them
 WARNING: aliasing errors must be expected set NGZ to  42 to avoid them
 aliasing errors are usually negligible using standard VASP settings
 and one can safely disregard these warnings

 real space projection operators:
  total allocation   :       2265.19 KBytes
  max/ min on nodes  :        311.57        212.68


 parallel 3D FFT for wavefunctions:
    minimum data exchange during FFTs selected (reduces bandwidth)
 parallel 3D FFT for charge:
    minimum data exchange during FFTs selected (reduces bandwidth)


 total amount of memory used by VASP on root node    34266. kBytes
========================================================================

   base      :      30000. kBytes
   nonlr-proj:        910. kBytes
   fftplans  :        353. kBytes
   grid      :        883. kBytes
   one-center:         32. kBytes
   wavefun   :       2088. kBytes
 
     INWAV:  cpu time    0.0000: real time    0.0004
 Broyden mixing: mesh for mixing (old mesh)
   NGX = 19   NGY = 19   NGZ = 19
  (NGX  = 60   NGY  = 60   NGZ  = 60)
  gives a total of   6859 points

 initial charge density was supplied:
 charge density of overlapping atoms calculated
 number of electron      60.0000000 magnetization      16.0000000
 keeping initial charge density in first step


--------------------------------------------------------------------------------------------------------


 Maximum index for non-local projection operator          292
 Maximum index for augmentation-charges          419 (set IRDMAX)


--------------------------------------------------------------------------------------------------------


 First call to EWALD:  gamma=   0.331
 Maximum number of real-space cells 3x 3x 3
 Maximum number of reciprocal cells 3x 3x 3

 FEWALD executed in parallel
    FEWALD:  cpu time    0.0040: real time    0.0013


----------------------------------------- Iteration    1(   1)  ---------------------------------------


    POTLOK:  cpu time    0.0080: real time    0.0122
    SETDIJ:  cpu time    0.3560: real time    0.3585
     EDDAV:  cpu time    0.6760: real time    0.6867
       DOS:  cpu time    0.0000: real time    0.0018
    --------------------------------------------
      LOOP:  cpu time    1.0400: real time    1.0619

 eigenvalue-minimisations  :  3256
 total energy-change (2. order) : 0.2167294E+03  (-0.2427793E+04)
 number of electron      60.0000000 magnetization      16.0000000
 augmentation part       60.0000000 magnetization      16.0000000

 Free energy of the ion-electron system (eV)
  ---------------------------------------------------
  alpha Z        PSCENC =       142.81396753
  Ewald energy   TEWEN  =     -2460.88124511
  -Hartree energ DENC   =      -964.94139671
  -exchange      EXHF   =         0.00000000
  -V(xc)+E(xc)   XCENC  =      -236.29612506
  PAW double counting   =      3011.45132117    -2557.24446474
  entropy T*S    EENTRO =        -0.00250134
  eigenvalues    EBANDS =        48.65646632
  atomic energy  EATOM  =      3233.17333345
  Solvation  Ediel_sol  =         0.00000000
  ---------------------------------------------------
  free energy    TOTEN  =       216.72935551 eV

  energy without entropy =      216.73185685  energy(sigma->0) =      216.73060618


--------------------------------------------------------------------------------------------------------




----------------------------------------- Iteration    1(   2)  ---------------------------------------


     EDDAV:  cpu time    0.7240: real time    0.7254
       DOS:  cpu time    0.0000: real time    0.0004
    --------------------------------------------
      LOOP:  cpu time    0.7240: real time    0.7307

 eigenvalue-minimisations  :  3824
 total energy-change (2. order) :-0.2935537E+03  (-0.2828127E+03)
 number of electron      60.0000000 magnetization      16.0000000
 augmentation part       60.0000000 magnetization      16.0000000

 Free energy of the ion-electron system (eV)
  ---------------------------------------------------
  alpha Z        PSCENC =       142.81396753
  Ewald energy   TEWEN  =     -2460.88124511
  -Hartree energ DENC   =      -964.94139671
  -exchange      EXHF   =         0.00000000
  -V(xc)+E(xc)   XCENC  =      -236.29612506
  PAW double counting   =      3011.45132117    -2557.24446474
  entropy T*S    EENTRO =        -0.00000000
  eigenvalues    EBANDS =      -244.89971547
  atomic energy  EATOM  =      3233.17333345
  Solvation  Ediel_sol  =         0.00000000
  ---------------------------------------------------
  free energy    TOTEN  =       -76.82432494 eV

  energy without entropy =      -76.82432494  energy(sigma->0) =      -76.82432494


--------------------------------------------------------------------------------------------------------




----------------------------------------- Iteration    1(   3)  ---------------------------------------


     EDDAV:  cpu time    0.7200: real time    0.7196
       DOS:  cpu time    0.0000: real time    0.0004
    --------------------------------------------
      LOOP:  cpu time    0.7200: real time    0.7236

 eigenvalue-minimisations  :  3752
 total energy-change (2. order) :-0.1693248E+02  (-0.1683922E+02)
 number of electron      60.0000000 magnetization      16.0000000
 augmentation part       60.0000000 magnetization      16.0000000

 Free energy of the ion-electron system (eV)
  ---------------------------------------------------
  alpha Z        PSCENC =       142.81396753
  Ewald energy   TEWEN  =     -2460.88124511
  -Hartree energ DENC   =      -964.94139671
  -exchange      EXHF   =         0.00000000
  -V(xc)+E(xc)   XCENC  =      -236.29612506
  PAW double counting   =      3011.45132117    -2557.24446474
  entropy T*S    EENTRO =        -0.00000000
  eigenvalues    EBANDS =      -261.83219386
  atomic energy  EATOM  =      3233.17333345
  Solvation  Ediel_sol  =         0.00000000
  ---------------------------------------------------
  free energy    TOTEN  =       -93.75680333 eV

  energy without entropy =      -93.75680333  energy(sigma->0) =      -93.75680333


--------------------------------------------------------------------------------------------------------




----------------------------------------- Iteration    1(   4)  ---------------------------------------


     EDDAV:  cpu time    0.7000: real time    0.7023
       DOS:  cpu time    0.0000: real time    0.0004
    --------------------------------------------
      LOOP:  cpu time    0.7000: real time    0.7056

 eigenvalue-minimisations  :  3608
 total energy-change (2. order) :-0.9956076E-01  (-0.9950771E-01)
 number of electron      60.0000000 magnetization      16.0000000
 augmentation part       60.0000000 magnetization      16.0000000

 Free energy of the ion-electron system (eV)
  ---------------------------------------------------
  alpha Z        PSCENC =       142.81396753
  Ewald energy   TEWEN  =     -2460.88124511
  -Hartree energ DENC   =      -964.94139671
  -exchange      EXHF   =         0.00000000
  -V(xc)+E(xc)   XCENC  =      -236.29612506
  PAW double counting   =      3011.45132117    -2557.24446474
  entropy T*S    EENTRO =        -0.00000000
  eigenvalues    EBANDS =      -261.93175462
  atomic energy  EATOM  =      3233.17333345
  Solvation  Ediel_sol  =         0.00000000
  ---------------------------------------------------
  free energy    TOTEN  =       -93.85636409 eV

  energy without entropy =      -93.85636409  energy(sigma->0) =      -93.85636409


--------------------------------------------------------------------------------------------------------




----------------------------------------- Iteration    1(   5)  ---------------------------------------


     EDDAV:  cpu time    0.7040: real time    0.7054
       DOS:  cpu time    0.0000: real time    0.0004
    CHARGE:  cpu time    0.0160: real time    0.0178
    MIXING:  cpu time    0.0000: real time    0.0008
    --------------------------------------------
      LOOP:  cpu time    0.7200: real time    0.7273

 eigenvalue-minimisations  :  3696
 total energy-change (2. order) :-0.5022227E-03  (-0.5022033E-03)
 number of electron      57.9999950 magnetization       0.0909435
 augmentation part        5.5096792 magnetization       0.1380569

 Broyden mixing:
  rms(total) = 0.27014E+01    rms(broyden)= 0.26960E+01
  rms(prec ) = 0.44281E+01
  weight for this iteration     100.00

 Free energy of the ion-electron system (eV)
  ---------------------------------------------------
  alpha Z        PSCENC =       142.81396753
  Ewald energy   TEWEN  =     -2460.88124511
  -Hartree energ DENC   =      -964.94139671
  -exchange      EXHF   =         0.00000000
  -V(xc)+E(xc)   XCENC  =      -236.29612506
  PAW double counting   =      3011.45132117    -2557.24446474
  entropy T*S    EENTRO =        -0.00000000
  eigenvalues    EBANDS =      -261.93225684
  atomic energy  EATOM  =      3233.17333345
  Solvation  Ediel_sol  =         0.00000000
  ---------------------------------------------------
  free energy    TOTEN  =       -93.85686631 eV

  energy without entropy =      -93.85686631  energy(sigma->0) =      -93.85686631


--------------------------------------------------------------------------------------------------------




----------------------------------------- Iteration    1(   6)  ---------------------------------------


    POTLOK:  cpu time    0.0120: real time    0.0087
    SETDIJ:  cpu time    0.3560: real time    0.3584
     EDDAV:  cpu time    0.6880: real time    0.6862
       DOS:  cpu time    0.0000: real time    0.0005
    CHARGE:  cpu time    0.0160: real time    0.0193
    MIXING:  cpu time    0.0000: real time    0.0003
    --------------------------------------------
      LOOP:  cpu time    1.0720: real time    1.0764

 eigenvalue-minimisations  :  3456
 total energy-change (2. order) : 0.3382359E+01  (-0.3327194E+01)
 number of electron      57.9999958 magnetization       0.0068298
 augmentation part        4.5783402 magnetization      -0.1065186

 Broyden mixing:
  rms(total) = 0.75653E+00    rms(broyden)= 0.75531E+00
  rms(prec ) = 0.10416E+01
  weight for this iteration     100.00

 eigenvalues of (default mixing * dielectric matrix)
  average eigenvalue GAMMA=   0.8307
  0.8307

 Free energy of the ion-electron system (eV)
  ---------------------------------------------------
  alpha Z        PSCENC =       142.81396753
  Ewald energy   TEWEN  =     -2460.88124511
  -Hartree energ DENC   =     -1095.20149759
  -exchange      EXHF   =         0.00000000
  -V(xc)+E(xc)   XCENC  =      -236.10413045
  PAW double counting   =      3537.05935589    -3085.01686120
  entropy T*S    EENTRO =        -0.00000000
  eigenvalues    EBANDS =      -126.31742954
  atomic energy  EATOM  =      3233.17333345
  Solvation  Ediel_sol  =         0.00000000
  ---------------------------------------------------
  free energy    TOTEN  =       -90.47450701 eV

  energy without entropy =      -90.47450701  energy(sigma->0) =      -90.47450701


--------------------------------------------------------------------------------------------------------




----------------------------------------- Iteration    1(   7)  ---------------------------------------


    POTLOK:  cpu time    0.0120: real time    0.0092
    SETDIJ:  cpu time    0.3560: real time    0.3562
     EDDAV:  cpu time    0.6920: real time    0.6951
       DOS:  cpu time    0.0040: real time    0.0004
    CHARGE:  cpu time    0.0160: real time    0.0172
    MIXING:  cpu time    0.0000: real time    0.0003
    --------------------------------------------
      LOOP:  cpu time    1.0800: real time    1.0813

 eigenvalue-minimisations  :  3552
 total energy-change (2. order) :-0.1364873E+00  (-0.1227961E+00)
 number of electron      57.9999958 magnetization      -0.0033793
 augmentation part        4.5849284 magnetization      -0.0162932

 Broyden mixing:
  rms(total) = 0.38604E+00    rms(broyden)= 0.38598E+00
  rms(prec ) = 0.60704E+00
  weight for this iteration     100.00

 eigenvalues of (default mixing * dielectric matrix)
  average eigenvalue GAMMA=   0.9750
  0.9750  0.9750

 Free energy of the ion-electron system (eV)
  ---------------------------------------------------
  alpha Z        PSCENC =       142.81396753
  Ewald energy   TEWEN  =     -2460.88124511
  -Hartree energ DENC   =     -1095.67021582
  -exchange      EXHF   =         0.00000000
  -V(xc)+E(xc)   XCENC  =      -235.96851438
  PAW double counting   =      3709.10763765    -3256.82360513
  entropy T*S    EENTRO =        -0.00000000
  eigenvalues    EBANDS =      -126.36235254
  atomic energy  EATOM  =      3233.17333345
  Solvation  Ediel_sol  =         0.00000000
  ---------------------------------------------------
  free energy    TOTEN  =       -90.61099434 eV

  energy without entropy =      -90.61099434  energy(sigma->0) =      -90.61099434


--------------------------------------------------------------------------------------------------------




----------------------------------------- Iteration    1(   8)  ---------------------------------------


    POTLOK:  cpu time    0.0080: real time    0.0091
    SETDIJ:  cpu time    0.3560: real time    0.3553
     EDDAV:  cpu time    0.7000: real time    0.7003
       DOS:  cpu time    0.0000: real time    0.0004
    CHARGE:  cpu time    0.0160: real time    0.0171
    MIXING:  cpu time    0.0000: real time    0.0003
    --------------------------------------------
      LOOP:  cpu time    1.0840: real time    1.0856

 eigenvalue-minimisations  :  3664
 total energy-change (2. order) : 0.8948707E-01  (-0.1651426E-01)
 number of electron      57.9999958 magnetization      -0.0024141
 augmentation part        4.6060464 magnetization      -0.0021873

 Broyden mixing:
  rms(total) = 0.14694E+00    rms(broyden)= 0.14692E+00
  rms(prec ) = 0.22821E+00
  weight for this iteration     100.00

 eigenvalues of (default mixing * dielectric matrix)
  average eigenvalue GAMMA=   1.2542
  2.0424  0.9007  0.8193

 Free energy of the ion-electron system (eV)
  ---------------------------------------------------
  alpha Z        PSCENC =       142.81396753
  Ewald energy   TEWEN  =     -2460.88124511
  -Hartree energ DENC   =     -1099.95892826
  -exchange      EXHF   =         0.00000000
  -V(xc)+E(xc)   XCENC  =      -235.29476068
  PAW double counting   =      3912.91465932    -3460.44338475
  entropy T*S    EENTRO =        -0.00000000
  eigenvalues    EBANDS =      -122.84514877
  atomic energy  EATOM  =      3233.17333345
  Solvation  Ediel_sol  =         0.00000000
  ---------------------------------------------------
  free energy    TOTEN  =       -90.52150727 eV

  energy without entropy =      -90.52150727  energy(sigma->0) =      -90.52150727


--------------------------------------------------------------------------------------------------------




----------------------------------------- Iteration    1(   9)  ---------------------------------------


    POTLOK:  cpu time    0.0080: real time    0.0084
    SETDIJ:  cpu time    0.3680: real time    0.3680
     EDDAV:  cpu time    0.7480: real time    0.7498
       DOS:  cpu time    0.0000: real time    0.0004
    CHARGE:  cpu time    0.0200: real time    0.0171
    MIXING:  cpu time    0.0000: real time    0.0003
    --------------------------------------------
      LOOP:  cpu time    1.1440: real time    1.1471

 eigenvalue-minimisations  :  3784
 total energy-change (2. order) : 0.4301221E-02  (-0.3963073E-02)
 number of electron      57.9999958 magnetization      -0.0005093
 augmentation part        4.5973338 magnetization       0.0016346

 Broyden mixing:
  rms(total) = 0.49166E-01    rms(broyden)= 0.49157E-01
  rms(prec ) = 0.56345E-01
  weight for this iteration     100.00

 eigenvalues of (default mixing * dielectric matrix)
  average eigenvalue GAMMA=   1.2519
  2.4291  0.9631  0.9631  0.6525

 Free energy of the ion-electron system (eV)
  ---------------------------------------------------
  alpha Z        PSCENC =       142.81396753
  Ewald energy   TEWEN  =     -2460.88124511
  -Hartree energ DENC   =     -1104.81602693
  -exchange      EXHF   =         0.00000000
  -V(xc)+E(xc)   XCENC  =      -234.72592484
  PAW double counting   =      4010.95710952    -3558.45343222
  entropy T*S    EENTRO =        -0.00000000
  eigenvalues    EBANDS =      -118.58498746
  atomic energy  EATOM  =      3233.17333345
  Solvation  Ediel_sol  =         0.00000000
  ---------------------------------------------------
  free energy    TOTEN  =       -90.51720605 eV

  energy without entropy =      -90.51720605  energy(sigma->0) =      -90.51720605


--------------------------------------------------------------------------------------------------------




----------------------------------------- Iteration    1(  10)  ---------------------------------------


    POTLOK:  cpu time    0.0080: real time    0.0085
    SETDIJ:  cpu time    0.3560: real time    0.3571
     EDDAV:  cpu time    0.7040: real time    0.7025
       DOS:  cpu time    0.0000: real time    0.0004
    CHARGE:  cpu time    0.0200: real time    0.0195
    MIXING:  cpu time    0.0000: real time    0.0004
    --------------------------------------------
      LOOP:  cpu time    1.0880: real time    1.0914

 eigenvalue-minimisations  :  3480
 total energy-change (2. order) : 0.7643367E-03  (-0.3411606E-03)
 number of electron      57.9999958 magnetization       0.0001722
 augmentation part        4.5927914 magnetization       0.0012214

 Broyden mixing:
  rms(total) = 0.14910E-01    rms(broyden)= 0.14906E-01
  rms(prec ) = 0.22157E-01
  weight for this iteration     100.00

 eigenvalues of (default mixing * dielectric matrix)
  average eigenvalue GAMMA=   1.2087
  2.5077  1.1039  0.9408  0.8512  0.6398

 Free energy of the ion-electron system (eV)
  ---------------------------------------------------
  alpha Z        PSCENC =       142.81396753
  Ewald energy   TEWEN  =     -2460.88124511
  -Hartree energ DENC   =     -1105.39130849
  -exchange      EXHF   =         0.00000000
  -V(xc)+E(xc)   XCENC  =      -234.65815009
  PAW double counting   =      4006.03988713    -3553.55133159
  entropy T*S    EENTRO =        -0.00000000
  eigenvalues    EBANDS =      -118.06159455
  atomic energy  EATOM  =      3233.17333345
  Solvation  Ediel_sol  =         0.00000000
  ---------------------------------------------------
  free energy    TOTEN  =       -90.51644171 eV

  energy without entropy =      -90.51644171  energy(sigma->0) =      -90.51644171


--------------------------------------------------------------------------------------------------------




----------------------------------------- Iteration    1(  11)  ---------------------------------------


    POTLOK:  cpu time    0.0080: real time    0.0094
    SETDIJ:  cpu time    0.3600: real time    0.3588
     EDDAV:  cpu time    0.6920: real time    0.6962
       DOS:  cpu time    0.0000: real time    0.0004
    CHARGE:  cpu time    0.0160: real time    0.0170
    MIXING:  cpu time    0.0040: real time    0.0004
    --------------------------------------------
      LOOP:  cpu time    1.0800: real time    1.0852

 eigenvalue-minimisations  :  3640
 total energy-change (2. order) :-0.2170708E-03  (-0.3659096E-04)
 number of electron      57.9999958 magnetization       0.0001311
 augmentation part        4.5937127 magnetization      -0.0001183

 Broyden mixing:
  rms(total) = 0.78517E-02    rms(broyden)= 0.78511E-02
  rms(prec ) = 0.11432E-01
  weight for this iteration     100.00

 eigenvalues of (default mixing * dielectric matrix)
  average eigenvalue GAMMA=   1.3359
  2.6335  2.0126  0.9843  0.9843  0.7677  0.6330

 Free energy of the ion-electron system (eV)
  ---------------------------------------------------
  alpha Z        PSCENC =       142.81396753
  Ewald energy   TEWEN  =     -2460.88124511
  -Hartree energ DENC   =     -1105.28769431
  -exchange      EXHF   =         0.00000000
  -V(xc)+E(xc)   XCENC  =      -234.64635614
  PAW double counting   =      3997.87506865    -3545.39205314
  entropy T*S    EENTRO =        -0.00000000
  eigenvalues    EBANDS =      -118.17167972
  atomic energy  EATOM  =      3233.17333345
  Solvation  Ediel_sol  =         0.00000000
  ---------------------------------------------------
  free energy    TOTEN  =       -90.51665878 eV

  energy without entropy =      -90.51665878  energy(sigma->0) =      -90.51665878


--------------------------------------------------------------------------------------------------------




----------------------------------------- Iteration    1(  12)  ---------------------------------------


    POTLOK:  cpu time    0.0080: real time    0.0085
    SETDIJ:  cpu time    0.3560: real time    0.3562
     EDDAV:  cpu time    0.6840: real time    0.6863
       DOS:  cpu time    0.0000: real time    0.0004
    CHARGE:  cpu time    0.0200: real time    0.0168
    MIXING:  cpu time    0.0000: real time    0.0004
    --------------------------------------------
      LOOP:  cpu time    1.0680: real time    1.0716

 eigenvalue-minimisations  :  3512
 total energy-change (2. order) :-0.1452681E-03  (-0.1981549E-04)
 number of electron      57.9999958 magnetization       0.0000385
 augmentation part        4.5941264 magnetization      -0.0001874

 Broyden mixing:
  rms(total) = 0.24394E-02    rms(broyden)= 0.24381E-02
  rms(prec ) = 0.37860E-02
  weight for this iteration     100.00

 eigenvalues of (default mixing * dielectric matrix)
  average eigenvalue GAMMA=   1.3021
  2.6721  2.3230  0.9918  0.9918  0.7525  0.7525  0.6312

 Free energy of the ion-electron system (eV)
  ---------------------------------------------------
  alpha Z        PSCENC =       142.81396753
  Ewald energy   TEWEN  =     -2460.88124511
  -Hartree energ DENC   =     -1105.25382835
  -exchange      EXHF   =         0.00000000
  -V(xc)+E(xc)   XCENC  =      -234.62911041
  PAW double counting   =      3988.68464521    -3536.20953743
  entropy T*S    EENTRO =        -0.00000000
  eigenvalues    EBANDS =      -118.21502895
  atomic energy  EATOM  =      3233.17333345
  Solvation  Ediel_sol  =         0.00000000
  ---------------------------------------------------
  free energy    TOTEN  =       -90.51680405 eV

  energy without entropy =      -90.51680405  energy(sigma->0) =      -90.51680405


--------------------------------------------------------------------------------------------------------




----------------------------------------- Iteration    1(  13)  ---------------------------------------


    POTLOK:  cpu time    0.0080: real time    0.0089
    SETDIJ:  cpu time    0.3560: real time    0.3561
     EDDAV:  cpu time    0.7600: real time    0.7598
       DOS:  cpu time    0.0000: real time    0.0004
    CHARGE:  cpu time    0.0160: real time    0.0172
    MIXING:  cpu time    0.0000: real time    0.0005
    --------------------------------------------
      LOOP:  cpu time    1.1400: real time    1.1459

 eigenvalue-minimisations  :  3800
 total energy-change (2. order) :-0.2017872E-05  (-0.2269404E-05)
 number of electron      57.9999958 magnetization       0.0000001
 augmentation part        4.5938735 magnetization      -0.0000916

 Broyden mixing:
  rms(total) = 0.10813E-02    rms(broyden)= 0.10806E-02
  rms(prec ) = 0.14640E-02
  weight for this iteration     100.00

 eigenvalues of (default mixing * dielectric matrix)
  average eigenvalue GAMMA=   1.2935
  2.6878  2.4457  1.0065  1.0065  1.0006  0.8852  0.6865  0.6289

 Free energy of the ion-electron system (eV)
  ---------------------------------------------------
  alpha Z        PSCENC =       142.81396753
  Ewald energy   TEWEN  =     -2460.88124511
  -Hartree energ DENC   =     -1105.28705026
  -exchange      EXHF   =         0.00000000
  -V(xc)+E(xc)   XCENC  =      -234.62558921
  PAW double counting   =      3987.39412037    -3534.92084472
  entropy T*S    EENTRO =        -0.00000000
  eigenvalues    EBANDS =      -118.18349813
  atomic energy  EATOM  =      3233.17333345
  Solvation  Ediel_sol  =         0.00000000
  ---------------------------------------------------
  free energy    TOTEN  =       -90.51680607 eV

  energy without entropy =      -90.51680607  energy(sigma->0) =      -90.51680607


--------------------------------------------------------------------------------------------------------




----------------------------------------- Iteration    1(  14)  ---------------------------------------


    POTLOK:  cpu time    0.0120: real time    0.0083
    SETDIJ:  cpu time    0.3560: real time    0.3587
     EDDAV:  cpu time    0.7000: real time    0.6991
       DOS:  cpu time    0.0000: real time    0.0004
    CHARGE:  cpu time    0.0160: real time    0.0170
    MIXING:  cpu time    0.0000: real time    0.0005
    --------------------------------------------
      LOOP:  cpu time    1.0840: real time    1.0870

 eigenvalue-minimisations  :  3576
 total energy-change (2. order) :-0.2011373E-05  (-0.9686651E-06)
 number of electron      57.9999958 magnetization      -0.0000119
 augmentation part        4.5937851 magnetization      -0.0000095

 Broyden mixing:
  rms(total) = 0.49516E-03    rms(broyden)= 0.49460E-03
  rms(prec ) = 0.77763E-03
  weight for this iteration     100.00

 eigenvalues of (default mixing * dielectric matrix)
  average eigenvalue GAMMA=   1.2433
  2.7244  2.4243  1.1436  0.9487  0.9014  0.9014  0.8394  0.6287  0.6778

 Free energy of the ion-electron system (eV)
  ---------------------------------------------------
  alpha Z        PSCENC =       142.81396753
  Ewald energy   TEWEN  =     -2460.88124511
  -Hartree energ DENC   =     -1105.29729084
  -exchange      EXHF   =         0.00000000
  -V(xc)+E(xc)   XCENC  =      -234.62447982
  PAW double counting   =      3986.92377227    -3534.45112807
  entropy T*S    EENTRO =        -0.00000000
  eigenvalues    EBANDS =      -118.17373750
  atomic energy  EATOM  =      3233.17333345
  Solvation  Ediel_sol  =         0.00000000
  ---------------------------------------------------
  free energy    TOTEN  =       -90.51680808 eV

  energy without entropy =      -90.51680808  energy(sigma->0) =      -90.51680808


--------------------------------------------------------------------------------------------------------




----------------------------------------- Iteration    1(  15)  ---------------------------------------


    POTLOK:  cpu time    0.0120: real time    0.0092
    SETDIJ:  cpu time    0.3560: real time    0.3559
     EDDAV:  cpu time    0.5240: real time    0.5236
       DOS:  cpu time    0.0000: real time    0.0004
    --------------------------------------------
      LOOP:  cpu time    0.8920: real time    0.8920

 eigenvalue-minimisations  :  2272
 total energy-change (2. order) : 0.9225323E-07  (-0.5528476E-07)
 number of electron      57.9999958 magnetization      -0.0000119
 augmentation part        4.5937851 magnetization      -0.0000095

 Free energy of the ion-electron system (eV)
  ---------------------------------------------------
  alpha Z        PSCENC =       142.81396753
  Ewald energy   TEWEN  =     -2460.88124511
  -Hartree energ DENC   =     -1105.29632396
  -exchange      EXHF   =         0.00000000
  -V(xc)+E(xc)   XCENC  =      -234.62448130
  PAW double counting   =      3986.93078369    -3534.45814794
  entropy T*S    EENTRO =        -0.00000000
  eigenvalues    EBANDS =      -118.17469436
  atomic energy  EATOM  =      3233.17333345
  Solvation  Ediel_sol  =         0.00000000
  ---------------------------------------------------
  free energy    TOTEN  =       -90.51680799 eV

  energy without entropy =      -90.51680799  energy(sigma->0) =      -90.51680799


--------------------------------------------------------------------------------------------------------




 average (electrostatic) potential at core
  the test charge radii are     1.0714  0.7215
  (the norm of the test charge is              1.0000)
       1 -36.4203       2 -34.0910       3 -34.8029       4 -34.9317       5 -35.0869
       6 -34.8530       7 -34.9369       8 -35.4887       9 -34.0925      10 -69.4039
      11 -69.6046      12 -69.5314      13 -69.5340      14 -69.4478      15 -69.3987
      16 -70.5250
 
 
 
 E-fermi :   5.3428     XC(G=0): -10.8807     alpha+bet :-13.3848


 spin component 1

 k-point     1 :       0.2500    0.2500    0.2500
  band No.  band energies     occupation 
      1     -14.3009      1.00000
      2     -13.1609      1.00000
      3     -12.6293      1.00000
      4     -12.4994      1.00000
      5     -12.3314      1.00000
      6     -12.2207      1.00000
      7     -12.1845      1.00000
      8      -1.2947      1.00000
      9      -1.2148      1.00000
     10      -1.0702      1.00000
     11      -0.6231      1.00000
     12      -0.3944      1.00000
     13       0.0100      1.00000
     14       0.0822      1.00000
     15       1.0049      1.00000
     16       1.4122      1.00000
     17       1.4526      1.00000
     18       1.7624      1.00000
     19       1.8488      1.00000
     20       2.0551      1.00000
     21       2.1244      1.00000
     22       2.3847      1.00000
     23       2.4396      1.00000
     24       2.7528      1.00000
     25       2.9059      1.00000
     26       2.9576      1.00000
     27       3.0514      1.00000
     28       3.0991      1.00000
     29       3.9498      1.00000
     30       8.6784      0.00000
     31       9.7211      0.00000
     32       9.7606      0.00000
     33      10.5158      0.00000
     34      11.3571      0.00000
     35      11.5889      0.00000
     36      11.7295      0.00000
     37      12.1521      0.00000
     38      12.4341      0.00000
     39      12.8186      0.00000
     40      13.2124      0.00000
     41      13.2913      0.00000
     42      13.5131      0.00000
     43      14.9788      0.00000
     44      15.2168      0.00000
     45      15.3236      0.00000
     46      15.6837      0.00000
     47      17.1570      0.00000
     48      17.3037      0.00000

 k-point     2 :       0.2500    0.0000    0.0000
  band No.  band energies     occupation 
      1     -14.3003      1.00000
      2     -13.1606      1.00000
      3     -12.6322      1.00000
      4     -12.4996      1.00000
      5     -12.3379      1.00000
      6     -12.2192      1.00000
      7     -12.1774      1.00000
      8      -1.3379      1.00000
      9      -1.2147      1.00000
     10      -1.0297      1.00000
     11      -0.5542      1.00000
     12      -0.3906      1.00000
     13      -0.0692      1.00000
     14       0.0676      1.00000
     15       1.0011      1.00000
     16       1.4350      1.00000
     17       1.4578      1.00000
     18       1.7939      1.00000
     19       1.8404      1.00000
     20       2.0702      1.00000
     21       2.0902      1.00000
     22       2.3915      1.00000
     23       2.4843      1.00000
     24       2.6569      1.00000
     25       2.9023      1.00000
     26       2.9681      1.00000
     27       3.0411      1.00000
     28       3.1245      1.00000
     29       3.9907      1.00000
     30       8.6296      0.00000
     31       9.6803      0.00000
     32       9.7572      0.00000
     33      10.6645      0.00000
     34      11.3097      0.00000
     35      11.4895      0.00000
     36      11.6320      0.00000
     37      12.1420      0.00000
     38      12.5246      0.00000
     39      12.9111      0.00000
     40      13.1506      0.00000
     41      13.2905      0.00000
     42      13.4648      0.00000
     43      15.0743      0.00000
     44      15.3221      0.00000
     45      15.4169      0.00000
     46      15.6498      0.00000
     47      17.1407      0.00000
     48      17.2266      0.00000

 k-point     3 :       0.0000    0.0000   -0.2500
  band No.  band energies     occupation 
      1     -14.3004      1.00000
      2     -13.1604      1.00000
      3     -12.6325      1.00000
      4     -12.4995      1.00000
      5     -12.3371      1.00000
      6     -12.2196      1.00000
      7     -12.1777      1.00000
      8      -1.3374      1.00000
      9      -1.2173      1.00000
     10      -1.0279      1.00000
     11      -0.5555      1.00000
     12      -0.3900      1.00000
     13      -0.0699      1.00000
     14       0.0693      1.00000
     15       1.0015      1.00000
     16       1.4354      1.00000
     17       1.4582      1.00000
     18       1.7932      1.00000
     19       1.8406      1.00000
     20       2.0698      1.00000
     21       2.0902      1.00000
     22       2.3915      1.00000
     23       2.4838      1.00000
     24       2.6560      1.00000
     25       2.9034      1.00000
     26       2.9701      1.00000
     27       3.0406      1.00000
     28       3.1244      1.00000
     29       3.9899      1.00000
     30       8.6281      0.00000
     31       9.6793      0.00000
     32       9.7602      0.00000
     33      10.6645      0.00000
     34      11.3099      0.00000
     35      11.4904      0.00000
     36      11.6284      0.00000
     37      12.1432      0.00000
     38      12.5217      0.00000
     39      12.9123      0.00000
     40      13.1502      0.00000
     41      13.2889      0.00000
     42      13.4669      0.00000
     43      15.0771      0.00000
     44      15.3223      0.00000
     45      15.4145      0.00000
     46      15.6487      0.00000
     47      17.1415      0.00000
     48      17.2253      0.00000

 k-point     4 :       0.0000    0.2500    0.0000
  band No.  band energies     occupation 
      1     -14.3009      1.00000
      2     -13.1610      1.00000
      3     -12.6297      1.00000
      4     -12.4994      1.00000
      5     -12.3311      1.00000
      6     -12.2204      1.00000
      7     -12.1848      1.00000
      8      -1.2957      1.00000
      9      -1.2125      1.00000
     10      -1.0710      1.00000
     11      -0.6221      1.00000
     12      -0.3946      1.00000
     13       0.0089      1.00000
     14       0.0811      1.00000
     15       1.0025      1.00000
     16       1.4122      1.00000
     17       1.4540      1.00000
     18       1.7634      1.00000
     19       1.8485      1.00000
     20       2.0543      1.00000
     21       2.1258      1.00000
     22       2.3851      1.00000
     23       2.4413      1.00000
     24       2.7510      1.00000
     25       2.9065      1.00000
     26       2.9568      1.00000
     27       3.0518      1.00000
     28       3.0989      1.00000
     29       3.9506      1.00000
     30       8.6797      0.00000
     31       9.7178      0.00000
     32       9.7608      0.00000
     33      10.5165      0.00000
     34      11.3550      0.00000
     35      11.5868      0.00000
     36      11.7306      0.00000
     37      12.1521      0.00000
     38      12.4354      0.00000
     39      12.8187      0.00000
     40      13.2121      0.00000
     41      13.2940      0.00000
     42      13.5146      0.00000
     43      14.9772      0.00000
     44      15.2160      0.00000
     45      15.3247      0.00000
     46      15.6839      0.00000
     47      17.1526      0.00000
     48      17.3081      0.00000

 k-point     5 :      -0.2500    0.2500    0.2500
  band No.  band energies     occupation 
      1     -14.2374      1.00000
      2     -13.0219      1.00000
      3     -12.7822      1.00000
      4     -12.5746      1.00000
      5     -12.3427      1.00000
      6     -12.2851      1.00000
      7     -12.1566      1.00000
      8      -0.9765      1.00000
      9      -0.7999      1.00000
     10      -0.6821      1.00000
     11      -0.3199      1.00000
     12       0.0614      1.00000
     13       0.2100      1.00000
     14       0.4631      1.00000
     15       0.6599      1.00000
     16       0.9503      1.00000
     17       1.0069      1.00000
     18       1.3677      1.00000
     19       1.5900      1.00000
     20       1.7653      1.00000
     21       1.8243      1.00000
     22       1.9322      1.00000
     23       2.2722      1.00000
     24       2.4472      1.00000
     25       2.5889      1.00000
     26       2.8016      1.00000
     27       2.9248      1.00000
     28       3.0468      1.00000
     29       5.0651      1.00000
     30       7.8582      0.00000
     31       8.8727      0.00000
     32       9.9886      0.00000
     33      10.9038      0.00000
     34      11.9048      0.00000
     35      12.3430      0.00000
     36      12.4418      0.00000
     37      12.9699      0.00000
     38      13.1624      0.00000
     39      13.5341      0.00000
     40      13.8751      0.00000
     41      14.1886      0.00000
     42      14.5688      0.00000
     43      14.7020      0.00000
     44      14.9983      0.00000
     45      15.0832      0.00000
     46      15.4895      0.00000
     47      15.8437      0.00000
     48      16.2110      0.00000

 k-point     6 :       0.2500   -0.2500    0.2500
  band No.  band energies     occupation 
      1     -14.2383      1.00000
      2     -13.0154      1.00000
      3     -12.7890      1.00000
      4     -12.5653      1.00000
      5     -12.3691      1.00000
      6     -12.2600      1.00000
      7     -12.1635      1.00000
      8      -0.9507      1.00000
      9      -0.7870      1.00000
     10      -0.7130      1.00000
     11      -0.3530      1.00000
     12       0.0466      1.00000
     13       0.2057      1.00000
     14       0.5143      1.00000
     15       0.6958      1.00000
     16       0.9471      1.00000
     17       1.0256      1.00000
     18       1.3180      1.00000
     19       1.6278      1.00000
     20       1.6900      1.00000
     21       1.7964      1.00000
     22       1.9411      1.00000
     23       2.3236      1.00000
     24       2.4452      1.00000
     25       2.6216      1.00000
     26       2.8011      1.00000
     27       2.9061      1.00000
     28       3.0325      1.00000
     29       5.0326      1.00000
     30       7.9320      0.00000
     31       8.9225      0.00000
     32       9.7756      0.00000
     33      11.0124      0.00000
     34      11.9352      0.00000
     35      12.3173      0.00000
     36      12.6178      0.00000
     37      12.9759      0.00000
     38      13.1369      0.00000
     39      13.6685      0.00000
     40      13.8243      0.00000
     41      14.1233      0.00000
     42      14.4184      0.00000
     43      14.5704      0.00000
     44      14.7725      0.00000
     45      15.0134      0.00000
     46      15.6396      0.00000
     47      15.9592      0.00000
     48      16.3993      0.00000

 k-point     7 :       0.2500    0.2500   -0.2500
  band No.  band energies     occupation 
      1     -14.2360      1.00000
      2     -13.0714      1.00000
      3     -12.7293      1.00000
      4     -12.5421      1.00000
      5     -12.3577      1.00000
      6     -12.2767      1.00000
      7     -12.1860      1.00000
      8      -0.9715      1.00000
      9      -0.8386      1.00000
     10      -0.7221      1.00000
     11      -0.3167      1.00000
     12       0.0116      1.00000
     13       0.1899      1.00000
     14       0.5384      1.00000
     15       0.6362      1.00000
     16       0.9597      1.00000
     17       1.0579      1.00000
     18       1.4416      1.00000
     19       1.5724      1.00000
     20       1.7138      1.00000
     21       1.9337      1.00000
     22       1.9899      1.00000
     23       2.2006      1.00000
     24       2.4242      1.00000
     25       2.6226      1.00000
     26       2.8199      1.00000
     27       2.8736      1.00000
     28       3.0488      1.00000
     29       4.9428      1.00000
     30       8.1121      0.00000
     31       9.1260      0.00000
     32       9.4412      0.00000
     33      10.9297      0.00000
     34      11.9234      0.00000
     35      12.4854      0.00000
     36      12.6833      0.00000
     37      12.7854      0.00000
     38      13.2168      0.00000
     39      13.4972      0.00000
     40      13.8144      0.00000
     41      14.2934      0.00000
     42      14.4793      0.00000
     43      14.5847      0.00000
     44      14.8221      0.00000
     45      14.9517      0.00000
     46      15.5430      0.00000
     47      15.7208      0.00000
     48      16.3508      0.00000

 k-point     8 :       0.2500    0.0000    0.5000
  band No.  band energies     occupation 
      1     -14.2379      1.00000
      2     -13.0114      1.00000
      3     -12.7854      1.00000
      4     -12.5968      1.00000
      5     -12.3205      1.00000
      6     -12.2849      1.00000
      7     -12.1636      1.00000
      8      -1.0030      1.00000
      9      -0.7803      1.00000
     10      -0.6503      1.00000
     11      -0.3332      1.00000
     12       0.0584      1.00000
     13       0.2199      1.00000
     14       0.4054      1.00000
     15       0.7058      1.00000
     16       0.9171      1.00000
     17       1.0403      1.00000
     18       1.3461      1.00000
     19       1.5956      1.00000
     20       1.7938      1.00000
     21       1.8311      1.00000
     22       1.9372      1.00000
     23       2.2548      1.00000
     24       2.4321      1.00000
     25       2.5788      1.00000
     26       2.7900      1.00000
     27       2.9508      1.00000
     28       3.0403      1.00000
     29       5.0758      1.00000
     30       7.8788      0.00000
     31       8.8019      0.00000
     32      10.0151      0.00000
     33      10.9135      0.00000
     34      11.8299      0.00000
     35      12.3463      0.00000
     36      12.5085      0.00000
     37      12.9455      0.00000
     38      13.1519      0.00000
     39      13.5696      0.00000
     40      13.9135      0.00000
     41      14.1556      0.00000
     42      14.5551      0.00000
     43      14.7394      0.00000
     44      14.9473      0.00000
     45      15.0767      0.00000
     46      15.5585      0.00000
     47      15.8192      0.00000
     48      16.1884      0.00000

 k-point     9 :      -0.2500    0.5000    0.5000
  band No.  band energies     occupation 
      1     -14.2380      1.00000
      2     -13.0256      1.00000
      3     -12.7727      1.00000
      4     -12.5765      1.00000
      5     -12.3343      1.00000
      6     -12.2942      1.00000
      7     -12.1591      1.00000
      8      -0.9678      1.00000
      9      -0.7910      1.00000
     10      -0.6754      1.00000
     11      -0.3608      1.00000
     12       0.0378      1.00000
     13       0.2048      1.00000
     14       0.4586      1.00000
     15       0.7323      1.00000
     16       0.9421      1.00000
     17       1.0421      1.00000
     18       1.3044      1.00000
     19       1.6461      1.00000
     20       1.7144      1.00000
     21       1.8075      1.00000
     22       1.9492      1.00000
     23       2.2905      1.00000
     24       2.4235      1.00000
     25       2.6329      1.00000
     26       2.8085      1.00000
     27       2.9200      1.00000
     28       3.0195      1.00000
     29       5.0123      1.00000
     30       8.0001      0.00000
     31       8.8154      0.00000
     32       9.8670      0.00000
     33      11.0506      0.00000
     34      11.8603      0.00000
     35      12.3544      0.00000
     36      12.6549      0.00000
     37      12.9644      0.00000
     38      13.1454      0.00000
     39      13.5803      0.00000
     40      13.8324      0.00000
     41      14.0909      0.00000
     42      14.3509      0.00000
     43      14.6009      0.00000
     44      14.8503      0.00000
     45      15.0147      0.00000
     46      15.6517      0.00000
     47      15.8897      0.00000
     48      16.4127      0.00000

 k-point    10 :       0.2500    0.5000    0.0000
  band No.  band energies     occupation 
      1     -14.2365      1.00000
      2     -13.0730      1.00000
      3     -12.7242      1.00000
      4     -12.5422      1.00000
      5     -12.3497      1.00000
      6     -12.2849      1.00000
      7     -12.1888      1.00000
      8      -0.9716      1.00000
      9      -0.8304      1.00000
     10      -0.6939      1.00000
     11      -0.3627      1.00000
     12      -0.0217      1.00000
     13       0.1764      1.00000
     14       0.5535      1.00000
     15       0.7073      1.00000
     16       0.9415      1.00000
     17       1.0668      1.00000
     18       1.4560      1.00000
     19       1.5565      1.00000
     20       1.6894      1.00000
     21       1.9253      1.00000
     22       1.9686      1.00000
     23       2.2414      1.00000
     24       2.4174      1.00000
     25       2.6611      1.00000
     26       2.8222      1.00000
     27       2.8624      1.00000
     28       3.0246      1.00000
     29       4.8950      1.00000
     30       8.3127      0.00000
     31       9.0436      0.00000
     32       9.3053      0.00000
     33      11.0342      0.00000
     34      11.8734      0.00000
     35      12.5772      0.00000
     36      12.7593      0.00000
     37      12.9079      0.00000
     38      13.2842      0.00000
     39      13.4700      0.00000
     40      13.7574      0.00000
     41      14.1207      0.00000
     42      14.3402      0.00000
     43      14.3826      0.00000
     44      14.7251      0.00000
     45      15.0687      0.00000
     46      15.4461      0.00000
     47      15.8378      0.00000
     48      16.3626      0.00000

 k-point    11 :       0.0000    0.5000   -0.2500
  band No.  band energies     occupation 
      1     -14.2380      1.00000
      2     -13.0256      1.00000
      3     -12.7733      1.00000
      4     -12.5764      1.00000
      5     -12.3325      1.00000
      6     -12.2958      1.00000
      7     -12.1590      1.00000
      8      -0.9675      1.00000
      9      -0.7898      1.00000
     10      -0.6745      1.00000
     11      -0.3619      1.00000
     12       0.0369      1.00000
     13       0.2035      1.00000
     14       0.4561      1.00000
     15       0.7325      1.00000
     16       0.9410      1.00000
     17       1.0434      1.00000
     18       1.3050      1.00000
     19       1.6489      1.00000
     20       1.7151      1.00000
     21       1.8069      1.00000
     22       1.9491      1.00000
     23       2.2910      1.00000
     24       2.4241      1.00000
     25       2.6313      1.00000
     26       2.8088      1.00000
     27       2.9200      1.00000
     28       3.0195      1.00000
     29       5.0130      1.00000
     30       8.0015      0.00000
     31       8.8127      0.00000
     32       9.8677      0.00000
     33      11.0505      0.00000
     34      11.8571      0.00000
     35      12.3543      0.00000
     36      12.6551      0.00000
     37      12.9628      0.00000
     38      13.1483      0.00000
     39      13.5782      0.00000
     40      13.8315      0.00000
     41      14.0932      0.00000
     42      14.3511      0.00000
     43      14.6037      0.00000
     44      14.8530      0.00000
     45      15.0171      0.00000
     46      15.6521      0.00000
     47      15.8872      0.00000
     48      16.4131      0.00000

 k-point    12 :       0.5000    0.0000   -0.2500
  band No.  band energies     occupation 
      1     -14.2378      1.00000
      2     -13.0118      1.00000
      3     -12.7849      1.00000
      4     -12.5970      1.00000
      5     -12.3212      1.00000
      6     -12.2844      1.00000
      7     -12.1634      1.00000
      8      -1.0028      1.00000
      9      -0.7786      1.00000
     10      -0.6501      1.00000
     11      -0.3337      1.00000
     12       0.0570      1.00000
     13       0.2199      1.00000
     14       0.4044      1.00000
     15       0.7067      1.00000
     16       0.9154      1.00000
     17       1.0420      1.00000
     18       1.3454      1.00000
     19       1.5970      1.00000
     20       1.7929      1.00000
     21       1.8282      1.00000
     22       1.9390      1.00000
     23       2.2563      1.00000
     24       2.4317      1.00000
     25       2.5785      1.00000
     26       2.7902      1.00000
     27       2.9494      1.00000
     28       3.0411      1.00000
     29       5.0759      1.00000
     30       7.8814      0.00000
     31       8.7988      0.00000
     32      10.0151      0.00000
     33      10.9153      0.00000
     34      11.8282      0.00000
     35      12.3480      0.00000
     36      12.5095      0.00000
     37      12.9462      0.00000
     38      13.1507      0.00000
     39      13.5715      0.00000
     40      13.9131      0.00000
     41      14.1563      0.00000
     42      14.5542      0.00000
     43      14.7381      0.00000
     44      14.9487      0.00000
     45      15.0768      0.00000
     46      15.5589      0.00000
     47      15.8183      0.00000
     48      16.1880      0.00000

 k-point    13 :       0.5000    0.5000    0.2500
  band No.  band energies     occupation 
      1     -14.2365      1.00000
      2     -13.0731      1.00000
      3     -12.7235      1.00000
      4     -12.5422      1.00000
      5     -12.3514      1.00000
      6     -12.2837      1.00000
      7     -12.1888      1.00000
      8      -0.9720      1.00000
      9      -0.8334      1.00000
     10      -0.6922      1.00000
     11      -0.3616      1.00000
     12      -0.0207      1.00000
     13       0.1770      1.00000
     14       0.5558      1.00000
     15       0.7071      1.00000
     16       0.9416      1.00000
     17       1.0672      1.00000
     18       1.4540      1.00000
     19       1.5543      1.00000
     20       1.6886      1.00000
     21       1.9276      1.00000
     22       1.9703      1.00000
     23       2.2372      1.00000
     24       2.4180      1.00000
     25       2.6616      1.00000
     26       2.8215      1.00000
     27       2.8633      1.00000
     28       3.0250      1.00000
     29       4.8943      1.00000
     30       8.3111      0.00000
     31       9.0450      0.00000
     32       9.3064      0.00000
     33      11.0338      0.00000
     34      11.8752      0.00000
     35      12.5771      0.00000
     36      12.7605      0.00000
     37      12.9089      0.00000
     38      13.2861      0.00000
     39      13.4714      0.00000
     40      13.7537      0.00000
     41      14.1206      0.00000
     42      14.3406      0.00000
     43      14.3782      0.00000
     44      14.7241      0.00000
     45      15.0681      0.00000
     46      15.4396      0.00000
     47      15.8436      0.00000
     48      16.3624      0.00000

 k-point    14 :       0.5000   -0.2500    0.5000
  band No.  band energies     occupation 
      1     -14.2384      1.00000
      2     -13.0154      1.00000
[...]
     15       0.6588      1.00000
     16       0.9522      1.00000
     17       1.0068      1.00000
     18       1.3686      1.00000
     19       1.5880      1.00000
     20       1.7662      1.00000
     21       1.8256      1.00000
     22       1.9301      1.00000
     23       2.2710      1.00000
     24       2.4486      1.00000
     25       2.5895      1.00000
     26       2.8022      1.00000
     27       2.9251      1.00000
     28       3.0460      1.00000
     29       5.0649      1.00000
     30       7.8565      0.00000
     31       8.8749      0.00000
     32       9.9886      0.00000
     33      10.9020      0.00000
     34      11.9054      0.00000
     35      12.3419      0.00000
     36      12.4420      0.00000
     37      12.9687      0.00000
     38      13.1646      0.00000
     39      13.5301      0.00000
     40      13.8747      0.00000
     41      14.1882      0.00000
     42      14.5699      0.00000
     43      14.7040      0.00000
     44      14.9966      0.00000
     45      15.0848      0.00000
     46      15.4877      0.00000
     47      15.8439      0.00000
     48      16.2166      0.00000

 k-point    16 :       0.5000    0.2500    0.0000
  band No.  band energies     occupation 
      1     -14.2359      1.00000
      2     -13.0714      1.00000
      3     -12.7292      1.00000
      4     -12.5422      1.00000
      5     -12.3580      1.00000
      6     -12.2761      1.00000
      7     -12.1861      1.00000
      8      -0.9723      1.00000
      9      -0.8356      1.00000
     10      -0.7221      1.00000
     11      -0.3177      1.00000
     12       0.0107      1.00000
     13       0.1906      1.00000
     14       0.5363      1.00000
     15       0.6362      1.00000
     16       0.9596      1.00000
     17       1.0581      1.00000
     18       1.4442      1.00000
     19       1.5728      1.00000
     20       1.7128      1.00000
     21       1.9323      1.00000
     22       1.9857      1.00000
     23       2.2050      1.00000
     24       2.4237      1.00000
     25       2.6243      1.00000
     26       2.8211      1.00000
     27       2.8709      1.00000
     28       3.0488      1.00000
     29       4.9428      1.00000
     30       8.1153      0.00000
     31       9.1224      0.00000
     32       9.4408      0.00000
     33      10.9311      0.00000
     34      11.9231      0.00000
     35      12.4870      0.00000
     36      12.6839      0.00000
     37      12.7877      0.00000
     38      13.2158      0.00000
     39      13.4981      0.00000
     40      13.8158      0.00000
     41      14.2895      0.00000
     42      14.4772      0.00000
     43      14.5850      0.00000
     44      14.8258      0.00000
     45      14.9490      0.00000
     46      15.5442      0.00000
     47      15.7192      0.00000
     48      16.3531      0.00000


--------------------------------------------------------------------------------------------------------


 soft charge-density along one line, spin component           1
         0         1         2         3         4         5         6         7         8         9
 total charge-density along one line
 
 soft charge-density along one line, spin component           2
         0         1         2         3         4         5         6         7         8         9
 total charge-density along one line
 
 pseudopotential strength for first ion, spin component:           1
  2.999   9.549  -0.000   0.003  -0.001  -0.000   0.016   0.001
  9.549  30.241  -0.000   0.026   0.001  -0.000   0.064   0.006
 -0.000  -0.000   7.300  -0.000   0.000  10.628  -0.000   0.000
  0.003   0.026  -0.000   7.310  -0.008  -0.000  10.641  -0.014
 -0.001   0.001   0.000  -0.008   7.302   0.000  -0.014  10.630
 -0.000  -0.000  10.628  -0.000   0.000  14.673  -0.000   0.000
  0.016   0.064  -0.000  10.641  -0.014  -0.000  14.692  -0.022
  0.001   0.006   0.000  -0.014  10.630   0.000  -0.022  14.676
  0.000   0.000   0.003   0.000  -0.000   0.003   0.000  -0.000
 -0.000  -0.000   0.022  -0.000   0.000   0.023  -0.000   0.000
  0.003   0.007  -0.000   0.040  -0.004  -0.000   0.043  -0.004
 -0.007  -0.018   0.000   0.002   0.022   0.000   0.002   0.023
  0.000   0.001   0.000   0.000   0.006   0.000   0.000   0.006
 pseudopotential strength for first ion, spin component:           2
  2.999   9.549  -0.000   0.003  -0.001  -0.000   0.016   0.001
  9.549  30.241  -0.000   0.026   0.001  -0.000   0.064   0.006
 -0.000  -0.000   7.300  -0.000   0.000  10.628  -0.000   0.000
  0.003   0.026  -0.000   7.310  -0.008  -0.000  10.641  -0.014
 -0.001   0.001   0.000  -0.008   7.302   0.000  -0.014  10.630
 -0.000  -0.000  10.628  -0.000   0.000  14.673  -0.000   0.000
  0.016   0.064  -0.000  10.641  -0.014  -0.000  14.692  -0.022
  0.001   0.006   0.000  -0.014  10.630   0.000  -0.022  14.676
  0.000   0.000   0.003   0.000  -0.000   0.003   0.000  -0.000
 -0.000  -0.000   0.022  -0.000   0.000   0.023  -0.000   0.000
  0.003   0.007  -0.000   0.040  -0.004  -0.000   0.043  -0.004
 -0.007  -0.018   0.000   0.002   0.022   0.000   0.002   0.023
  0.000   0.001   0.000   0.000   0.006   0.000   0.000   0.006
 total augmentation occupancy for first ion, spin component:           1
  1.951  -0.036  -0.000  -0.222  -0.049  -0.000   0.024   0.004   0.000   0.000   0.038   0.022   0.011
 -0.036   0.001  -0.000  -0.002  -0.002   0.000   0.000   0.000   0.000  -0.000  -0.000  -0.001  -0.000
 -0.000  -0.000   0.074   0.000  -0.000  -0.006  -0.000   0.000  -0.000   0.016  -0.000  -0.000  -0.000
 -0.222  -0.002   0.000   0.154   0.037  -0.000  -0.013  -0.003  -0.000   0.000  -0.005   0.008   0.001
 -0.049  -0.002  -0.000   0.037   0.087   0.000  -0.003  -0.007  -0.000  -0.000  -0.003   0.020   0.012
 -0.000   0.000  -0.006  -0.000   0.000   0.001   0.000  -0.000  -0.000  -0.001   0.000   0.000   0.000
  0.024   0.000  -0.000  -0.013  -0.003   0.000   0.001   0.000   0.000  -0.000   0.001  -0.001  -0.000
  0.004   0.000   0.000  -0.003  -0.007  -0.000   0.000   0.001   0.000   0.000   0.000  -0.002  -0.001
  0.000   0.000  -0.000  -0.000  -0.000  -0.000   0.000   0.000   0.009  -0.002   0.000  -0.000   0.000
  0.000  -0.000   0.016   0.000  -0.000  -0.001  -0.000   0.000  -0.002   0.014   0.000  -0.000  -0.000
  0.038  -0.000  -0.000  -0.005  -0.003   0.000   0.001   0.000   0.000   0.000   0.008   0.003   0.000
  0.022  -0.001  -0.000   0.008   0.020   0.000  -0.001  -0.002  -0.000  -0.000   0.003   0.016   0.006
  0.011  -0.000  -0.000   0.001   0.012   0.000  -0.000  -0.001   0.000  -0.000   0.000   0.006   0.017
 total augmentation occupancy for first ion, spin component:           2
  0.000  -0.000   0.000  -0.000   0.000  -0.000   0.000   0.000   0.000  -0.000  -0.000  -0.000  -0.000
 -0.000   0.000  -0.000   0.000   0.000   0.000  -0.000  -0.000   0.000  -0.000  -0.000  -0.000  -0.000
  0.000  -0.000   0.000  -0.000  -0.000   0.000   0.000   0.000  -0.000   0.000   0.000  -0.000  -0.000
 -0.000   0.000  -0.000   0.000  -0.000   0.000  -0.000  -0.000  -0.000   0.000   0.000   0.000   0.000
  0.000   0.000  -0.000  -0.000   0.000   0.000  -0.000  -0.000   0.000   0.000   0.000   0.000   0.000
 -0.000   0.000   0.000   0.000   0.000  -0.000  -0.000  -0.000   0.000  -0.000   0.000   0.000   0.000
  0.000  -0.000   0.000  -0.000  -0.000  -0.000   0.000   0.000   0.000  -0.000  -0.000  -0.000  -0.000
  0.000  -0.000   0.000  -0.000  -0.000  -0.000   0.000   0.000  -0.000   0.000   0.000  -0.000  -0.000
  0.000   0.000  -0.000  -0.000   0.000   0.000   0.000  -0.000   0.000  -0.000   0.000  -0.000   0.000
 -0.000  -0.000   0.000   0.000   0.000  -0.000  -0.000   0.000  -0.000   0.000  -0.000  -0.000  -0.000
 -0.000  -0.000   0.000   0.000   0.000   0.000  -0.000   0.000   0.000  -0.000  -0.000  -0.000  -0.000
 -0.000  -0.000  -0.000   0.000   0.000   0.000  -0.000  -0.000  -0.000  -0.000  -0.000   0.000   0.000
 -0.000  -0.000  -0.000   0.000   0.000   0.000  -0.000  -0.000   0.000  -0.000  -0.000   0.000   0.000


------------------------ aborting loop because EDIFF is reached ----------------------------------------


 


 total charge     
 
# of ion     s       p       d       tot
----------------------------------------
  1        0.323   0.166   0.034   0.523
  2        0.135   0.159   0.068   0.362
  3        0.150   0.150   0.052   0.353
  4        0.159   0.180   0.073   0.411
  5        0.171   0.198   0.084   0.453
  6        0.151   0.165   0.064   0.381
  7        0.159   0.180   0.073   0.411
  8        0.201   0.246   0.112   0.560
  9        0.135   0.159   0.068   0.362
 10        1.571   3.501   0.000   5.072
 11        1.569   3.512   0.000   5.081
 12        1.570   3.507   0.000   5.077
 13        1.570   3.507   0.000   5.077
 14        1.571   3.513   0.000   5.083
 15        1.571   3.501   0.000   5.072
 16        1.575   3.652   0.000   5.227
------------------------------------------------
tot       12.580  26.297   0.628  39.505
 


 magnetization (x)
 
# of ion     s       p       d       tot
----------------------------------------
  1       -0.000  -0.000  -0.000  -0.000
  2       -0.000  -0.000  -0.000  -0.000
  3       -0.000  -0.000  -0.000  -0.000
  4       -0.000  -0.000  -0.000  -0.000
  5       -0.000  -0.000  -0.000  -0.000
  6       -0.000  -0.000  -0.000  -0.000
  7       -0.000  -0.000  -0.000  -0.000
  8       -0.000  -0.000  -0.000  -0.000
  9       -0.000  -0.000  -0.000  -0.000
 10        0.000   0.000   0.000   0.000
 11        0.000   0.000   0.000   0.000
 12        0.000   0.000   0.000   0.000
 13        0.000   0.000   0.000   0.000
 14        0.000   0.000   0.000   0.000
 15        0.000   0.000   0.000   0.000
 16        0.000   0.000   0.000   0.000
------------------------------------------------
tot        0.000   0.000  -0.000   0.000
 
    CHARGE:  cpu time    0.0200: real time    0.0187
    FORLOC:  cpu time    0.0000: real time    0.0006
    FORNL :  cpu time    0.1240: real time    0.1239
    STRESS:  cpu time    0.3600: real time    0.3607
    FORCOR:  cpu time    0.0080: real time    0.0083
    FORHAR:  cpu time    0.0000: real time    0.0014
    MIXING:  cpu time    0.0040: real time    0.0005
    OFIELD:  cpu time    0.0000: real time    0.0000

  FORCE on cell =-STRESS in cart. coord.  units (eV):
  Direction    XX          YY          ZZ          XY          YZ          ZX
  --------------------------------------------------------------------------------------
  Alpha Z   142.81397   142.81397   142.81397
  Ewald    -822.39656  -824.93880  -813.55074    -0.15445     0.08834     0.13940
  Hartree   375.06563   376.62691   353.60268    -0.04262     0.07242    -2.97650
  E(xc)    -260.48701  -260.41223  -260.97697    -0.00179    -0.00168    -0.05962
  Local    -371.85563  -371.65191  -353.51249     0.21299    -0.17453    -0.16855
  n-local  -112.77821  -113.22281  -108.70953     0.01086     0.00977     0.56881
  augment    47.47692    47.47491    47.07330     0.00103     0.00100    -0.03088
  Kinetic   997.96579   997.58867   994.35312     0.02611     0.01130    -0.59846
  Fock        0.00000     0.00000     0.00000     0.00000     0.00000     0.00000
  -------------------------------------------------------------------------------------
  Total      -4.19512    -5.72129     1.09335     0.05212     0.00664    -3.12581
  in kB     -43.87435   -59.83576    11.43469     0.54507     0.06944   -32.69112
  external pressure =      -30.76 kB  Pullay stress =        0.00 kB


 VOLUME and BASIS-vectors are now :
 -----------------------------------------------------------------------------
  energy-cutoff  :      400.00
  volume of cell :      153.19
      direct lattice vectors                 reciprocal lattice vectors
     0.000000000  4.246893000  4.246893000    -0.117733129  0.117733129  0.117733129
     4.246893000  0.000000000  4.246893000     0.117733129 -0.117733129  0.117733129
     4.246893000  4.246893000  0.000000000     0.117733129  0.117733129 -0.117733129

  length of vectors
     6.006013679  6.006013679  6.006013679     0.203919761  0.203919761  0.203919761


 FORCES acting on ions
    electron-ion (+dipol)            ewald-force                    non-local-force                 convergence-correction
 -----------------------------------------------------------------------------------------------
   0.126E+02 0.277E-01 0.312E+02   -.133E+02 -.275E-01 -.357E+02   0.690E+00 0.809E-02 0.459E+01   0.205E-04 0.302E-06 -.276E-04
   -.124E+01 -.708E+00 -.248E+01   0.122E+01 0.585E+00 0.245E+01   0.203E-01 0.115E+00 0.543E-01   -.836E-05 0.345E-04 -.433E-04
   0.556E+01 -.536E-01 -.393E+02   -.504E+01 0.551E-01 0.390E+02   -.532E+00 0.697E-02 0.242E+00   -.395E-04 0.161E-05 -.629E-04
   0.121E+01 -.289E+02 0.552E+01   -.118E+01 0.283E+02 -.510E+01   -.307E-01 0.669E+00 -.416E+00   0.134E-04 -.178E-04 0.469E-04
   0.255E+02 0.355E-02 0.299E+01   -.243E+02 -.373E-02 -.290E+01   -.115E+01 -.418E-02 -.700E-01   0.134E-04 0.581E-06 0.821E-04
   -.319E+02 -.154E+00 0.755E+01   0.315E+02 0.141E+00 -.688E+01   0.370E+00 0.269E-01 -.669E+00   -.291E-04 0.788E-06 0.293E-06
   0.129E+01 0.289E+02 0.551E+01   -.125E+01 -.282E+02 -.508E+01   -.467E-01 -.680E+00 -.421E+00   0.132E-04 0.167E-04 0.452E-04
   0.210E+00 -.135E-01 0.151E+02   -.344E+00 0.132E-01 -.125E+02   0.122E+00 0.570E-02 -.262E+01   0.393E-04 -.364E-06 0.159E-04
   -.108E+01 0.936E+00 -.236E+01   0.109E+01 -.793E+00 0.236E+01   -.168E-01 -.140E+00 0.167E-01   -.653E-05 -.363E-04 -.429E-04
   -.107E+01 -.814E+01 0.709E+01   0.724E+00 0.903E+01 -.732E+01   0.331E+00 -.904E+00 0.229E+00   -.327E-03 0.359E-03 0.233E-03
   -.305E+02 -.146E+00 -.119E+02   0.350E+02 0.142E+00 0.140E+02   -.448E+01 0.127E-01 -.210E+01   0.215E-02 0.159E-04 0.411E-03
   0.360E+01 0.265E+02 -.203E+01   -.369E+01 -.300E+02 0.178E+01   0.731E-01 0.351E+01 0.242E+00   0.244E-04 -.176E-02 -.544E-03
   0.362E+01 -.263E+02 -.189E+01   -.371E+01 0.298E+02 0.169E+01   0.796E-01 -.346E+01 0.196E+00   0.124E-04 0.175E-02 -.524E-03
   0.231E+02 -.132E+00 0.506E+01   -.256E+02 0.140E+00 -.674E+01   0.247E+01 0.385E-02 0.170E+01   -.140E-02 0.261E-04 -.108E-02
   -.113E+01 0.827E+01 0.718E+01   0.789E+00 -.916E+01 -.740E+01   0.338E+00 0.894E+00 0.226E+00   -.309E-03 -.388E-03 0.226E-03
   -.533E+01 -.122E-01 -.196E+02   0.798E+01 0.696E-01 0.283E+02   -.266E+01 -.584E-01 -.872E+01   0.762E-03 0.893E-05 0.252E-02
 -----------------------------------------------------------------------------------------------
   0.441E+01 0.194E-01 0.753E+01   0.888E-15 0.230E-14 0.142E-13   -.442E+01 -.335E-03 -.752E+01   0.928E-03 0.754E-05 0.125E-02
 
 
 POSITION                                       TOTAL-FORCE (eV/Angst)
 -----------------------------------------------------------------------------------
      2.34514      2.13583      2.72646         0.027014      0.007019      0.001872
      4.22082      4.25244      8.38125         0.007636     -0.009524      0.027632
      2.13742      2.13224      0.00899        -0.008645      0.007269     -0.018810
      6.33606      8.36621      6.27231         0.001351     -0.001581      0.003325
      4.46658      6.38300      6.25856         0.040133     -0.005559      0.012982
      4.16503      2.13316      6.29711        -0.001357      0.012644      0.001906
      6.33747      4.39901      6.27305        -0.013061     -0.015494      0.001836
      6.31581      6.38068      4.72437        -0.011369      0.004163     -0.035635
      4.22376      4.26292      4.13727        -0.008938      0.002657      0.015673
      4.21076      4.22033      2.01142        -0.013341     -0.013882      0.000764
      4.04388      2.13358      4.07020         0.007598      0.007612     -0.005634
      6.34299      4.42879      4.11151        -0.008055     -0.008656     -0.001479
      2.09657      4.08560      4.10998        -0.008077      0.004165      0.000591
      4.34261      6.38031      4.16637        -0.012517      0.011098      0.011438
      4.20911      4.29739      6.25922         0.001515      0.000274      0.001604
      6.40624      6.38240      6.54829         0.000112     -0.002206     -0.018064
 -----------------------------------------------------------------------------------
    total drift:                               -0.015399      0.019119      0.014261


--------------------------------------------------------------------------------------------------------



  FREE ENERGIE OF THE ION-ELECTRON SYSTEM (eV)
  ---------------------------------------------------
  free  energy   TOTEN  =       -90.51680799 eV

  energy  without entropy=      -90.51680799  energy(sigma->0) =      -90.51680799
 


--------------------------------------------------------------------------------------------------------


    POTLOK:  cpu time    0.3600: real time    0.3635


--------------------------------------------------------------------------------------------------------




--------------------------------------------------------------------------------------------------------


  
 reached required accuracy - stopping structural energy minimisation
     LOOP+:  cpu time   15.8800: real time   15.9663
    4ORBIT:  cpu time    0.0000: real time    0.0000
 


 total charge     
 
# of ion     s       p       d       tot
----------------------------------------
  1        0.323   0.166   0.034   0.523
  2        0.135   0.159   0.068   0.362
  3        0.150   0.150   0.052   0.353
  4        0.159   0.180   0.073   0.411
  5        0.171   0.198   0.084   0.453
  6        0.151   0.165   0.064   0.381
  7        0.159   0.180   0.073   0.411
  8        0.201   0.246   0.112   0.560
  9        0.135   0.159   0.068   0.362
 10        1.571   3.501   0.000   5.072
 11        1.569   3.512   0.000   5.081
 12        1.570   3.507   0.000   5.077
 13        1.570   3.507   0.000   5.077
 14        1.571   3.513   0.000   5.083
 15        1.571   3.501   0.000   5.072
 16        1.575   3.652   0.000   5.227
------------------------------------------------
tot       12.580  26.297   0.628  39.505
 


 magnetization (x)
 
# of ion     s       p       d       tot
----------------------------------------
  1       -0.000  -0.000  -0.000  -0.000
  2       -0.000  -0.000  -0.000  -0.000
  3       -0.000  -0.000  -0.000  -0.000
  4       -0.000  -0.000  -0.000  -0.000
  5       -0.000  -0.000  -0.000  -0.000
  6       -0.000  -0.000  -0.000  -0.000
  7       -0.000  -0.000  -0.000  -0.000
  8       -0.000  -0.000  -0.000  -0.000
  9       -0.000  -0.000  -0.000  -0.000
 10        0.000   0.000   0.000   0.000
 11        0.000   0.000   0.000   0.000
 12        0.000   0.000   0.000   0.000
 13        0.000   0.000   0.000   0.000
 14        0.000   0.000   0.000   0.000
 15        0.000   0.000   0.000   0.000
 16        0.000   0.000   0.000   0.000
------------------------------------------------
tot        0.000   0.000  -0.000   0.000
 

 total amount of memory used by VASP on root node    34266. kBytes
========================================================================

   base      :      30000. kBytes
   nonlr-proj:        910. kBytes
   fftplans  :        353. kBytes
   grid      :        883. kBytes
   one-center:         32. kBytes
   wavefun   :       2088. kBytes
 
  
  
 General timing and accounting informations for this job:
 ========================================================
  
                  Total CPU time used (sec):       17.232
                            User time (sec):       16.976
                          System time (sec):        0.256
                         Elapsed time (sec):       17.638
  
                   Maximum memory used (kb):       84600.
                   Average memory used (kb):           0.
  
                          Minor page faults:        18483
                          Major page faults:            9
                 Voluntary context switches:         2353
