<?xml version="1.0" encoding="ISO-8859-1"?>
<modeling>
 <generator>
  <i name="program" type="string">vasp </i>
  <i name="version" type="string">5.4.1  </i>
  <i name="subversion" type="string">05Feb16 (build Mar 31 2016 13:39:20) complex                          parallel </i>
  <i name="platform" type="string">IFC91_ompi </i>
  <i name="date" type="string">2018 04 28 </i>
  <i name="time" type="string">12:50:34 </i>
 </generator>
 <incar>
  <i type="string" name="PREC">n</i>
  <i type="string" name="ALGO"> N</i>
  <i type="int" name="ISPIN">     2</i>
  <i type="int" name="NELM">   100</i>
  <i type="int" name="NELMIN">     4</i>
  <i type="int" name="IBRION">     2</i>
  <i name="EDIFF">      0.00000100</i>
  <i name="EDIFFG">     -0.05000000</i>
  <i type="int" name="NSW">    20</i>
  <i type="int" name="ISIF">     2</i>
  <i name="ENCUT">    400.00000000</i>
  <i name="NELECT">     58.00000000</i>
  <i type="string" name="LREAL"> A</i>
  <i type="int" name="ISMEAR">     0</i>
  <i name="SIGMA">      0.05000000</i>
  <i type="logical" name="LWAVE"> F  </i>
  <i type="logical" name="LCHARG"> F  </i>
  <i type="logical" name="LORBIT"> F  </i>
  <i type="logical" name="LASPH"> T  </i>
  <v type="int" name="KPOINT_BSE">    -1     0     0     0</v>
  <i type="int" name="NELM">   100</i>
  <i type="logical" name="LASPH"> T  </i>
 </incar>
 <kpoints>
  <generation param="Gamma">
   <v type="int" name="divisions">       2        2        2 </v>
   <v name="usershift">      0.00000000       0.00000000       0.00000000 </v>
   <v name="genvec1">      0.50000000       0.00000000       0.00000000 </v>
   <v name="genvec2">      0.00000000       0.50000000       0.00000000 </v>
   <v name="genvec3">      0.00000000       0.00000000       0.50000000 </v>
   <v name="shift">      0.00000000       0.00000000       0.00000000 </v>
  </generation>
  <varray name="kpointlist" >
   <v>       0.00000000       0.00000000       0.00000000 </v>
   <v>       0.50000000       0.00000000       0.00000000 </v>
   <v>       0.00000000       0.50000000       0.00000000 </v>
   <v>       0.50000000       0.50000000       0.00000000 </v>
   <v>       0.00000000       0.00000000       0.50000000 </v>
   <v>       0.50000000       0.00000000       0.50000000 </v>
   <v>       0.00000000       0.50000000       0.50000000 </v>
   <v>       0.50000000       0.50000000       0.50000000 </v>
  </varray>
  <varray name="weights" >
   <v>       0.12500000 </v>
   <v>       0.12500000 </v>
   <v>       0.12500000 </v>
   <v>       0.12500000 </v>
   <v>       0.12500000 </v>
   <v>       0.12500000 </v>
   <v>       0.12500000 </v>
   <v>       0.12500000 </v>
  </varray>
 </kpoints>
 <parameters>
  <separator name="general" >
   <i type="string" name="SYSTEM">unknown system</i>
   <i type="logical" name="LCOMPAT"> F  </i>
  </separator>
  <separator name="electronic" >
   <i type="string" name="PREC">n</i>
   <i name="ENMAX">    400.00000000</i>
   <i name="ENAUG">    605.39200000</i>
   <i name="EDIFF">      0.00000100</i>
   <i type="int" name="IALGO">    38</i>
   <i type="int" name="IWAVPR">    11</i>
   <i type="int" name="NBANDS">    48</i>
   <i name="NELECT">     58.00000000</i>
   <i type="int" name="TURBO">     0</i>
   <i type="int" name="IRESTART">     0</i>
   <i type="int" name="NREBOOT">     0</i>
   <i type="int" name="NMIN">     0</i>
   <i name="EREF">      0.00000000</i>
   <separator name="electronic smearing" >
    <i type="int" name="ISMEAR">     0</i>
    <i name="SIGMA">      0.05000000</i>
    <i name="KSPACING">      0.50000000</i>
    <i type="logical" name="KGAMMA"> T  </i>
   </separator>
   <separator name="electronic projectors" >
    <i type="logical" name="LREAL"> T  </i>
    <v name="ROPT">     -0.00050000     -0.00050000</v>
    <i type="int" name="LMAXPAW">  -100</i>
    <i type="int" name="LMAXMIX">     2</i>
    <i type="logical" name="NLSPLINE"> F  </i>
   </separator>
   <separator name="electronic startup" >
    <i type="int" name="ISTART">     0</i>
    <i type="int" name="ICHARG">     2</i>
    <i type="int" name="INIWAV">     1</i>
   </separator>
   <separator name="electronic spin" >
    <i type="int" name="ISPIN">     2</i>
    <i type="logical" name="LNONCOLLINEAR"> F  </i>
    <v name="MAGMOM">      1.00000000      1.00000000      1.00000000      1.00000000      1.00000000      1.00000000      1.00000000      1.00000000      1.00000000      1.00000000      1.00000000      1.00000000      1.00000000      1.00000000      1.00000000      1.00000000</v>
    <i name="NUPDOWN">     -1.00000000</i>
    <i type="logical" name="LSORBIT"> F  </i>
    <v name="SAXIS">      0.00000000      0.00000000      1.00000000</v>
    <i type="logical" name="LSPIRAL"> F  </i>
    <v name="QSPIRAL">      0.00000000      0.00000000      0.00000000</v>
    <i type="logical" name="LZEROZ"> F  </i>
   </separator>
   <separator name="electronic exchange-correlation" >
    <i type="logical" name="LASPH"> T  </i>
    <i type="logical" name="LMETAGGA"> F  </i>
   </separator>
   <separator name="electronic convergence" >
    <i type="int" name="NELM">   100</i>
    <i type="int" name="NELMDL">     0</i>
    <i type="int" name="NELMIN">     4</i>
    <i name="ENINI">    400.00000000</i>
    <separator name="electronic convergence detail" >
     <i type="logical" name="LDIAG"> T  </i>
     <i type="logical" name="LSUBROT"> F  </i>
     <i name="WEIMIN">      0.00100000</i>
     <i name="EBREAK">      0.00000001</i>
     <i name="DEPER">      0.30000000</i>
     <i type="int" name="NRMM">     4</i>
     <i name="TIME">      0.40000000</i>
    </separator>
   </separator>
   <separator name="electronic mixer" >
    <i name="AMIX">      0.40000000</i>
    <i name="BMIX">      1.00000000</i>
    <i name="AMIN">      0.10000000</i>
    <i name="AMIX_MAG">      1.60000000</i>
    <i name="BMIX_MAG">      1.00000000</i>
    <separator name="electronic mixer details" >
     <i type="int" name="IMIX">     4</i>
     <i type="logical" name="MIXFIRST"> F  </i>
     <i type="int" name="MAXMIX">   -45</i>
     <i name="WC">    100.00000000</i>
     <i type="int" name="INIMIX">     1</i>
     <i type="int" name="MIXPRE">     1</i>
     <i type="int" name="MREMOVE">     5</i>
    </separator>
   </separator>
   <separator name="electronic dipolcorrection" >
    <i type="logical" name="LDIPOL"> F  </i>
    <i type="logical" name="LMONO"> F  </i>
    <i type="int" name="IDIPOL">     0</i>
    <i name="EPSILON">      1.00000000</i>
    <v name="DIPOL">   -100.00000000   -100.00000000   -100.00000000</v>
    <i name="EFIELD">      0.00000000</i>
   </separator>
  </separator>
  <separator name="grids" >
   <i type="int" name="NGX">    30</i>
   <i type="int" name="NGY">    30</i>
   <i type="int" name="NGZ">    30</i>
   <i type="int" name="NGXF">    60</i>
   <i type="int" name="NGYF">    60</i>
   <i type="int" name="NGZF">    60</i>
   <i type="logical" name="ADDGRID"> F  </i>
  </separator>
  <separator name="ionic" >
   <i type="int" name="NSW">    20</i>
   <i type="int" name="IBRION">     2</i>
   <i type="int" name="ISIF">     2</i>
   <i name="PSTRESS">      0.00000000</i>
   <i name="EDIFFG">     -0.05000000</i>
   <i type="int" name="NFREE">     1</i>
   <i name="POTIM">      0.50000000</i>
   <i name="SMASS">     -3.00000000</i>
   <i name="SCALEE">      1.00000000</i>
  </separator>
  <separator name="ionic md" >
   <i name="TEBEG">      0.00010000</i>
   <i name="TEEND">      0.00010000</i>
   <i type="int" name="NBLOCK">     1</i>
   <i type="int" name="KBLOCK">    20</i>
   <i type="int" name="NPACO">   256</i>
   <i name="APACO">     16.00000000</i>
  </separator>
  <separator name="symmetry" >
   <i type="int" name="ISYM">     2</i>
   <i name="SYMPREC">      0.00001000</i>
  </separator>
  <separator name="dos" >
   <i type="logical" name="LORBIT"> F  </i>
   <v name="RWIGS">     -1.00000000     -1.00000000</v>
   <i type="int" name="NEDOS">   301</i>
   <i name="EMIN">     10.00000000</i>
   <i name="EMAX">    -10.00000000</i>
   <i name="EFERMI">      0.00000000</i>
  </separator>
  <separator name="writing" >
   <i type="int" name="NWRITE">     2</i>
   <i type="logical" name="LWAVE"> F  </i>
   <i type="logical" name="LCHARG"> F  </i>
   <i type="logical" name="LPARD"> F  </i>
   <i type="logical" name="LVTOT"> F  </i>
   <i type="logical" name="LVHAR"> F  </i>
   <i type="logical" name="LELF"> F  </i>
   <i type="logical" name="LOPTICS"> F  </i>
   <v name="STM">      0.00000000      0.00000000      0.00000000      0.00000000      0.00000000      0.00000000      0.00000000</v>
  </separator>
  <separator name="performance" >
   <i type="int" name="NPAR">     4</i>
   <i type="int" name="NSIM">     4</i>
   <i type="int" name="NBLK">    -1</i>
   <i type="logical" name="LPLANE"> T  </i>
   <i type="logical" name="LSCALAPACK"> T  </i>
   <i type="logical" name="LSCAAWARE"> F  </i>
   <i type="logical" name="LSCALU"> F  </i>
   <i type="logical" name="LASYNC"> F  </i>
   <i type="logical" name="LORBITALREAL"> F  </i>
  </separator>
  <separator name="miscellaneous" >
   <i type="int" name="IDIOT">     3</i>
   <i type="logical" name="LMUSIC"> F  </i>
   <v name="POMASS">     24.30500000     16.00000000</v>
   <v name="DARWINR">      0.00000000      0.00000000</v>
   <v name="DARWINV">      1.00000000      1.00000000</v>
   <i type="logical" name="LCORR"> T  </i>
  </separator>
  <i type="logical" name="GGA_COMPAT"> T  </i>
  <i type="logical" name="LBERRY"> F  </i>
  <i type="int" name="ICORELEVEL">     0</i>
  <i type="logical" name="LDAU"> F  </i>
  <i type="int" name="I_CONSTRAINED_M">     0</i>
  <separator name="electronic exchange-correlation" >
   <i type="string" name="GGA">--</i>
   <i type="int" name="VOSKOWN">     0</i>
   <i type="logical" name="LHFCALC"> F  </i>
   <i type="string" name="PRECFOCK"></i>
   <i type="logical" name="LSYMGRAD"> F  </i>
   <i type="logical" name="LHFONE"> F  </i>
   <i type="logical" name="LRHFCALC"> F  </i>
   <i type="logical" name="LTHOMAS"> F  </i>
   <i type="logical" name="LMODELHF"> F  </i>
   <i name="ENCUT4O">     -1.00000000</i>
   <i type="int" name="EXXOEP">     0</i>
   <i type="int" name="FOURORBIT">     0</i>
   <i name="AEXX">      0.00000000</i>
   <i name="HFALPHA">      0.00000000</i>
   <i name="MCALPHA">      0.00000000</i>
   <i name="ALDAX">      1.00000000</i>
   <i name="AGGAX">      1.00000000</i>
   <i name="ALDAC">      1.00000000</i>
   <i name="AGGAC">      1.00000000</i>
   <i type="int" name="NKREDX">     1</i>
   <i type="int" name="NKREDY">     1</i>
   <i type="int" name="NKREDZ">     1</i>
   <i type="logical" name="SHIFTRED"> F  </i>
   <i type="logical" name="ODDONLY"> F  </i>
   <i type="logical" name="EVENONLY"> F  </i>
   <i type="int" name="LMAXFOCK">     0</i>
   <i type="int" name="NMAXFOCKAE">     0</i>
   <i type="logical" name="LFOCKAEDFT"> F  </i>
   <i name="HFSCREEN">      0.00000000</i>
   <i name="HFSCREENC">      0.00000000</i>
   <i type="int" name="NBANDSGWLOW">     0</i>
  </separator>
  <separator name="vdW DFT" >
   <i type="logical" name="LUSE_VDW"> F  </i>
   <i name="Zab_VDW">     -0.84910000</i>
   <i name="PARAM1">      0.12340000</i>
   <i name="PARAM2">      1.00000000</i>
   <i name="PARAM3">      0.00000000</i>
  </separator>
  <separator name="model GW" >
   <i type="int" name="MODEL_GW">     0</i>
   <i name="MODEL_EPS0">      5.74480406</i>
   <i name="MODEL_ALPHA">      1.00000000</i>
  </separator>
  <separator name="linear response parameters" >
   <i type="logical" name="LEPSILON"> F  </i>
   <i type="logical" name="LRPA"> F  </i>
   <i type="logical" name="LNABLA"> F  </i>
   <i type="logical" name="LVEL"> F  </i>
   <i type="int" name="KINTER">     0</i>
   <i name="CSHIFT">      0.10000000</i>
   <i name="OMEGAMAX">     -1.00000000</i>
   <i name="DEG_THRESHOLD">      0.00200000</i>
  </separator>
  <separator name="orbital magnetization" >
   <i type="logical" name="NUCIND"> F  </i>
   <v name="MAGPOS">      0.00000000      0.00000000      0.00000000</v>
   <i type="logical" name="LNICSALL"> T  </i>
   <i type="logical" name="ORBITALMAG"> F  </i>
   <i type="logical" name="LMAGBLOCH"> F  </i>
   <i type="logical" name="LCHIMAG"> F  </i>
   <i type="logical" name="LGAUGE"> T  </i>
   <i type="int" name="MAGATOM">     0</i>
   <v name="MAGDIPOL">      0.00000000      0.00000000      0.00000000</v>
   <v name="AVECCONST">      0.00000000      0.00000000      0.00000000</v>
  </separator>
  <separator name="response functions" >
   <i type="logical" name="LADDER"> F  </i>
   <i type="logical" name="LFXC"> F  </i>
   <i type="logical" name="LHARTREE"> T  </i>
   <i type="int" name="IBSE">     0</i>
   <v type="int" name="KPOINT">    -1     0     0     0</v>
   <i type="logical" name="LTCTE"> F  </i>
   <i type="logical" name="LTETE"> F  </i>
   <i type="logical" name="LTRIPLET"> F  </i>
   <i type="logical" name="LFXCEPS"> F  </i>
   <i type="logical" name="LFXHEG"> F  </i>
   <i type="int" name="NATURALO">     0</i>
   <i type="logical" name="L2ORDER"> F  </i>
   <i type="logical" name="LUSEW"> F  </i>
   <i name="ENCUTGW">     -2.00000000</i>
   <i name="ENCUTGWSOFT">     -2.00000000</i>
   <i name="ENCUTLF">     -1.00000000</i>
   <i type="int" name="LMAXMP2">    -1</i>
   <i name="SCISSOR">      0.00000000</i>
   <i type="int" name="NOMEGA">     0</i>
   <i type="int" name="NOMEGAR">     0</i>
   <i type="int" name="NBANDSGW">    -1</i>
   <i type="int" name="NBANDSO">    -1</i>
   <i type="int" name="NBANDSV">    -1</i>
   <i type="int" name="NELM">   100</i>
   <i type="int" name="NELMHF">     1</i>
   <i type="int" name="DIM">     3</i>
   <i type="int" name="ANTIRES">     0</i>
   <i name="OMEGAMAX">    -30.00000000</i>
   <i name="OMEGAMIN">    -30.00000000</i>
   <i name="OMEGATL">   -200.00000000</i>
   <i type="int" name="OMEGAGRID">     0</i>
   <i name="CSHIFT">     -0.10000000</i>
   <i type="logical" name="SELFENERGY"> F  </i>
   <i type="logical" name="LSPECTRAL"> F  </i>
   <i type="logical" name="LSPECTRALGW"> F  </i>
   <i type="logical" name="LSINGLES"> F  </i>
   <i type="logical" name="LFERMIGW"> F  </i>
   <i type="logical" name="ODDONLYGW"> F  </i>
   <i type="logical" name="EVENONLYGW"> F  </i>
   <i type="int" name="NKREDLFX">     1</i>
   <i type="int" name="NKREDLFY">     1</i>
   <i type="int" name="NKREDLFZ">     1</i>
   <i type="int" name="MAXMEM">  1800</i>
   <i type="int" name="TELESCOPE">     0</i>
   <i type="int" name="TAUPAR">     1</i>
   <i type="int" name="OMEGAPAR">    -1</i>
   <i name="LAMBDA">      1.00000000</i>
  </separator>
  <separator name="External order field" >
   <i name="OFIELD_KAPPA">      0.00000000</i>
   <v name="OFIELD_K">      0.00000000      0.00000000      0.00000000</v>
   <i name="OFIELD_Q6_NEAR">      0.00000000</i>
   <i name="OFIELD_Q6_FAR">      0.00000000</i>
   <i name="OFIELD_A">      0.00000000</i>
  </separator>
 </parameters>
 <atominfo>
  <atoms>      16 </atoms>
  <types>       2 </types>
  <array name="atoms" >
   <dimension dim="1">ion</dimension>
   <field type="string">element</field>
   <field type="int">atomtype</field>
   <set>
    <rc><c>Mg</c><c>   1</c></rc>
    <rc><c>Mg</c><c>   1</c></rc>
    <rc><c>Mg</c><c>   1</c></rc>
    <rc><c>Mg</c><c>   1</c></rc>
    <rc><c>Mg</c><c>   1</c></rc>
    <rc><c>Mg</c><c>   1</c></rc>
    <rc><c>Mg</c><c>   1</c></rc>
    <rc><c>Mg</c><c>   1</c></rc>
    <rc><c>Mg</c><c>   1</c></rc>
    <rc><c>O </c><c>   2</c></rc>
    <rc><c>O </c><c>   2</c></rc>
    <rc><c>O </c><c>   2</c></rc>
    <rc><c>O </c><c>   2</c></rc>
    <rc><c>O </c><c>   2</c></rc>
    <rc><c>O </c><c>   2</c></rc>
    <rc><c>O </c><c>   2</c></rc>
   </set>
  </array>
  <array name="atomtypes" >
   <dimension dim="1">type</dimension>
   <field type="int">atomspertype</field>
   <field type="string">element</field>
   <field>mass</field>
   <field>valence</field>
   <field type="string">pseudopotential</field>
   <set>
    <rc><c>   9</c><c>Mg</c><c>     24.30500000</c><c>      2.00000000</c><c>  PAW_PBE Mg 13Apr2007                  </c></rc>
    <rc><c>   7</c><c>O </c><c>     16.00000000</c><c>      6.00000000</c><c>  PAW_PBE O 08Apr2002                   </c></rc>
   </set>
  </array>
 </atominfo>
 <structure name="initialpos" >
  <crystal>
   <varray name="basis" >
    <v>       0.00000000       4.24689300       4.24689300 </v>
    <v>       4.24689300       0.00000000       4.24689300 </v>
    <v>       4.24689300       4.24689300       0.00000000 </v>
   </varray>
   <i name="volume">    153.19477498 </i>
   <varray name="rec_basis" >
    <v>      -0.11773313       0.11773313       0.11773313 </v>
    <v>       0.11773313      -0.11773313       0.11773313 </v>
    <v>       0.11773313       0.11773313      -0.11773313 </v>
   </varray>
  </crystal>
  <varray name="positions" >
   <v>       0.30049140       0.34565132       0.20229103 </v>
   <v>       0.99029246       0.98383131       0.01111488 </v>
   <v>       0.00138838       0.00160287       0.50112916 </v>
   <v>       0.97704898       0.49919998       0.99328306 </v>
   <v>       0.96327017       0.51038894       0.53901021 </v>
   <v>       0.50290971       0.97950785       0.00045374 </v>
   <v>       0.50931265       0.96702940       0.52541376 </v>
   <v>       0.56419473       0.55076809       0.93797749 </v>
   <v>       0.49134135       0.48173607       0.51290313 </v>
   <v>       0.23809098       0.23516712       0.75640097 </v>
   <v>       0.25468785       0.70279105       0.24793481 </v>
   <v>       0.25826359       0.70811720       0.78615806 </v>
   <v>       0.71619543       0.25050976       0.24389864 </v>
   <v>       0.72751002       0.25154549       0.77525905 </v>
   <v>       0.74598089       0.72720935       0.26492632 </v>
   <v>       0.76913439       0.77417618       0.73333869 </v>
  </varray>
 </structure>
 <calculation>
  <scstep>
   <time name="dav">    0.53    0.53</time>
   <time name="total">    1.23    1.24</time>
   <energy>
    <i name="alphaZ">    142.81396753 </i>
    <i name="ewald">  -2459.87988882 </i>
    <i name="hartreedc">   -965.78686594 </i>
    <i name="XCdc">   -236.29001874 </i>
    <i name="pawpsdc">   3011.45132117 </i>
    <i name="pawaedc">  -2557.24446474 </i>
    <i name="eentropy">     -0.00083080 </i>
    <i name="bandstr">     51.72213787 </i>
    <i name="atom">   3233.17333345 </i>
    <i name="e_fr_energy">    219.95869099 </i>
    <i name="e_wo_entrp">    219.95952179 </i>
    <i name="e_0_energy">    219.95910639 </i>
   </energy>
  </scstep>
  <scstep>
   <time name="dav">    0.60    0.60</time>
   <time name="total">    0.60    0.61</time>
   <energy>
    <i name="e_fr_energy">    -76.94883401 </i>
    <i name="e_wo_entrp">    -76.94883401 </i>
    <i name="e_0_energy">    -76.94883401 </i>
   </energy>
  </scstep>
  <scstep>
   <time name="dav">    0.60    0.60</time>
   <time name="total">    0.60    0.60</time>
   <energy>
    <i name="e_fr_energy">    -93.64132485 </i>
    <i name="e_wo_entrp">    -93.64132485 </i>
    <i name="e_0_energy">    -93.64132485 </i>
   </energy>
  </scstep>
  <scstep>
   <time name="dav">    0.56    0.56</time>
   <time name="total">    0.56    0.56</time>
   <energy>
    <i name="e_fr_energy">    -93.73838349 </i>
    <i name="e_wo_entrp">    -93.73838349 </i>
    <i name="e_0_energy">    -93.73838349 </i>
   </energy>
  </scstep>
  <scstep>
   <time name="dav">    0.58    0.58</time>
   <time name="total">    0.60    0.61</time>
   <energy>
    <i name="e_fr_energy">    -93.73887922 </i>
    <i name="e_wo_entrp">    -93.73887922 </i>
    <i name="e_0_energy">    -93.73887922 </i>
   </energy>
  </scstep>
  <scstep>
   <time name="dav">    0.56    0.56</time>
   <time name="total">    1.29    1.29</time>
   <energy>
    <i name="e_fr_energy">    -90.25314159 </i>
    <i name="e_wo_entrp">    -90.25314159 </i>
    <i name="e_0_energy">    -90.25314159 </i>
   </energy>
  </scstep>
  <scstep>
   <time name="dav">    0.56    0.56</time>
   <time name="total">    1.28    1.29</time>
   <energy>
    <i name="e_fr_energy">    -90.39685042 </i>
    <i name="e_wo_entrp">    -90.39685042 </i>
    <i name="e_0_energy">    -90.39685042 </i>
   </energy>
  </scstep>
  <scstep>
   <time name="dav">    0.58    0.58</time>
   <time name="total">    1.30    1.31</time>
   <energy>
    <i name="e_fr_energy">    -90.30664466 </i>
    <i name="e_wo_entrp">    -90.30664466 </i>
    <i name="e_0_energy">    -90.30664466 </i>
   </energy>
  </scstep>
  <scstep>
   <time name="dav">    0.60    0.61</time>
   <time name="total">    1.32    1.33</time>
   <energy>
    <i name="e_fr_energy">    -90.30137256 </i>
    <i name="e_wo_entrp">    -90.30137256 </i>
    <i name="e_0_energy">    -90.30137256 </i>
   </energy>
  </scstep>
  <scstep>
   <time name="dav">    0.57    0.57</time>
   <time name="total">    1.29    1.29</time>
   <energy>
    <i name="e_fr_energy">    -90.30049349 </i>
    <i name="e_wo_entrp">    -90.30049349 </i>
    <i name="e_0_energy">    -90.30049349 </i>
   </energy>
  </scstep>
  <scstep>
   <time name="dav">    0.59    0.59</time>
   <time name="total">    1.31    1.32</time>
   <energy>
    <i name="e_fr_energy">    -90.30073265 </i>
    <i name="e_wo_entrp">    -90.30073265 </i>
    <i name="e_0_energy">    -90.30073265 </i>
   </energy>
  </scstep>
  <scstep>
   <time name="dav">    0.56    0.57</time>
   <time name="total">    1.28    1.29</time>
   <energy>
    <i name="e_fr_energy">    -90.30088191 </i>
    <i name="e_wo_entrp">    -90.30088191 </i>
    <i name="e_0_energy">    -90.30088191 </i>
   </energy>
  </scstep>
  <scstep>
   <time name="dav">    0.59    0.59</time>
   <time name="total">    1.30    1.31</time>
   <energy>
    <i name="e_fr_energy">    -90.30088593 </i>
    <i name="e_wo_entrp">    -90.30088593 </i>
    <i name="e_0_energy">    -90.30088593 </i>
   </energy>
  </scstep>
  <scstep>
   <time name="dav">    0.58    0.57</time>
   <time name="total">    1.30    1.30</time>
   <energy>
    <i name="e_fr_energy">    -90.30088750 </i>
    <i name="e_wo_entrp">    -90.30088750 </i>
    <i name="e_0_energy">    -90.30088750 </i>
   </energy>
  </scstep>
  <scstep>
   <time name="dav">    0.42    0.42</time>
   <time name="total">    1.12    1.12</time>
   <energy>
    <i name="alphaZ">    142.81396753 </i>
    <i name="ewald">  -2459.87988882 </i>
    <i name="hartreedc">  -1107.37544484 </i>
    <i name="XCdc">   -234.52348540 </i>
    <i name="pawpsdc">   3992.87122614 </i>
    <i name="pawaedc">  -3540.44103076 </i>
    <i name="eentropy">     -0.00000000 </i>
    <i name="bandstr">   -116.93956481 </i>
    <i name="atom">   3233.17333345 </i>
    <i name="e_fr_energy">    -90.30088751 </i>
    <i name="e_wo_entrp">    -90.30088751 </i>
    <i name="e_0_energy">    -90.30088751 </i>
   </energy>
  </scstep>
  <structure>
   <crystal>
    <varray name="basis" >
     <v>       0.00000000       4.24689300       4.24689300 </v>
     <v>       4.24689300       0.00000000       4.24689300 </v>
     <v>       4.24689300       4.24689300       0.00000000 </v>
    </varray>
    <i name="volume">    153.19477498 </i>
    <varray name="rec_basis" >
     <v>      -0.11773313       0.11773313       0.11773313 </v>
     <v>       0.11773313      -0.11773313       0.11773313 </v>
     <v>       0.11773313       0.11773313      -0.11773313 </v>
    </varray>
   </crystal>
   <varray name="positions" >
    <v>       0.30049140       0.34565132       0.20229103 </v>
    <v>       0.99029246       0.98383131       0.01111488 </v>
    <v>       0.00138838       0.00160287       0.50112916 </v>
    <v>       0.97704898       0.49919998       0.99328306 </v>
    <v>       0.96327017       0.51038894       0.53901021 </v>
    <v>       0.50290971       0.97950785       0.00045374 </v>
    <v>       0.50931265       0.96702940       0.52541376 </v>
    <v>       0.56419473       0.55076809       0.93797749 </v>
    <v>       0.49134135       0.48173607       0.51290313 </v>
    <v>       0.23809098       0.23516712       0.75640097 </v>
    <v>       0.25468785       0.70279105       0.24793481 </v>
    <v>       0.25826359       0.70811720       0.78615806 </v>
    <v>       0.71619543       0.25050976       0.24389864 </v>
    <v>       0.72751002       0.25154549       0.77525905 </v>
    <v>       0.74598089       0.72720935       0.26492632 </v>
    <v>       0.76913439       0.77417618       0.73333869 </v>
   </varray>
  </structure>
  <varray name="forces" >
   <v>       0.01668063      -0.00022237      -0.01316142 </v>
   <v>      -0.01041410      -0.00733777      -0.01966957 </v>
   <v>       0.00938814       0.00832491      -0.00475508 </v>
   <v>      -0.00440297       0.01452756       0.00452198 </v>
   <v>       0.02552608       0.00893750      -0.01434296 </v>
   <v>       0.02111166      -0.00960777      -0.00339487 </v>
   <v>      -0.00219455      -0.00428330       0.00075255 </v>
   <v>      -0.02262879       0.00153474      -0.01864348 </v>
   <v>       0.00466945      -0.00686617       0.01060106 </v>
   <v>       0.00496103      -0.01614331      -0.00353714 </v>
   <v>       0.01738261      -0.00393761       0.01161978 </v>
   <v>      -0.00533177       0.00935788       0.00621614 </v>
   <v>      -0.00295990       0.00119406      -0.00041189 </v>
   <v>      -0.04434622      -0.00733748       0.01791619 </v>
   <v>      -0.00870552       0.00607404       0.00570444 </v>
   <v>       0.00126421       0.00578509       0.02058428 </v>
  </varray>
  <varray name="stress" >
   <v>     -45.52522410       0.15649640     -30.36322421 </v>
   <v>       0.15649640     -59.54417592       0.07530182 </v>
   <v>     -30.36321579       0.07530186      12.38115234 </v>
  </varray>
  <energy>
   <i name="e_fr_energy">    -90.30088751 </i>
   <i name="e_wo_entrp">    -90.30088751 </i>
   <i name="e_0_energy">     -0.00000000 </i>
  </energy>
  <time name="totalsc">   18.38   18.45</time>
  <eigenvalues>
   <array>
    <dimension dim="1">band</dimension>
    <dimension dim="2">kpoint</dimension>
    <dimension dim="3">spin</dimension>
    <field>eigene</field>
    <field>occ</field>
    <set>
     <set comment="spin 1">
      <set comment="kpoint 1">
       <r>  -14.3308    1.0000 </r>
       <r>  -13.1938    1.0000 </r>
       <r>  -12.5207    1.0000 </r>
       <r>  -12.4958    1.0000 </r>
       <r>  -12.2915    1.0000 </r>
       <r>  -12.1687    1.0000 </r>
       <r>  -12.1242    1.0000 </r>
       <r>   -1.4658    1.0000 </r>
       <r>   -1.3932    1.0000 </r>
       <r>   -1.3897    1.0000 </r>
       <r>   -0.8337    1.0000 </r>
       <r>   -0.3510    1.0000 </r>
       <r>   -0.1752    1.0000 </r>
       <r>   -0.1444    1.0000 </r>
       <r>    1.3863    1.0000 </r>
       <r>    1.5528    1.0000 </r>
       <r>    1.5759    1.0000 </r>
       <r>    1.9645    1.0000 </r>
       <r>    2.0766    1.0000 </r>
       <r>    2.0815    1.0000 </r>
       <r>    2.7162    1.0000 </r>
       <r>    2.7545    1.0000 </r>
       <r>    2.8022    1.0000 </r>
       <r>    2.8994    1.0000 </r>
       <r>    2.9887    1.0000 </r>
       <r>    3.0776    1.0000 </r>
       <r>    3.1846    1.0000 </r>
       <r>    3.1864    1.0000 </r>
       <r>    3.2525    1.0000 </r>
       <r>    8.7942    0.0000 </r>
       <r>   10.1827    0.0000 </r>
       <r>   10.2007    0.0000 </r>
       <r>   10.7974    0.0000 </r>
       <r>   10.8485    0.0000 </r>
       <r>   10.9408    0.0000 </r>
       <r>   11.6124    0.0000 </r>
       <r>   11.7040    0.0000 </r>
       <r>   11.9457    0.0000 </r>
       <r>   12.1997    0.0000 </r>
       <r>   12.3154    0.0000 </r>
       <r>   12.4764    0.0000 </r>
       <r>   12.9160    0.0000 </r>
       <r>   15.3630    0.0000 </r>
       <r>   15.3858    0.0000 </r>
       <r>   15.6216    0.0000 </r>
       <r>   15.7614    0.0000 </r>
       <r>   18.0196    0.0000 </r>
       <r>   18.2984    0.0000 </r>
      </set>
      <set comment="kpoint 2">
       <r>  -14.2323    1.0000 </r>
       <r>  -13.0579    1.0000 </r>
       <r>  -12.7875    1.0000 </r>
       <r>  -12.4676    1.0000 </r>
       <r>  -12.2826    1.0000 </r>
       <r>  -12.2298    1.0000 </r>
       <r>  -12.1839    1.0000 </r>
       <r>   -1.0712    1.0000 </r>
       <r>   -0.9546    1.0000 </r>
       <r>   -0.7004    1.0000 </r>
       <r>   -0.3280    1.0000 </r>
       <r>   -0.1402    1.0000 </r>
       <r>    0.2649    1.0000 </r>
       <r>    0.3867    1.0000 </r>
       <r>    0.7568    1.0000 </r>
       <r>    0.9009    1.0000 </r>
       <r>    1.2761    1.0000 </r>
       <r>    1.4739    1.0000 </r>
       <r>    1.6370    1.0000 </r>
       <r>    1.6861    1.0000 </r>
       <r>    1.8800    1.0000 </r>
       <r>    1.9921    1.0000 </r>
       <r>    2.3016    1.0000 </r>
       <r>    2.5162    1.0000 </r>
       <r>    2.8991    1.0000 </r>
       <r>    2.9644    1.0000 </r>
       <r>    3.0647    1.0000 </r>
       <r>    3.1201    1.0000 </r>
       <r>    4.8662    1.0000 </r>
       <r>    7.5710    0.0000 </r>
       <r>    9.5316    0.0000 </r>
       <r>   10.3488    0.0000 </r>
       <r>   10.7729    0.0000 </r>
       <r>   11.2256    0.0000 </r>
       <r>   12.0441    0.0000 </r>
       <r>   12.3043    0.0000 </r>
       <r>   12.5498    0.0000 </r>
       <r>   12.6934    0.0000 </r>
       <r>   13.6977    0.0000 </r>
       <r>   14.0107    0.0000 </r>
       <r>   14.4025    0.0000 </r>
       <r>   14.5042    0.0000 </r>
       <r>   14.6346    0.0000 </r>
       <r>   14.8844    0.0000 </r>
       <r>   15.2833    0.0000 </r>
       <r>   15.7293    0.0000 </r>
       <r>   16.0725    0.0000 </r>
       <r>   16.3101    0.0000 </r>
      </set>
      <set comment="kpoint 3">
       <r>  -14.2336    1.0000 </r>
       <r>  -13.0602    1.0000 </r>
       <r>  -12.7810    1.0000 </r>
       <r>  -12.4640    1.0000 </r>
       <r>  -12.2638    1.0000 </r>
       <r>  -12.2322    1.0000 </r>
       <r>  -12.2070    1.0000 </r>
       <r>   -1.0191    1.0000 </r>
       <r>   -0.9502    1.0000 </r>
       <r>   -0.7957    1.0000 </r>
       <r>   -0.3370    1.0000 </r>
       <r>   -0.1050    1.0000 </r>
       <r>    0.2722    1.0000 </r>
       <r>    0.4059    1.0000 </r>
       <r>    0.7375    1.0000 </r>
       <r>    0.9930    1.0000 </r>
       <r>    1.2800    1.0000 </r>
       <r>    1.4298    1.0000 </r>
       <r>    1.5104    1.0000 </r>
       <r>    1.7013    1.0000 </r>
       <r>    1.8643    1.0000 </r>
       <r>    2.0309    1.0000 </r>
       <r>    2.2866    1.0000 </r>
       <r>    2.6360    1.0000 </r>
       <r>    2.9159    1.0000 </r>
       <r>    2.9598    1.0000 </r>
       <r>    3.0464    1.0000 </r>
       <r>    3.0682    1.0000 </r>
       <r>    4.7865    1.0000 </r>
       <r>    7.7244    0.0000 </r>
       <r>    9.5149    0.0000 </r>
       <r>   10.1319    0.0000 </r>
       <r>   10.8962    0.0000 </r>
       <r>   11.2829    0.0000 </r>
       <r>   12.1932    0.0000 </r>
       <r>   12.3703    0.0000 </r>
       <r>   12.6659    0.0000 </r>
       <r>   12.7354    0.0000 </r>
       <r>   13.6541    0.0000 </r>
       <r>   13.9034    0.0000 </r>
       <r>   14.2614    0.0000 </r>
       <r>   14.3235    0.0000 </r>
       <r>   14.4837    0.0000 </r>
       <r>   14.9099    0.0000 </r>
       <r>   14.9659    0.0000 </r>
       <r>   15.7351    0.0000 </r>
       <r>   16.2126    0.0000 </r>
       <r>   16.3254    0.0000 </r>
      </set>
      <set comment="kpoint 4">
       <r>  -14.2030    1.0000 </r>
       <r>  -13.0828    1.0000 </r>
       <r>  -12.5922    1.0000 </r>
       <r>  -12.5600    1.0000 </r>
       <r>  -12.3581    1.0000 </r>
       <r>  -12.3554    1.0000 </r>
       <r>  -12.1232    1.0000 </r>
       <r>   -1.0137    1.0000 </r>
       <r>   -0.6484    1.0000 </r>
       <r>   -0.6459    1.0000 </r>
       <r>   -0.0685    1.0000 </r>
       <r>    0.1586    1.0000 </r>
       <r>    0.2084    1.0000 </r>
       <r>    0.5674    1.0000 </r>
       <r>    0.5795    1.0000 </r>
       <r>    1.1415    1.0000 </r>
       <r>    1.1592    1.0000 </r>
       <r>    1.4256    1.0000 </r>
       <r>    1.4583    1.0000 </r>
       <r>    1.5475    1.0000 </r>
       <r>    1.6250    1.0000 </r>
       <r>    1.7888    1.0000 </r>
       <r>    2.1980    1.0000 </r>
       <r>    2.2087    1.0000 </r>
       <r>    2.7804    1.0000 </r>
       <r>    2.8147    1.0000 </r>
       <r>    2.8736    1.0000 </r>
       <r>    3.0808    1.0000 </r>
       <r>    5.0747    1.0000 </r>
       <r>    8.4379    0.0000 </r>
       <r>    8.9414    0.0000 </r>
       <r>    9.0912    0.0000 </r>
       <r>   11.2362    0.0000 </r>
       <r>   12.1486    0.0000 </r>
       <r>   12.6111    0.0000 </r>
       <r>   13.1229    0.0000 </r>
       <r>   13.1935    0.0000 </r>
       <r>   13.5069    0.0000 </r>
       <r>   13.5933    0.0000 </r>
       <r>   13.6615    0.0000 </r>
       <r>   14.2303    0.0000 </r>
       <r>   14.3322    0.0000 </r>
       <r>   14.4502    0.0000 </r>
       <r>   14.9838    0.0000 </r>
       <r>   14.9870    0.0000 </r>
       <r>   15.1964    0.0000 </r>
       <r>   15.6522    0.0000 </r>
       <r>   16.1307    0.0000 </r>
      </set>
      <set comment="kpoint 5">
       <r>  -14.2322    1.0000 </r>
       <r>  -13.0588    1.0000 </r>
       <r>  -12.7861    1.0000 </r>
       <r>  -12.4683    1.0000 </r>
       <r>  -12.2828    1.0000 </r>
       <r>  -12.2293    1.0000 </r>
       <r>  -12.1840    1.0000 </r>
       <r>   -1.0708    1.0000 </r>
       <r>   -0.9524    1.0000 </r>
       <r>   -0.6986    1.0000 </r>
       <r>   -0.3300    1.0000 </r>
       <r>   -0.1406    1.0000 </r>
       <r>    0.2646    1.0000 </r>
       <r>    0.3852    1.0000 </r>
       <r>    0.7570    1.0000 </r>
       <r>    0.8987    1.0000 </r>
       <r>    1.2758    1.0000 </r>
       <r>    1.4723    1.0000 </r>
       <r>    1.6391    1.0000 </r>
       <r>    1.6861    1.0000 </r>
       <r>    1.8786    1.0000 </r>
       <r>    1.9920    1.0000 </r>
       <r>    2.3030    1.0000 </r>
       <r>    2.5151    1.0000 </r>
       <r>    2.8997    1.0000 </r>
       <r>    2.9650    1.0000 </r>
       <r>    3.0637    1.0000 </r>
       <r>    3.1219    1.0000 </r>
       <r>    4.8674    1.0000 </r>
       <r>    7.5722    0.0000 </r>
       <r>    9.5283    0.0000 </r>
       <r>   10.3505    0.0000 </r>
       <r>   10.7712    0.0000 </r>
       <r>   11.2244    0.0000 </r>
       <r>   12.0431    0.0000 </r>
       <r>   12.3042    0.0000 </r>
       <r>   12.5550    0.0000 </r>
       <r>   12.6917    0.0000 </r>
       <r>   13.7010    0.0000 </r>
       <r>   14.0084    0.0000 </r>
       <r>   14.4040    0.0000 </r>
       <r>   14.5043    0.0000 </r>
       <r>   14.6352    0.0000 </r>
       <r>   14.8839    0.0000 </r>
       <r>   15.2854    0.0000 </r>
       <r>   15.7354    0.0000 </r>
       <r>   16.0712    0.0000 </r>
       <r>   16.3130    0.0000 </r>
      </set>
      <set comment="kpoint 6">
       <r>  -14.2071    1.0000 </r>
       <r>  -12.8980    1.0000 </r>
       <r>  -12.8613    1.0000 </r>
       <r>  -12.5619    1.0000 </r>
       <r>  -12.3734    1.0000 </r>
       <r>  -12.2889    1.0000 </r>
       <r>  -12.0869    1.0000 </r>
       <r>   -0.9656    1.0000 </r>
       <r>   -0.6368    1.0000 </r>
       <r>   -0.5641    1.0000 </r>
       <r>   -0.1115    1.0000 </r>
       <r>    0.2990    1.0000 </r>
       <r>    0.3946    1.0000 </r>
       <r>    0.4903    1.0000 </r>
       <r>    0.6499    1.0000 </r>
       <r>    0.8873    1.0000 </r>
       <r>    1.0326    1.0000 </r>
       <r>    1.1226    1.0000 </r>
       <r>    1.4977    1.0000 </r>
       <r>    1.5475    1.0000 </r>
       <r>    1.7636    1.0000 </r>
       <r>    1.8182    1.0000 </r>
       <r>    2.0047    1.0000 </r>
       <r>    2.2704    1.0000 </r>
       <r>    2.7779    1.0000 </r>
       <r>    2.7856    1.0000 </r>
       <r>    2.9569    1.0000 </r>
       <r>    3.1082    1.0000 </r>
       <r>    5.4231    1.0000 </r>
       <r>    7.5018    0.0000 </r>
       <r>    8.8446    0.0000 </r>
       <r>    9.9699    0.0000 </r>
       <r>   11.2813    0.0000 </r>
       <r>   12.1325    0.0000 </r>
       <r>   12.1657    0.0000 </r>
       <r>   12.9572    0.0000 </r>
       <r>   13.0531    0.0000 </r>
       <r>   13.4625    0.0000 </r>
       <r>   13.8905    0.0000 </r>
       <r>   14.0414    0.0000 </r>
       <r>   14.1563    0.0000 </r>
       <r>   14.5415    0.0000 </r>
       <r>   14.8988    0.0000 </r>
       <r>   14.9274    0.0000 </r>
       <r>   14.9600    0.0000 </r>
       <r>   15.2622    0.0000 </r>
       <r>   16.0297    0.0000 </r>
       <r>   16.2052    0.0000 </r>
      </set>
      <set comment="kpoint 7">
       <r>  -14.2063    1.0000 </r>
       <r>  -12.9537    1.0000 </r>
       <r>  -12.8005    1.0000 </r>
       <r>  -12.5586    1.0000 </r>
       <r>  -12.3567    1.0000 </r>
       <r>  -12.3178    1.0000 </r>
       <r>  -12.0835    1.0000 </r>
       <r>   -0.9611    1.0000 </r>
       <r>   -0.6290    1.0000 </r>
       <r>   -0.5811    1.0000 </r>
       <r>   -0.1047    1.0000 </r>
       <r>    0.2807    1.0000 </r>
       <r>    0.3708    1.0000 </r>
       <r>    0.5324    1.0000 </r>
       <r>    0.6106    1.0000 </r>
       <r>    0.9315    1.0000 </r>
       <r>    1.0085    1.0000 </r>
       <r>    1.1262    1.0000 </r>
       <r>    1.4958    1.0000 </r>
       <r>    1.5574    1.0000 </r>
       <r>    1.7893    1.0000 </r>
       <r>    1.8069    1.0000 </r>
       <r>    1.9990    1.0000 </r>
       <r>    2.2731    1.0000 </r>
       <r>    2.7415    1.0000 </r>
       <r>    2.8354    1.0000 </r>
       <r>    2.9499    1.0000 </r>
       <r>    3.1020    1.0000 </r>
       <r>    5.3924    1.0000 </r>
       <r>    7.5314    0.0000 </r>
       <r>    8.8328    0.0000 </r>
       <r>   10.0428    0.0000 </r>
       <r>   11.2964    0.0000 </r>
       <r>   12.1354    0.0000 </r>
       <r>   12.1545    0.0000 </r>
       <r>   12.9188    0.0000 </r>
       <r>   13.0777    0.0000 </r>
       <r>   13.4840    0.0000 </r>
       <r>   13.9026    0.0000 </r>
       <r>   13.9919    0.0000 </r>
       <r>   14.1120    0.0000 </r>
       <r>   14.3618    0.0000 </r>
       <r>   14.8732    0.0000 </r>
       <r>   15.0047    0.0000 </r>
       <r>   15.1323    0.0000 </r>
       <r>   15.2493    0.0000 </r>
       <r>   15.9162    0.0000 </r>
       <r>   16.2414    0.0000 </r>
      </set>
      <set comment="kpoint 8">
       <r>  -14.2336    1.0000 </r>
       <r>  -13.0599    1.0000 </r>
       <r>  -12.7811    1.0000 </r>
       <r>  -12.4648    1.0000 </r>
       <r>  -12.2635    1.0000 </r>
       <r>  -12.2317    1.0000 </r>
       <r>  -12.2072    1.0000 </r>
       <r>   -1.0203    1.0000 </r>
       <r>   -0.9485    1.0000 </r>
       <r>   -0.7983    1.0000 </r>
       <r>   -0.3362    1.0000 </r>
       <r>   -0.1046    1.0000 </r>
       <r>    0.2731    1.0000 </r>
       <r>    0.4056    1.0000 </r>
       <r>    0.7369    1.0000 </r>
       <r>    0.9946    1.0000 </r>
       <r>    1.2796    1.0000 </r>
       <r>    1.4288    1.0000 </r>
       <r>    1.5095    1.0000 </r>
       <r>    1.6997    1.0000 </r>
       <r>    1.8637    1.0000 </r>
       <r>    2.0321    1.0000 </r>
       <r>    2.2887    1.0000 </r>
       <r>    2.6372    1.0000 </r>
       <r>    2.9175    1.0000 </r>
       <r>    2.9604    1.0000 </r>
       <r>    3.0457    1.0000 </r>
       <r>    3.0678    1.0000 </r>
       <r>    4.7853    1.0000 </r>
       <r>    7.7247    0.0000 </r>
       <r>    9.5117    0.0000 </r>
       <r>   10.1326    0.0000 </r>
       <r>   10.8968    0.0000 </r>
       <r>   11.2821    0.0000 </r>
       <r>   12.1985    0.0000 </r>
       <r>   12.3710    0.0000 </r>
       <r>   12.6651    0.0000 </r>
       <r>   12.7320    0.0000 </r>
       <r>   13.6542    0.0000 </r>
       <r>   13.9036    0.0000 </r>
       <r>   14.2590    0.0000 </r>
       <r>   14.3232    0.0000 </r>
       <r>   14.4829    0.0000 </r>
       <r>   14.9174    0.0000 </r>
       <r>   14.9662    0.0000 </r>
       <r>   15.7339    0.0000 </r>
       <r>   16.2097    0.0000 </r>
       <r>   16.3196    0.0000 </r>
      </set>
     </set>
     <set comment="spin 2">
      <set comment="kpoint 1">
       <r>  -14.3308    1.0000 </r>
       <r>  -13.1937    1.0000 </r>
       <r>  -12.5207    1.0000 </r>
       <r>  -12.4958    1.0000 </r>
       <r>  -12.2915    1.0000 </r>
       <r>  -12.1687    1.0000 </r>
       <r>  -12.1242    1.0000 </r>
       <r>   -1.4658    1.0000 </r>
       <r>   -1.3932    1.0000 </r>
       <r>   -1.3897    1.0000 </r>
       <r>   -0.8337    1.0000 </r>
       <r>   -0.3510    1.0000 </r>
       <r>   -0.1752    1.0000 </r>
       <r>   -0.1444    1.0000 </r>
       <r>    1.3863    1.0000 </r>
       <r>    1.5529    1.0000 </r>
       <r>    1.5759    1.0000 </r>
       <r>    1.9645    1.0000 </r>
       <r>    2.0766    1.0000 </r>
       <r>    2.0815    1.0000 </r>
       <r>    2.7162    1.0000 </r>
       <r>    2.7546    1.0000 </r>
       <r>    2.8022    1.0000 </r>
       <r>    2.8994    1.0000 </r>
       <r>    2.9887    1.0000 </r>
       <r>    3.0776    1.0000 </r>
       <r>    3.1846    1.0000 </r>
       <r>    3.1864    1.0000 </r>
       <r>    3.2525    1.0000 </r>
       <r>    8.7943    0.0000 </r>
       <r>   10.1827    0.0000 </r>
       <r>   10.2007    0.0000 </r>
       <r>   10.7974    0.0000 </r>
       <r>   10.8485    0.0000 </r>
       <r>   10.9408    0.0000 </r>
       <r>   11.6124    0.0000 </r>
       <r>   11.7040    0.0000 </r>
       <r>   11.9457    0.0000 </r>
       <r>   12.1996    0.0000 </r>
       <r>   12.3154    0.0000 </r>
       <r>   12.4764    0.0000 </r>
       <r>   12.9160    0.0000 </r>
       <r>   15.3631    0.0000 </r>
       <r>   15.3859    0.0000 </r>
       <r>   15.6217    0.0000 </r>
       <r>   15.7614    0.0000 </r>
       <r>   18.0195    0.0000 </r>
       <r>   18.2982    0.0000 </r>
      </set>
      <set comment="kpoint 2">
       <r>  -14.2323    1.0000 </r>
       <r>  -13.0579    1.0000 </r>
       <r>  -12.7875    1.0000 </r>
       <r>  -12.4676    1.0000 </r>
       <r>  -12.2826    1.0000 </r>
       <r>  -12.2298    1.0000 </r>
       <r>  -12.1838    1.0000 </r>
       <r>   -1.0712    1.0000 </r>
       <r>   -0.9546    1.0000 </r>
       <r>   -0.7004    1.0000 </r>
       <r>   -0.3280    1.0000 </r>
       <r>   -0.1402    1.0000 </r>
       <r>    0.2649    1.0000 </r>
       <r>    0.3867    1.0000 </r>
       <r>    0.7568    1.0000 </r>
       <r>    0.9009    1.0000 </r>
       <r>    1.2761    1.0000 </r>
       <r>    1.4739    1.0000 </r>
       <r>    1.6370    1.0000 </r>
       <r>    1.6861    1.0000 </r>
       <r>    1.8800    1.0000 </r>
       <r>    1.9922    1.0000 </r>
       <r>    2.3016    1.0000 </r>
       <r>    2.5162    1.0000 </r>
       <r>    2.8991    1.0000 </r>
       <r>    2.9644    1.0000 </r>
       <r>    3.0648    1.0000 </r>
       <r>    3.1201    1.0000 </r>
       <r>    4.8662    1.0000 </r>
       <r>    7.5709    0.0000 </r>
       <r>    9.5316    0.0000 </r>
       <r>   10.3488    0.0000 </r>
       <r>   10.7729    0.0000 </r>
       <r>   11.2256    0.0000 </r>
       <r>   12.0441    0.0000 </r>
       <r>   12.3043    0.0000 </r>
       <r>   12.5498    0.0000 </r>
       <r>   12.6934    0.0000 </r>
       <r>   13.6977    0.0000 </r>
       <r>   14.0107    0.0000 </r>
       <r>   14.4025    0.0000 </r>
       <r>   14.5043    0.0000 </r>
       <r>   14.6347    0.0000 </r>
       <r>   14.8844    0.0000 </r>
       <r>   15.2833    0.0000 </r>
       <r>   15.7293    0.0000 </r>
       <r>   16.0725    0.0000 </r>
       <r>   16.3109    0.0000 </r>
      </set>
      <set comment="kpoint 3">
       <r>  -14.2336    1.0000 </r>
       <r>  -13.0602    1.0000 </r>
       <r>  -12.7810    1.0000 </r>
       <r>  -12.4640    1.0000 </r>
       <r>  -12.2637    1.0000 </r>
       <r>  -12.2322    1.0000 </r>
       <r>  -12.2070    1.0000 </r>
       <r>   -1.0191    1.0000 </r>
       <r>   -0.9502    1.0000 </r>
       <r>   -0.7957    1.0000 </r>
       <r>   -0.3370    1.0000 </r>
       <r>   -0.1050    1.0000 </r>
       <r>    0.2722    1.0000 </r>
       <r>    0.4059    1.0000 </r>
       <r>    0.7375    1.0000 </r>
       <r>    0.9931    1.0000 </r>
       <r>    1.2800    1.0000 </r>
       <r>    1.4298    1.0000 </r>
       <r>    1.5104    1.0000 </r>
       <r>    1.7013    1.0000 </r>
       <r>    1.8643    1.0000 </r>
       <r>    2.0309    1.0000 </r>
       <r>    2.2866    1.0000 </r>
       <r>    2.6360    1.0000 </r>
       <r>    2.9159    1.0000 </r>
       <r>    2.9598    1.0000 </r>
       <r>    3.0464    1.0000 </r>
       <r>    3.0682    1.0000 </r>
       <r>    4.7865    1.0000 </r>
       <r>    7.7244    0.0000 </r>
       <r>    9.5149    0.0000 </r>
       <r>   10.1319    0.0000 </r>
       <r>   10.8962    0.0000 </r>
       <r>   11.2830    0.0000 </r>
       <r>   12.1932    0.0000 </r>
       <r>   12.3703    0.0000 </r>
       <r>   12.6659    0.0000 </r>
       <r>   12.7354    0.0000 </r>
       <r>   13.6541    0.0000 </r>
       <r>   13.9034    0.0000 </r>
       <r>   14.2615    0.0000 </r>
       <r>   14.3236    0.0000 </r>
       <r>   14.4837    0.0000 </r>
       <r>   14.9099    0.0000 </r>
       <r>   14.9659    0.0000 </r>
       <r>   15.7352    0.0000 </r>
       <r>   16.2126    0.0000 </r>
       <r>   16.3254    0.0000 </r>
      </set>
      <set comment="kpoint 4">
       <r>  -14.2030    1.0000 </r>
       <r>  -13.0828    1.0000 </r>
       <r>  -12.5921    1.0000 </r>
       <r>  -12.5600    1.0000 </r>
       <r>  -12.3580    1.0000 </r>
       <r>  -12.3554    1.0000 </r>
       <r>  -12.1231    1.0000 </r>
       <r>   -1.0137    1.0000 </r>
       <r>   -0.6484    1.0000 </r>
       <r>   -0.6459    1.0000 </r>
       <r>   -0.0685    1.0000 </r>
       <r>    0.1586    1.0000 </r>
       <r>    0.2084    1.0000 </r>
       <r>    0.5674    1.0000 </r>
       <r>    0.5795    1.0000 </r>
       <r>    1.1415    1.0000 </r>
       <r>    1.1592    1.0000 </r>
       <r>    1.4256    1.0000 </r>
       <r>    1.4583    1.0000 </r>
       <r>    1.5475    1.0000 </r>
       <r>    1.6250    1.0000 </r>
       <r>    1.7888    1.0000 </r>
       <r>    2.1980    1.0000 </r>
       <r>    2.2087    1.0000 </r>
       <r>    2.7804    1.0000 </r>
       <r>    2.8147    1.0000 </r>
       <r>    2.8737    1.0000 </r>
       <r>    3.0808    1.0000 </r>
       <r>    5.0747    1.0000 </r>
       <r>    8.4379    0.0000 </r>
       <r>    8.9414    0.0000 </r>
       <r>    9.0912    0.0000 </r>
       <r>   11.2362    0.0000 </r>
       <r>   12.1486    0.0000 </r>
       <r>   12.6112    0.0000 </r>
       <r>   13.1229    0.0000 </r>
       <r>   13.1935    0.0000 </r>
       <r>   13.5069    0.0000 </r>
       <r>   13.5933    0.0000 </r>
       <r>   13.6615    0.0000 </r>
       <r>   14.2303    0.0000 </r>
       <r>   14.3322    0.0000 </r>
       <r>   14.4502    0.0000 </r>
       <r>   14.9838    0.0000 </r>
       <r>   14.9870    0.0000 </r>
       <r>   15.1964    0.0000 </r>
       <r>   15.6522    0.0000 </r>
       <r>   16.1307    0.0000 </r>
      </set>
      <set comment="kpoint 5">
       <r>  -14.2322    1.0000 </r>
       <r>  -13.0588    1.0000 </r>
       <r>  -12.7861    1.0000 </r>
       <r>  -12.4682    1.0000 </r>
       <r>  -12.2828    1.0000 </r>
       <r>  -12.2292    1.0000 </r>
       <r>  -12.1840    1.0000 </r>
       <r>   -1.0708    1.0000 </r>
       <r>   -0.9524    1.0000 </r>
       <r>   -0.6986    1.0000 </r>
       <r>   -0.3300    1.0000 </r>
       <r>   -0.1406    1.0000 </r>
       <r>    0.2646    1.0000 </r>
       <r>    0.3852    1.0000 </r>
       <r>    0.7570    1.0000 </r>
       <r>    0.8987    1.0000 </r>
       <r>    1.2759    1.0000 </r>
       <r>    1.4723    1.0000 </r>
       <r>    1.6391    1.0000 </r>
       <r>    1.6861    1.0000 </r>
       <r>    1.8786    1.0000 </r>
       <r>    1.9920    1.0000 </r>
       <r>    2.3030    1.0000 </r>
       <r>    2.5151    1.0000 </r>
       <r>    2.8997    1.0000 </r>
       <r>    2.9650    1.0000 </r>
       <r>    3.0638    1.0000 </r>
       <r>    3.1219    1.0000 </r>
       <r>    4.8674    1.0000 </r>
       <r>    7.5722    0.0000 </r>
       <r>    9.5283    0.0000 </r>
       <r>   10.3505    0.0000 </r>
       <r>   10.7712    0.0000 </r>
       <r>   11.2244    0.0000 </r>
       <r>   12.0431    0.0000 </r>
       <r>   12.3042    0.0000 </r>
       <r>   12.5550    0.0000 </r>
       <r>   12.6917    0.0000 </r>
       <r>   13.7011    0.0000 </r>
       <r>   14.0084    0.0000 </r>
       <r>   14.4040    0.0000 </r>
       <r>   14.5043    0.0000 </r>
       <r>   14.6352    0.0000 </r>
       <r>   14.8839    0.0000 </r>
       <r>   15.2854    0.0000 </r>
       <r>   15.7354    0.0000 </r>
       <r>   16.0713    0.0000 </r>
       <r>   16.3160    0.0000 </r>
      </set>
      <set comment="kpoint 6">
       <r>  -14.2071    1.0000 </r>
       <r>  -12.8979    1.0000 </r>
       <r>  -12.8613    1.0000 </r>
       <r>  -12.5619    1.0000 </r>
       <r>  -12.3734    1.0000 </r>
       <r>  -12.2889    1.0000 </r>
       <r>  -12.0868    1.0000 </r>
       <r>   -0.9656    1.0000 </r>
       <r>   -0.6368    1.0000 </r>
       <r>   -0.5641    1.0000 </r>
       <r>   -0.1115    1.0000 </r>
       <r>    0.2990    1.0000 </r>
       <r>    0.3946    1.0000 </r>
       <r>    0.4903    1.0000 </r>
       <r>    0.6499    1.0000 </r>
       <r>    0.8873    1.0000 </r>
       <r>    1.0326    1.0000 </r>
       <r>    1.1226    1.0000 </r>
       <r>    1.4977    1.0000 </r>
       <r>    1.5475    1.0000 </r>
       <r>    1.7636    1.0000 </r>
       <r>    1.8182    1.0000 </r>
       <r>    2.0047    1.0000 </r>
       <r>    2.2704    1.0000 </r>
       <r>    2.7779    1.0000 </r>
       <r>    2.7856    1.0000 </r>
       <r>    2.9569    1.0000 </r>
       <r>    3.1083    1.0000 </r>
       <r>    5.4231    1.0000 </r>
       <r>    7.5018    0.0000 </r>
       <r>    8.8446    0.0000 </r>
       <r>    9.9699    0.0000 </r>
       <r>   11.2813    0.0000 </r>
       <r>   12.1325    0.0000 </r>
       <r>   12.1657    0.0000 </r>
       <r>   12.9572    0.0000 </r>
       <r>   13.0532    0.0000 </r>
       <r>   13.4625    0.0000 </r>
       <r>   13.8906    0.0000 </r>
       <r>   14.0414    0.0000 </r>
       <r>   14.1563    0.0000 </r>
       <r>   14.5415    0.0000 </r>
       <r>   14.8988    0.0000 </r>
       <r>   14.9274    0.0000 </r>
       <r>   14.9600    0.0000 </r>
       <r>   15.2622    0.0000 </r>
       <r>   16.0297    0.0000 </r>
       <r>   16.2078    0.0000 </r>
      </set>
      <set comment="kpoint 7">
       <r>  -14.2063    1.0000 </r>
       <r>  -12.9537    1.0000 </r>
       <r>  -12.8005    1.0000 </r>
       <r>  -12.5586    1.0000 </r>
       <r>  -12.3567    1.0000 </r>
       <r>  -12.3177    1.0000 </r>
       <r>  -12.0835    1.0000 </r>
       <r>   -0.9611    1.0000 </r>
       <r>   -0.6290    1.0000 </r>
       <r>   -0.5811    1.0000 </r>
       <r>   -0.1047    1.0000 </r>
       <r>    0.2807    1.0000 </r>
       <r>    0.3708    1.0000 </r>
       <r>    0.5324    1.0000 </r>
       <r>    0.6106    1.0000 </r>
       <r>    0.9315    1.0000 </r>
       <r>    1.0085    1.0000 </r>
       <r>    1.1262    1.0000 </r>
       <r>    1.4958    1.0000 </r>
       <r>    1.5574    1.0000 </r>
       <r>    1.7893    1.0000 </r>
       <r>    1.8069    1.0000 </r>
       <r>    1.9990    1.0000 </r>
       <r>    2.2732    1.0000 </r>
       <r>    2.7415    1.0000 </r>
       <r>    2.8354    1.0000 </r>
       <r>    2.9499    1.0000 </r>
       <r>    3.1021    1.0000 </r>
       <r>    5.3924    1.0000 </r>
       <r>    7.5314    0.0000 </r>
       <r>    8.8328    0.0000 </r>
       <r>   10.0428    0.0000 </r>
       <r>   11.2964    0.0000 </r>
       <r>   12.1354    0.0000 </r>
       <r>   12.1545    0.0000 </r>
       <r>   12.9188    0.0000 </r>
       <r>   13.0778    0.0000 </r>
       <r>   13.4840    0.0000 </r>
       <r>   13.9027    0.0000 </r>
       <r>   13.9919    0.0000 </r>
       <r>   14.1120    0.0000 </r>
       <r>   14.3618    0.0000 </r>
       <r>   14.8732    0.0000 </r>
       <r>   15.0047    0.0000 </r>
       <r>   15.1323    0.0000 </r>
       <r>   15.2493    0.0000 </r>
       <r>   15.9162    0.0000 </r>
       <r>   16.2309    0.0000 </r>
      </set>
      <set comment="kpoint 8">
       <r>  -14.2336    1.0000 </r>
       <r>  -13.0598    1.0000 </r>
       <r>  -12.7810    1.0000 </r>
       <r>  -12.4647    1.0000 </r>
       <r>  -12.2635    1.0000 </r>
       <r>  -12.2317    1.0000 </r>
       <r>  -12.2072    1.0000 </r>
       <r>   -1.0203    1.0000 </r>
       <r>   -0.9485    1.0000 </r>
       <r>   -0.7983    1.0000 </r>
       <r>   -0.3362    1.0000 </r>
       <r>   -0.1046    1.0000 </r>
       <r>    0.2731    1.0000 </r>
       <r>    0.4056    1.0000 </r>
       <r>    0.7369    1.0000 </r>
       <r>    0.9946    1.0000 </r>
       <r>    1.2796    1.0000 </r>
       <r>    1.4289    1.0000 </r>
       <r>    1.5095    1.0000 </r>
       <r>    1.6997    1.0000 </r>
       <r>    1.8637    1.0000 </r>
       <r>    2.0321    1.0000 </r>
       <r>    2.2887    1.0000 </r>
       <r>    2.6372    1.0000 </r>
       <r>    2.9175    1.0000 </r>
       <r>    2.9604    1.0000 </r>
       <r>    3.0457    1.0000 </r>
       <r>    3.0678    1.0000 </r>
       <r>    4.7853    1.0000 </r>
       <r>    7.7247    0.0000 </r>
       <r>    9.5117    0.0000 </r>
       <r>   10.1326    0.0000 </r>
       <r>   10.8968    0.0000 </r>
       <r>   11.2821    0.0000 </r>
       <r>   12.1985    0.0000 </r>
       <r>   12.3710    0.0000 </r>
       <r>   12.6651    0.0000 </r>
       <r>   12.7321    0.0000 </r>
       <r>   13.6543    0.0000 </r>
       <r>   13.9037    0.0000 </r>
       <r>   14.2590    0.0000 </r>
       <r>   14.3232    0.0000 </r>
       <r>   14.4829    0.0000 </r>
       <r>   14.9174    0.0000 </r>
       <r>   14.9662    0.0000 </r>
       <r>   15.7339    0.0000 </r>
       <r>   16.2097    0.0000 </r>
       <r>   16.3196    0.0000 </r>
      </set>
     </set>
    </set>
   </array>
  </eigenvalues>
  <separator name="orbital magnetization" >
   <v name="MAGDIPOLOUT">      0.00000000      0.00000000      0.00000000</v>
  </separator>
  <dos>
   <i name="efermi">      5.70764018 </i>
   <total>
    <array>
     <dimension dim="1">gridpoints</dimension>
     <dimension dim="2">spin</dimension>
     <field>energy</field>
     <field>total</field>
     <field>integrated</field>
     <set>
      <set comment="spin 1">
       <r>   -15.9622     0.0000     0.0000 </r>
       <r>   -15.8426     0.0000     0.0000 </r>
       <r>   -15.7229     0.0000     0.0000 </r>
       <r>   -15.6033     0.0000     0.0000 </r>
       <r>   -15.4837     0.0000     0.0000 </r>
       <r>   -15.3640     0.0000     0.0000 </r>
       <r>   -15.2444     0.0000     0.0000 </r>
       <r>   -15.1247     0.0000     0.0000 </r>
       <r>   -15.0051     0.0000     0.0000 </r>
       <r>   -14.8855     0.0000     0.0000 </r>
       <r>   -14.7658     0.0000     0.0000 </r>
       <r>   -14.6462     0.0000     0.0000 </r>
       <r>   -14.5265     0.0000     0.0000 </r>
       <r>   -14.4069     0.0163     0.0020 </r>
       <r>   -14.2873     1.2072     0.1464 </r>
       <r>   -14.1676     6.5530     0.9304 </r>
       <r>   -14.0480     0.5818     1.0000 </r>
       <r>   -13.9283     0.0000     1.0000 </r>
       <r>   -13.8087     0.0000     1.0000 </r>
       <r>   -13.6891     0.0000     1.0000 </r>
       <r>   -13.5694     0.0000     1.0000 </r>
       <r>   -13.4498     0.0000     1.0000 </r>
       <r>   -13.3301     0.0001     1.0000 </r>
       <r>   -13.2105     0.3324     1.0398 </r>
       <r>   -13.0909     1.9139     1.2688 </r>
       <r>   -12.9712     4.3402     1.7880 </r>
       <r>   -12.8516     2.5021     2.0874 </r>
       <r>   -12.7319     5.2128     2.7110 </r>
       <r>   -12.6123     0.8492     2.8126 </r>
       <r>   -12.4927     5.8954     3.5180 </r>
       <r>   -12.3730     5.6451     4.1933 </r>
       <r>   -12.2534     9.6459     5.3474 </r>
       <r>   -12.1337    10.2400     6.5725 </r>
       <r>   -12.0141     3.5246     6.9942 </r>
       <r>   -11.8944     0.0486     7.0000 </r>
       <r>   -11.7748     0.0000     7.0000 </r>
       <r>   -11.6552     0.0000     7.0000 </r>
       <r>   -11.5355     0.0000     7.0000 </r>
       <r>   -11.4159     0.0000     7.0000 </r>
       <r>   -11.2962     0.0000     7.0000 </r>
       <r>   -11.1766     0.0000     7.0000 </r>
       <r>   -11.0570     0.0000     7.0000 </r>
       <r>   -10.9373     0.0000     7.0000 </r>
       <r>   -10.8177     0.0000     7.0000 </r>
       <r>   -10.6980     0.0000     7.0000 </r>
       <r>   -10.5784     0.0000     7.0000 </r>
       <r>   -10.4588     0.0000     7.0000 </r>
       <r>   -10.3391     0.0000     7.0000 </r>
       <r>   -10.2195     0.0000     7.0000 </r>
       <r>   -10.0998     0.0000     7.0000 </r>
       <r>    -9.9802     0.0000     7.0000 </r>
       <r>    -9.8606     0.0000     7.0000 </r>
       <r>    -9.7409     0.0000     7.0000 </r>
       <r>    -9.6213     0.0000     7.0000 </r>
       <r>    -9.5016     0.0000     7.0000 </r>
       <r>    -9.3820     0.0000     7.0000 </r>
       <r>    -9.2624     0.0000     7.0000 </r>
       <r>    -9.1427     0.0000     7.0000 </r>
       <r>    -9.0231     0.0000     7.0000 </r>
       <r>    -8.9034     0.0000     7.0000 </r>
       <r>    -8.7838     0.0000     7.0000 </r>
       <r>    -8.6642     0.0000     7.0000 </r>
       <r>    -8.5445     0.0000     7.0000 </r>
       <r>    -8.4249     0.0000     7.0000 </r>
       <r>    -8.3052     0.0000     7.0000 </r>
       <r>    -8.1856     0.0000     7.0000 </r>
       <r>    -8.0660     0.0000     7.0000 </r>
       <r>    -7.9463     0.0000     7.0000 </r>
       <r>    -7.8267     0.0000     7.0000 </r>
       <r>    -7.7070     0.0000     7.0000 </r>
       <r>    -7.5874     0.0000     7.0000 </r>
       <r>    -7.4678     0.0000     7.0000 </r>
       <r>    -7.3481     0.0000     7.0000 </r>
       <r>    -7.2285     0.0000     7.0000 </r>
       <r>    -7.1088     0.0000     7.0000 </r>
       <r>    -6.9892     0.0000     7.0000 </r>
       <r>    -6.8696     0.0000     7.0000 </r>
       <r>    -6.7499     0.0000     7.0000 </r>
       <r>    -6.6303     0.0000     7.0000 </r>
       <r>    -6.5106     0.0000     7.0000 </r>
       <r>    -6.3910     0.0000     7.0000 </r>
       <r>    -6.2714     0.0000     7.0000 </r>
       <r>    -6.1517     0.0000     7.0000 </r>
       <r>    -6.0321     0.0000     7.0000 </r>
       <r>    -5.9124     0.0000     7.0000 </r>
       <r>    -5.7928     0.0000     7.0000 </r>
       <r>    -5.6731     0.0000     7.0000 </r>
       <r>    -5.5535     0.0000     7.0000 </r>
       <r>    -5.4339     0.0000     7.0000 </r>
       <r>    -5.3142     0.0000     7.0000 </r>
       <r>    -5.1946     0.0000     7.0000 </r>
       <r>    -5.0749     0.0000     7.0000 </r>
       <r>    -4.9553     0.0000     7.0000 </r>
       <r>    -4.8357     0.0000     7.0000 </r>
       <r>    -4.7160     0.0000     7.0000 </r>
       <r>    -4.5964     0.0000     7.0000 </r>
       <r>    -4.4767     0.0000     7.0000 </r>
       <r>    -4.3571     0.0000     7.0000 </r>
       <r>    -4.2375     0.0000     7.0000 </r>
       <r>    -4.1178     0.0000     7.0000 </r>
       <r>    -3.9982     0.0000     7.0000 </r>
       <r>    -3.8785     0.0000     7.0000 </r>
       <r>    -3.7589     0.0000     7.0000 </r>
       <r>    -3.6393     0.0000     7.0000 </r>
       <r>    -3.5196     0.0000     7.0000 </r>
       <r>    -3.4000     0.0000     7.0000 </r>
       <r>    -3.2803     0.0000     7.0000 </r>
       <r>    -3.1607     0.0000     7.0000 </r>
       <r>    -3.0411     0.0000     7.0000 </r>
       <r>    -2.9214     0.0000     7.0000 </r>
       <r>    -2.8018     0.0000     7.0000 </r>
       <r>    -2.6821     0.0000     7.0000 </r>
       <r>    -2.5625     0.0000     7.0000 </r>
       <r>    -2.4429     0.0000     7.0000 </r>
       <r>    -2.3232     0.0000     7.0000 </r>
       <r>    -2.2036     0.0000     7.0000 </r>
       <r>    -2.0839     0.0000     7.0000 </r>
       <r>    -1.9643     0.0000     7.0000 </r>
       <r>    -1.8447     0.0000     7.0000 </r>
       <r>    -1.7250     0.0000     7.0000 </r>
       <r>    -1.6054     0.0000     7.0000 </r>
       <r>    -1.4857     0.3071     7.0367 </r>
       <r>    -1.3661     2.3298     7.3155 </r>
       <r>    -1.2465     0.4975     7.3750 </r>
       <r>    -1.1268     0.1228     7.3897 </r>
       <r>    -1.0072     4.2913     7.9031 </r>
       <r>    -0.8875     6.9733     8.7374 </r>
       <r>    -0.7679     2.8341     9.0765 </r>
       <r>    -0.6483     4.0947     9.5663 </r>
       <r>    -0.5286     4.4280    10.0961 </r>
       <r>    -0.4090     0.3615    10.1394 </r>
       <r>    -0.2893     4.5992    10.6896 </r>
       <r>    -0.1697     1.9236    10.9198 </r>
       <r>    -0.0501     7.4209    11.8076 </r>
       <r>     0.0696     0.5695    11.8757 </r>
       <r>     0.1892     1.2024    12.0196 </r>
       <r>     0.3089     6.0636    12.7450 </r>
       <r>     0.4285     6.3869    13.5092 </r>
       <r>     0.5481     3.2068    13.8928 </r>
       <r>     0.6678     3.7101    14.3367 </r>
       <r>     0.7874     3.9353    14.8075 </r>
       <r>     0.9071     2.7953    15.1420 </r>
       <r>     1.0267     4.8528    15.7225 </r>
       <r>     1.1464     3.7571    16.1720 </r>
       <r>     1.2660     3.2351    16.5591 </r>
       <r>     1.3856     3.5487    16.9837 </r>
       <r>     1.5053     8.4968    18.0002 </r>
       <r>     1.6249     8.5274    19.0204 </r>
       <r>     1.7446     6.3570    19.7810 </r>
       <r>     1.8642     6.5245    20.5616 </r>
       <r>     1.9838     5.0393    21.1645 </r>
       <r>     2.1035     6.4263    21.9333 </r>
       <r>     2.2231     2.3141    22.2102 </r>
       <r>     2.3428     6.1665    22.9480 </r>
       <r>     2.4624     0.5731    23.0165 </r>
       <r>     2.5820     2.0168    23.2578 </r>
       <r>     2.7017     2.5598    23.5641 </r>
       <r>     2.8213     7.1022    24.4138 </r>
       <r>     2.9410     9.1083    25.5035 </r>
       <r>     3.0606    10.3501    26.7418 </r>
       <r>     3.1802     9.2289    27.8459 </r>
       <r>     3.2999     2.2373    28.1136 </r>
       <r>     3.4195     0.0952    28.1250 </r>
       <r>     3.5392     0.0000    28.1250 </r>
       <r>     3.6588     0.0000    28.1250 </r>
       <r>     3.7784     0.0000    28.1250 </r>
       <r>     3.8981     0.0000    28.1250 </r>
       <r>     4.0177     0.0000    28.1250 </r>
       <r>     4.1374     0.0000    28.1250 </r>
       <r>     4.2570     0.0000    28.1250 </r>
       <r>     4.3766     0.0000    28.1250 </r>
       <r>     4.4963     0.0000    28.1250 </r>
       <r>     4.6159     0.0000    28.1250 </r>
       <r>     4.7356     0.1617    28.1443 </r>
       <r>     4.8552     2.6512    28.4615 </r>
       <r>     4.9748     1.3664    28.6250 </r>
       <r>     5.0945     0.7439    28.7140 </r>
       <r>     5.2141     0.3007    28.7500 </r>
       <r>     5.3338     0.0568    28.7568 </r>
       <r>     5.4534     1.7844    28.9703 </r>
       <r>     5.5730     0.2484    29.0000 </r>
       <r>     5.6927     0.0000    29.0000 </r>
       <r>     5.8123     0.0000    29.0000 </r>
       <r>     5.9320     0.0000    29.0000 </r>
       <r>     6.0516     0.0000    29.0000 </r>
       <r>     6.1712     0.0000    29.0000 </r>
       <r>     6.2909     0.0000    29.0000 </r>
       <r>     6.4105     0.0000    29.0000 </r>
       <r>     6.5302     0.0000    29.0000 </r>
       <r>     6.6498     0.0000    29.0000 </r>
       <r>     6.7694     0.0000    29.0000 </r>
       <r>     6.8891     0.0000    29.0000 </r>
       <r>     7.0087     0.0000    29.0000 </r>
       <r>     7.1284     0.0000    29.0000 </r>
       <r>     7.2480     0.0000    29.0000 </r>
       <r>     7.3677     0.0001    29.0000 </r>
       <r>     7.4873     0.4848    29.0580 </r>
       <r>     7.6069     3.3453    29.4582 </r>
       <r>     7.7266     1.4416    29.6307 </r>
       <r>     7.8462     0.9964    29.7499 </r>
       <r>     7.9659     0.0006    29.7500 </r>
       <r>     8.0855     0.0000    29.7500 </r>
       <r>     8.2051     0.0000    29.7500 </r>
       <r>     8.3248     0.0007    29.7501 </r>
       <r>     8.4444     0.5978    29.8216 </r>
       <r>     8.5641     0.4461    29.8750 </r>
       <r>     8.6837     0.0011    29.8751 </r>
       <r>     8.8033     0.9657    29.9907 </r>
       <r>     8.9230     2.4629    30.2853 </r>
       <r>     9.0426     0.8357    30.3853 </r>
       <r>     9.1623     0.9354    30.4972 </r>
       <r>     9.2819     0.0233    30.5000 </r>
       <r>     9.4015     0.0020    30.5002 </r>
       <r>     9.5212     2.0676    30.7476 </r>
       <r>     9.6408     2.1075    30.9997 </r>
       <r>     9.7605     0.0021    31.0000 </r>
       <r>     9.8801     0.0058    31.0007 </r>
       <r>     9.9997     0.9476    31.1141 </r>
       <r>    10.1194     1.9182    31.3436 </r>
       <r>    10.2390     3.1929    31.7255 </r>
       <r>    10.3587     1.4592    31.9001 </r>
       <r>    10.4783     0.8345    32.0000 </r>
       <r>    10.5979     0.0003    32.0000 </r>
       <r>    10.7176     0.1417    32.0170 </r>
       <r>    10.8372     3.2806    32.4095 </r>
       <r>    10.9569     3.4593    32.8233 </r>
       <r>    11.0765     0.4319    32.8750 </r>
       <r>    11.1961     0.5934    32.9460 </r>
       <r>    11.3158     5.8576    33.6468 </r>
       <r>    11.4354     0.8625    33.7500 </r>
       <r>    11.5551     0.0549    33.7566 </r>
       <r>    11.6747     1.1618    33.8956 </r>
       <r>    11.7943     0.8673    33.9993 </r>
       <r>    11.9140     0.1989    34.0231 </r>
       <r>    12.0336     1.6636    34.2222 </r>
       <r>    12.1533     4.5571    34.7674 </r>
       <r>    12.2729     5.5432    35.4306 </r>
       <r>    12.3925     4.1814    35.9308 </r>
       <r>    12.5122     1.7304    36.1379 </r>
       <r>    12.6318     3.1594    36.5158 </r>
       <r>    12.7515     5.3766    37.1591 </r>
       <r>    12.8711     0.9666    37.2748 </r>
       <r>    12.9907     2.7568    37.6046 </r>
       <r>    13.1104     2.4077    37.8926 </r>
       <r>    13.2300     1.7837    38.1060 </r>
       <r>    13.3497     0.1594    38.1251 </r>
       <r>    13.4693     1.1064    38.2575 </r>
       <r>    13.5889     2.5770    38.5658 </r>
       <r>    13.7086     4.6637    39.1237 </r>
       <r>    13.8282     1.1489    39.2612 </r>
       <r>    13.9479     3.9071    39.7286 </r>
       <r>    14.0675     4.1098    40.2203 </r>
       <r>    14.1872     2.2770    40.4928 </r>
       <r>    14.3068     3.9666    40.9673 </r>
       <r>    14.4264     5.3229    41.6042 </r>
       <r>    14.5461     5.6563    42.2809 </r>
       <r>    14.6657     2.4754    42.5770 </r>
       <r>    14.7854     0.4141    42.6266 </r>
       <r>    14.9050     4.2389    43.1337 </r>
       <r>    15.0246     8.6104    44.1639 </r>
       <r>    15.1443     1.4566    44.3382 </r>
       <r>    15.2639     3.1482    44.7148 </r>
       <r>    15.3836     3.6251    45.1485 </r>
       <r>    15.5032     0.8483    45.2500 </r>
       <r>    15.6228     0.7524    45.3400 </r>
       <r>    15.7425     4.1513    45.8367 </r>
       <r>    15.8621     2.4729    46.1325 </r>
       <r>    15.9818     1.0513    46.2583 </r>
       <r>    16.1014     2.8379    46.5978 </r>
       <r>    16.2210     3.5546    47.0231 </r>
       <r>    16.3407     5.0086    47.6223 </r>
       <r>    16.4603     1.0670    47.7500 </r>
       <r>    16.5800     0.0001    47.7500 </r>
       <r>    16.6996     0.0000    47.7500 </r>
       <r>    16.8192     0.0000    47.7500 </r>
       <r>    16.9389     0.0000    47.7500 </r>
       <r>    17.0585     0.0000    47.7500 </r>
       <r>    17.1782     0.0000    47.7500 </r>
       <r>    17.2978     0.0000    47.7500 </r>
       <r>    17.4174     0.0000    47.7500 </r>
       <r>    17.5371     0.0000    47.7500 </r>
       <r>    17.6567     0.0000    47.7500 </r>
       <r>    17.7764     0.0000    47.7500 </r>
       <r>    17.8960     0.0002    47.7500 </r>
       <r>    18.0156     0.4760    47.8070 </r>
       <r>    18.1353     0.5680    47.8749 </r>
       <r>    18.2549     0.1147    47.8887 </r>
       <r>    18.3746     0.9143    47.9980 </r>
       <r>    18.4942     0.0163    48.0000 </r>
       <r>    18.6138     0.0000    48.0000 </r>
       <r>    18.7335     0.0000    48.0000 </r>
       <r>    18.8531     0.0000    48.0000 </r>
       <r>    18.9728     0.0000    48.0000 </r>
       <r>    19.0924     0.0000    48.0000 </r>
       <r>    19.2120     0.0000    48.0000 </r>
       <r>    19.3317     0.0000    48.0000 </r>
       <r>    19.4513     0.0000    48.0000 </r>
       <r>    19.5710     0.0000    48.0000 </r>
       <r>    19.6906     0.0000    48.0000 </r>
       <r>    19.8102     0.0000    48.0000 </r>
       <r>    19.9299     0.0000    48.0000 </r>
      </set>
      <set comment="spin 2">
       <r>   -15.9622     0.0000     0.0000 </r>
       <r>   -15.8426     0.0000     0.0000 </r>
       <r>   -15.7229     0.0000     0.0000 </r>
       <r>   -15.6033     0.0000     0.0000 </r>
       <r>   -15.4837     0.0000     0.0000 </r>
       <r>   -15.3640     0.0000     0.0000 </r>
       <r>   -15.2444     0.0000     0.0000 </r>
       <r>   -15.1247     0.0000     0.0000 </r>
       <r>   -15.0051     0.0000     0.0000 </r>
       <r>   -14.8855     0.0000     0.0000 </r>
       <r>   -14.7658     0.0000     0.0000 </r>
       <r>   -14.6462     0.0000     0.0000 </r>
       <r>   -14.5265     0.0000     0.0000 </r>
       <r>   -14.4069     0.0163     0.0020 </r>
       <r>   -14.2873     1.2069     0.1463 </r>
       <r>   -14.1676     6.5530     0.9303 </r>
       <r>   -14.0480     0.5822     1.0000 </r>
       <r>   -13.9283     0.0000     1.0000 </r>
       <r>   -13.8087     0.0000     1.0000 </r>
       <r>   -13.6891     0.0000     1.0000 </r>
       <r>   -13.5694     0.0000     1.0000 </r>
       <r>   -13.4498     0.0000     1.0000 </r>
       <r>   -13.3301     0.0001     1.0000 </r>
       <r>   -13.2105     0.3322     1.0398 </r>
       <r>   -13.0909     1.9134     1.2687 </r>
       <r>   -12.9712     4.3407     1.7880 </r>
       <r>   -12.8516     2.5018     2.0873 </r>
       <r>   -12.7319     5.2130     2.7110 </r>
       <r>   -12.6123     0.8491     2.8126 </r>
       <r>   -12.4927     5.8945     3.5178 </r>
       <r>   -12.3730     5.6451     4.1932 </r>
       <r>   -12.2534     9.6445     5.3470 </r>
       <r>   -12.1337    10.2415     6.5723 </r>
       <r>   -12.0141     3.5259     6.9942 </r>
       <r>   -11.8944     0.0487     7.0000 </r>
       <r>   -11.7748     0.0000     7.0000 </r>
       <r>   -11.6552     0.0000     7.0000 </r>
       <r>   -11.5355     0.0000     7.0000 </r>
       <r>   -11.4159     0.0000     7.0000 </r>
       <r>   -11.2962     0.0000     7.0000 </r>
       <r>   -11.1766     0.0000     7.0000 </r>
       <r>   -11.0570     0.0000     7.0000 </r>
       <r>   -10.9373     0.0000     7.0000 </r>
       <r>   -10.8177     0.0000     7.0000 </r>
       <r>   -10.6980     0.0000     7.0000 </r>
       <r>   -10.5784     0.0000     7.0000 </r>
       <r>   -10.4588     0.0000     7.0000 </r>
       <r>   -10.3391     0.0000     7.0000 </r>
       <r>   -10.2195     0.0000     7.0000 </r>
       <r>   -10.0998     0.0000     7.0000 </r>
       <r>    -9.9802     0.0000     7.0000 </r>
       <r>    -9.8606     0.0000     7.0000 </r>
       <r>    -9.7409     0.0000     7.0000 </r>
       <r>    -9.6213     0.0000     7.0000 </r>
       <r>    -9.5016     0.0000     7.0000 </r>
       <r>    -9.3820     0.0000     7.0000 </r>
       <r>    -9.2624     0.0000     7.0000 </r>
       <r>    -9.1427     0.0000     7.0000 </r>
       <r>    -9.0231     0.0000     7.0000 </r>
       <r>    -8.9034     0.0000     7.0000 </r>
       <r>    -8.7838     0.0000     7.0000 </r>
       <r>    -8.6642     0.0000     7.0000 </r>
       <r>    -8.5445     0.0000     7.0000 </r>
       <r>    -8.4249     0.0000     7.0000 </r>
       <r>    -8.3052     0.0000     7.0000 </r>
       <r>    -8.1856     0.0000     7.0000 </r>
       <r>    -8.0660     0.0000     7.0000 </r>
       <r>    -7.9463     0.0000     7.0000 </r>
       <r>    -7.8267     0.0000     7.0000 </r>
       <r>    -7.7070     0.0000     7.0000 </r>
       <r>    -7.5874     0.0000     7.0000 </r>
       <r>    -7.4678     0.0000     7.0000 </r>
       <r>    -7.3481     0.0000     7.0000 </r>
       <r>    -7.2285     0.0000     7.0000 </r>
       <r>    -7.1088     0.0000     7.0000 </r>
       <r>    -6.9892     0.0000     7.0000 </r>
       <r>    -6.8696     0.0000     7.0000 </r>
       <r>    -6.7499     0.0000     7.0000 </r>
       <r>    -6.6303     0.0000     7.0000 </r>
       <r>    -6.5106     0.0000     7.0000 </r>
       <r>    -6.3910     0.0000     7.0000 </r>
       <r>    -6.2714     0.0000     7.0000 </r>
       <r>    -6.1517     0.0000     7.0000 </r>
       <r>    -6.0321     0.0000     7.0000 </r>
       <r>    -5.9124     0.0000     7.0000 </r>
       <r>    -5.7928     0.0000     7.0000 </r>
       <r>    -5.6731     0.0000     7.0000 </r>
       <r>    -5.5535     0.0000     7.0000 </r>
       <r>    -5.4339     0.0000     7.0000 </r>
       <r>    -5.3142     0.0000     7.0000 </r>
       <r>    -5.1946     0.0000     7.0000 </r>
       <r>    -5.0749     0.0000     7.0000 </r>
       <r>    -4.9553     0.0000     7.0000 </r>
       <r>    -4.8357     0.0000     7.0000 </r>
       <r>    -4.7160     0.0000     7.0000 </r>
       <r>    -4.5964     0.0000     7.0000 </r>
       <r>    -4.4767     0.0000     7.0000 </r>
       <r>    -4.3571     0.0000     7.0000 </r>
       <r>    -4.2375     0.0000     7.0000 </r>
       <r>    -4.1178     0.0000     7.0000 </r>
       <r>    -3.9982     0.0000     7.0000 </r>
       <r>    -3.8785     0.0000     7.0000 </r>
       <r>    -3.7589     0.0000     7.0000 </r>
       <r>    -3.6393     0.0000     7.0000 </r>
       <r>    -3.5196     0.0000     7.0000 </r>
       <r>    -3.4000     0.0000     7.0000 </r>
       <r>    -3.2803     0.0000     7.0000 </r>
       <r>    -3.1607     0.0000     7.0000 </r>
       <r>    -3.0411     0.0000     7.0000 </r>
       <r>    -2.9214     0.0000     7.0000 </r>
       <r>    -2.8018     0.0000     7.0000 </r>
       <r>    -2.6821     0.0000     7.0000 </r>
       <r>    -2.5625     0.0000     7.0000 </r>
       <r>    -2.4429     0.0000     7.0000 </r>
       <r>    -2.3232     0.0000     7.0000 </r>
       <r>    -2.2036     0.0000     7.0000 </r>
       <r>    -2.0839     0.0000     7.0000 </r>
       <r>    -1.9643     0.0000     7.0000 </r>
       <r>    -1.8447     0.0000     7.0000 </r>
       <r>    -1.7250     0.0000     7.0000 </r>
       <r>    -1.6054     0.0000     7.0000 </r>
       <r>    -1.4857     0.3071     7.0367 </r>
       <r>    -1.3661     2.3298     7.3155 </r>
       <r>    -1.2465     0.4973     7.3750 </r>
       <r>    -1.1268     0.1229     7.3897 </r>
       <r>    -1.0072     4.2915     7.9031 </r>
       <r>    -0.8875     6.9730     8.7374 </r>
       <r>    -0.7679     2.8341     9.0765 </r>
       <r>    -0.6483     4.0949     9.5664 </r>
       <r>    -0.5286     4.4278    10.0961 </r>
       <r>    -0.4090     0.3615    10.1394 </r>
       <r>    -0.2893     4.5992    10.6896 </r>
       <r>    -0.1697     1.9236    10.9198 </r>
       <r>    -0.0501     7.4209    11.8076 </r>
       <r>     0.0696     0.5695    11.8757 </r>
       <r>     0.1892     1.2023    12.0196 </r>
       <r>     0.3089     6.0633    12.7450 </r>
       <r>     0.4285     6.3870    13.5091 </r>
       <r>     0.5481     3.2067    13.8928 </r>
       <r>     0.6678     3.7102    14.3367 </r>
       <r>     0.7874     3.9353    14.8075 </r>
       <r>     0.9071     2.7951    15.1419 </r>
       <r>     1.0267     4.8528    15.7225 </r>
       <r>     1.1464     3.7571    16.1720 </r>
       <r>     1.2660     3.2351    16.5591 </r>
       <r>     1.3856     3.5487    16.9836 </r>
       <r>     1.5053     8.4962    18.0001 </r>
       <r>     1.6249     8.5277    19.0204 </r>
       <r>     1.7446     6.3571    19.7809 </r>
       <r>     1.8642     6.5243    20.5615 </r>
       <r>     1.9838     5.0394    21.1644 </r>
       <r>     2.1035     6.4267    21.9333 </r>
       <r>     2.2231     2.3139    22.2101 </r>
       <r>     2.3428     6.1667    22.9479 </r>
       <r>     2.4624     0.5732    23.0165 </r>
       <r>     2.5820     2.0167    23.2578 </r>
       <r>     2.7017     2.5597    23.5640 </r>
       <r>     2.8213     7.1013    24.4136 </r>
       <r>     2.9410     9.1075    25.5033 </r>
       <r>     3.0606    10.3500    26.7415 </r>
       <r>     3.1802     9.2304    27.8459 </r>
       <r>     3.2999     2.2379    28.1136 </r>
       <r>     3.4195     0.0953    28.1250 </r>
       <r>     3.5392     0.0000    28.1250 </r>
       <r>     3.6588     0.0000    28.1250 </r>
       <r>     3.7784     0.0000    28.1250 </r>
       <r>     3.8981     0.0000    28.1250 </r>
       <r>     4.0177     0.0000    28.1250 </r>
       <r>     4.1374     0.0000    28.1250 </r>
       <r>     4.2570     0.0000    28.1250 </r>
       <r>     4.3766     0.0000    28.1250 </r>
       <r>     4.4963     0.0000    28.1250 </r>
       <r>     4.6159     0.0000    28.1250 </r>
       <r>     4.7356     0.1616    28.1443 </r>
       <r>     4.8552     2.6510    28.4615 </r>
       <r>     4.9748     1.3666    28.6250 </r>
       <r>     5.0945     0.7439    28.7140 </r>
       <r>     5.2141     0.3008    28.7500 </r>
       <r>     5.3338     0.0567    28.7568 </r>
       <r>     5.4534     1.7843    28.9703 </r>
       <r>     5.5730     0.2485    29.0000 </r>
       <r>     5.6927     0.0000    29.0000 </r>
       <r>     5.8123     0.0000    29.0000 </r>
       <r>     5.9320     0.0000    29.0000 </r>
       <r>     6.0516     0.0000    29.0000 </r>
       <r>     6.1712     0.0000    29.0000 </r>
       <r>     6.2909     0.0000    29.0000 </r>
       <r>     6.4105     0.0000    29.0000 </r>
       <r>     6.5302     0.0000    29.0000 </r>
       <r>     6.6498     0.0000    29.0000 </r>
       <r>     6.7694     0.0000    29.0000 </r>
       <r>     6.8891     0.0000    29.0000 </r>
       <r>     7.0087     0.0000    29.0000 </r>
       <r>     7.1284     0.0000    29.0000 </r>
       <r>     7.2480     0.0000    29.0000 </r>
       <r>     7.3677     0.0001    29.0000 </r>
       <r>     7.4873     0.4850    29.0580 </r>
       <r>     7.6069     3.3452    29.4583 </r>
       <r>     7.7266     1.4416    29.6307 </r>
       <r>     7.8462     0.9962    29.7499 </r>
       <r>     7.9659     0.0006    29.7500 </r>
       <r>     8.0855     0.0000    29.7500 </r>
       <r>     8.2051     0.0000    29.7500 </r>
       <r>     8.3248     0.0007    29.7501 </r>
       <r>     8.4444     0.5979    29.8216 </r>
[...]
        <r>  0.0003  0.0155  0.0007  0.0211  0.0000  0.0000  0.0000  0.0000  0.0000 </r>
        <r>  0.0115  0.0039  0.0101  0.0021  0.0000  0.0000  0.0000  0.0000  0.0000 </r>
        <r>  0.0172  0.0013  0.0085  0.0059  0.0000  0.0000  0.0000  0.0000  0.0000 </r>
        <r>  0.0051  0.0028  0.0012  0.0059  0.0000  0.0000  0.0000  0.0000  0.0000 </r>
        <r>  0.0110  0.0066  0.0109  0.0073  0.0000  0.0000  0.0000  0.0000  0.0000 </r>
        <r>  0.0013  0.0002  0.0006  0.0018  0.0000  0.0000  0.0000  0.0000  0.0000 </r>
        <r>  0.0001  0.0084  0.0000  0.0174  0.0000  0.0000  0.0000  0.0000  0.0000 </r>
       </set>
       <set comment="band 37">
        <r>  0.0001  0.0093  0.0002  0.0077  0.0009  0.0000  0.0008  0.0002  0.0063 </r>
        <r>  0.0005  0.0014  0.0028  0.0022  0.0011  0.0043  0.0002  0.0008  0.0004 </r>
        <r>  0.0002  0.0185  0.0009  0.0014  0.0036  0.0012  0.0001  0.0001  0.0001 </r>
        <r>  0.0005  0.0061  0.0112  0.0008  0.0072  0.0026  0.0004  0.0001  0.0001 </r>
        <r>  0.0108  0.0045  0.0002  0.0000  0.0002  0.0073  0.0001  0.0003  0.0004 </r>
        <r>  0.0019  0.0073  0.0060  0.0043  0.0047  0.0008  0.0000  0.0007  0.0007 </r>
        <r>  0.0007  0.0014  0.0029  0.0056  0.0015  0.0091  0.0018  0.0010  0.0000 </r>
        <r>  0.0027  0.0166  0.0001  0.0004  0.0038  0.0086  0.0000  0.0007  0.0015 </r>
        <r>  0.0012  0.0039  0.0005  0.0076  0.0029  0.0007  0.0001  0.0002  0.0000 </r>
        <r>  0.0083  0.0027  0.0000  0.0009  0.0000  0.0000  0.0000  0.0000  0.0000 </r>
        <r>  0.0001  0.0103  0.0009  0.0087  0.0000  0.0000  0.0000  0.0000  0.0000 </r>
        <r>  0.0050  0.0179  0.0172  0.0108  0.0000  0.0000  0.0000  0.0000  0.0000 </r>
        <r>  0.0138  0.0045  0.0047  0.0007  0.0000  0.0000  0.0000  0.0000  0.0000 </r>
        <r>  0.0070  0.0005  0.0022  0.0000  0.0000  0.0000  0.0000  0.0000  0.0000 </r>
        <r>  0.0003  0.0146  0.0073  0.0042  0.0000  0.0000  0.0000  0.0000  0.0000 </r>
        <r>  0.0000  0.0001  0.0004  0.0018  0.0000  0.0000  0.0000  0.0000  0.0000 </r>
       </set>
       <set comment="band 38">
        <r>  0.0093  0.0117  0.0014  0.0016  0.0044  0.0006  0.0015  0.0001  0.0068 </r>
        <r>  0.0018  0.0001  0.0072  0.0019  0.0009  0.0005  0.0001  0.0031  0.0003 </r>
        <r>  0.0001  0.0024  0.0027  0.0123  0.0030  0.0012  0.0003  0.0008  0.0001 </r>
        <r>  0.0060  0.0049  0.0042  0.0054  0.0048  0.0042  0.0000  0.0013  0.0018 </r>
        <r>  0.0037  0.0100  0.0005  0.0014  0.0011  0.0003  0.0015  0.0065  0.0000 </r>
        <r>  0.0039  0.0001  0.0076  0.0046  0.0070  0.0017  0.0000  0.0019  0.0004 </r>
        <r>  0.0069  0.0002  0.0028  0.0079  0.0002  0.0000  0.0001  0.0047  0.0001 </r>
        <r>  0.0017  0.0015  0.0006  0.0088  0.0051  0.0001  0.0012  0.0046  0.0011 </r>
        <r>  0.0035  0.0062  0.0004  0.0033  0.0023  0.0016  0.0003  0.0007  0.0001 </r>
        <r>  0.0087  0.0007  0.0001  0.0089  0.0000  0.0000  0.0000  0.0000  0.0000 </r>
        <r>  0.0054  0.0005  0.0033  0.0073  0.0000  0.0000  0.0000  0.0000  0.0000 </r>
        <r>  0.0113  0.0011  0.0040  0.0000  0.0000  0.0000  0.0000  0.0000  0.0000 </r>
        <r>  0.0000  0.0059  0.0007  0.0143  0.0000  0.0000  0.0000  0.0000  0.0000 </r>
        <r>  0.0083  0.0068  0.0042  0.0160  0.0000  0.0000  0.0000  0.0000  0.0000 </r>
        <r>  0.0031  0.0075  0.0081  0.0208  0.0000  0.0000  0.0000  0.0000  0.0000 </r>
        <r>  0.0007  0.0011  0.0000  0.0011  0.0000  0.0000  0.0000  0.0000  0.0000 </r>
       </set>
       <set comment="band 39">
        <r>  0.0101  0.0029  0.0024  0.0009  0.0000  0.0011  0.0008  0.0021  0.0000 </r>
        <r>  0.0962  0.0019  0.0010  0.0018  0.0013  0.0005  0.0000  0.0003  0.0000 </r>
        <r>  0.0017  0.0020  0.0000  0.0022  0.0006  0.0002  0.0005  0.0004  0.0000 </r>
        <r>  0.0019  0.0000  0.0000  0.0061  0.0006  0.0000  0.0002  0.0004  0.0003 </r>
        <r>  0.0088  0.0021  0.0039  0.0007  0.0049  0.0001  0.0002  0.0049  0.0025 </r>
        <r>  0.0054  0.0073  0.0000  0.0000  0.0004  0.0006  0.0001  0.0000  0.0002 </r>
        <r>  0.0096  0.0011  0.0036  0.0018  0.0046  0.0045  0.0001  0.0002  0.0024 </r>
        <r>  0.0352  0.0034  0.0001  0.0031  0.0018  0.0020  0.0002  0.0021  0.0000 </r>
        <r>  0.0044  0.0027  0.0104  0.0019  0.0004  0.0015  0.0000  0.0013  0.0000 </r>
        <r>  0.0107  0.0014  0.0032  0.0021  0.0000  0.0000  0.0000  0.0000  0.0000 </r>
        <r>  0.0028  0.0111  0.0008  0.0115  0.0000  0.0000  0.0000  0.0000  0.0000 </r>
        <r>  0.0000  0.0192  0.0080  0.0201  0.0000  0.0000  0.0000  0.0000  0.0000 </r>
        <r>  0.0026  0.0107  0.0006  0.0128  0.0000  0.0000  0.0000  0.0000  0.0000 </r>
        <r>  0.0001  0.0186  0.0101  0.0209  0.0000  0.0000  0.0000  0.0000  0.0000 </r>
        <r>  0.0057  0.0214  0.0093  0.0171  0.0000  0.0000  0.0000  0.0000  0.0000 </r>
        <r>  0.0101  0.0004  0.0168  0.0001  0.0000  0.0000  0.0000  0.0000  0.0000 </r>
       </set>
       <set comment="band 40">
        <r>  0.0035  0.0039  0.0265  0.0000  0.0268  0.0001  0.0015  0.0034  0.0002 </r>
        <r>  0.0082  0.0002  0.0006  0.0009  0.0056  0.0004  0.0005  0.0003  0.0000 </r>
        <r>  0.0139  0.0005  0.0008  0.0016  0.0023  0.0000  0.0026  0.0000  0.0000 </r>
        <r>  0.0102  0.0000  0.0000  0.0048  0.0019  0.0002  0.0001  0.0003  0.0001 </r>
        <r>  0.0002  0.0015  0.0008  0.0009  0.0177  0.0000  0.0001  0.0001  0.0000 </r>
        <r>  0.0124  0.0090  0.0003  0.0005  0.0024  0.0000  0.0000  0.0007  0.0000 </r>
        <r>  0.0035  0.0002  0.0000  0.0003  0.0190  0.0000  0.0000  0.0000  0.0002 </r>
        <r>  0.0127  0.0003  0.0127  0.0015  0.0072  0.0018  0.0035  0.0026  0.0000 </r>
        <r>  0.0172  0.0028  0.0004  0.0013  0.0025  0.0000  0.0001  0.0006  0.0000 </r>
        <r>  0.0005  0.0276  0.0000  0.0266  0.0000  0.0000  0.0000  0.0000  0.0000 </r>
        <r>  0.0004  0.0139  0.0008  0.0367  0.0000  0.0000  0.0000  0.0000  0.0000 </r>
        <r>  0.0010  0.0010  0.0001  0.0002  0.0000  0.0000  0.0000  0.0000  0.0000 </r>
        <r>  0.0018  0.0287  0.0028  0.0070  0.0000  0.0000  0.0000  0.0000  0.0000 </r>
        <r>  0.0002  0.0000  0.0006  0.0006  0.0000  0.0000  0.0000  0.0000  0.0000 </r>
        <r>  0.0009  0.0023  0.0035  0.0046  0.0000  0.0000  0.0000  0.0000  0.0000 </r>
        <r>  0.0000  0.0135  0.0070  0.0155  0.0000  0.0000  0.0000  0.0000  0.0000 </r>
       </set>
       <set comment="band 41">
        <r>  0.0001  0.0000  0.0061  0.0017  0.0055  0.0003  0.0094  0.0000  0.0000 </r>
        <r>  0.0004  0.0099  0.0042  0.0097  0.0003  0.0012  0.0000  0.0009  0.0000 </r>
        <r>  0.0000  0.0000  0.0048  0.0013  0.0157  0.0008  0.0004  0.0004  0.0000 </r>
        <r>  0.0000  0.0000  0.0068  0.0001  0.0002  0.0012  0.0000  0.0150  0.0000 </r>
        <r>  0.0008  0.0000  0.0004  0.0062  0.0011  0.0011  0.0000  0.0006  0.0002 </r>
        <r>  0.0002  0.0000  0.0062  0.0001  0.0001  0.0166  0.0003  0.0013  0.0000 </r>
        <r>  0.0001  0.0055  0.0005  0.0001  0.0014  0.0007  0.0001  0.0007  0.0001 </r>
        <r>  0.0072  0.0003  0.0044  0.0006  0.0029  0.0024  0.0031  0.0036  0.0000 </r>
        <r>  0.0220  0.0009  0.0006  0.0020  0.0045  0.0057  0.0000  0.0036  0.0000 </r>
        <r>  0.0000  0.0002  0.0156  0.0006  0.0000  0.0000  0.0000  0.0000  0.0000 </r>
        <r>  0.0002  0.0257  0.0040  0.0005  0.0000  0.0000  0.0000  0.0000  0.0000 </r>
        <r>  0.0002  0.0031  0.0068  0.0185  0.0000  0.0000  0.0000  0.0000  0.0000 </r>
        <r>  0.0004  0.0000  0.0024  0.0333  0.0000  0.0000  0.0000  0.0000  0.0000 </r>
        <r>  0.0000  0.0208  0.0057  0.0013  0.0000  0.0000  0.0000  0.0000  0.0000 </r>
        <r>  0.0004  0.0002  0.0458  0.0008  0.0000  0.0000  0.0000  0.0000  0.0000 </r>
        <r>  0.0045  0.0009  0.0041  0.0053  0.0000  0.0000  0.0000  0.0000  0.0000 </r>
       </set>
       <set comment="band 42">
        <r>  0.0016  0.0002  0.0201  0.0014  0.0055  0.0000  0.0309  0.0007  0.0010 </r>
        <r>  0.0029  0.0004  0.0028  0.0001  0.0018  0.0010  0.0002  0.0009  0.0000 </r>
        <r>  0.0021  0.0024  0.0094  0.0039  0.0042  0.0003  0.0025  0.0000  0.0000 </r>
        <r>  0.0012  0.0008  0.0143  0.0061  0.0001  0.0000  0.0000  0.0026  0.0003 </r>
        <r>  0.0026  0.0020  0.0000  0.0039  0.0000  0.0000  0.0003  0.0065  0.0010 </r>
        <r>  0.0003  0.0041  0.0194  0.0043  0.0003  0.0044  0.0003  0.0004  0.0004 </r>
        <r>  0.0007  0.0011  0.0000  0.0015  0.0000  0.0044  0.0003  0.0000  0.0004 </r>
        <r>  0.0122  0.0001  0.0319  0.0000  0.0006  0.0007  0.0154  0.0010  0.0000 </r>
        <r>  0.0187  0.0041  0.0046  0.0038  0.0051  0.0022  0.0003  0.0007  0.0000 </r>
        <r>  0.0004  0.0109  0.0410  0.0042  0.0000  0.0000  0.0000  0.0000  0.0000 </r>
        <r>  0.0000  0.0011  0.0060  0.0039  0.0000  0.0000  0.0000  0.0000  0.0000 </r>
        <r>  0.0016  0.0049  0.0043  0.0135  0.0000  0.0000  0.0000  0.0000  0.0000 </r>
        <r>  0.0001  0.0020  0.0200  0.0006  0.0000  0.0000  0.0000  0.0000  0.0000 </r>
        <r>  0.0033  0.0132  0.0060  0.0028  0.0000  0.0000  0.0000  0.0000  0.0000 </r>
        <r>  0.0034  0.0004  0.0000  0.0006  0.0000  0.0000  0.0000  0.0000  0.0000 </r>
        <r>  0.0018  0.0097  0.0259  0.0054  0.0000  0.0000  0.0000  0.0000  0.0000 </r>
       </set>
       <set comment="band 43">
        <r>  0.0000  0.0133  0.0001  0.0075  0.0003  0.0038  0.0007  0.0009  0.0153 </r>
        <r>  0.0012  0.0002  0.0004  0.0041  0.0001  0.0025  0.0000  0.0000  0.0000 </r>
        <r>  0.0068  0.0053  0.0000  0.0003  0.0011  0.0073  0.0000  0.0032  0.0001 </r>
        <r>  0.0170  0.0035  0.0003  0.0004  0.0010  0.0054  0.0001  0.0048  0.0003 </r>
        <r>  0.0650  0.0000  0.0037  0.0061  0.0005  0.0012  0.0000  0.0000  0.0006 </r>
        <r>  0.0212  0.0001  0.0000  0.0049  0.0000  0.0026  0.0000  0.0009  0.0000 </r>
        <r>  0.0329  0.0011  0.0037  0.0005  0.0000  0.0057  0.0000  0.0001  0.0001 </r>
        <r>  0.0014  0.0000  0.0000  0.0002  0.0000  0.0008  0.0001  0.0000  0.0010 </r>
        <r>  0.0010  0.0008  0.0006  0.0000  0.0014  0.0049  0.0001  0.0068  0.0001 </r>
        <r>  0.0005  0.0281  0.0002  0.0135  0.0000  0.0000  0.0000  0.0000  0.0000 </r>
        <r>  0.0014  0.0056  0.0544  0.0002  0.0000  0.0000  0.0000  0.0000  0.0000 </r>
        <r>  0.0001  0.0004  0.0001  0.0009  0.0000  0.0000  0.0000  0.0000  0.0000 </r>
        <r>  0.0039  0.0252  0.0451  0.0025  0.0000  0.0000  0.0000  0.0000  0.0000 </r>
        <r>  0.0002  0.0001  0.0002  0.0000  0.0000  0.0000  0.0000  0.0000  0.0000 </r>
        <r>  0.0003  0.0003  0.0005  0.0002  0.0000  0.0000  0.0000  0.0000  0.0000 </r>
        <r>  0.0007  0.0134  0.0052  0.0160  0.0000  0.0000  0.0000  0.0000  0.0000 </r>
       </set>
       <set comment="band 44">
        <r>  0.0075  0.0100  0.0046  0.0073  0.0065  0.0057  0.0078  0.0009  0.0038 </r>
        <r>  0.0010  0.0071  0.0003  0.0023  0.0001  0.0028  0.0000  0.0022  0.0000 </r>
        <r>  0.0178  0.0003  0.0005  0.0082  0.0017  0.0030  0.0002  0.0054  0.0002 </r>
        <r>  0.0001  0.0112  0.0010  0.0014  0.0001  0.0029  0.0000  0.0002  0.0000 </r>
        <r>  0.0047  0.0001  0.0020  0.0005  0.0035  0.0039  0.0000  0.0047  0.0000 </r>
        <r>  0.0026  0.0022  0.0007  0.0005  0.0002  0.0002  0.0001  0.0072  0.0004 </r>
        <r>  0.0448  0.0055  0.0004  0.0000  0.0011  0.0033  0.0000  0.0052  0.0004 </r>
        <r>  0.0233  0.0017  0.0060  0.0002  0.0007  0.0021  0.0003  0.0009  0.0001 </r>
        <r>  0.0238  0.0001  0.0048  0.0049  0.0027  0.0005  0.0000  0.0000  0.0000 </r>
        <r>  0.0009  0.0004  0.0254  0.0010  0.0000  0.0000  0.0000  0.0000  0.0000 </r>
        <r>  0.0067  0.0020  0.0143  0.0482  0.0000  0.0000  0.0000  0.0000  0.0000 </r>
        <r>  0.0005  0.0001  0.0001  0.0006  0.0000  0.0000  0.0000  0.0000  0.0000 </r>
        <r>  0.0021  0.0101  0.0000  0.0199  0.0000  0.0000  0.0000  0.0000  0.0000 </r>
        <r>  0.0010  0.0001  0.0000  0.0017  0.0000  0.0000  0.0000  0.0000  0.0000 </r>
        <r>  0.0007  0.0008  0.0001  0.0006  0.0000  0.0000  0.0000  0.0000  0.0000 </r>
        <r>  0.0035  0.0037  0.0097  0.0011  0.0000  0.0000  0.0000  0.0000  0.0000 </r>
       </set>
       <set comment="band 45">
        <r>  0.0026  0.0000  0.0019  0.0010  0.0001  0.0004  0.0008  0.0074  0.0214 </r>
        <r>  0.0000  0.0001  0.0000  0.0001  0.0000  0.0007  0.0000  0.0045  0.0001 </r>
        <r>  0.0024  0.0128  0.0000  0.0091  0.0002  0.0019  0.0000  0.0057  0.0007 </r>
        <r>  0.0006  0.0085  0.0001  0.0092  0.0001  0.0000  0.0008  0.0017  0.0012 </r>
        <r>  0.0173  0.0026  0.0001  0.0171  0.0011  0.0003  0.0012  0.0020  0.0015 </r>
        <r>  0.0007  0.0100  0.0002  0.0133  0.0010  0.0004  0.0004  0.0024  0.0004 </r>
        <r>  0.0031  0.0138  0.0003  0.0011  0.0029  0.0000  0.0004  0.0015  0.0009 </r>
        <r>  0.0025  0.0029  0.0005  0.0028  0.0002  0.0017  0.0000  0.0048  0.0015 </r>
        <r>  0.0013  0.0154  0.0003  0.0083  0.0005  0.0025  0.0000  0.0036  0.0000 </r>
        <r>  0.0000  0.0177  0.0023  0.0268  0.0000  0.0000  0.0000  0.0000  0.0000 </r>
        <r>  0.0028  0.0146  0.0016  0.0008  0.0000  0.0000  0.0000  0.0000  0.0000 </r>
        <r>  0.0008  0.0066  0.0000  0.0073  0.0000  0.0000  0.0000  0.0000  0.0000 </r>
        <r>  0.0001  0.0312  0.0021  0.0015  0.0000  0.0000  0.0000  0.0000  0.0000 </r>
        <r>  0.0007  0.0068  0.0008  0.0063  0.0000  0.0000  0.0000  0.0000  0.0000 </r>
        <r>  0.0004  0.0000  0.0000  0.0010  0.0000  0.0000  0.0000  0.0000  0.0000 </r>
        <r>  0.0013  0.0337  0.0019  0.0299  0.0000  0.0000  0.0000  0.0000  0.0000 </r>
       </set>
       <set comment="band 46">
        <r>  0.0019  0.0186  0.0010  0.0095  0.0057  0.0001  0.0008  0.0000  0.0012 </r>
        <r>  0.0146  0.0045  0.0157  0.0047  0.0002  0.0004  0.0000  0.0005  0.0000 </r>
        <r>  0.0048  0.0001  0.0009  0.0002  0.0008  0.0077  0.0005  0.0077  0.0000 </r>
        <r>  0.0022  0.0001  0.0001  0.0011  0.0094  0.0066  0.0002  0.0001  0.0010 </r>
        <r>  0.0025  0.0052  0.0142  0.0007  0.0000  0.0015  0.0000  0.0004  0.0002 </r>
        <r>  0.0000  0.0005  0.0000  0.0005  0.0090  0.0002  0.0003  0.0062  0.0013 </r>
        <r>  0.0064  0.0029  0.0147  0.0047  0.0000  0.0001  0.0000  0.0011  0.0000 </r>
        <r>  0.0008  0.0063  0.0005  0.0074  0.0033  0.0025  0.0000  0.0016  0.0000 </r>
        <r>  0.0769  0.0020  0.0005  0.0020  0.0000  0.0014  0.0001  0.0019  0.0000 </r>
        <r>  0.0018  0.0134  0.0016  0.0169  0.0000  0.0000  0.0000  0.0000  0.0000 </r>
        <r>  0.0001  0.0005  0.0172  0.0016  0.0000  0.0000  0.0000  0.0000  0.0000 </r>
        <r>  0.0000  0.0046  0.0098  0.0009  0.0000  0.0000  0.0000  0.0000  0.0000 </r>
        <r>  0.0003  0.0031  0.0263  0.0005  0.0000  0.0000  0.0000  0.0000  0.0000 </r>
        <r>  0.0001  0.0010  0.0081  0.0048  0.0000  0.0000  0.0000  0.0000  0.0000 </r>
        <r>  0.0032  0.0079  0.0000  0.0069  0.0000  0.0000  0.0000  0.0000  0.0000 </r>
        <r>  0.0001  0.0045  0.0005  0.0037  0.0000  0.0000  0.0000  0.0000  0.0000 </r>
       </set>
       <set comment="band 47">
        <r>  0.0000  0.0000  0.0025  0.0020  0.0087  0.0006  0.0007  0.0001  0.0000 </r>
        <r>  0.0156  0.0011  0.0002  0.0006  0.0056  0.0085  0.0000  0.0080  0.0000 </r>
        <r>  0.0168  0.0028  0.0040  0.0031  0.0001  0.0000  0.0013  0.0003  0.0000 </r>
        <r>  0.0028  0.0023  0.0001  0.0002  0.0000  0.0001  0.0000  0.0006  0.0001 </r>
        <r>  0.0045  0.0016  0.0001  0.0001  0.0003  0.0206  0.0000  0.0035  0.0000 </r>
        <r>  0.0032  0.0007  0.0004  0.0022  0.0000  0.0002  0.0000  0.0002  0.0001 </r>
        <r>  0.0058  0.0003  0.0001  0.0009  0.0006  0.0024  0.0000  0.0202  0.0000 </r>
        <r>  0.0013  0.0020  0.0002  0.0018  0.0141  0.0005  0.0002  0.0009  0.0000 </r>
        <r>  0.0355  0.0006  0.0116  0.0025  0.0008  0.0003  0.0000  0.0003  0.0000 </r>
        <r>  0.0001  0.0017  0.0102  0.0014  0.0000  0.0000  0.0000  0.0000  0.0000 </r>
        <r>  0.0011  0.0092  0.0053  0.0063  0.0000  0.0000  0.0000  0.0000  0.0000 </r>
        <r>  0.0002  0.0003  0.0000  0.0340  0.0000  0.0000  0.0000  0.0000  0.0000 </r>
        <r>  0.0004  0.0057  0.0036  0.0088  0.0000  0.0000  0.0000  0.0000  0.0000 </r>
        <r>  0.0000  0.0267  0.0000  0.0000  0.0000  0.0000  0.0000  0.0000  0.0000 </r>
        <r>  0.0001  0.0022  0.0542  0.0010  0.0000  0.0000  0.0000  0.0000  0.0000 </r>
        <r>  0.0020  0.0058  0.0073  0.0059  0.0000  0.0000  0.0000  0.0000  0.0000 </r>
       </set>
       <set comment="band 48">
        <r>  0.0002  0.0006  0.0110  0.0004  0.0029  0.0005  0.0125  0.0021  0.0002 </r>
        <r>  0.0155  0.0001  0.0047  0.0001  0.0003  0.0013  0.0001  0.0008  0.0000 </r>
        <r>  0.0530  0.0079  0.0028  0.0077  0.0002  0.0000  0.0046  0.0000  0.0000 </r>
        <r>  0.0255  0.0022  0.0040  0.0010  0.0001  0.0052  0.0002  0.0002  0.0001 </r>
        <r>  0.0031  0.0007  0.0155  0.0006  0.0020  0.0011  0.0003  0.0001  0.0003 </r>
        <r>  0.0222  0.0033  0.0028  0.0024  0.0000  0.0002  0.0000  0.0047  0.0001 </r>
        <r>  0.0065  0.0024  0.0148  0.0007  0.0023  0.0002  0.0001  0.0011  0.0007 </r>
        <r>  0.0411  0.0013  0.0058  0.0027  0.0057  0.0011  0.0026  0.0025  0.0000 </r>
        <r>  0.0023  0.0047  0.0095  0.0036  0.0000  0.0001  0.0000  0.0001  0.0000 </r>
        <r>  0.0033  0.0014  0.0131  0.0007  0.0000  0.0000  0.0000  0.0000  0.0000 </r>
        <r>  0.0002  0.0004  0.0210  0.0005  0.0000  0.0000  0.0000  0.0000  0.0000 </r>
        <r>  0.0001  0.0003  0.0000  0.0041  0.0000  0.0000  0.0000  0.0000  0.0000 </r>
        <r>  0.0000  0.0013  0.0198  0.0001  0.0000  0.0000  0.0000  0.0000  0.0000 </r>
        <r>  0.0002  0.0049  0.0003  0.0001  0.0000  0.0000  0.0000  0.0000  0.0000 </r>
        <r>  0.0013  0.0244  0.0010  0.0225  0.0000  0.0000  0.0000  0.0000  0.0000 </r>
        <r>  0.0020  0.0025  0.0059  0.0025  0.0000  0.0000  0.0000  0.0000  0.0000 </r>
       </set>
      </set>
     </set>
    </set>
   </array>
  </projected>
 </calculation>
 <structure name="finalpos" >
  <crystal>
   <varray name="basis" >
    <v>       0.00000000       4.24689300       4.24689300 </v>
    <v>       4.24689300       0.00000000       4.24689300 </v>
    <v>       4.24689300       4.24689300       0.00000000 </v>
   </varray>
   <i name="volume">    153.19477498 </i>
   <varray name="rec_basis" >
    <v>      -0.11773313       0.11773313       0.11773313 </v>
    <v>       0.11773313      -0.11773313       0.11773313 </v>
    <v>       0.11773313       0.11773313      -0.11773313 </v>
   </varray>
  </crystal>
  <varray name="positions" >
   <v>       0.30049140       0.34565132       0.20229103 </v>
   <v>       0.99029246       0.98383131       0.01111488 </v>
   <v>       0.00138838       0.00160287       0.50112916 </v>
   <v>       0.97704898       0.49919998       0.99328306 </v>
   <v>       0.96327017       0.51038894       0.53901021 </v>
   <v>       0.50290971       0.97950785       0.00045374 </v>
   <v>       0.50931265       0.96702940       0.52541376 </v>
   <v>       0.56419473       0.55076809       0.93797749 </v>
   <v>       0.49134135       0.48173607       0.51290313 </v>
   <v>       0.23809098       0.23516712       0.75640097 </v>
   <v>       0.25468785       0.70279105       0.24793481 </v>
   <v>       0.25826359       0.70811720       0.78615806 </v>
   <v>       0.71619543       0.25050976       0.24389864 </v>
   <v>       0.72751002       0.25154549       0.77525905 </v>
   <v>       0.74598089       0.72720935       0.26492632 </v>
   <v>       0.76913439       0.77417618       0.73333869 </v>
  </varray>
 </structure>
</modeling>
