<?xml version="1.0" encoding="ISO-8859-1"?>
<modeling>
 <generator>
  <i name="program" type="string">vasp </i>
  <i name="version" type="string">5.4.1  </i>
  <i name="subversion" type="string">05Feb16 (build Mar 31 2016 13:39:20) complex                          parallel </i>
  <i name="platform" type="string">IFC91_ompi </i>
  <i name="date" type="string">2018 04 12 </i>
  <i name="time" type="string">14:18:21 </i>
 </generator>
 <incar>
  <i type="string" name="PREC">n</i>
  <i type="string" name="ALGO"> N</i>
  <i type="int" name="ISPIN">     2</i>
  <i type="int" name="NELM">   100</i>
  <i type="int" name="NELMIN">     4</i>
  <i type="int" name="IBRION">     2</i>
  <i name="EDIFF">      0.00000100</i>
  <i name="EDIFFG">     -0.05000000</i>
  <i type="int" name="NSW">    20</i>
  <i type="int" name="ISIF">     2</i>
  <i name="ENCUT">    400.00000000</i>
  <i name="NELECT">     58.00000000</i>
  <i type="string" name="LREAL"> A</i>
  <i type="int" name="ISMEAR">     0</i>
  <i name="SIGMA">      0.05000000</i>
  <i type="logical" name="LWAVE"> F  </i>
  <i type="logical" name="LCHARG"> F  </i>
  <i type="logical" name="LORBIT"> F  </i>
  <i type="logical" name="LASPH"> T  </i>
  <v type="int" name="KPOINT_BSE">    -1     0     0     0</v>
  <i type="int" name="NELM">   100</i>
  <i type="logical" name="LASPH"> T  </i>
 </incar>
 <kpoints>
  <generation param="Monkhorst-Pack">
   <v type="int" name="divisions">       2        2        2 </v>
   <v name="usershift">      0.00000000       0.00000000       0.00000000 </v>
   <v name="genvec1">      0.50000000       0.00000000       0.00000000 </v>
   <v name="genvec2">      0.00000000       0.50000000       0.00000000 </v>
   <v name="genvec3">      0.00000000       0.00000000       0.50000000 </v>
   <v name="shift">      0.50000000       0.50000000       0.50000000 </v>
  </generation>
  <varray name="kpointlist" >
   <v>       0.25000000       0.25000000       0.25000000 </v>
   <v>       0.25000000       0.00000000       0.00000000 </v>
   <v>       0.00000000       0.00000000      -0.25000000 </v>
   <v>       0.00000000       0.25000000       0.00000000 </v>
   <v>      -0.25000000       0.25000000       0.25000000 </v>
   <v>       0.25000000      -0.25000000       0.25000000 </v>
   <v>       0.25000000       0.25000000      -0.25000000 </v>
   <v>       0.25000000       0.00000000       0.50000000 </v>
   <v>      -0.25000000       0.50000000       0.50000000 </v>
   <v>       0.25000000       0.50000000       0.00000000 </v>
   <v>       0.00000000       0.50000000      -0.25000000 </v>
   <v>       0.50000000       0.00000000      -0.25000000 </v>
   <v>       0.50000000       0.50000000       0.25000000 </v>
   <v>       0.50000000      -0.25000000       0.50000000 </v>
   <v>       0.00000000       0.25000000       0.50000000 </v>
   <v>       0.50000000       0.25000000       0.00000000 </v>
  </varray>
  <varray name="weights" >
   <v>       0.06250000 </v>
   <v>       0.06250000 </v>
   <v>       0.06250000 </v>
   <v>       0.06250000 </v>
   <v>       0.06250000 </v>
   <v>       0.06250000 </v>
   <v>       0.06250000 </v>
   <v>       0.06250000 </v>
   <v>       0.06250000 </v>
   <v>       0.06250000 </v>
   <v>       0.06250000 </v>
   <v>       0.06250000 </v>
   <v>       0.06250000 </v>
   <v>       0.06250000 </v>
   <v>       0.06250000 </v>
   <v>       0.06250000 </v>
  </varray>
 </kpoints>
 <parameters>
  <separator name="general" >
   <i type="string" name="SYSTEM">unknown system</i>
   <i type="logical" name="LCOMPAT"> F  </i>
  </separator>
  <separator name="electronic" >
   <i type="string" name="PREC">n</i>
   <i name="ENMAX">    400.00000000</i>
   <i name="ENAUG">    605.39200000</i>
   <i name="EDIFF">      0.00000100</i>
   <i type="int" name="IALGO">    38</i>
   <i type="int" name="IWAVPR">    11</i>
   <i type="int" name="NBANDS">    48</i>
   <i name="NELECT">     58.00000000</i>
   <i type="int" name="TURBO">     0</i>
   <i type="int" name="IRESTART">     0</i>
   <i type="int" name="NREBOOT">     0</i>
   <i type="int" name="NMIN">     0</i>
   <i name="EREF">      0.00000000</i>
   <separator name="electronic smearing" >
    <i type="int" name="ISMEAR">     0</i>
    <i name="SIGMA">      0.05000000</i>
    <i name="KSPACING">      0.50000000</i>
    <i type="logical" name="KGAMMA"> T  </i>
   </separator>
   <separator name="electronic projectors" >
    <i type="logical" name="LREAL"> T  </i>
    <v name="ROPT">     -0.00050000     -0.00050000</v>
    <i type="int" name="LMAXPAW">  -100</i>
    <i type="int" name="LMAXMIX">     2</i>
    <i type="logical" name="NLSPLINE"> F  </i>
   </separator>
   <separator name="electronic startup" >
    <i type="int" name="ISTART">     0</i>
    <i type="int" name="ICHARG">     2</i>
    <i type="int" name="INIWAV">     1</i>
   </separator>
   <separator name="electronic spin" >
    <i type="int" name="ISPIN">     2</i>
    <i type="logical" name="LNONCOLLINEAR"> F  </i>
    <v name="MAGMOM">      1.00000000      1.00000000      1.00000000      1.00000000      1.00000000      1.00000000      1.00000000      1.00000000      1.00000000      1.00000000      1.00000000      1.00000000      1.00000000      1.00000000      1.00000000      1.00000000</v>
    <i name="NUPDOWN">     -1.00000000</i>
    <i type="logical" name="LSORBIT"> F  </i>
    <v name="SAXIS">      0.00000000      0.00000000      1.00000000</v>
    <i type="logical" name="LSPIRAL"> F  </i>
    <v name="QSPIRAL">      0.00000000      0.00000000      0.00000000</v>
    <i type="logical" name="LZEROZ"> F  </i>
   </separator>
   <separator name="electronic exchange-correlation" >
    <i type="logical" name="LASPH"> T  </i>
    <i type="logical" name="LMETAGGA"> F  </i>
   </separator>
   <separator name="electronic convergence" >
    <i type="int" name="NELM">   100</i>
    <i type="int" name="NELMDL">     0</i>
    <i type="int" name="NELMIN">     4</i>
    <i name="ENINI">    400.00000000</i>
    <separator name="electronic convergence detail" >
     <i type="logical" name="LDIAG"> T  </i>
     <i type="logical" name="LSUBROT"> F  </i>
     <i name="WEIMIN">      0.00100000</i>
     <i name="EBREAK">      0.00000001</i>
     <i name="DEPER">      0.30000000</i>
     <i type="int" name="NRMM">     4</i>
     <i name="TIME">      0.40000000</i>
    </separator>
   </separator>
   <separator name="electronic mixer" >
    <i name="AMIX">      0.40000000</i>
    <i name="BMIX">      1.00000000</i>
    <i name="AMIN">      0.10000000</i>
    <i name="AMIX_MAG">      1.60000000</i>
    <i name="BMIX_MAG">      1.00000000</i>
    <separator name="electronic mixer details" >
     <i type="int" name="IMIX">     4</i>
     <i type="logical" name="MIXFIRST"> F  </i>
     <i type="int" name="MAXMIX">   -45</i>
     <i name="WC">    100.00000000</i>
     <i type="int" name="INIMIX">     1</i>
     <i type="int" name="MIXPRE">     1</i>
     <i type="int" name="MREMOVE">     5</i>
    </separator>
   </separator>
   <separator name="electronic dipolcorrection" >
    <i type="logical" name="LDIPOL"> F  </i>
    <i type="logical" name="LMONO"> F  </i>
    <i type="int" name="IDIPOL">     0</i>
    <i name="EPSILON">      1.00000000</i>
    <v name="DIPOL">   -100.00000000   -100.00000000   -100.00000000</v>
    <i name="EFIELD">      0.00000000</i>
   </separator>
  </separator>
  <separator name="grids" >
   <i type="int" name="NGX">    30</i>
   <i type="int" name="NGY">    30</i>
   <i type="int" name="NGZ">    30</i>
   <i type="int" name="NGXF">    60</i>
   <i type="int" name="NGYF">    60</i>
   <i type="int" name="NGZF">    60</i>
   <i type="logical" name="ADDGRID"> F  </i>
  </separator>
  <separator name="ionic" >
   <i type="int" name="NSW">    20</i>
   <i type="int" name="IBRION">     2</i>
   <i type="int" name="ISIF">     2</i>
   <i name="PSTRESS">      0.00000000</i>
   <i name="EDIFFG">     -0.05000000</i>
   <i type="int" name="NFREE">     1</i>
   <i name="POTIM">      0.50000000</i>
   <i name="SMASS">     -3.00000000</i>
   <i name="SCALEE">      1.00000000</i>
  </separator>
  <separator name="ionic md" >
   <i name="TEBEG">      0.00010000</i>
   <i name="TEEND">      0.00010000</i>
   <i type="int" name="NBLOCK">     1</i>
   <i type="int" name="KBLOCK">    20</i>
   <i type="int" name="NPACO">   256</i>
   <i name="APACO">     16.00000000</i>
  </separator>
  <separator name="symmetry" >
   <i type="int" name="ISYM">     2</i>
   <i name="SYMPREC">      0.00001000</i>
  </separator>
  <separator name="dos" >
   <i type="logical" name="LORBIT"> F  </i>
   <v name="RWIGS">     -1.00000000     -1.00000000</v>
   <i type="int" name="NEDOS">   301</i>
   <i name="EMIN">     10.00000000</i>
   <i name="EMAX">    -10.00000000</i>
   <i name="EFERMI">      0.00000000</i>
  </separator>
  <separator name="writing" >
   <i type="int" name="NWRITE">     2</i>
   <i type="logical" name="LWAVE"> F  </i>
   <i type="logical" name="LCHARG"> F  </i>
   <i type="logical" name="LPARD"> F  </i>
   <i type="logical" name="LVTOT"> F  </i>
   <i type="logical" name="LVHAR"> F  </i>
   <i type="logical" name="LELF"> F  </i>
   <i type="logical" name="LOPTICS"> F  </i>
   <v name="STM">      0.00000000      0.00000000      0.00000000      0.00000000      0.00000000      0.00000000      0.00000000</v>
  </separator>
  <separator name="performance" >
   <i type="int" name="NPAR">     4</i>
   <i type="int" name="NSIM">     4</i>
   <i type="int" name="NBLK">    -1</i>
   <i type="logical" name="LPLANE"> T  </i>
   <i type="logical" name="LSCALAPACK"> T  </i>
   <i type="logical" name="LSCAAWARE"> F  </i>
   <i type="logical" name="LSCALU"> F  </i>
   <i type="logical" name="LASYNC"> F  </i>
   <i type="logical" name="LORBITALREAL"> F  </i>
  </separator>
  <separator name="miscellaneous" >
   <i type="int" name="IDIOT">     3</i>
   <i type="logical" name="LMUSIC"> F  </i>
   <v name="POMASS">     24.30500000     16.00000000</v>
   <v name="DARWINR">      0.00000000      0.00000000</v>
   <v name="DARWINV">      1.00000000      1.00000000</v>
   <i type="logical" name="LCORR"> T  </i>
  </separator>
  <i type="logical" name="GGA_COMPAT"> T  </i>
  <i type="logical" name="LBERRY"> F  </i>
  <i type="int" name="ICORELEVEL">     0</i>
  <i type="logical" name="LDAU"> F  </i>
  <i type="int" name="I_CONSTRAINED_M">     0</i>
  <separator name="electronic exchange-correlation" >
   <i type="string" name="GGA">--</i>
   <i type="int" name="VOSKOWN">     0</i>
   <i type="logical" name="LHFCALC"> F  </i>
   <i type="string" name="PRECFOCK"></i>
   <i type="logical" name="LSYMGRAD"> F  </i>
   <i type="logical" name="LHFONE"> F  </i>
   <i type="logical" name="LRHFCALC"> F  </i>
   <i type="logical" name="LTHOMAS"> F  </i>
   <i type="logical" name="LMODELHF"> F  </i>
   <i name="ENCUT4O">     -1.00000000</i>
   <i type="int" name="EXXOEP">     0</i>
   <i type="int" name="FOURORBIT">     0</i>
   <i name="AEXX">      0.00000000</i>
   <i name="HFALPHA">      0.00000000</i>
   <i name="MCALPHA">      0.00000000</i>
   <i name="ALDAX">      1.00000000</i>
   <i name="AGGAX">      1.00000000</i>
   <i name="ALDAC">      1.00000000</i>
   <i name="AGGAC">      1.00000000</i>
   <i type="int" name="NKREDX">     1</i>
   <i type="int" name="NKREDY">     1</i>
   <i type="int" name="NKREDZ">     1</i>
   <i type="logical" name="SHIFTRED"> F  </i>
   <i type="logical" name="ODDONLY"> F  </i>
   <i type="logical" name="EVENONLY"> F  </i>
   <i type="int" name="LMAXFOCK">     0</i>
   <i type="int" name="NMAXFOCKAE">     0</i>
   <i type="logical" name="LFOCKAEDFT"> F  </i>
   <i name="HFSCREEN">      0.00000000</i>
   <i name="HFSCREENC">      0.00000000</i>
   <i type="int" name="NBANDSGWLOW">     0</i>
  </separator>
  <separator name="vdW DFT" >
   <i type="logical" name="LUSE_VDW"> F  </i>
   <i name="Zab_VDW">     -0.84910000</i>
   <i name="PARAM1">      0.12340000</i>
   <i name="PARAM2">      1.00000000</i>
   <i name="PARAM3">      0.00000000</i>
  </separator>
  <separator name="model GW" >
   <i type="int" name="MODEL_GW">     0</i>
   <i name="MODEL_EPS0">      5.74480406</i>
   <i name="MODEL_ALPHA">      1.00000000</i>
  </separator>
  <separator name="linear response parameters" >
   <i type="logical" name="LEPSILON"> F  </i>
   <i type="logical" name="LRPA"> F  </i>
   <i type="logical" name="LNABLA"> F  </i>
   <i type="logical" name="LVEL"> F  </i>
   <i type="int" name="KINTER">     0</i>
   <i name="CSHIFT">      0.10000000</i>
   <i name="OMEGAMAX">     -1.00000000</i>
   <i name="DEG_THRESHOLD">      0.00200000</i>
  </separator>
  <separator name="orbital magnetization" >
   <i type="logical" name="NUCIND"> F  </i>
   <v name="MAGPOS">      0.00000000      0.00000000      0.00000000</v>
   <i type="logical" name="LNICSALL"> T  </i>
   <i type="logical" name="ORBITALMAG"> F  </i>
   <i type="logical" name="LMAGBLOCH"> F  </i>
   <i type="logical" name="LCHIMAG"> F  </i>
   <i type="logical" name="LGAUGE"> T  </i>
   <i type="int" name="MAGATOM">     0</i>
   <v name="MAGDIPOL">      0.00000000      0.00000000      0.00000000</v>
   <v name="AVECCONST">      0.00000000      0.00000000      0.00000000</v>
  </separator>
  <separator name="response functions" >
   <i type="logical" name="LADDER"> F  </i>
   <i type="logical" name="LFXC"> F  </i>
   <i type="logical" name="LHARTREE"> T  </i>
   <i type="int" name="IBSE">     0</i>
   <v type="int" name="KPOINT">    -1     0     0     0</v>
   <i type="logical" name="LTCTE"> F  </i>
   <i type="logical" name="LTETE"> F  </i>
   <i type="logical" name="LTRIPLET"> F  </i>
   <i type="logical" name="LFXCEPS"> F  </i>
   <i type="logical" name="LFXHEG"> F  </i>
   <i type="int" name="NATURALO">     0</i>
   <i type="logical" name="L2ORDER"> F  </i>
   <i type="logical" name="LUSEW"> F  </i>
   <i name="ENCUTGW">     -2.00000000</i>
   <i name="ENCUTGWSOFT">     -2.00000000</i>
   <i name="ENCUTLF">     -1.00000000</i>
   <i type="int" name="LMAXMP2">    -1</i>
   <i name="SCISSOR">      0.00000000</i>
   <i type="int" name="NOMEGA">     0</i>
   <i type="int" name="NOMEGAR">     0</i>
   <i type="int" name="NBANDSGW">    -1</i>
   <i type="int" name="NBANDSO">    -1</i>
   <i type="int" name="NBANDSV">    -1</i>
   <i type="int" name="NELM">   100</i>
   <i type="int" name="NELMHF">     1</i>
   <i type="int" name="DIM">     3</i>
   <i type="int" name="ANTIRES">     0</i>
   <i name="OMEGAMAX">    -30.00000000</i>
   <i name="OMEGAMIN">    -30.00000000</i>
   <i name="OMEGATL">   -200.00000000</i>
   <i type="int" name="OMEGAGRID">     0</i>
   <i name="CSHIFT">     -0.10000000</i>
   <i type="logical" name="SELFENERGY"> F  </i>
   <i type="logical" name="LSPECTRAL"> F  </i>
   <i type="logical" name="LSPECTRALGW"> F  </i>
   <i type="logical" name="LSINGLES"> F  </i>
   <i type="logical" name="LFERMIGW"> F  </i>
   <i type="logical" name="ODDONLYGW"> F  </i>
   <i type="logical" name="EVENONLYGW"> F  </i>
   <i type="int" name="NKREDLFX">     1</i>
   <i type="int" name="NKREDLFY">     1</i>
   <i type="int" name="NKREDLFZ">     1</i>
   <i type="int" name="MAXMEM">  1800</i>
   <i type="int" name="TELESCOPE">     0</i>
   <i type="int" name="TAUPAR">     1</i>
   <i type="int" name="OMEGAPAR">    -1</i>
   <i name="LAMBDA">      1.00000000</i>
  </separator>
  <separator name="External order field" >
   <i name="OFIELD_KAPPA">      0.00000000</i>
   <v name="OFIELD_K">      0.00000000      0.00000000      0.00000000</v>
   <i name="OFIELD_Q6_NEAR">      0.00000000</i>
   <i name="OFIELD_Q6_FAR">      0.00000000</i>
   <i name="OFIELD_A">      0.00000000</i>
  </separator>
 </parameters>
 <atominfo>
  <atoms>      16 </atoms>
  <types>       2 </types>
  <array name="atoms" >
   <dimension dim="1">ion</dimension>
   <field type="string">element</field>
   <field type="int">atomtype</field>
   <set>
    <rc><c>Mg</c><c>   1</c></rc>
    <rc><c>Mg</c><c>   1</c></rc>
    <rc><c>Mg</c><c>   1</c></rc>
    <rc><c>Mg</c><c>   1</c></rc>
    <rc><c>Mg</c><c>   1</c></rc>
    <rc><c>Mg</c><c>   1</c></rc>
    <rc><c>Mg</c><c>   1</c></rc>
    <rc><c>Mg</c><c>   1</c></rc>
    <rc><c>Mg</c><c>   1</c></rc>
    <rc><c>O </c><c>   2</c></rc>
    <rc><c>O </c><c>   2</c></rc>
    <rc><c>O </c><c>   2</c></rc>
    <rc><c>O </c><c>   2</c></rc>
    <rc><c>O </c><c>   2</c></rc>
    <rc><c>O </c><c>   2</c></rc>
    <rc><c>O </c><c>   2</c></rc>
   </set>
  </array>
  <array name="atomtypes" >
   <dimension dim="1">type</dimension>
   <field type="int">atomspertype</field>
   <field type="string">element</field>
   <field>mass</field>
   <field>valence</field>
   <field type="string">pseudopotential</field>
   <set>
    <rc><c>   9</c><c>Mg</c><c>     24.30500000</c><c>      2.00000000</c><c>  PAW_PBE Mg 13Apr2007                  </c></rc>
    <rc><c>   7</c><c>O </c><c>     16.00000000</c><c>      6.00000000</c><c>  PAW_PBE O 08Apr2002                   </c></rc>
   </set>
  </array>
 </atominfo>
 <structure name="initialpos" >
  <crystal>
   <varray name="basis" >
    <v>       0.00000000       4.24689300       4.24689300 </v>
    <v>       4.24689300       0.00000000       4.24689300 </v>
    <v>       4.24689300       4.24689300       0.00000000 </v>
   </varray>
   <i name="volume">    153.19477498 </i>
   <varray name="rec_basis" >
    <v>      -0.11773313       0.11773313       0.11773313 </v>
    <v>       0.11773313      -0.11773313       0.11773313 </v>
    <v>       0.11773313       0.11773313      -0.11773313 </v>
   </varray>
  </crystal>
  <varray name="positions" >
   <v>       0.29635061       0.34563802       0.20656423 </v>
   <v>       0.99047329       0.98302896       0.01083278 </v>
   <v>       0.00044826       0.00166787       0.50162234 </v>
   <v>       0.97747527       0.49944154       0.99248584 </v>
   <v>       0.96246544       0.51121395       0.54051523 </v>
   <v>       0.50216034       0.98059740       0.00012580 </v>
   <v>       0.51032426       0.96676747       0.52549345 </v>
   <v>       0.56385254       0.54857748       0.93858291 </v>
   <v>       0.49170418       0.48248406       0.51206880 </v>
   <v>       0.23793695       0.23568417       0.75580873 </v>
   <v>       0.25429164       0.70410243       0.24809392 </v>
   <v>       0.25869627       0.70942631       0.78413408 </v>
   <v>       0.71805611       0.24970651       0.24396538 </v>
   <v>       0.73042439       0.25061418       0.77192433 </v>
   <v>       0.74730985       0.72652413       0.26457947 </v>
   <v>       0.76814359       0.77375753       0.73469571 </v>
  </varray>
 </structure>
 <calculation>
  <scstep>
   <time name="dav">    0.68    0.69</time>
   <time name="total">    1.04    1.06</time>
   <energy>
    <i name="alphaZ">    142.81396753 </i>
    <i name="ewald">  -2460.88124511 </i>
    <i name="hartreedc">   -964.94139671 </i>
    <i name="XCdc">   -236.29612506 </i>
    <i name="pawpsdc">   3011.45132117 </i>
    <i name="pawaedc">  -2557.24446474 </i>
    <i name="eentropy">     -0.00250134 </i>
    <i name="bandstr">     48.65646632 </i>
    <i name="atom">   3233.17333345 </i>
    <i name="e_fr_energy">    216.72935551 </i>
    <i name="e_wo_entrp">    216.73185685 </i>
    <i name="e_0_energy">    216.73060618 </i>
   </energy>
  </scstep>
  <scstep>
   <time name="dav">    0.72    0.73</time>
   <time name="total">    0.72    0.73</time>
   <energy>
    <i name="e_fr_energy">    -76.82432494 </i>
    <i name="e_wo_entrp">    -76.82432494 </i>
    <i name="e_0_energy">    -76.82432494 </i>
   </energy>
  </scstep>
  <scstep>
   <time name="dav">    0.72    0.72</time>
   <time name="total">    0.72    0.72</time>
   <energy>
    <i name="e_fr_energy">    -93.75680333 </i>
    <i name="e_wo_entrp">    -93.75680333 </i>
    <i name="e_0_energy">    -93.75680333 </i>
   </energy>
  </scstep>
  <scstep>
   <time name="dav">    0.70    0.70</time>
   <time name="total">    0.70    0.71</time>
   <energy>
    <i name="e_fr_energy">    -93.85636409 </i>
    <i name="e_wo_entrp">    -93.85636409 </i>
    <i name="e_0_energy">    -93.85636409 </i>
   </energy>
  </scstep>
  <scstep>
   <time name="dav">    0.70    0.71</time>
   <time name="total">    0.72    0.73</time>
   <energy>
    <i name="e_fr_energy">    -93.85686631 </i>
    <i name="e_wo_entrp">    -93.85686631 </i>
    <i name="e_0_energy">    -93.85686631 </i>
   </energy>
  </scstep>
  <scstep>
   <time name="dav">    0.69    0.69</time>
   <time name="total">    1.07    1.08</time>
   <energy>
    <i name="e_fr_energy">    -90.47450701 </i>
    <i name="e_wo_entrp">    -90.47450701 </i>
    <i name="e_0_energy">    -90.47450701 </i>
   </energy>
  </scstep>
  <scstep>
   <time name="dav">    0.69    0.70</time>
   <time name="total">    1.08    1.08</time>
   <energy>
    <i name="e_fr_energy">    -90.61099434 </i>
    <i name="e_wo_entrp">    -90.61099434 </i>
    <i name="e_0_energy">    -90.61099434 </i>
   </energy>
  </scstep>
  <scstep>
   <time name="dav">    0.70    0.70</time>
   <time name="total">    1.08    1.09</time>
   <energy>
    <i name="e_fr_energy">    -90.52150727 </i>
    <i name="e_wo_entrp">    -90.52150727 </i>
    <i name="e_0_energy">    -90.52150727 </i>
   </energy>
  </scstep>
  <scstep>
   <time name="dav">    0.75    0.75</time>
   <time name="total">    1.14    1.15</time>
   <energy>
    <i name="e_fr_energy">    -90.51720605 </i>
    <i name="e_wo_entrp">    -90.51720605 </i>
    <i name="e_0_energy">    -90.51720605 </i>
   </energy>
  </scstep>
  <scstep>
   <time name="dav">    0.70    0.70</time>
   <time name="total">    1.09    1.09</time>
   <energy>
    <i name="e_fr_energy">    -90.51644171 </i>
    <i name="e_wo_entrp">    -90.51644171 </i>
    <i name="e_0_energy">    -90.51644171 </i>
   </energy>
  </scstep>
  <scstep>
   <time name="dav">    0.69    0.70</time>
   <time name="total">    1.08    1.09</time>
   <energy>
    <i name="e_fr_energy">    -90.51665878 </i>
    <i name="e_wo_entrp">    -90.51665878 </i>
    <i name="e_0_energy">    -90.51665878 </i>
   </energy>
  </scstep>
  <scstep>
   <time name="dav">    0.68    0.69</time>
   <time name="total">    1.07    1.07</time>
   <energy>
    <i name="e_fr_energy">    -90.51680405 </i>
    <i name="e_wo_entrp">    -90.51680405 </i>
    <i name="e_0_energy">    -90.51680405 </i>
   </energy>
  </scstep>
  <scstep>
   <time name="dav">    0.76    0.76</time>
   <time name="total">    1.14    1.15</time>
   <energy>
    <i name="e_fr_energy">    -90.51680607 </i>
    <i name="e_wo_entrp">    -90.51680607 </i>
    <i name="e_0_energy">    -90.51680607 </i>
   </energy>
  </scstep>
  <scstep>
   <time name="dav">    0.70    0.70</time>
   <time name="total">    1.08    1.09</time>
   <energy>
    <i name="e_fr_energy">    -90.51680808 </i>
    <i name="e_wo_entrp">    -90.51680808 </i>
    <i name="e_0_energy">    -90.51680808 </i>
   </energy>
  </scstep>
  <scstep>
   <time name="dav">    0.52    0.52</time>
   <time name="total">    0.89    0.89</time>
   <energy>
    <i name="alphaZ">    142.81396753 </i>
    <i name="ewald">  -2460.88124511 </i>
    <i name="hartreedc">  -1105.29632396 </i>
    <i name="XCdc">   -234.62448130 </i>
    <i name="pawpsdc">   3986.93078369 </i>
    <i name="pawaedc">  -3534.45814794 </i>
    <i name="eentropy">     -0.00000000 </i>
    <i name="bandstr">   -118.17469436 </i>
    <i name="atom">   3233.17333345 </i>
    <i name="e_fr_energy">    -90.51680799 </i>
    <i name="e_wo_entrp">    -90.51680799 </i>
    <i name="e_0_energy">    -90.51680799 </i>
   </energy>
  </scstep>
  <structure>
   <crystal>
    <varray name="basis" >
     <v>       0.00000000       4.24689300       4.24689300 </v>
     <v>       4.24689300       0.00000000       4.24689300 </v>
     <v>       4.24689300       4.24689300       0.00000000 </v>
    </varray>
    <i name="volume">    153.19477498 </i>
    <varray name="rec_basis" >
     <v>      -0.11773313       0.11773313       0.11773313 </v>
     <v>       0.11773313      -0.11773313       0.11773313 </v>
     <v>       0.11773313       0.11773313      -0.11773313 </v>
    </varray>
   </crystal>
   <varray name="positions" >
    <v>       0.29635061       0.34563802       0.20656423 </v>
    <v>       0.99047329       0.98302896       0.01083278 </v>
    <v>       0.00044826       0.00166787       0.50162234 </v>
    <v>       0.97747527       0.49944154       0.99248584 </v>
    <v>       0.96246544       0.51121395       0.54051523 </v>
    <v>       0.50216034       0.98059740       0.00012580 </v>
    <v>       0.51032426       0.96676747       0.52549345 </v>
    <v>       0.56385254       0.54857748       0.93858291 </v>
    <v>       0.49170418       0.48248406       0.51206880 </v>
    <v>       0.23793695       0.23568417       0.75580873 </v>
    <v>       0.25429164       0.70410243       0.24809392 </v>
    <v>       0.25869627       0.70942631       0.78413408 </v>
    <v>       0.71805611       0.24970651       0.24396538 </v>
    <v>       0.73042439       0.25061418       0.77192433 </v>
    <v>       0.74730985       0.72652413       0.26457947 </v>
    <v>       0.76814359       0.77375753       0.73469571 </v>
   </varray>
  </structure>
  <varray name="forces" >
   <v>       0.02701389       0.00701943       0.00187166 </v>
   <v>       0.00763650      -0.00952365       0.02763167 </v>
   <v>      -0.00864455       0.00726945      -0.01881014 </v>
   <v>       0.00135100      -0.00158139       0.00332506 </v>
   <v>       0.04013300      -0.00555866       0.01298155 </v>
   <v>      -0.00135682       0.01264354       0.00190638 </v>
   <v>      -0.01306072      -0.01549352       0.00183552 </v>
   <v>      -0.01136911       0.00416310      -0.03563482 </v>
   <v>      -0.00893822       0.00265656       0.01567257 </v>
   <v>      -0.01334070      -0.01388219       0.00076380 </v>
   <v>       0.00759760       0.00761211      -0.00563389 </v>
   <v>      -0.00805465      -0.00865622      -0.00147915 </v>
   <v>      -0.00807725       0.00416521       0.00059114 </v>
   <v>      -0.01251674       0.01109773       0.01143838 </v>
   <v>       0.00151459       0.00027437       0.00160412 </v>
   <v>       0.00011219      -0.00220589      -0.01806386 </v>
  </varray>
  <varray name="stress" >
   <v>     -43.87435086       0.54507380     -32.69111575 </v>
   <v>       0.54507376     -59.83576239       0.06943515 </v>
   <v>     -32.69110786       0.06943527      11.43469165 </v>
  </varray>
  <energy>
   <i name="e_fr_energy">    -90.51680799 </i>
   <i name="e_wo_entrp">    -90.51680799 </i>
   <i name="e_0_energy">     -0.00000000 </i>
  </energy>
  <time name="totalsc">   15.88   15.97</time>
  <eigenvalues>
   <array>
    <dimension dim="1">band</dimension>
    <dimension dim="2">kpoint</dimension>
    <dimension dim="3">spin</dimension>
    <field>eigene</field>
    <field>occ</field>
    <set>
     <set comment="spin 1">
      <set comment="kpoint 1">
       <r>  -14.3009    1.0000 </r>
       <r>  -13.1609    1.0000 </r>
       <r>  -12.6293    1.0000 </r>
       <r>  -12.4994    1.0000 </r>
       <r>  -12.3314    1.0000 </r>
       <r>  -12.2207    1.0000 </r>
       <r>  -12.1845    1.0000 </r>
       <r>   -1.2947    1.0000 </r>
       <r>   -1.2148    1.0000 </r>
       <r>   -1.0702    1.0000 </r>
       <r>   -0.6231    1.0000 </r>
       <r>   -0.3944    1.0000 </r>
       <r>    0.0100    1.0000 </r>
       <r>    0.0822    1.0000 </r>
       <r>    1.0049    1.0000 </r>
       <r>    1.4122    1.0000 </r>
       <r>    1.4526    1.0000 </r>
       <r>    1.7624    1.0000 </r>
       <r>    1.8488    1.0000 </r>
       <r>    2.0551    1.0000 </r>
       <r>    2.1244    1.0000 </r>
       <r>    2.3847    1.0000 </r>
       <r>    2.4396    1.0000 </r>
       <r>    2.7528    1.0000 </r>
       <r>    2.9059    1.0000 </r>
       <r>    2.9576    1.0000 </r>
       <r>    3.0514    1.0000 </r>
       <r>    3.0991    1.0000 </r>
       <r>    3.9498    1.0000 </r>
       <r>    8.6784    0.0000 </r>
       <r>    9.7211    0.0000 </r>
       <r>    9.7606    0.0000 </r>
       <r>   10.5158    0.0000 </r>
       <r>   11.3571    0.0000 </r>
       <r>   11.5889    0.0000 </r>
       <r>   11.7295    0.0000 </r>
       <r>   12.1521    0.0000 </r>
       <r>   12.4341    0.0000 </r>
       <r>   12.8186    0.0000 </r>
       <r>   13.2124    0.0000 </r>
       <r>   13.2913    0.0000 </r>
       <r>   13.5131    0.0000 </r>
       <r>   14.9788    0.0000 </r>
       <r>   15.2168    0.0000 </r>
       <r>   15.3236    0.0000 </r>
       <r>   15.6837    0.0000 </r>
       <r>   17.1570    0.0000 </r>
       <r>   17.3037    0.0000 </r>
      </set>
      <set comment="kpoint 2">
       <r>  -14.3003    1.0000 </r>
       <r>  -13.1606    1.0000 </r>
       <r>  -12.6322    1.0000 </r>
       <r>  -12.4996    1.0000 </r>
       <r>  -12.3379    1.0000 </r>
       <r>  -12.2192    1.0000 </r>
       <r>  -12.1774    1.0000 </r>
       <r>   -1.3379    1.0000 </r>
       <r>   -1.2147    1.0000 </r>
       <r>   -1.0297    1.0000 </r>
       <r>   -0.5542    1.0000 </r>
       <r>   -0.3906    1.0000 </r>
       <r>   -0.0692    1.0000 </r>
       <r>    0.0676    1.0000 </r>
       <r>    1.0011    1.0000 </r>
       <r>    1.4350    1.0000 </r>
       <r>    1.4578    1.0000 </r>
       <r>    1.7939    1.0000 </r>
       <r>    1.8404    1.0000 </r>
       <r>    2.0702    1.0000 </r>
       <r>    2.0902    1.0000 </r>
       <r>    2.3915    1.0000 </r>
       <r>    2.4843    1.0000 </r>
       <r>    2.6569    1.0000 </r>
       <r>    2.9023    1.0000 </r>
       <r>    2.9681    1.0000 </r>
       <r>    3.0411    1.0000 </r>
       <r>    3.1245    1.0000 </r>
       <r>    3.9907    1.0000 </r>
       <r>    8.6296    0.0000 </r>
       <r>    9.6803    0.0000 </r>
       <r>    9.7572    0.0000 </r>
       <r>   10.6645    0.0000 </r>
       <r>   11.3097    0.0000 </r>
       <r>   11.4895    0.0000 </r>
       <r>   11.6320    0.0000 </r>
       <r>   12.1420    0.0000 </r>
       <r>   12.5246    0.0000 </r>
       <r>   12.9111    0.0000 </r>
       <r>   13.1506    0.0000 </r>
       <r>   13.2905    0.0000 </r>
       <r>   13.4648    0.0000 </r>
       <r>   15.0743    0.0000 </r>
       <r>   15.3221    0.0000 </r>
       <r>   15.4169    0.0000 </r>
       <r>   15.6498    0.0000 </r>
       <r>   17.1407    0.0000 </r>
       <r>   17.2266    0.0000 </r>
      </set>
      <set comment="kpoint 3">
       <r>  -14.3004    1.0000 </r>
       <r>  -13.1604    1.0000 </r>
       <r>  -12.6325    1.0000 </r>
       <r>  -12.4995    1.0000 </r>
       <r>  -12.3371    1.0000 </r>
       <r>  -12.2196    1.0000 </r>
       <r>  -12.1777    1.0000 </r>
       <r>   -1.3374    1.0000 </r>
       <r>   -1.2173    1.0000 </r>
       <r>   -1.0279    1.0000 </r>
       <r>   -0.5555    1.0000 </r>
       <r>   -0.3900    1.0000 </r>
       <r>   -0.0699    1.0000 </r>
       <r>    0.0693    1.0000 </r>
       <r>    1.0015    1.0000 </r>
       <r>    1.4354    1.0000 </r>
       <r>    1.4582    1.0000 </r>
       <r>    1.7932    1.0000 </r>
       <r>    1.8406    1.0000 </r>
       <r>    2.0698    1.0000 </r>
       <r>    2.0902    1.0000 </r>
       <r>    2.3915    1.0000 </r>
       <r>    2.4838    1.0000 </r>
       <r>    2.6560    1.0000 </r>
       <r>    2.9034    1.0000 </r>
       <r>    2.9701    1.0000 </r>
       <r>    3.0406    1.0000 </r>
       <r>    3.1244    1.0000 </r>
       <r>    3.9899    1.0000 </r>
       <r>    8.6281    0.0000 </r>
       <r>    9.6793    0.0000 </r>
       <r>    9.7602    0.0000 </r>
       <r>   10.6645    0.0000 </r>
       <r>   11.3099    0.0000 </r>
       <r>   11.4904    0.0000 </r>
       <r>   11.6284    0.0000 </r>
       <r>   12.1432    0.0000 </r>
       <r>   12.5217    0.0000 </r>
       <r>   12.9123    0.0000 </r>
       <r>   13.1502    0.0000 </r>
       <r>   13.2889    0.0000 </r>
       <r>   13.4669    0.0000 </r>
       <r>   15.0771    0.0000 </r>
       <r>   15.3223    0.0000 </r>
       <r>   15.4145    0.0000 </r>
       <r>   15.6487    0.0000 </r>
       <r>   17.1415    0.0000 </r>
       <r>   17.2253    0.0000 </r>
      </set>
      <set comment="kpoint 4">
       <r>  -14.3009    1.0000 </r>
       <r>  -13.1610    1.0000 </r>
       <r>  -12.6297    1.0000 </r>
       <r>  -12.4994    1.0000 </r>
       <r>  -12.3311    1.0000 </r>
       <r>  -12.2204    1.0000 </r>
       <r>  -12.1848    1.0000 </r>
       <r>   -1.2957    1.0000 </r>
       <r>   -1.2125    1.0000 </r>
       <r>   -1.0710    1.0000 </r>
       <r>   -0.6221    1.0000 </r>
       <r>   -0.3946    1.0000 </r>
       <r>    0.0089    1.0000 </r>
       <r>    0.0811    1.0000 </r>
       <r>    1.0025    1.0000 </r>
       <r>    1.4122    1.0000 </r>
       <r>    1.4540    1.0000 </r>
       <r>    1.7634    1.0000 </r>
       <r>    1.8485    1.0000 </r>
       <r>    2.0543    1.0000 </r>
       <r>    2.1258    1.0000 </r>
       <r>    2.3851    1.0000 </r>
       <r>    2.4413    1.0000 </r>
       <r>    2.7510    1.0000 </r>
       <r>    2.9065    1.0000 </r>
       <r>    2.9568    1.0000 </r>
       <r>    3.0518    1.0000 </r>
       <r>    3.0989    1.0000 </r>
       <r>    3.9506    1.0000 </r>
       <r>    8.6797    0.0000 </r>
       <r>    9.7178    0.0000 </r>
       <r>    9.7608    0.0000 </r>
       <r>   10.5165    0.0000 </r>
       <r>   11.3550    0.0000 </r>
       <r>   11.5868    0.0000 </r>
       <r>   11.7306    0.0000 </r>
       <r>   12.1521    0.0000 </r>
       <r>   12.4354    0.0000 </r>
       <r>   12.8187    0.0000 </r>
       <r>   13.2121    0.0000 </r>
       <r>   13.2940    0.0000 </r>
       <r>   13.5146    0.0000 </r>
       <r>   14.9772    0.0000 </r>
       <r>   15.2160    0.0000 </r>
       <r>   15.3247    0.0000 </r>
       <r>   15.6839    0.0000 </r>
       <r>   17.1526    0.0000 </r>
       <r>   17.3081    0.0000 </r>
      </set>
      <set comment="kpoint 5">
       <r>  -14.2374    1.0000 </r>
       <r>  -13.0219    1.0000 </r>
       <r>  -12.7822    1.0000 </r>
       <r>  -12.5746    1.0000 </r>
       <r>  -12.3427    1.0000 </r>
       <r>  -12.2851    1.0000 </r>
       <r>  -12.1566    1.0000 </r>
       <r>   -0.9765    1.0000 </r>
       <r>   -0.7999    1.0000 </r>
       <r>   -0.6821    1.0000 </r>
       <r>   -0.3199    1.0000 </r>
       <r>    0.0614    1.0000 </r>
       <r>    0.2100    1.0000 </r>
       <r>    0.4631    1.0000 </r>
       <r>    0.6599    1.0000 </r>
       <r>    0.9503    1.0000 </r>
       <r>    1.0069    1.0000 </r>
       <r>    1.3677    1.0000 </r>
       <r>    1.5900    1.0000 </r>
       <r>    1.7653    1.0000 </r>
       <r>    1.8243    1.0000 </r>
       <r>    1.9322    1.0000 </r>
       <r>    2.2722    1.0000 </r>
       <r>    2.4472    1.0000 </r>
       <r>    2.5889    1.0000 </r>
       <r>    2.8016    1.0000 </r>
       <r>    2.9248    1.0000 </r>
       <r>    3.0468    1.0000 </r>
       <r>    5.0651    1.0000 </r>
       <r>    7.8582    0.0000 </r>
       <r>    8.8727    0.0000 </r>
       <r>    9.9886    0.0000 </r>
       <r>   10.9038    0.0000 </r>
       <r>   11.9048    0.0000 </r>
       <r>   12.3430    0.0000 </r>
       <r>   12.4418    0.0000 </r>
       <r>   12.9699    0.0000 </r>
       <r>   13.1624    0.0000 </r>
       <r>   13.5341    0.0000 </r>
       <r>   13.8751    0.0000 </r>
       <r>   14.1886    0.0000 </r>
       <r>   14.5688    0.0000 </r>
       <r>   14.7020    0.0000 </r>
       <r>   14.9983    0.0000 </r>
       <r>   15.0832    0.0000 </r>
       <r>   15.4895    0.0000 </r>
       <r>   15.8437    0.0000 </r>
       <r>   16.2110    0.0000 </r>
      </set>
      <set comment="kpoint 6">
       <r>  -14.2383    1.0000 </r>
       <r>  -13.0154    1.0000 </r>
       <r>  -12.7890    1.0000 </r>
       <r>  -12.5653    1.0000 </r>
       <r>  -12.3691    1.0000 </r>
       <r>  -12.2600    1.0000 </r>
       <r>  -12.1635    1.0000 </r>
       <r>   -0.9507    1.0000 </r>
       <r>   -0.7870    1.0000 </r>
       <r>   -0.7130    1.0000 </r>
       <r>   -0.3530    1.0000 </r>
       <r>    0.0466    1.0000 </r>
       <r>    0.2057    1.0000 </r>
       <r>    0.5143    1.0000 </r>
       <r>    0.6958    1.0000 </r>
       <r>    0.9471    1.0000 </r>
       <r>    1.0256    1.0000 </r>
       <r>    1.3180    1.0000 </r>
       <r>    1.6278    1.0000 </r>
       <r>    1.6900    1.0000 </r>
       <r>    1.7964    1.0000 </r>
       <r>    1.9411    1.0000 </r>
       <r>    2.3236    1.0000 </r>
       <r>    2.4452    1.0000 </r>
       <r>    2.6216    1.0000 </r>
       <r>    2.8011    1.0000 </r>
       <r>    2.9061    1.0000 </r>
       <r>    3.0325    1.0000 </r>
       <r>    5.0326    1.0000 </r>
       <r>    7.9320    0.0000 </r>
       <r>    8.9225    0.0000 </r>
       <r>    9.7756    0.0000 </r>
       <r>   11.0124    0.0000 </r>
       <r>   11.9352    0.0000 </r>
       <r>   12.3173    0.0000 </r>
       <r>   12.6178    0.0000 </r>
       <r>   12.9759    0.0000 </r>
       <r>   13.1369    0.0000 </r>
       <r>   13.6685    0.0000 </r>
       <r>   13.8243    0.0000 </r>
       <r>   14.1233    0.0000 </r>
       <r>   14.4184    0.0000 </r>
       <r>   14.5704    0.0000 </r>
       <r>   14.7725    0.0000 </r>
       <r>   15.0134    0.0000 </r>
       <r>   15.6396    0.0000 </r>
       <r>   15.9592    0.0000 </r>
       <r>   16.3993    0.0000 </r>
      </set>
      <set comment="kpoint 7">
       <r>  -14.2360    1.0000 </r>
       <r>  -13.0714    1.0000 </r>
       <r>  -12.7293    1.0000 </r>
       <r>  -12.5421    1.0000 </r>
       <r>  -12.3577    1.0000 </r>
       <r>  -12.2767    1.0000 </r>
       <r>  -12.1860    1.0000 </r>
       <r>   -0.9715    1.0000 </r>
       <r>   -0.8386    1.0000 </r>
       <r>   -0.7221    1.0000 </r>
       <r>   -0.3167    1.0000 </r>
       <r>    0.0116    1.0000 </r>
       <r>    0.1899    1.0000 </r>
       <r>    0.5384    1.0000 </r>
       <r>    0.6362    1.0000 </r>
       <r>    0.9597    1.0000 </r>
       <r>    1.0579    1.0000 </r>
       <r>    1.4416    1.0000 </r>
       <r>    1.5724    1.0000 </r>
       <r>    1.7138    1.0000 </r>
       <r>    1.9337    1.0000 </r>
       <r>    1.9899    1.0000 </r>
       <r>    2.2006    1.0000 </r>
       <r>    2.4242    1.0000 </r>
       <r>    2.6226    1.0000 </r>
       <r>    2.8199    1.0000 </r>
       <r>    2.8736    1.0000 </r>
       <r>    3.0488    1.0000 </r>
       <r>    4.9428    1.0000 </r>
       <r>    8.1121    0.0000 </r>
       <r>    9.1260    0.0000 </r>
       <r>    9.4412    0.0000 </r>
       <r>   10.9297    0.0000 </r>
       <r>   11.9234    0.0000 </r>
       <r>   12.4854    0.0000 </r>
       <r>   12.6833    0.0000 </r>
       <r>   12.7854    0.0000 </r>
       <r>   13.2168    0.0000 </r>
       <r>   13.4972    0.0000 </r>
       <r>   13.8144    0.0000 </r>
       <r>   14.2934    0.0000 </r>
       <r>   14.4793    0.0000 </r>
       <r>   14.5847    0.0000 </r>
       <r>   14.8221    0.0000 </r>
       <r>   14.9517    0.0000 </r>
       <r>   15.5430    0.0000 </r>
       <r>   15.7208    0.0000 </r>
       <r>   16.3508    0.0000 </r>
      </set>
      <set comment="kpoint 8">
       <r>  -14.2379    1.0000 </r>
       <r>  -13.0114    1.0000 </r>
       <r>  -12.7854    1.0000 </r>
       <r>  -12.5968    1.0000 </r>
       <r>  -12.3205    1.0000 </r>
       <r>  -12.2849    1.0000 </r>
       <r>  -12.1636    1.0000 </r>
       <r>   -1.0030    1.0000 </r>
       <r>   -0.7803    1.0000 </r>
       <r>   -0.6503    1.0000 </r>
       <r>   -0.3332    1.0000 </r>
       <r>    0.0584    1.0000 </r>
       <r>    0.2199    1.0000 </r>
       <r>    0.4054    1.0000 </r>
       <r>    0.7058    1.0000 </r>
       <r>    0.9171    1.0000 </r>
       <r>    1.0403    1.0000 </r>
       <r>    1.3461    1.0000 </r>
       <r>    1.5956    1.0000 </r>
       <r>    1.7938    1.0000 </r>
       <r>    1.8311    1.0000 </r>
       <r>    1.9372    1.0000 </r>
       <r>    2.2548    1.0000 </r>
       <r>    2.4321    1.0000 </r>
       <r>    2.5788    1.0000 </r>
       <r>    2.7900    1.0000 </r>
       <r>    2.9508    1.0000 </r>
       <r>    3.0403    1.0000 </r>
       <r>    5.0758    1.0000 </r>
       <r>    7.8788    0.0000 </r>
       <r>    8.8019    0.0000 </r>
       <r>   10.0151    0.0000 </r>
       <r>   10.9135    0.0000 </r>
       <r>   11.8299    0.0000 </r>
       <r>   12.3463    0.0000 </r>
       <r>   12.5085    0.0000 </r>
       <r>   12.9455    0.0000 </r>
       <r>   13.1519    0.0000 </r>
       <r>   13.5696    0.0000 </r>
       <r>   13.9135    0.0000 </r>
       <r>   14.1556    0.0000 </r>
       <r>   14.5551    0.0000 </r>
       <r>   14.7394    0.0000 </r>
       <r>   14.9473    0.0000 </r>
       <r>   15.0767    0.0000 </r>
       <r>   15.5585    0.0000 </r>
       <r>   15.8192    0.0000 </r>
       <r>   16.1884    0.0000 </r>
      </set>
      <set comment="kpoint 9">
       <r>  -14.2380    1.0000 </r>
       <r>  -13.0256    1.0000 </r>
       <r>  -12.7727    1.0000 </r>
       <r>  -12.5765    1.0000 </r>
       <r>  -12.3343    1.0000 </r>
       <r>  -12.2942    1.0000 </r>
       <r>  -12.1591    1.0000 </r>
       <r>   -0.9678    1.0000 </r>
       <r>   -0.7910    1.0000 </r>
       <r>   -0.6754    1.0000 </r>
       <r>   -0.3608    1.0000 </r>
       <r>    0.0378    1.0000 </r>
       <r>    0.2048    1.0000 </r>
       <r>    0.4586    1.0000 </r>
       <r>    0.7323    1.0000 </r>
       <r>    0.9421    1.0000 </r>
       <r>    1.0421    1.0000 </r>
       <r>    1.3044    1.0000 </r>
       <r>    1.6461    1.0000 </r>
       <r>    1.7144    1.0000 </r>
       <r>    1.8075    1.0000 </r>
       <r>    1.9492    1.0000 </r>
       <r>    2.2905    1.0000 </r>
       <r>    2.4235    1.0000 </r>
       <r>    2.6329    1.0000 </r>
       <r>    2.8085    1.0000 </r>
       <r>    2.9200    1.0000 </r>
       <r>    3.0195    1.0000 </r>
       <r>    5.0123    1.0000 </r>
       <r>    8.0001    0.0000 </r>
       <r>    8.8154    0.0000 </r>
       <r>    9.8670    0.0000 </r>
       <r>   11.0506    0.0000 </r>
       <r>   11.8603    0.0000 </r>
       <r>   12.3544    0.0000 </r>
       <r>   12.6549    0.0000 </r>
       <r>   12.9644    0.0000 </r>
       <r>   13.1454    0.0000 </r>
       <r>   13.5803    0.0000 </r>
       <r>   13.8324    0.0000 </r>
       <r>   14.0909    0.0000 </r>
       <r>   14.3509    0.0000 </r>
       <r>   14.6009    0.0000 </r>
       <r>   14.8503    0.0000 </r>
       <r>   15.0147    0.0000 </r>
       <r>   15.6517    0.0000 </r>
       <r>   15.8897    0.0000 </r>
       <r>   16.4127    0.0000 </r>
      </set>
      <set comment="kpoint 10">
       <r>  -14.2365    1.0000 </r>
       <r>  -13.0730    1.0000 </r>
       <r>  -12.7242    1.0000 </r>
       <r>  -12.5422    1.0000 </r>
       <r>  -12.3497    1.0000 </r>
       <r>  -12.2849    1.0000 </r>
       <r>  -12.1888    1.0000 </r>
       <r>   -0.9716    1.0000 </r>
       <r>   -0.8304    1.0000 </r>
       <r>   -0.6939    1.0000 </r>
       <r>   -0.3627    1.0000 </r>
       <r>   -0.0217    1.0000 </r>
       <r>    0.1764    1.0000 </r>
       <r>    0.5535    1.0000 </r>
       <r>    0.7073    1.0000 </r>
       <r>    0.9415    1.0000 </r>
       <r>    1.0668    1.0000 </r>
       <r>    1.4560    1.0000 </r>
       <r>    1.5565    1.0000 </r>
       <r>    1.6894    1.0000 </r>
       <r>    1.9253    1.0000 </r>
       <r>    1.9686    1.0000 </r>
       <r>    2.2414    1.0000 </r>
       <r>    2.4174    1.0000 </r>
       <r>    2.6611    1.0000 </r>
       <r>    2.8222    1.0000 </r>
       <r>    2.8624    1.0000 </r>
       <r>    3.0246    1.0000 </r>
       <r>    4.8950    1.0000 </r>
       <r>    8.3127    0.0000 </r>
       <r>    9.0436    0.0000 </r>
       <r>    9.3053    0.0000 </r>
       <r>   11.0342    0.0000 </r>
       <r>   11.8734    0.0000 </r>
       <r>   12.5772    0.0000 </r>
       <r>   12.7593    0.0000 </r>
       <r>   12.9079    0.0000 </r>
       <r>   13.2842    0.0000 </r>
       <r>   13.4700    0.0000 </r>
       <r>   13.7574    0.0000 </r>
       <r>   14.1207    0.0000 </r>
       <r>   14.3402    0.0000 </r>
       <r>   14.3826    0.0000 </r>
       <r>   14.7251    0.0000 </r>
       <r>   15.0687    0.0000 </r>
       <r>   15.4461    0.0000 </r>
       <r>   15.8378    0.0000 </r>
       <r>   16.3626    0.0000 </r>
      </set>
      <set comment="kpoint 11">
       <r>  -14.2380    1.0000 </r>
       <r>  -13.0256    1.0000 </r>
       <r>  -12.7733    1.0000 </r>
       <r>  -12.5764    1.0000 </r>
       <r>  -12.3325    1.0000 </r>
       <r>  -12.2958    1.0000 </r>
       <r>  -12.1590    1.0000 </r>
       <r>   -0.9675    1.0000 </r>
       <r>   -0.7898    1.0000 </r>
       <r>   -0.6745    1.0000 </r>
       <r>   -0.3619    1.0000 </r>
       <r>    0.0369    1.0000 </r>
       <r>    0.2035    1.0000 </r>
       <r>    0.4561    1.0000 </r>
       <r>    0.7325    1.0000 </r>
       <r>    0.9410    1.0000 </r>
       <r>    1.0434    1.0000 </r>
       <r>    1.3050    1.0000 </r>
       <r>    1.6489    1.0000 </r>
       <r>    1.7151    1.0000 </r>
       <r>    1.8069    1.0000 </r>
       <r>    1.9491    1.0000 </r>
       <r>    2.2910    1.0000 </r>
       <r>    2.4241    1.0000 </r>
       <r>    2.6313    1.0000 </r>
       <r>    2.8088    1.0000 </r>
       <r>    2.9200    1.0000 </r>
       <r>    3.0195    1.0000 </r>
       <r>    5.0130    1.0000 </r>
       <r>    8.0015    0.0000 </r>
       <r>    8.8127    0.0000 </r>
       <r>    9.8677    0.0000 </r>
       <r>   11.0505    0.0000 </r>
       <r>   11.8571    0.0000 </r>
       <r>   12.3543    0.0000 </r>
       <r>   12.6551    0.0000 </r>
       <r>   12.9628    0.0000 </r>
       <r>   13.1483    0.0000 </r>
       <r>   13.5782    0.0000 </r>
       <r>   13.8315    0.0000 </r>
       <r>   14.0932    0.0000 </r>
       <r>   14.3511    0.0000 </r>
       <r>   14.6037    0.0000 </r>
       <r>   14.8530    0.0000 </r>
       <r>   15.0171    0.0000 </r>
       <r>   15.6521    0.0000 </r>
       <r>   15.8872    0.0000 </r>
       <r>   16.4131    0.0000 </r>
      </set>
      <set comment="kpoint 12">
       <r>  -14.2378    1.0000 </r>
       <r>  -13.0118    1.0000 </r>
       <r>  -12.7849    1.0000 </r>
       <r>  -12.5970    1.0000 </r>
       <r>  -12.3212    1.0000 </r>
       <r>  -12.2844    1.0000 </r>
       <r>  -12.1634    1.0000 </r>
       <r>   -1.0028    1.0000 </r>
       <r>   -0.7786    1.0000 </r>
       <r>   -0.6501    1.0000 </r>
       <r>   -0.3337    1.0000 </r>
       <r>    0.0570    1.0000 </r>
       <r>    0.2199    1.0000 </r>
       <r>    0.4044    1.0000 </r>
       <r>    0.7067    1.0000 </r>
       <r>    0.9154    1.0000 </r>
       <r>    1.0420    1.0000 </r>
       <r>    1.3454    1.0000 </r>
       <r>    1.5970    1.0000 </r>
       <r>    1.7929    1.0000 </r>
       <r>    1.8282    1.0000 </r>
       <r>    1.9390    1.0000 </r>
       <r>    2.2563    1.0000 </r>
       <r>    2.4317    1.0000 </r>
       <r>    2.5785    1.0000 </r>
       <r>    2.7902    1.0000 </r>
       <r>    2.9494    1.0000 </r>
       <r>    3.0411    1.0000 </r>
       <r>    5.0759    1.0000 </r>
       <r>    7.8814    0.0000 </r>
       <r>    8.7988    0.0000 </r>
       <r>   10.0151    0.0000 </r>
       <r>   10.9153    0.0000 </r>
       <r>   11.8282    0.0000 </r>
       <r>   12.3480    0.0000 </r>
       <r>   12.5095    0.0000 </r>
       <r>   12.9462    0.0000 </r>
       <r>   13.1507    0.0000 </r>
       <r>   13.5715    0.0000 </r>
       <r>   13.9131    0.0000 </r>
       <r>   14.1563    0.0000 </r>
       <r>   14.5542    0.0000 </r>
       <r>   14.7381    0.0000 </r>
       <r>   14.9487    0.0000 </r>
       <r>   15.0768    0.0000 </r>
       <r>   15.5589    0.0000 </r>
       <r>   15.8183    0.0000 </r>
       <r>   16.1880    0.0000 </r>
      </set>
      <set comment="kpoint 13">
       <r>  -14.2365    1.0000 </r>
       <r>  -13.0731    1.0000 </r>
       <r>  -12.7235    1.0000 </r>
       <r>  -12.5422    1.0000 </r>
       <r>  -12.3514    1.0000 </r>
       <r>  -12.2837    1.0000 </r>
       <r>  -12.1888    1.0000 </r>
       <r>   -0.9720    1.0000 </r>
       <r>   -0.8334    1.0000 </r>
       <r>   -0.6922    1.0000 </r>
       <r>   -0.3616    1.0000 </r>
       <r>   -0.0207    1.0000 </r>
       <r>    0.1770    1.0000 </r>
       <r>    0.5558    1.0000 </r>
       <r>    0.7071    1.0000 </r>
       <r>    0.9416    1.0000 </r>
       <r>    1.0672    1.0000 </r>
       <r>    1.4540    1.0000 </r>
       <r>    1.5543    1.0000 </r>
       <r>    1.6886    1.0000 </r>
       <r>    1.9276    1.0000 </r>
       <r>    1.9703    1.0000 </r>
       <r>    2.2372    1.0000 </r>
       <r>    2.4180    1.0000 </r>
       <r>    2.6616    1.0000 </r>
       <r>    2.8215    1.0000 </r>
       <r>    2.8633    1.0000 </r>
       <r>    3.0250    1.0000 </r>
       <r>    4.8943    1.0000 </r>
       <r>    8.3111    0.0000 </r>
       <r>    9.0450    0.0000 </r>
       <r>    9.3064    0.0000 </r>
       <r>   11.0338    0.0000 </r>
       <r>   11.8752    0.0000 </r>
       <r>   12.5771    0.0000 </r>
       <r>   12.7605    0.0000 </r>
       <r>   12.9089    0.0000 </r>
       <r>   13.2861    0.0000 </r>
       <r>   13.4714    0.0000 </r>
       <r>   13.7537    0.0000 </r>
       <r>   14.1206    0.0000 </r>
       <r>   14.3406    0.0000 </r>
       <r>   14.3782    0.0000 </r>
       <r>   14.7241    0.0000 </r>
       <r>   15.0681    0.0000 </r>
       <r>   15.4396    0.0000 </r>
       <r>   15.8436    0.0000 </r>
       <r>   16.3624    0.0000 </r>
      </set>
      <set comment="kpoint 14">
       <r>  -14.2384    1.0000 </r>
       <r>  -13.0154    1.0000 </r>
       <r>  -12.7885    1.0000 </r>
       <r>  -12.5654    1.0000 </r>
       <r>  -12.3696    1.0000 </r>
       <r>  -12.2598    1.0000 </r>
       <r>  -12.1635    1.0000 </r>
       <r>   -0.9508    1.0000 </r>
       <r>   -0.7883    1.0000 </r>
       <r>   -0.7140    1.0000 </r>
       <r>   -0.3518    1.0000 </r>
       <r>    0.0475    1.0000 </r>
       <r>    0.2069    1.0000 </r>
       <r>    0.5162    1.0000 </r>
       <r>    0.6956    1.0000 </r>
       <r>    0.9485    1.0000 </r>
       <r>    1.0254    1.0000 </r>
       <r>    1.3183    1.0000 </r>
       <r>    1.6254    1.0000 </r>
       <r>    1.6890    1.0000 </r>
       <r>    1.7959    1.0000 </r>
       <r>    1.9389    1.0000 </r>
       <r>    2.3233    1.0000 </r>
       <r>    2.4460    1.0000 </r>
       <r>    2.6234    1.0000 </r>
       <r>    2.8013    1.0000 </r>
       <r>    2.9052    1.0000 </r>
       <r>    3.0329    1.0000 </r>
       <r>    5.0318    1.0000 </r>
       <r>    7.9310    0.0000 </r>
       <r>    8.9249    0.0000 </r>
       <r>    9.7751    0.0000 </r>
       <r>   11.0124    0.0000 </r>
       <r>   11.9378    0.0000 </r>
       <r>   12.3186    0.0000 </r>
       <r>   12.6192    0.0000 </r>
       <r>   12.9744    0.0000 </r>
       <r>   13.1353    0.0000 </r>
       <r>   13.6657    0.0000 </r>
       <r>   13.8260    0.0000 </r>
       <r>   14.1244    0.0000 </r>
       <r>   14.4167    0.0000 </r>
       <r>   14.5702    0.0000 </r>
       <r>   14.7694    0.0000 </r>
       <r>   15.0123    0.0000 </r>
       <r>   15.6390    0.0000 </r>
       <r>   15.9591    0.0000 </r>
       <r>   16.4051    0.0000 </r>
      </set>
      <set comment="kpoint 15">
       <r>  -14.2374    1.0000 </r>
       <r>  -13.0216    1.0000 </r>
       <r>  -12.7827    1.0000 </r>
       <r>  -12.5744    1.0000 </r>
       <r>  -12.3416    1.0000 </r>
       <r>  -12.2860    1.0000 </r>
       <r>  -12.1567    1.0000 </r>
       <r>   -0.9767    1.0000 </r>
       <r>   -0.8014    1.0000 </r>
       <r>   -0.6827    1.0000 </r>
       <r>   -0.3193    1.0000 </r>
       <r>    0.0632    1.0000 </r>
       <r>    0.2102    1.0000 </r>
       <r>    0.4631    1.0000 </r>
       <r>    0.6588    1.0000 </r>
       <r>    0.9522    1.0000 </r>
       <r>    1.0068    1.0000 </r>
       <r>    1.3686    1.0000 </r>
       <r>    1.5879    1.0000 </r>
       <r>    1.7662    1.0000 </r>
       <r>    1.8256    1.0000 </r>
       <r>    1.9301    1.0000 </r>
       <r>    2.2709    1.0000 </r>
       <r>    2.4486    1.0000 </r>
       <r>    2.5895    1.0000 </r>
       <r>    2.8021    1.0000 </r>
       <r>    2.9251    1.0000 </r>
       <r>    3.0460    1.0000 </r>
       <r>    5.0649    1.0000 </r>
       <r>    7.8565    0.0000 </r>
       <r>    8.8750    0.0000 </r>
       <r>    9.9886    0.0000 </r>
       <r>   10.9020    0.0000 </r>
       <r>   11.9054    0.0000 </r>
       <r>   12.3419    0.0000 </r>
       <r>   12.4420    0.0000 </r>
       <r>   12.9687    0.0000 </r>
       <r>   13.1647    0.0000 </r>
       <r>   13.5301    0.0000 </r>
       <r>   13.8747    0.0000 </r>
       <r>   14.1882    0.0000 </r>
       <r>   14.5699    0.0000 </r>
       <r>   14.7040    0.0000 </r>
       <r>   14.9966    0.0000 </r>
       <r>   15.0848    0.0000 </r>
       <r>   15.4877    0.0000 </r>
       <r>   15.8439    0.0000 </r>
       <r>   16.2167    0.0000 </r>
      </set>
      <set comment="kpoint 16">
       <r>  -14.2359    1.0000 </r>
       <r>  -13.0715    1.0000 </r>
       <r>  -12.7292    1.0000 </r>
       <r>  -12.5422    1.0000 </r>
       <r>  -12.3581    1.0000 </r>
       <r>  -12.2762    1.0000 </r>
       <r>  -12.1861    1.0000 </r>
       <r>   -0.9723    1.0000 </r>
       <r>   -0.8355    1.0000 </r>
       <r>   -0.7221    1.0000 </r>
       <r>   -0.3177    1.0000 </r>
       <r>    0.0107    1.0000 </r>
       <r>    0.1906    1.0000 </r>
       <r>    0.5363    1.0000 </r>
       <r>    0.6362    1.0000 </r>
       <r>    0.9596    1.0000 </r>
       <r>    1.0581    1.0000 </r>
       <r>    1.4441    1.0000 </r>
       <r>    1.5728    1.0000 </r>
       <r>    1.7128    1.0000 </r>
       <r>    1.9323    1.0000 </r>
       <r>    1.9857    1.0000 </r>
       <r>    2.2050    1.0000 </r>
       <r>    2.4237    1.0000 </r>
       <r>    2.6243    1.0000 </r>
       <r>    2.8211    1.0000 </r>
       <r>    2.8709    1.0000 </r>
       <r>    3.0488    1.0000 </r>
       <r>    4.9427    1.0000 </r>
       <r>    8.1153    0.0000 </r>
       <r>    9.1224    0.0000 </r>
       <r>    9.4408    0.0000 </r>
       <r>   10.9311    0.0000 </r>
       <r>   11.9231    0.0000 </r>
       <r>   12.4870    0.0000 </r>
       <r>   12.6839    0.0000 </r>
       <r>   12.7877    0.0000 </r>
       <r>   13.2158    0.0000 </r>
       <r>   13.4981    0.0000 </r>
       <r>   13.8158    0.0000 </r>
       <r>   14.2895    0.0000 </r>
       <r>   14.4772    0.0000 </r>
       <r>   14.5849    0.0000 </r>
       <r>   14.8258    0.0000 </r>
       <r>   14.9490    0.0000 </r>
       <r>   15.5442    0.0000 </r>
       <r>   15.7192    0.0000 </r>
       <r>   16.3531    0.0000 </r>
      </set>
     </set>
     <set comment="spin 2">
      <set comment="kpoint 1">
       <r>  -14.3009    1.0000 </r>
       <r>  -13.1609    1.0000 </r>
       <r>  -12.6293    1.0000 </r>
       <r>  -12.4994    1.0000 </r>
       <r>  -12.3314    1.0000 </r>
       <r>  -12.2206    1.0000 </r>
       <r>  -12.1845    1.0000 </r>
       <r>   -1.2947    1.0000 </r>
       <r>   -1.2148    1.0000 </r>
       <r>   -1.0702    1.0000 </r>
       <r>   -0.6231    1.0000 </r>
       <r>   -0.3944    1.0000 </r>
       <r>    0.0100    1.0000 </r>
       <r>    0.0823    1.0000 </r>
       <r>    1.0049    1.0000 </r>
       <r>    1.4122    1.0000 </r>
       <r>    1.4527    1.0000 </r>
       <r>    1.7624    1.0000 </r>
       <r>    1.8488    1.0000 </r>
       <r>    2.0551    1.0000 </r>
       <r>    2.1244    1.0000 </r>
       <r>    2.3847    1.0000 </r>
       <r>    2.4396    1.0000 </r>
       <r>    2.7528    1.0000 </r>
       <r>    2.9059    1.0000 </r>
       <r>    2.9576    1.0000 </r>
       <r>    3.0515    1.0000 </r>
       <r>    3.0991    1.0000 </r>
       <r>    3.9498    1.0000 </r>
       <r>    8.6784    0.0000 </r>
       <r>    9.7211    0.0000 </r>
       <r>    9.7606    0.0000 </r>
       <r>   10.5158    0.0000 </r>
       <r>   11.3571    0.0000 </r>
       <r>   11.5889    0.0000 </r>
       <r>   11.7295    0.0000 </r>
       <r>   12.1520    0.0000 </r>
       <r>   12.4341    0.0000 </r>
       <r>   12.8186    0.0000 </r>
       <r>   13.2124    0.0000 </r>
       <r>   13.2912    0.0000 </r>
       <r>   13.5131    0.0000 </r>
       <r>   14.9789    0.0000 </r>
       <r>   15.2169    0.0000 </r>
       <r>   15.3236    0.0000 </r>
       <r>   15.6837    0.0000 </r>
       <r>   17.1569    0.0000 </r>
       <r>   17.3037    0.0000 </r>
      </set>
      <set comment="kpoint 2">
       <r>  -14.3003    1.0000 </r>
       <r>  -13.1605    1.0000 </r>
       <r>  -12.6321    1.0000 </r>
       <r>  -12.4995    1.0000 </r>
       <r>  -12.3379    1.0000 </r>
       <r>  -12.2192    1.0000 </r>
       <r>  -12.1774    1.0000 </r>
       <r>   -1.3379    1.0000 </r>
       <r>   -1.2147    1.0000 </r>
       <r>   -1.0297    1.0000 </r>
       <r>   -0.5542    1.0000 </r>
       <r>   -0.3906    1.0000 </r>
       <r>   -0.0692    1.0000 </r>
       <r>    0.0676    1.0000 </r>
       <r>    1.0011    1.0000 </r>
       <r>    1.4350    1.0000 </r>
       <r>    1.4578    1.0000 </r>
       <r>    1.7939    1.0000 </r>
       <r>    1.8405    1.0000 </r>
       <r>    2.0702    1.0000 </r>
       <r>    2.0902    1.0000 </r>
       <r>    2.3915    1.0000 </r>
       <r>    2.4843    1.0000 </r>
       <r>    2.6569    1.0000 </r>
       <r>    2.9024    1.0000 </r>
       <r>    2.9681    1.0000 </r>
       <r>    3.0411    1.0000 </r>
       <r>    3.1245    1.0000 </r>
       <r>    3.9907    1.0000 </r>
       <r>    8.6296    0.0000 </r>
       <r>    9.6803    0.0000 </r>
       <r>    9.7572    0.0000 </r>
       <r>   10.6645    0.0000 </r>
       <r>   11.3097    0.0000 </r>
       <r>   11.4895    0.0000 </r>
       <r>   11.6320    0.0000 </r>
       <r>   12.1420    0.0000 </r>
       <r>   12.5246    0.0000 </r>
       <r>   12.9111    0.0000 </r>
       <r>   13.1506    0.0000 </r>
       <r>   13.2905    0.0000 </r>
       <r>   13.4648    0.0000 </r>
       <r>   15.0743    0.0000 </r>
       <r>   15.3221    0.0000 </r>
       <r>   15.4169    0.0000 </r>
       <r>   15.6498    0.0000 </r>
       <r>   17.1407    0.0000 </r>
       <r>   17.2266    0.0000 </r>
      </set>
      <set comment="kpoint 3">
       <r>  -14.3003    1.0000 </r>
       <r>  -13.1604    1.0000 </r>
       <r>  -12.6325    1.0000 </r>
       <r>  -12.4995    1.0000 </r>
       <r>  -12.3370    1.0000 </r>
       <r>  -12.2195    1.0000 </r>
       <r>  -12.1776    1.0000 </r>
       <r>   -1.3374    1.0000 </r>
       <r>   -1.2173    1.0000 </r>
       <r>   -1.0279    1.0000 </r>
       <r>   -0.5555    1.0000 </r>
       <r>   -0.3900    1.0000 </r>
       <r>   -0.0699    1.0000 </r>
       <r>    0.0693    1.0000 </r>
       <r>    1.0015    1.0000 </r>
       <r>    1.4354    1.0000 </r>
       <r>    1.4582    1.0000 </r>
       <r>    1.7933    1.0000 </r>
       <r>    1.8406    1.0000 </r>
       <r>    2.0698    1.0000 </r>
       <r>    2.0903    1.0000 </r>
       <r>    2.3915    1.0000 </r>
       <r>    2.4839    1.0000 </r>
       <r>    2.6560    1.0000 </r>
       <r>    2.9034    1.0000 </r>
       <r>    2.9701    1.0000 </r>
       <r>    3.0406    1.0000 </r>
       <r>    3.1244    1.0000 </r>
       <r>    3.9899    1.0000 </r>
       <r>    8.6281    0.0000 </r>
       <r>    9.6793    0.0000 </r>
       <r>    9.7602    0.0000 </r>
       <r>   10.6645    0.0000 </r>
       <r>   11.3099    0.0000 </r>
       <r>   11.4904    0.0000 </r>
       <r>   11.6284    0.0000 </r>
       <r>   12.1432    0.0000 </r>
       <r>   12.5217    0.0000 </r>
       <r>   12.9123    0.0000 </r>
       <r>   13.1501    0.0000 </r>
       <r>   13.2889    0.0000 </r>
       <r>   13.4669    0.0000 </r>
       <r>   15.0771    0.0000 </r>
       <r>   15.3223    0.0000 </r>
       <r>   15.4145    0.0000 </r>
       <r>   15.6487    0.0000 </r>
       <r>   17.1414    0.0000 </r>
       <r>   17.2252    0.0000 </r>
      </set>
      <set comment="kpoint 4">
       <r>  -14.3009    1.0000 </r>
       <r>  -13.1610    1.0000 </r>
       <r>  -12.6296    1.0000 </r>
       <r>  -12.4994    1.0000 </r>
       <r>  -12.3311    1.0000 </r>
       <r>  -12.2203    1.0000 </r>
       <r>  -12.1847    1.0000 </r>
       <r>   -1.2957    1.0000 </r>
       <r>   -1.2125    1.0000 </r>
       <r>   -1.0711    1.0000 </r>
       <r>   -0.6221    1.0000 </r>
       <r>   -0.3945    1.0000 </r>
       <r>    0.0089    1.0000 </r>
       <r>    0.0811    1.0000 </r>
       <r>    1.0025    1.0000 </r>
       <r>    1.4123    1.0000 </r>
       <r>    1.4540    1.0000 </r>
       <r>    1.7634    1.0000 </r>
       <r>    1.8485    1.0000 </r>
       <r>    2.0543    1.0000 </r>
       <r>    2.1258    1.0000 </r>
       <r>    2.3852    1.0000 </r>
       <r>    2.4414    1.0000 </r>
       <r>    2.7510    1.0000 </r>
       <r>    2.9066    1.0000 </r>
       <r>    2.9569    1.0000 </r>
       <r>    3.0518    1.0000 </r>
       <r>    3.0990    1.0000 </r>
       <r>    3.9506    1.0000 </r>
       <r>    8.6797    0.0000 </r>
       <r>    9.7178    0.0000 </r>
       <r>    9.7608    0.0000 </r>
       <r>   10.5165    0.0000 </r>
       <r>   11.3550    0.0000 </r>
       <r>   11.5868    0.0000 </r>
       <r>   11.7306    0.0000 </r>
       <r>   12.1520    0.0000 </r>
       <r>   12.4354    0.0000 </r>
       <r>   12.8186    0.0000 </r>
       <r>   13.2120    0.0000 </r>
       <r>   13.2940    0.0000 </r>
       <r>   13.5146    0.0000 </r>
       <r>   14.9772    0.0000 </r>
       <r>   15.2161    0.0000 </r>
       <r>   15.3247    0.0000 </r>
       <r>   15.6839    0.0000 </r>
       <r>   17.1526    0.0000 </r>
       <r>   17.3081    0.0000 </r>
      </set>
      <set comment="kpoint 5">
       <r>  -14.2374    1.0000 </r>
       <r>  -13.0219    1.0000 </r>
       <r>  -12.7821    1.0000 </r>
       <r>  -12.5745    1.0000 </r>
       <r>  -12.3426    1.0000 </r>
       <r>  -12.2851    1.0000 </r>
       <r>  -12.1566    1.0000 </r>
       <r>   -0.9765    1.0000 </r>
       <r>   -0.7999    1.0000 </r>
       <r>   -0.6821    1.0000 </r>
       <r>   -0.3199    1.0000 </r>
       <r>    0.0614    1.0000 </r>
       <r>    0.2100    1.0000 </r>
       <r>    0.4631    1.0000 </r>
       <r>    0.6599    1.0000 </r>
       <r>    0.9503    1.0000 </r>
       <r>    1.0069    1.0000 </r>
       <r>    1.3678    1.0000 </r>
       <r>    1.5900    1.0000 </r>
       <r>    1.7654    1.0000 </r>
       <r>    1.8243    1.0000 </r>
       <r>    1.9322    1.0000 </r>
       <r>    2.2722    1.0000 </r>
       <r>    2.4473    1.0000 </r>
       <r>    2.5890    1.0000 </r>
       <r>    2.8016    1.0000 </r>
       <r>    2.9248    1.0000 </r>
       <r>    3.0469    1.0000 </r>
       <r>    5.0651    1.0000 </r>
       <r>    7.8582    0.0000 </r>
       <r>    8.8727    0.0000 </r>
       <r>    9.9886    0.0000 </r>
       <r>   10.9038    0.0000 </r>
       <r>   11.9048    0.0000 </r>
       <r>   12.3430    0.0000 </r>
       <r>   12.4418    0.0000 </r>
       <r>   12.9699    0.0000 </r>
       <r>   13.1624    0.0000 </r>
       <r>   13.5341    0.0000 </r>
       <r>   13.8751    0.0000 </r>
       <r>   14.1886    0.0000 </r>
       <r>   14.5688    0.0000 </r>
       <r>   14.7020    0.0000 </r>
       <r>   14.9983    0.0000 </r>
       <r>   15.0832    0.0000 </r>
       <r>   15.4894    0.0000 </r>
       <r>   15.8436    0.0000 </r>
       <r>   16.2110    0.0000 </r>
      </set>
      <set comment="kpoint 6">
       <r>  -14.2383    1.0000 </r>
       <r>  -13.0154    1.0000 </r>
       <r>  -12.7889    1.0000 </r>
       <r>  -12.5652    1.0000 </r>
       <r>  -12.3691    1.0000 </r>
       <r>  -12.2600    1.0000 </r>
       <r>  -12.1635    1.0000 </r>
       <r>   -0.9507    1.0000 </r>
       <r>   -0.7870    1.0000 </r>
       <r>   -0.7130    1.0000 </r>
       <r>   -0.3530    1.0000 </r>
       <r>    0.0466    1.0000 </r>
       <r>    0.2057    1.0000 </r>
       <r>    0.5143    1.0000 </r>
       <r>    0.6958    1.0000 </r>
       <r>    0.9471    1.0000 </r>
       <r>    1.0256    1.0000 </r>
       <r>    1.3180    1.0000 </r>
       <r>    1.6278    1.0000 </r>
       <r>    1.6900    1.0000 </r>
       <r>    1.7964    1.0000 </r>
       <r>    1.9412    1.0000 </r>
       <r>    2.3237    1.0000 </r>
       <r>    2.4452    1.0000 </r>
       <r>    2.6216    1.0000 </r>
       <r>    2.8012    1.0000 </r>
       <r>    2.9061    1.0000 </r>
       <r>    3.0326    1.0000 </r>
       <r>    5.0326    1.0000 </r>
       <r>    7.9320    0.0000 </r>
       <r>    8.9225    0.0000 </r>
       <r>    9.7756    0.0000 </r>
       <r>   11.0124    0.0000 </r>
       <r>   11.9352    0.0000 </r>
       <r>   12.3173    0.0000 </r>
       <r>   12.6178    0.0000 </r>
       <r>   12.9759    0.0000 </r>
       <r>   13.1369    0.0000 </r>
       <r>   13.6685    0.0000 </r>
       <r>   13.8243    0.0000 </r>
       <r>   14.1233    0.0000 </r>
       <r>   14.4184    0.0000 </r>
       <r>   14.5704    0.0000 </r>
       <r>   14.7725    0.0000 </r>
       <r>   15.0134    0.0000 </r>
       <r>   15.6396    0.0000 </r>
       <r>   15.9591    0.0000 </r>
       <r>   16.3993    0.0000 </r>
      </set>
      <set comment="kpoint 7">
       <r>  -14.2360    1.0000 </r>
       <r>  -13.0713    1.0000 </r>
       <r>  -12.7293    1.0000 </r>
       <r>  -12.5421    1.0000 </r>
       <r>  -12.3576    1.0000 </r>
       <r>  -12.2767    1.0000 </r>
       <r>  -12.1860    1.0000 </r>
       <r>   -0.9715    1.0000 </r>
       <r>   -0.8386    1.0000 </r>
       <r>   -0.7221    1.0000 </r>
       <r>   -0.3167    1.0000 </r>
       <r>    0.0116    1.0000 </r>
       <r>    0.1899    1.0000 </r>
       <r>    0.5384    1.0000 </r>
       <r>    0.6362    1.0000 </r>
       <r>    0.9597    1.0000 </r>
       <r>    1.0579    1.0000 </r>
       <r>    1.4416    1.0000 </r>
       <r>    1.5724    1.0000 </r>
       <r>    1.7138    1.0000 </r>
       <r>    1.9337    1.0000 </r>
       <r>    1.9899    1.0000 </r>
       <r>    2.2007    1.0000 </r>
       <r>    2.4243    1.0000 </r>
       <r>    2.6226    1.0000 </r>
       <r>    2.8200    1.0000 </r>
       <r>    2.8736    1.0000 </r>
       <r>    3.0488    1.0000 </r>
       <r>    4.9428    1.0000 </r>
       <r>    8.1121    0.0000 </r>
       <r>    9.1260    0.0000 </r>
       <r>    9.4412    0.0000 </r>
       <r>   10.9297    0.0000 </r>
       <r>   11.9234    0.0000 </r>
       <r>   12.4854    0.0000 </r>
       <r>   12.6833    0.0000 </r>
       <r>   12.7854    0.0000 </r>
       <r>   13.2168    0.0000 </r>
       <r>   13.4972    0.0000 </r>
       <r>   13.8144    0.0000 </r>
       <r>   14.2934    0.0000 </r>
       <r>   14.4793    0.0000 </r>
       <r>   14.5847    0.0000 </r>
       <r>   14.8221    0.0000 </r>
       <r>   14.9517    0.0000 </r>
       <r>   15.5430    0.0000 </r>
       <r>   15.7208    0.0000 </r>
       <r>   16.3507    0.0000 </r>
      </set>
      <set comment="kpoint 8">
       <r>  -14.2379    1.0000 </r>
       <r>  -13.0114    1.0000 </r>
       <r>  -12.7854    1.0000 </r>
       <r>  -12.5967    1.0000 </r>
       <r>  -12.3205    1.0000 </r>
       <r>  -12.2849    1.0000 </r>
       <r>  -12.1636    1.0000 </r>
       <r>   -1.0030    1.0000 </r>
       <r>   -0.7803    1.0000 </r>
       <r>   -0.6503    1.0000 </r>
       <r>   -0.3332    1.0000 </r>
       <r>    0.0585    1.0000 </r>
       <r>    0.2199    1.0000 </r>
       <r>    0.4055    1.0000 </r>
       <r>    0.7058    1.0000 </r>
       <r>    0.9171    1.0000 </r>
       <r>    1.0403    1.0000 </r>
       <r>    1.3461    1.0000 </r>
       <r>    1.5956    1.0000 </r>
       <r>    1.7938    1.0000 </r>
       <r>    1.8311    1.0000 </r>
       <r>    1.9372    1.0000 </r>
       <r>    2.2548    1.0000 </r>
       <r>    2.4321    1.0000 </r>
       <r>    2.5788    1.0000 </r>
       <r>    2.7900    1.0000 </r>
       <r>    2.9508    1.0000 </r>
       <r>    3.0403    1.0000 </r>
       <r>    5.0758    1.0000 </r>
       <r>    7.8788    0.0000 </r>
       <r>    8.8019    0.0000 </r>
       <r>   10.0151    0.0000 </r>
       <r>   10.9135    0.0000 </r>
       <r>   11.8299    0.0000 </r>
       <r>   12.3463    0.0000 </r>
       <r>   12.5085    0.0000 </r>
       <r>   12.9455    0.0000 </r>
       <r>   13.1519    0.0000 </r>
       <r>   13.5696    0.0000 </r>
       <r>   13.9135    0.0000 </r>
       <r>   14.1556    0.0000 </r>
       <r>   14.5551    0.0000 </r>
       <r>   14.7394    0.0000 </r>
       <r>   14.9473    0.0000 </r>
       <r>   15.0767    0.0000 </r>
       <r>   15.5585    0.0000 </r>
       <r>   15.8191    0.0000 </r>
       <r>   16.1883    0.0000 </r>
      </set>
      <set comment="kpoint 9">
       <r>  -14.2380    1.0000 </r>
       <r>  -13.0256    1.0000 </r>
       <r>  -12.7727    1.0000 </r>
       <r>  -12.5765    1.0000 </r>
       <r>  -12.3342    1.0000 </r>
       <r>  -12.2942    1.0000 </r>
       <r>  -12.1591    1.0000 </r>
       <r>   -0.9679    1.0000 </r>
       <r>   -0.7910    1.0000 </r>
       <r>   -0.6754    1.0000 </r>
       <r>   -0.3608    1.0000 </r>
       <r>    0.0379    1.0000 </r>
       <r>    0.2048    1.0000 </r>
       <r>    0.4586    1.0000 </r>
       <r>    0.7323    1.0000 </r>
       <r>    0.9421    1.0000 </r>
       <r>    1.0421    1.0000 </r>
       <r>    1.3044    1.0000 </r>
       <r>    1.6461    1.0000 </r>
       <r>    1.7144    1.0000 </r>
       <r>    1.8075    1.0000 </r>
       <r>    1.9493    1.0000 </r>
       <r>    2.2905    1.0000 </r>
       <r>    2.4235    1.0000 </r>
       <r>    2.6330    1.0000 </r>
       <r>    2.8085    1.0000 </r>
       <r>    2.9200    1.0000 </r>
       <r>    3.0195    1.0000 </r>
       <r>    5.0123    1.0000 </r>
       <r>    8.0001    0.0000 </r>
       <r>    8.8154    0.0000 </r>
       <r>    9.8670    0.0000 </r>
       <r>   11.0506    0.0000 </r>
       <r>   11.8603    0.0000 </r>
       <r>   12.3544    0.0000 </r>
       <r>   12.6549    0.0000 </r>
       <r>   12.9644    0.0000 </r>
       <r>   13.1454    0.0000 </r>
       <r>   13.5802    0.0000 </r>
       <r>   13.8324    0.0000 </r>
       <r>   14.0909    0.0000 </r>
       <r>   14.3509    0.0000 </r>
       <r>   14.6009    0.0000 </r>
       <r>   14.8503    0.0000 </r>
       <r>   15.0147    0.0000 </r>
       <r>   15.6517    0.0000 </r>
       <r>   15.8897    0.0000 </r>
       <r>   16.4126    0.0000 </r>
      </set>
      <set comment="kpoint 10">
       <r>  -14.2365    1.0000 </r>
       <r>  -13.0730    1.0000 </r>
       <r>  -12.7242    1.0000 </r>
       <r>  -12.5421    1.0000 </r>
       <r>  -12.3497    1.0000 </r>
       <r>  -12.2848    1.0000 </r>
       <r>  -12.1888    1.0000 </r>
       <r>   -0.9716    1.0000 </r>
       <r>   -0.8304    1.0000 </r>
       <r>   -0.6939    1.0000 </r>
       <r>   -0.3627    1.0000 </r>
       <r>   -0.0217    1.0000 </r>
       <r>    0.1764    1.0000 </r>
       <r>    0.5536    1.0000 </r>
       <r>    0.7073    1.0000 </r>
       <r>    0.9415    1.0000 </r>
       <r>    1.0668    1.0000 </r>
       <r>    1.4560    1.0000 </r>
       <r>    1.5565    1.0000 </r>
       <r>    1.6894    1.0000 </r>
       <r>    1.9253    1.0000 </r>
       <r>    1.9686    1.0000 </r>
       <r>    2.2414    1.0000 </r>
       <r>    2.4174    1.0000 </r>
       <r>    2.6611    1.0000 </r>
       <r>    2.8222    1.0000 </r>
       <r>    2.8624    1.0000 </r>
       <r>    3.0247    1.0000 </r>
       <r>    4.8950    1.0000 </r>
       <r>    8.3127    0.0000 </r>
       <r>    9.0436    0.0000 </r>
       <r>    9.3053    0.0000 </r>
       <r>   11.0342    0.0000 </r>
       <r>   11.8734    0.0000 </r>
       <r>   12.5772    0.0000 </r>
       <r>   12.7592    0.0000 </r>
       <r>   12.9079    0.0000 </r>
       <r>   13.2842    0.0000 </r>
       <r>   13.4700    0.0000 </r>
       <r>   13.7574    0.0000 </r>
       <r>   14.1207    0.0000 </r>
       <r>   14.3402    0.0000 </r>
       <r>   14.3826    0.0000 </r>
       <r>   14.7251    0.0000 </r>
       <r>   15.0687    0.0000 </r>
       <r>   15.4460    0.0000 </r>
       <r>   15.8378    0.0000 </r>
       <r>   16.3625    0.0000 </r>
      </set>
      <set comment="kpoint 11">
       <r>  -14.2379    1.0000 </r>
       <r>  -13.0255    1.0000 </r>
       <r>  -12.7732    1.0000 </r>
       <r>  -12.5763    1.0000 </r>
       <r>  -12.3325    1.0000 </r>
       <r>  -12.2957    1.0000 </r>
       <r>  -12.1589    1.0000 </r>
       <r>   -0.9675    1.0000 </r>
       <r>   -0.7898    1.0000 </r>
       <r>   -0.6745    1.0000 </r>
       <r>   -0.3620    1.0000 </r>
       <r>    0.0369    1.0000 </r>
       <r>    0.2035    1.0000 </r>
       <r>    0.4561    1.0000 </r>
       <r>    0.7325    1.0000 </r>
       <r>    0.9410    1.0000 </r>
       <r>    1.0434    1.0000 </r>
       <r>    1.3050    1.0000 </r>
       <r>    1.6489    1.0000 </r>
       <r>    1.7152    1.0000 </r>
       <r>    1.8069    1.0000 </r>
       <r>    1.9491    1.0000 </r>
       <r>    2.2910    1.0000 </r>
       <r>    2.4241    1.0000 </r>
       <r>    2.6314    1.0000 </r>
       <r>    2.8088    1.0000 </r>
       <r>    2.9200    1.0000 </r>
       <r>    3.0195    1.0000 </r>
       <r>    5.0130    1.0000 </r>
       <r>    8.0015    0.0000 </r>
       <r>    8.8127    0.0000 </r>
       <r>    9.8677    0.0000 </r>
       <r>   11.0505    0.0000 </r>
       <r>   11.8571    0.0000 </r>
       <r>   12.3543    0.0000 </r>
       <r>   12.6551    0.0000 </r>
       <r>   12.9628    0.0000 </r>
       <r>   13.1483    0.0000 </r>
       <r>   13.5782    0.0000 </r>
       <r>   13.8315    0.0000 </r>
       <r>   14.0932    0.0000 </r>
       <r>   14.3510    0.0000 </r>
       <r>   14.6037    0.0000 </r>
       <r>   14.8530    0.0000 </r>
       <r>   15.0171    0.0000 </r>
       <r>   15.6521    0.0000 </r>
       <r>   15.8872    0.0000 </r>
       <r>   16.4131    0.0000 </r>
      </set>
      <set comment="kpoint 12">
       <r>  -14.2378    1.0000 </r>
       <r>  -13.0118    1.0000 </r>
       <r>  -12.7848    1.0000 </r>
       <r>  -12.5969    1.0000 </r>
       <r>  -12.3212    1.0000 </r>
       <r>  -12.2844    1.0000 </r>
       <r>  -12.1633    1.0000 </r>
       <r>   -1.0028    1.0000 </r>
       <r>   -0.7786    1.0000 </r>
       <r>   -0.6501    1.0000 </r>
       <r>   -0.3337    1.0000 </r>
       <r>    0.0570    1.0000 </r>
       <r>    0.2200    1.0000 </r>
       <r>    0.4044    1.0000 </r>
       <r>    0.7067    1.0000 </r>
       <r>    0.9154    1.0000 </r>
       <r>    1.0420    1.0000 </r>
       <r>    1.3455    1.0000 </r>
       <r>    1.5970    1.0000 </r>
       <r>    1.7929    1.0000 </r>
       <r>    1.8282    1.0000 </r>
       <r>    1.9390    1.0000 </r>
       <r>    2.2563    1.0000 </r>
       <r>    2.4317    1.0000 </r>
       <r>    2.5786    1.0000 </r>
       <r>    2.7902    1.0000 </r>
       <r>    2.9494    1.0000 </r>
       <r>    3.0412    1.0000 </r>
       <r>    5.0759    1.0000 </r>
       <r>    7.8814    0.0000 </r>
       <r>    8.7988    0.0000 </r>
       <r>   10.0151    0.0000 </r>
       <r>   10.9153    0.0000 </r>
       <r>   11.8282    0.0000 </r>
       <r>   12.3480    0.0000 </r>
       <r>   12.5095    0.0000 </r>
       <r>   12.9462    0.0000 </r>
       <r>   13.1507    0.0000 </r>
       <r>   13.5715    0.0000 </r>
       <r>   13.9131    0.0000 </r>
       <r>   14.1563    0.0000 </r>
       <r>   14.5542    0.0000 </r>
       <r>   14.7381    0.0000 </r>
       <r>   14.9487    0.0000 </r>
       <r>   15.0768    0.0000 </r>
       <r>   15.5589    0.0000 </r>
       <r>   15.8183    0.0000 </r>
       <r>   16.1879    0.0000 </r>
      </set>
      <set comment="kpoint 13">
       <r>  -14.2365    1.0000 </r>
       <r>  -13.0731    1.0000 </r>
       <r>  -12.7235    1.0000 </r>
       <r>  -12.5422    1.0000 </r>
       <r>  -12.3514    1.0000 </r>
       <r>  -12.2837    1.0000 </r>
       <r>  -12.1888    1.0000 </r>
       <r>   -0.9720    1.0000 </r>
       <r>   -0.8334    1.0000 </r>
       <r>   -0.6922    1.0000 </r>
       <r>   -0.3616    1.0000 </r>
       <r>   -0.0207    1.0000 </r>
       <r>    0.1770    1.0000 </r>
       <r>    0.5559    1.0000 </r>
       <r>    0.7071    1.0000 </r>
       <r>    0.9416    1.0000 </r>
       <r>    1.0672    1.0000 </r>
       <r>    1.4540    1.0000 </r>
       <r>    1.5543    1.0000 </r>
       <r>    1.6886    1.0000 </r>
       <r>    1.9276    1.0000 </r>
       <r>    1.9703    1.0000 </r>
       <r>    2.2372    1.0000 </r>
       <r>    2.4180    1.0000 </r>
       <r>    2.6616    1.0000 </r>
       <r>    2.8216    1.0000 </r>
       <r>    2.8633    1.0000 </r>
       <r>    3.0250    1.0000 </r>
       <r>    4.8943    1.0000 </r>
       <r>    8.3111    0.0000 </r>
       <r>    9.0450    0.0000 </r>
       <r>    9.3064    0.0000 </r>
       <r>   11.0338    0.0000 </r>
       <r>   11.8752    0.0000 </r>
       <r>   12.5771    0.0000 </r>
       <r>   12.7605    0.0000 </r>
       <r>   12.9088    0.0000 </r>
       <r>   13.2861    0.0000 </r>
       <r>   13.4714    0.0000 </r>
       <r>   13.7537    0.0000 </r>
       <r>   14.1206    0.0000 </r>
       <r>   14.3406    0.0000 </r>
       <r>   14.3781    0.0000 </r>
       <r>   14.7241    0.0000 </r>
       <r>   15.0681    0.0000 </r>
       <r>   15.4396    0.0000 </r>
       <r>   15.8436    0.0000 </r>
       <r>   16.3623    0.0000 </r>
      </set>
      <set comment="kpoint 14">
       <r>  -14.2384    1.0000 </r>
       <r>  -13.0154    1.0000 </r>
       <r>  -12.7884    1.0000 </r>
       <r>  -12.5654    1.0000 </r>
       <r>  -12.3695    1.0000 </r>
       <r>  -12.2598    1.0000 </r>
       <r>  -12.1635    1.0000 </r>
       <r>   -0.9508    1.0000 </r>
       <r>   -0.7883    1.0000 </r>
       <r>   -0.7140    1.0000 </r>
       <r>   -0.3518    1.0000 </r>
       <r>    0.0475    1.0000 </r>
       <r>    0.2069    1.0000 </r>
       <r>    0.5162    1.0000 </r>
       <r>    0.6956    1.0000 </r>
       <r>    0.9485    1.0000 </r>
       <r>    1.0254    1.0000 </r>
       <r>    1.3183    1.0000 </r>
       <r>    1.6254    1.0000 </r>
       <r>    1.6890    1.0000 </r>
       <r>    1.7959    1.0000 </r>
       <r>    1.9389    1.0000 </r>
       <r>    2.3233    1.0000 </r>
       <r>    2.4460    1.0000 </r>
       <r>    2.6234    1.0000 </r>
       <r>    2.8014    1.0000 </r>
       <r>    2.9052    1.0000 </r>
       <r>    3.0329    1.0000 </r>
       <r>    5.0318    1.0000 </r>
       <r>    7.9310    0.0000 </r>
       <r>    8.9249    0.0000 </r>
       <r>    9.7751    0.0000 </r>
       <r>   11.0124    0.0000 </r>
       <r>   11.9378    0.0000 </r>
       <r>   12.3186    0.0000 </r>
       <r>   12.6192    0.0000 </r>
       <r>   12.9744    0.0000 </r>
       <r>   13.1353    0.0000 </r>
       <r>   13.6657    0.0000 </r>
       <r>   13.8259    0.0000 </r>
       <r>   14.1244    0.0000 </r>
[...]
        <r>  0.0026  0.0109  0.0077  0.0074  0.0000  0.0000  0.0000  0.0000  0.0000 </r>
        <r>  0.0007  0.0022  0.0169  0.0111  0.0000  0.0000  0.0000  0.0000  0.0000 </r>
        <r>  0.0069  0.0147  0.0049  0.0072  0.0000  0.0000  0.0000  0.0000  0.0000 </r>
        <r>  0.0075  0.0014  0.0011  0.0000  0.0000  0.0000  0.0000  0.0000  0.0000 </r>
        <r>  0.0070  0.0025  0.0087  0.0036  0.0000  0.0000  0.0000  0.0000  0.0000 </r>
        <r>  0.0018  0.0062  0.0016  0.0223  0.0000  0.0000  0.0000  0.0000  0.0000 </r>
        <r>  0.0030  0.0139  0.0093  0.0138  0.0000  0.0000  0.0000  0.0000  0.0000 </r>
       </set>
       <set comment="band 37">
        <r>  0.0035  0.0072  0.0020  0.0010  0.0040  0.0007  0.0022  0.0003  0.0005 </r>
        <r>  0.0001  0.0025  0.0001  0.0027  0.0023  0.0005  0.0002  0.0014  0.0001 </r>
        <r>  0.0047  0.0069  0.0020  0.0003  0.0034  0.0016  0.0006  0.0010  0.0001 </r>
        <r>  0.0056  0.0012  0.0034  0.0007  0.0059  0.0062  0.0001  0.0013  0.0004 </r>
        <r>  0.0075  0.0017  0.0023  0.0036  0.0040  0.0028  0.0010  0.0042  0.0002 </r>
        <r>  0.0082  0.0033  0.0061  0.0020  0.0009  0.0017  0.0004  0.0043  0.0002 </r>
        <r>  0.0108  0.0003  0.0046  0.0010  0.0030  0.0033  0.0011  0.0017  0.0006 </r>
        <r>  0.0024  0.0111  0.0021  0.0200  0.0024  0.0106  0.0007  0.0064  0.0002 </r>
        <r>  0.0105  0.0033  0.0013  0.0007  0.0027  0.0025  0.0001  0.0011  0.0000 </r>
        <r>  0.0024  0.0056  0.0057  0.0075  0.0000  0.0000  0.0000  0.0000  0.0000 </r>
        <r>  0.0062  0.0119  0.0112  0.0105  0.0000  0.0000  0.0000  0.0000  0.0000 </r>
        <r>  0.0007  0.0155  0.0139  0.0011  0.0000  0.0000  0.0000  0.0000  0.0000 </r>
        <r>  0.0060  0.0009  0.0123  0.0024  0.0000  0.0000  0.0000  0.0000  0.0000 </r>
        <r>  0.0073  0.0003  0.0016  0.0001  0.0000  0.0000  0.0000  0.0000  0.0000 </r>
        <r>  0.0014  0.0304  0.0019  0.0038  0.0000  0.0000  0.0000  0.0000  0.0000 </r>
        <r>  0.0013  0.0096  0.0038  0.0179  0.0000  0.0000  0.0000  0.0000  0.0000 </r>
       </set>
       <set comment="band 38">
        <r>  0.0012  0.0089  0.0004  0.0183  0.0011  0.0024  0.0018  0.0024  0.0096 </r>
        <r>  0.0021  0.0129  0.0002  0.0098  0.0001  0.0000  0.0001  0.0003  0.0003 </r>
        <r>  0.0001  0.0156  0.0006  0.0166  0.0000  0.0003  0.0001  0.0000  0.0010 </r>
        <r>  0.0286  0.0028  0.0055  0.0006  0.0000  0.0012  0.0007  0.0018  0.0006 </r>
        <r>  0.0327  0.0002  0.0077  0.0092  0.0005  0.0005  0.0008  0.0033  0.0020 </r>
        <r>  0.0128  0.0003  0.0054  0.0019  0.0001  0.0028  0.0005  0.0029  0.0001 </r>
        <r>  0.0196  0.0007  0.0035  0.0006  0.0003  0.0034  0.0003  0.0021  0.0002 </r>
        <r>  0.0003  0.0005  0.0004  0.0003  0.0000  0.0013  0.0003  0.0031  0.0014 </r>
        <r>  0.0018  0.0001  0.0004  0.0018  0.0001  0.0006  0.0001  0.0007  0.0004 </r>
        <r>  0.0008  0.0008  0.0012  0.0002  0.0000  0.0000  0.0000  0.0000  0.0000 </r>
        <r>  0.0168  0.0016  0.0091  0.0140  0.0000  0.0000  0.0000  0.0000  0.0000 </r>
        <r>  0.0164  0.0085  0.0137  0.0124  0.0000  0.0000  0.0000  0.0000  0.0000 </r>
        <r>  0.0003  0.0141  0.0035  0.0096  0.0000  0.0000  0.0000  0.0000  0.0000 </r>
        <r>  0.0041  0.0160  0.0024  0.0129  0.0000  0.0000  0.0000  0.0000  0.0000 </r>
        <r>  0.0005  0.0100  0.0024  0.0037  0.0000  0.0000  0.0000  0.0000  0.0000 </r>
        <r>  0.0007  0.0093  0.0004  0.0040  0.0000  0.0000  0.0000  0.0000  0.0000 </r>
       </set>
       <set comment="band 39">
        <r>  0.0102  0.0061  0.0147  0.0054  0.0108  0.0005  0.0043  0.0001  0.0001 </r>
        <r>  0.0275  0.0008  0.0004  0.0027  0.0011  0.0006  0.0009  0.0007  0.0000 </r>
        <r>  0.0026  0.0075  0.0006  0.0095  0.0008  0.0002  0.0006  0.0000  0.0001 </r>
        <r>  0.0115  0.0018  0.0021  0.0022  0.0046  0.0007  0.0002  0.0005  0.0001 </r>
        <r>  0.0096  0.0015  0.0005  0.0001  0.0046  0.0001  0.0006  0.0007  0.0001 </r>
        <r>  0.0012  0.0007  0.0023  0.0023  0.0051  0.0006  0.0001  0.0043  0.0004 </r>
        <r>  0.0000  0.0016  0.0027  0.0003  0.0053  0.0036  0.0003  0.0008  0.0005 </r>
        <r>  0.0118  0.0005  0.0109  0.0012  0.0016  0.0005  0.0086  0.0011  0.0001 </r>
        <r>  0.0338  0.0054  0.0009  0.0045  0.0047  0.0001  0.0003  0.0005  0.0000 </r>
        <r>  0.0038  0.0009  0.0260  0.0026  0.0000  0.0000  0.0000  0.0000  0.0000 </r>
        <r>  0.0006  0.0023  0.0077  0.0011  0.0000  0.0000  0.0000  0.0000  0.0000 </r>
        <r>  0.0005  0.0045  0.0054  0.0017  0.0000  0.0000  0.0000  0.0000  0.0000 </r>
        <r>  0.0084  0.0329  0.0012  0.0022  0.0000  0.0000  0.0000  0.0000  0.0000 </r>
        <r>  0.0081  0.0042  0.0033  0.0288  0.0000  0.0000  0.0000  0.0000  0.0000 </r>
        <r>  0.0001  0.0052  0.0080  0.0057  0.0000  0.0000  0.0000  0.0000  0.0000 </r>
        <r>  0.0064  0.0049  0.0219  0.0026  0.0000  0.0000  0.0000  0.0000  0.0000 </r>
       </set>
       <set comment="band 40">
        <r>  0.0028  0.0047  0.0130  0.0025  0.0199  0.0007  0.0147  0.0007  0.0005 </r>
        <r>  0.0021  0.0007  0.0012  0.0021  0.0017  0.0000  0.0001  0.0003  0.0000 </r>
        <r>  0.0120  0.0030  0.0038  0.0015  0.0009  0.0001  0.0010  0.0002  0.0000 </r>
        <r>  0.0146  0.0017  0.0006  0.0119  0.0080  0.0039  0.0001  0.0000  0.0000 </r>
        <r>  0.0017  0.0095  0.0006  0.0007  0.0081  0.0004  0.0001  0.0017  0.0002 </r>
        <r>  0.0047  0.0015  0.0013  0.0002  0.0188  0.0010  0.0001  0.0004  0.0008 </r>
        <r>  0.0046  0.0013  0.0024  0.0022  0.0188  0.0014  0.0003  0.0005  0.0004 </r>
        <r>  0.0084  0.0018  0.0187  0.0002  0.0093  0.0026  0.0050  0.0017  0.0000 </r>
        <r>  0.0072  0.0018  0.0002  0.0004  0.0007  0.0001  0.0004  0.0002  0.0000 </r>
        <r>  0.0015  0.0153  0.0036  0.0105  0.0000  0.0000  0.0000  0.0000  0.0000 </r>
        <r>  0.0003  0.0173  0.0015  0.0010  0.0000  0.0000  0.0000  0.0000  0.0000 </r>
        <r>  0.0021  0.0019  0.0002  0.0109  0.0000  0.0000  0.0000  0.0000  0.0000 </r>
        <r>  0.0000  0.0133  0.0008  0.0107  0.0000  0.0000  0.0000  0.0000  0.0000 </r>
        <r>  0.0006  0.0079  0.0004  0.0059  0.0000  0.0000  0.0000  0.0000  0.0000 </r>
        <r>  0.0098  0.0072  0.0019  0.0180  0.0000  0.0000  0.0000  0.0000  0.0000 </r>
        <r>  0.0019  0.0057  0.0017  0.0010  0.0000  0.0000  0.0000  0.0000  0.0000 </r>
       </set>
       <set comment="band 41">
        <r>  0.0006  0.0008  0.0159  0.0053  0.0011  0.0013  0.0336  0.0075  0.0115 </r>
        <r>  0.0156  0.0009  0.0002  0.0002  0.0004  0.0010  0.0001  0.0008  0.0000 </r>
        <r>  0.0012  0.0058  0.0107  0.0016  0.0001  0.0004  0.0024  0.0004  0.0000 </r>
        <r>  0.0045  0.0103  0.0071  0.0000  0.0001  0.0027  0.0008  0.0008  0.0005 </r>
        <r>  0.0166  0.0014  0.0022  0.0016  0.0000  0.0005  0.0003  0.0035  0.0000 </r>
        <r>  0.0081  0.0015  0.0000  0.0008  0.0013  0.0024  0.0001  0.0037  0.0003 </r>
        <r>  0.0202  0.0134  0.0010  0.0000  0.0016  0.0076  0.0004  0.0021  0.0011 </r>
        <r>  0.0572  0.0029  0.0224  0.0008  0.0009  0.0034  0.0052  0.0012  0.0001 </r>
        <r>  0.0077  0.0044  0.0012  0.0009  0.0009  0.0001  0.0002  0.0006  0.0000 </r>
        <r>  0.0009  0.0011  0.0028  0.0011  0.0000  0.0000  0.0000  0.0000  0.0000 </r>
        <r>  0.0004  0.0016  0.0004  0.0123  0.0000  0.0000  0.0000  0.0000  0.0000 </r>
        <r>  0.0005  0.0159  0.0068  0.0001  0.0000  0.0000  0.0000  0.0000  0.0000 </r>
        <r>  0.0023  0.0059  0.0028  0.0091  0.0000  0.0000  0.0000  0.0000  0.0000 </r>
        <r>  0.0009  0.0106  0.0227  0.0104  0.0000  0.0000  0.0000  0.0000  0.0000 </r>
        <r>  0.0001  0.0022  0.0266  0.0015  0.0000  0.0000  0.0000  0.0000  0.0000 </r>
        <r>  0.0028  0.0051  0.0162  0.0017  0.0000  0.0000  0.0000  0.0000  0.0000 </r>
       </set>
       <set comment="band 42">
        <r>  0.0021  0.0027  0.0089  0.0024  0.0004  0.0016  0.0040  0.0019  0.0263 </r>
        <r>  0.0043  0.0019  0.0002  0.0027  0.0000  0.0017  0.0000  0.0032  0.0003 </r>
        <r>  0.0006  0.0025  0.0017  0.0073  0.0001  0.0023  0.0002  0.0030  0.0002 </r>
        <r>  0.0178  0.0048  0.0016  0.0007  0.0008  0.0011  0.0010  0.0028  0.0002 </r>
        <r>  0.0097  0.0010  0.0006  0.0125  0.0002  0.0000  0.0017  0.0011  0.0013 </r>
        <r>  0.0561  0.0008  0.0041  0.0065  0.0002  0.0006  0.0005  0.0068  0.0003 </r>
        <r>  0.0538  0.0018  0.0034  0.0015  0.0003  0.0002  0.0003  0.0021  0.0005 </r>
        <r>  0.0160  0.0008  0.0048  0.0042  0.0000  0.0011  0.0011  0.0007  0.0005 </r>
        <r>  0.0026  0.0006  0.0001  0.0062  0.0001  0.0003  0.0000  0.0010  0.0000 </r>
        <r>  0.0003  0.0001  0.0025  0.0008  0.0000  0.0000  0.0000  0.0000  0.0000 </r>
        <r>  0.0008  0.0005  0.0048  0.0126  0.0000  0.0000  0.0000  0.0000  0.0000 </r>
        <r>  0.0008  0.0038  0.0038  0.0058  0.0000  0.0000  0.0000  0.0000  0.0000 </r>
        <r>  0.0040  0.0122  0.0460  0.0153  0.0000  0.0000  0.0000  0.0000  0.0000 </r>
        <r>  0.0031  0.0041  0.0233  0.0127  0.0000  0.0000  0.0000  0.0000  0.0000 </r>
        <r>  0.0003  0.0058  0.0022  0.0036  0.0000  0.0000  0.0000  0.0000  0.0000 </r>
        <r>  0.0009  0.0056  0.0049  0.0069  0.0000  0.0000  0.0000  0.0000  0.0000 </r>
       </set>
       <set comment="band 43">
        <r>  0.0003  0.0062  0.0000  0.0001  0.0119  0.0001  0.0008  0.0002  0.0008 </r>
        <r>  0.0184  0.0011  0.0039  0.0004  0.0129  0.0022  0.0001  0.0021  0.0000 </r>
        <r>  0.0006  0.0022  0.0009  0.0002  0.0206  0.0005  0.0002  0.0002  0.0000 </r>
        <r>  0.0018  0.0006  0.0004  0.0000  0.0012  0.0004  0.0000  0.0143  0.0001 </r>
        <r>  0.0006  0.0006  0.0004  0.0003  0.0018  0.0178  0.0000  0.0001  0.0001 </r>
        <r>  0.0013  0.0011  0.0001  0.0001  0.0013  0.0012  0.0000  0.0004  0.0000 </r>
        <r>  0.0008  0.0016  0.0005  0.0024  0.0012  0.0009  0.0001  0.0017  0.0001 </r>
        <r>  0.0015  0.0005  0.0002  0.0002  0.0141  0.0014  0.0000  0.0004  0.0000 </r>
        <r>  0.0095  0.0052  0.0070  0.0055  0.0064  0.0003  0.0000  0.0002  0.0000 </r>
        <r>  0.0004  0.0008  0.0322  0.0005  0.0000  0.0000  0.0000  0.0000  0.0000 </r>
        <r>  0.0001  0.0128  0.0015  0.0006  0.0000  0.0000  0.0000  0.0000  0.0000 </r>
        <r>  0.0003  0.0005  0.0012  0.0113  0.0000  0.0000  0.0000  0.0000  0.0000 </r>
        <r>  0.0003  0.0013  0.0034  0.0141  0.0000  0.0000  0.0000  0.0000  0.0000 </r>
        <r>  0.0001  0.0282  0.0004  0.0018  0.0000  0.0000  0.0000  0.0000  0.0000 </r>
        <r>  0.0001  0.0015  0.0482  0.0013  0.0000  0.0000  0.0000  0.0000  0.0000 </r>
        <r>  0.0002  0.0029  0.0009  0.0004  0.0000  0.0000  0.0000  0.0000  0.0000 </r>
       </set>
       <set comment="band 44">
        <r>  0.0015  0.0087  0.0030  0.0064  0.0001  0.0020  0.0038  0.0017  0.0024 </r>
        <r>  0.0009  0.0049  0.0011  0.0046  0.0003  0.0078  0.0000  0.0050  0.0001 </r>
        <r>  0.0007  0.0030  0.0012  0.0031  0.0005  0.0059  0.0002  0.0085  0.0001 </r>
        <r>  0.0145  0.0018  0.0004  0.0042  0.0006  0.0041  0.0002  0.0037  0.0003 </r>
        <r>  0.0162  0.0019  0.0057  0.0038  0.0001  0.0029  0.0002  0.0009  0.0002 </r>
        <r>  0.0033  0.0019  0.0099  0.0088  0.0003  0.0000  0.0003  0.0001  0.0007 </r>
        <r>  0.0037  0.0024  0.0070  0.0043  0.0007  0.0012  0.0003  0.0000  0.0001 </r>
        <r>  0.0058  0.0012  0.0031  0.0030  0.0002  0.0029  0.0006  0.0050  0.0007 </r>
        <r>  0.0008  0.0015  0.0000  0.0001  0.0001  0.0027  0.0000  0.0029  0.0001 </r>
        <r>  0.0002  0.0002  0.0019  0.0007  0.0000  0.0000  0.0000  0.0000  0.0000 </r>
        <r>  0.0005  0.0049  0.0316  0.0074  0.0000  0.0000  0.0000  0.0000  0.0000 </r>
        <r>  0.0004  0.0026  0.0169  0.0049  0.0000  0.0000  0.0000  0.0000  0.0000 </r>
        <r>  0.0014  0.0069  0.0170  0.0045  0.0000  0.0000  0.0000  0.0000  0.0000 </r>
        <r>  0.0031  0.0006  0.0249  0.0019  0.0000  0.0000  0.0000  0.0000  0.0000 </r>
        <r>  0.0002  0.0187  0.0003  0.0255  0.0000  0.0000  0.0000  0.0000  0.0000 </r>
        <r>  0.0004  0.0171  0.0009  0.0303  0.0000  0.0000  0.0000  0.0000  0.0000 </r>
       </set>
       <set comment="band 45">
        <r>  0.0015  0.0118  0.0015  0.0107  0.0057  0.0046  0.0021  0.0022  0.0011 </r>
        <r>  0.0005  0.0022  0.0032  0.0032  0.0009  0.0020  0.0000  0.0048  0.0000 </r>
        <r>  0.0049  0.0010  0.0006  0.0009  0.0008  0.0110  0.0004  0.0060  0.0000 </r>
        <r>  0.0027  0.0013  0.0133  0.0003  0.0005  0.0046  0.0000  0.0001  0.0002 </r>
        <r>  0.0017  0.0006  0.0064  0.0006  0.0008  0.0002  0.0000  0.0021  0.0002 </r>
        <r>  0.0015  0.0032  0.0084  0.0002  0.0012  0.0046  0.0001  0.0012  0.0001 </r>
        <r>  0.0008  0.0006  0.0093  0.0025  0.0006  0.0010  0.0000  0.0041  0.0004 </r>
        <r>  0.0002  0.0002  0.0005  0.0003  0.0002  0.0042  0.0006  0.0019  0.0001 </r>
        <r>  0.0056  0.0001  0.0001  0.0002  0.0012  0.0075  0.0000  0.0076  0.0000 </r>
        <r>  0.0005  0.0090  0.0003  0.0095  0.0000  0.0000  0.0000  0.0000  0.0000 </r>
        <r>  0.0007  0.0041  0.0214  0.0038  0.0000  0.0000  0.0000  0.0000  0.0000 </r>
        <r>  0.0010  0.0063  0.0315  0.0042  0.0000  0.0000  0.0000  0.0000  0.0000 </r>
        <r>  0.0014  0.0062  0.0362  0.0039  0.0000  0.0000  0.0000  0.0000  0.0000 </r>
        <r>  0.0005  0.0036  0.0211  0.0066  0.0000  0.0000  0.0000  0.0000  0.0000 </r>
        <r>  0.0004  0.0005  0.0044  0.0016  0.0000  0.0000  0.0000  0.0000  0.0000 </r>
        <r>  0.0013  0.0139  0.0026  0.0067  0.0000  0.0000  0.0000  0.0000  0.0000 </r>
       </set>
       <set comment="band 46">
        <r>  0.0027  0.0019  0.0146  0.0011  0.0002  0.0005  0.0073  0.0012  0.0003 </r>
        <r>  0.0397  0.0030  0.0218  0.0043  0.0016  0.0004  0.0004  0.0001  0.0000 </r>
        <r>  0.0317  0.0008  0.0011  0.0009  0.0020  0.0007  0.0003  0.0009  0.0000 </r>
        <r>  0.0023  0.0000  0.0046  0.0011  0.0015  0.0037  0.0001  0.0001  0.0013 </r>
        <r>  0.0073  0.0002  0.0056  0.0002  0.0020  0.0003  0.0001  0.0042  0.0010 </r>
        <r>  0.0039  0.0010  0.0054  0.0042  0.0001  0.0076  0.0002  0.0019  0.0006 </r>
        <r>  0.0020  0.0045  0.0023  0.0004  0.0002  0.0026  0.0001  0.0068  0.0005 </r>
        <r>  0.0098  0.0028  0.0158  0.0029  0.0073  0.0020  0.0122  0.0018  0.0000 </r>
        <r>  0.0372  0.0030  0.0049  0.0049  0.0013  0.0018  0.0004  0.0002  0.0000 </r>
        <r>  0.0069  0.0017  0.0112  0.0037  0.0000  0.0000  0.0000  0.0000  0.0000 </r>
        <r>  0.0000  0.0012  0.0058  0.0020  0.0000  0.0000  0.0000  0.0000  0.0000 </r>
        <r>  0.0000  0.0019  0.0049  0.0031  0.0000  0.0000  0.0000  0.0000  0.0000 </r>
        <r>  0.0017  0.0035  0.0013  0.0021  0.0000  0.0000  0.0000  0.0000  0.0000 </r>
        <r>  0.0007  0.0015  0.0036  0.0051  0.0000  0.0000  0.0000  0.0000  0.0000 </r>
        <r>  0.0059  0.0049  0.0111  0.0007  0.0000  0.0000  0.0000  0.0000  0.0000 </r>
        <r>  0.0007  0.0021  0.0255  0.0045  0.0000  0.0000  0.0000  0.0000  0.0000 </r>
       </set>
       <set comment="band 47">
        <r>  0.0007  0.0015  0.0028  0.0011  0.0119  0.0025  0.0011  0.0009  0.0002 </r>
        <r>  0.0303  0.0007  0.0069  0.0000  0.0041  0.0000  0.0002  0.0001  0.0000 </r>
        <r>  0.0126  0.0032  0.0002  0.0022  0.0036  0.0013  0.0002  0.0009  0.0000 </r>
        <r>  0.0014  0.0002  0.0014  0.0005  0.0067  0.0007  0.0000  0.0039  0.0000 </r>
        <r>  0.0007  0.0011  0.0019  0.0008  0.0066  0.0036  0.0000  0.0005  0.0000 </r>
        <r>  0.0006  0.0045  0.0037  0.0009  0.0037  0.0096  0.0000  0.0008  0.0003 </r>
        <r>  0.0015  0.0006  0.0034  0.0046  0.0033  0.0016  0.0000  0.0098  0.0004 </r>
        <r>  0.0032  0.0020  0.0038  0.0016  0.0086  0.0002  0.0026  0.0001  0.0000 </r>
        <r>  0.0152  0.0000  0.0166  0.0001  0.0067  0.0022  0.0001  0.0030  0.0000 </r>
        <r>  0.0005  0.0011  0.0486  0.0026  0.0000  0.0000  0.0000  0.0000  0.0000 </r>
        <r>  0.0002  0.0113  0.0002  0.0015  0.0000  0.0000  0.0000  0.0000  0.0000 </r>
        <r>  0.0001  0.0013  0.0001  0.0079  0.0000  0.0000  0.0000  0.0000  0.0000 </r>
        <r>  0.0005  0.0055  0.0078  0.0039  0.0000  0.0000  0.0000  0.0000  0.0000 </r>
        <r>  0.0000  0.0027  0.0076  0.0041  0.0000  0.0000  0.0000  0.0000  0.0000 </r>
        <r>  0.0026  0.0031  0.0213  0.0032  0.0000  0.0000  0.0000  0.0000  0.0000 </r>
        <r>  0.0003  0.0013  0.0077  0.0010  0.0000  0.0000  0.0000  0.0000  0.0000 </r>
       </set>
       <set comment="band 48">
        <r>  0.0005  0.0021  0.0093  0.0017  0.0007  0.0058  0.0070  0.0020  0.0007 </r>
        <r>  0.0054  0.0047  0.0013  0.0047  0.0009  0.0003  0.0004  0.0007  0.0000 </r>
        <r>  0.0662  0.0023  0.0065  0.0005  0.0020  0.0009  0.0061  0.0013  0.0000 </r>
        <r>  0.0161  0.0011  0.0010  0.0029  0.0007  0.0013  0.0002  0.0004  0.0003 </r>
        <r>  0.0078  0.0037  0.0008  0.0010  0.0005  0.0006  0.0005  0.0011  0.0001 </r>
        <r>  0.0259  0.0004  0.0138  0.0012  0.0003  0.0004  0.0000  0.0008  0.0005 </r>
        <r>  0.0159  0.0008  0.0169  0.0004  0.0005  0.0008  0.0000  0.0004  0.0001 </r>
        <r>  0.0064  0.0028  0.0019  0.0016  0.0009  0.0027  0.0003  0.0022  0.0001 </r>
        <r>  0.0335  0.0007  0.0085  0.0025  0.0050  0.0029  0.0002  0.0020  0.0000 </r>
        <r>  0.0016  0.0118  0.0044  0.0108  0.0000  0.0000  0.0000  0.0000  0.0000 </r>
        <r>  0.0005  0.0132  0.0012  0.0062  0.0000  0.0000  0.0000  0.0000  0.0000 </r>
        <r>  0.0016  0.0109  0.0031  0.0133  0.0000  0.0000  0.0000  0.0000  0.0000 </r>
        <r>  0.0013  0.0090  0.0068  0.0003  0.0000  0.0000  0.0000  0.0000  0.0000 </r>
        <r>  0.0014  0.0012  0.0127  0.0112  0.0000  0.0000  0.0000  0.0000  0.0000 </r>
        <r>  0.0015  0.0006  0.0128  0.0016  0.0000  0.0000  0.0000  0.0000  0.0000 </r>
        <r>  0.0006  0.0064  0.0018  0.0073  0.0000  0.0000  0.0000  0.0000  0.0000 </r>
       </set>
      </set>
     </set>
    </set>
   </array>
  </projected>
 </calculation>
 <structure name="finalpos" >
  <crystal>
   <varray name="basis" >
    <v>       0.00000000       4.24689300       4.24689300 </v>
    <v>       4.24689300       0.00000000       4.24689300 </v>
    <v>       4.24689300       4.24689300       0.00000000 </v>
   </varray>
   <i name="volume">    153.19477498 </i>
   <varray name="rec_basis" >
    <v>      -0.11773313       0.11773313       0.11773313 </v>
    <v>       0.11773313      -0.11773313       0.11773313 </v>
    <v>       0.11773313       0.11773313      -0.11773313 </v>
   </varray>
  </crystal>
  <varray name="positions" >
   <v>       0.29635061       0.34563802       0.20656423 </v>
   <v>       0.99047329       0.98302896       0.01083278 </v>
   <v>       0.00044826       0.00166787       0.50162234 </v>
   <v>       0.97747527       0.49944154       0.99248584 </v>
   <v>       0.96246544       0.51121395       0.54051523 </v>
   <v>       0.50216034       0.98059740       0.00012580 </v>
   <v>       0.51032426       0.96676747       0.52549345 </v>
   <v>       0.56385254       0.54857748       0.93858291 </v>
   <v>       0.49170418       0.48248406       0.51206880 </v>
   <v>       0.23793695       0.23568417       0.75580873 </v>
   <v>       0.25429164       0.70410243       0.24809392 </v>
   <v>       0.25869627       0.70942631       0.78413408 </v>
   <v>       0.71805611       0.24970651       0.24396538 </v>
   <v>       0.73042439       0.25061418       0.77192433 </v>
   <v>       0.74730985       0.72652413       0.26457947 </v>
   <v>       0.76814359       0.77375753       0.73469571 </v>
  </varray>
 </structure>
</modeling>
