 vasp.5.3.3 18Dez12 (build Mar 05 2013 16:09:35) complex                        
  
 executed on             LinuxIFC date 2013.06.07  01:44:26
 running on   16 total cores
 distrk:  each k-point on   16 cores,    1 groups
 distr:  one band on NCORES_PER_BAND=   1 cores,   16 groups


--------------------------------------------------------------------------------------------------------


 INCAR:
 POTCAR:    PAW_PBE Mg 13Apr2007                  
 POTCAR:    PAW_PBE O 08Apr2002                   

 ----------------------------------------------------------------------------- 
|                                                                             |
|           W    W    AA    RRRRR   N    N  II  N    N   GGGG   !!!           |
|           W    W   A  A   R    R  NN   N  II  NN   N  G    G  !!!           |
|           W    W  A    A  R    R  N N  N  II  N N  N  G       !!!           |
|           W WW W  AAAAAA  RRRRR   N  N N  II  N  N N  G  GGG   !            |
|           WW  WW  A    A  R   R   N   NN  II  N   NN  G    G                |
|           W    W  A    A  R    R  N    N  II  N    N   GGGG   !!!           |
|                                                                             |
|      For optimal performance we recommend that you set                      |
|        NPAR = 4 - approx SQRT( number of cores)                             |
|      (number of cores/NPAR must be integer)                                 |
|      This setting will greatly improve the performance of VASP for DFT.     |
|      The default NPAR=number of cores might be grossly inefficient          |
|      on modern multi-core architectures or massively parallel machines.     |
|      Do your own testing.                                                   |
|      Unfortunately you need to use the default for hybrid, GW and RPA       |
|      calculations.                                                          |
|                                                                             |
 ----------------------------------------------------------------------------- 

 POTCAR:    PAW_PBE Mg 13Apr2007                  
   VRHFIN =Mg: s2p0                                                             
   LEXCH  = PE                                                                  
   EATOM  =    23.0369 eV,    1.6932 Ry                                         
                                                                                
   TITEL  = PAW_PBE Mg 13Apr2007                                                
   LULTRA =        F    use ultrasoft PP ?                                      
   IUNSCR =        1    unscreen: 0-lin 1-nonlin 2-no                           
   RPACOR =    1.500    partial core radius                                     
   POMASS =   24.305; ZVAL   =    2.000    mass and valenz                      
   RCORE  =    2.000    outmost cutoff radius                                   
   RWIGS  =    2.880; RWIGS  =    1.524    wigner-seitz radius (au A)           
   ENMAX  =  126.143; ENMIN  =   94.607 eV                                      
   RCLOC  =    1.506    cutoff for local pot                                    
   LCOR   =        T    correct aug charges                                     
   LPAW   =        T    paw PP                                                  
   EAUG   =  454.734                                                            
   DEXC   =    0.000                                                            
   RMAX   =    2.045    core radius for proj-oper                               
   RAUG   =    1.300    factor for augmentation sphere                          
   RDEP   =    2.025    radius for radial grids                                 
   RDEPT  =    1.942    core radius for aug-charge                              
                                                                                
   Atomic configuration                                                         
    6 entries                                                                   
     n  l   j            E        occ.                                          
     1  0  0.50     -1259.6230   2.0000                                         
     2  0  0.50       -79.8442   2.0000                                         
     2  1  1.50       -46.6121   6.0000                                         
     3  0  0.50        -4.7055   2.0000                                         
     3  1  0.50        -1.3660   0.0000                                         
     3  2  1.50        -1.3606   0.0000                                         
   Description                                                                  
     l       E           TYP  RCUT    TYP  RCUT                                 
     0     -4.7054661     23  2.000                                             
     0     27.2116520     23  2.000                                             
     1      1.3605826     23  2.000                                             
     1     27.2116520     23  2.000                                             
     2     -1.3605826     23  2.000                                             
  local pseudopotential read in
  partial core-charges read in
  partial kinetic energy density read in
  atomic valenz-charges read in
  non local Contribution for L=           0  read in
    real space projection operators read in
  non local Contribution for L=           0  read in
    real space projection operators read in
  non local Contribution for L=           1  read in
    real space projection operators read in
  non local Contribution for L=           1  read in
    real space projection operators read in
  non local Contribution for L=           2  read in
    real space projection operators read in
    PAW grid and wavefunctions read in
 
   number of l-projection  operators is LMAX  =           5
   number of lm-projection operators is LMMAX =          13
 
 POTCAR:    PAW_PBE O 08Apr2002                   
   VRHFIN =O: s2p4                                                              
   LEXCH  = PE                                                                  
   EATOM  =   432.3788 eV,   31.7789 Ry                                         
                                                                                
   TITEL  = PAW_PBE O 08Apr2002                                                 
   LULTRA =        F    use ultrasoft PP ?                                      
   IUNSCR =        1    unscreen: 0-lin 1-nonlin 2-no                           
   RPACOR =    1.200    partial core radius                                     
   POMASS =   16.000; ZVAL   =    6.000    mass and valenz                      
   RCORE  =    1.520    outmost cutoff radius                                   
   RWIGS  =    1.550; RWIGS  =    0.820    wigner-seitz radius (au A)           
   ENMAX  =  400.000; ENMIN  =  300.000 eV                                      
   ICORE  =        2    local potential                                         
   LCOR   =        T    correct aug charges                                     
   LPAW   =        T    paw PP                                                  
   EAUG   =  605.392                                                            
   DEXC   =    0.000                                                            
   RMAX   =    1.553    core radius for proj-oper                               
   RAUG   =    1.300    factor for augmentation sphere                          
   RDEP   =    1.550    radius for radial grids                                 
   RDEPT  =    1.329    core radius for aug-charge                              
                                                                                
   Atomic configuration                                                         
    4 entries                                                                   
     n  l   j            E        occ.                                          
     1  0  0.50      -514.6923   2.0000                                         
     2  0  0.50       -23.9615   2.0000                                         
     2  1  0.50        -9.0305   4.0000                                         
     3  2  1.50        -9.5241   0.0000                                         
   Description                                                                  
     l       E           TYP  RCUT    TYP  RCUT                                 
     0    -23.9615318     23  1.200                                             
     0     -9.5240782     23  1.200                                             
     1     -9.0304911     23  1.520                                             
     1      8.1634956     23  1.520                                             
     2     -9.5240782      7  1.500                                             
  local pseudopotential read in
  partial core-charges read in
  partial kinetic energy density read in
  kinetic energy density of atom read in
  atomic valenz-charges read in
  non local Contribution for L=           0  read in
    real space projection operators read in
  non local Contribution for L=           0  read in
    real space projection operators read in
  non local Contribution for L=           1  read in
    real space projection operators read in
  non local Contribution for L=           1  read in
    real space projection operators read in
    PAW grid and wavefunctions read in
 
   number of l-projection  operators is LMAX  =           4
   number of lm-projection operators is LMMAX =           8
 
  PAW_PBE Mg 13Apr2007                  :
 energy of atom  1       EATOM=  -23.0369
 kinetic energy error for atom=    0.0000 (will be added to EATOM!!)
  PAW_PBE O 08Apr2002                   :
 energy of atom  2       EATOM= -432.3788
 kinetic energy error for atom=    0.0194 (will be added to EATOM!!)
 
 
 POSCAR: MgO/Mg_p2_1_O_m2_1/Mg_p2_1_O_m2_1       
  positions in direct lattice
  velocities in cartesian coordinates
 exchange correlation table for  LEXCH =        8
   RHO(1)=    0.500       N(1)  =     2000
   RHO(2)=  100.500       N(2)  =     4000
 


--------------------------------------------------------------------------------------------------------


 ion  position               nearest neighbor table
   1  0.000  0.000  0.000-   2 2.12   2 2.12   2 2.12   2 2.12   2 2.12   2 2.12
   2  0.500  0.500  0.500-   1 2.12   1 2.12   1 2.12   1 2.12   1 2.12   1 2.12
 
  LATTYP: Found a face centered cubic cell.
 ALAT       =     4.2459832834
  
  Lattice vectors:
  
 A1 = (   2.1229916417,   2.1229916417,   0.0000000000)
 A2 = (   2.1229916417,   0.0000000000,  -2.1229916417)
 A3 = (   0.0000000000,   2.1229916417,  -2.1229916417)


Analysis of symmetry for initial positions (statically):
=====================================================================
 Subroutine PRICEL returns:
 Original cell was already a primitive cell.
 

 Routine SETGRP: Setting up the symmetry group for a 
 face centered cubic supercell.


 Subroutine GETGRP returns: Found 48 space group operations
 (whereof 48 operations were pure point group operations)
 out of a pool of 48 trial point group operations.


The static configuration has the point symmetry O_h .


Analysis of symmetry for dynamics (positions and initial velocities):
=====================================================================
 Subroutine PRICEL returns:
 Original cell was already a primitive cell.
 

 Routine SETGRP: Setting up the symmetry group for a 
 face centered cubic supercell.


 Subroutine GETGRP returns: Found 48 space group operations
 (whereof 48 operations were pure point group operations)
 out of a pool of 48 trial point group operations.


The dynamic configuration has the point symmetry O_h .


 irot  :   1
 --------------------------------------------------------------------
 isymop:   1   0   0
           0   1   0
           0   0   1

 gtrans:     0.0000000     0.0000000     0.0000000

 ptrans:     0.0000000     0.0000000     0.0000000
 rotmap:
 (   1->   1)  (   2->   2) 


 irot  :   2
 --------------------------------------------------------------------
 isymop:  -1   0   0
           0  -1   0
           0   0  -1

 gtrans:     0.0000000     0.0000000     0.0000000

 ptrans:     0.0000000     0.0000000     0.0000000
 rotmap:
 (   1->   1)  (   2->   2) 


 irot  :   3
 --------------------------------------------------------------------
 isymop:   0   0   1
           1   0   0
           0   1   0

 gtrans:     0.0000000     0.0000000     0.0000000

 ptrans:     0.0000000     0.0000000     0.0000000
 rotmap:
 (   1->   1)  (   2->   2) 


 irot  :   4
 --------------------------------------------------------------------
 isymop:   0   0  -1
          -1   0   0
           0  -1   0

 gtrans:     0.0000000     0.0000000     0.0000000

 ptrans:     0.0000000     0.0000000     0.0000000
 rotmap:
 (   1->   1)  (   2->   2) 


 irot  :   5
 --------------------------------------------------------------------
 isymop:   0   1   0
           0   0   1
           1   0   0

 gtrans:     0.0000000     0.0000000     0.0000000

 ptrans:     0.0000000     0.0000000     0.0000000
 rotmap:
 (   1->   1)  (   2->   2) 


 irot  :   6
 --------------------------------------------------------------------
 isymop:   0  -1   0
           0   0  -1
          -1   0   0

 gtrans:     0.0000000     0.0000000     0.0000000

 ptrans:     0.0000000     0.0000000     0.0000000
 rotmap:
 (   1->   1)  (   2->   2) 


 irot  :   7
 --------------------------------------------------------------------
 isymop:   1   1   1
           0   0  -1
          -1   0   0

 gtrans:     0.0000000     0.0000000     0.0000000

 ptrans:     0.0000000     0.0000000     0.0000000
 rotmap:
 (   1->   1)  (   2->   2) 


 irot  :   8
 --------------------------------------------------------------------
 isymop:  -1  -1  -1
           0   0   1
           1   0   0

 gtrans:     0.0000000     0.0000000     0.0000000

 ptrans:     0.0000000     0.0000000     0.0000000
 rotmap:
 (   1->   1)  (   2->   2) 


 irot  :   9
 --------------------------------------------------------------------
 isymop:   1   1   1
           0  -1   0
           0   0  -1

 gtrans:     0.0000000     0.0000000     0.0000000

 ptrans:     0.0000000     0.0000000     0.0000000
 rotmap:
 (   1->   1)  (   2->   2) 


 irot  :  10
 --------------------------------------------------------------------
 isymop:  -1  -1  -1
           0   1   0
           0   0   1

 gtrans:     0.0000000     0.0000000     0.0000000

 ptrans:     0.0000000     0.0000000     0.0000000
 rotmap:
 (   1->   1)  (   2->   2) 


 irot  :  11
 --------------------------------------------------------------------
 isymop:   1   1   1
          -1   0   0
           0  -1   0

 gtrans:     0.0000000     0.0000000     0.0000000

 ptrans:     0.0000000     0.0000000     0.0000000
 rotmap:
 (   1->   1)  (   2->   2) 


 irot  :  12
 --------------------------------------------------------------------
 isymop:  -1  -1  -1
           1   0   0
           0   1   0

 gtrans:     0.0000000     0.0000000     0.0000000

 ptrans:     0.0000000     0.0000000     0.0000000
 rotmap:
 (   1->   1)  (   2->   2) 


 irot  :  13
 --------------------------------------------------------------------
 isymop:   0   1   0
           1   0   0
          -1  -1  -1

 gtrans:     0.0000000     0.0000000     0.0000000

 ptrans:     0.0000000     0.0000000     0.0000000
 rotmap:
 (   1->   1)  (   2->   2) 


 irot  :  14
 --------------------------------------------------------------------
 isymop:   0  -1   0
          -1   0   0
           1   1   1

 gtrans:     0.0000000     0.0000000     0.0000000

 ptrans:     0.0000000     0.0000000     0.0000000
 rotmap:
 (   1->   1)  (   2->   2) 


 irot  :  15
 --------------------------------------------------------------------
 isymop:   1   0   0
           0   0   1
          -1  -1  -1

 gtrans:     0.0000000     0.0000000     0.0000000

 ptrans:     0.0000000     0.0000000     0.0000000
 rotmap:
 (   1->   1)  (   2->   2) 


 irot  :  16
 --------------------------------------------------------------------
 isymop:  -1   0   0
           0   0  -1
           1   1   1

 gtrans:     0.0000000     0.0000000     0.0000000

 ptrans:     0.0000000     0.0000000     0.0000000
 rotmap:
 (   1->   1)  (   2->   2) 


 irot  :  17
 --------------------------------------------------------------------
 isymop:   0   0   1
           0   1   0
          -1  -1  -1

 gtrans:     0.0000000     0.0000000     0.0000000

 ptrans:     0.0000000     0.0000000     0.0000000
 rotmap:
 (   1->   1)  (   2->   2) 


 irot  :  18
 --------------------------------------------------------------------
 isymop:   0   0  -1
           0  -1   0
           1   1   1

 gtrans:     0.0000000     0.0000000     0.0000000

 ptrans:     0.0000000     0.0000000     0.0000000
 rotmap:
 (   1->   1)  (   2->   2) 


 irot  :  19
 --------------------------------------------------------------------
 isymop:   0   0  -1
           1   1   1
           0  -1   0

 gtrans:     0.0000000     0.0000000     0.0000000

 ptrans:     0.0000000     0.0000000     0.0000000
 rotmap:
 (   1->   1)  (   2->   2) 


 irot  :  20
 --------------------------------------------------------------------
 isymop:   0   0   1
          -1  -1  -1
           0   1   0

 gtrans:     0.0000000     0.0000000     0.0000000

 ptrans:     0.0000000     0.0000000     0.0000000
 rotmap:
 (   1->   1)  (   2->   2) 


 irot  :  21
 --------------------------------------------------------------------
 isymop:   0  -1   0
           1   1   1
          -1   0   0

 gtrans:     0.0000000     0.0000000     0.0000000

 ptrans:     0.0000000     0.0000000     0.0000000
 rotmap:
 (   1->   1)  (   2->   2) 


 irot  :  22
 --------------------------------------------------------------------
 isymop:   0   1   0
          -1  -1  -1
           1   0   0

 gtrans:     0.0000000     0.0000000     0.0000000

 ptrans:     0.0000000     0.0000000     0.0000000
 rotmap:
 (   1->   1)  (   2->   2) 


 irot  :  23
 --------------------------------------------------------------------
 isymop:  -1   0   0
           1   1   1
           0   0  -1

 gtrans:     0.0000000     0.0000000     0.0000000

 ptrans:     0.0000000     0.0000000     0.0000000
 rotmap:
 (   1->   1)  (   2->   2) 


 irot  :  24
 --------------------------------------------------------------------
 isymop:   1   0   0
          -1  -1  -1
           0   0   1

 gtrans:     0.0000000     0.0000000     0.0000000

 ptrans:     0.0000000     0.0000000     0.0000000
 rotmap:
 (   1->   1)  (   2->   2) 


 irot  :  25
 --------------------------------------------------------------------
 isymop:  -1  -1  -1
           0   1   0
           1   0   0

 gtrans:     0.0000000     0.0000000     0.0000000

 ptrans:     0.0000000     0.0000000     0.0000000
 rotmap:
 (   1->   1)  (   2->   2) 


 irot  :  26
 --------------------------------------------------------------------
 isymop:   1   1   1
           0  -1   0
          -1   0   0

 gtrans:     0.0000000     0.0000000     0.0000000

 ptrans:     0.0000000     0.0000000     0.0000000
 rotmap:
 (   1->   1)  (   2->   2) 


 irot  :  27
 --------------------------------------------------------------------
 isymop:  -1  -1  -1
           1   0   0
           0   0   1

 gtrans:     0.0000000     0.0000000     0.0000000

 ptrans:     0.0000000     0.0000000     0.0000000
 rotmap:
 (   1->   1)  (   2->   2) 


 irot  :  28
 --------------------------------------------------------------------
 isymop:   1   1   1
          -1   0   0
           0   0  -1

 gtrans:     0.0000000     0.0000000     0.0000000

 ptrans:     0.0000000     0.0000000     0.0000000
 rotmap:
 (   1->   1)  (   2->   2) 


 irot  :  29
 --------------------------------------------------------------------
 isymop:  -1  -1  -1
           0   0   1
           0   1   0

 gtrans:     0.0000000     0.0000000     0.0000000

 ptrans:     0.0000000     0.0000000     0.0000000
 rotmap:
 (   1->   1)  (   2->   2) 


 irot  :  30
 --------------------------------------------------------------------
 isymop:   1   1   1
           0   0  -1
           0  -1   0

 gtrans:     0.0000000     0.0000000     0.0000000

 ptrans:     0.0000000     0.0000000     0.0000000
 rotmap:
 (   1->   1)  (   2->   2) 


 irot  :  31
 --------------------------------------------------------------------
 isymop:   0  -1   0
           0   0  -1
           1   1   1

 gtrans:     0.0000000     0.0000000     0.0000000

 ptrans:     0.0000000     0.0000000     0.0000000
 rotmap:
 (   1->   1)  (   2->   2) 


 irot  :  32
 --------------------------------------------------------------------
 isymop:   0   1   0
           0   0   1
          -1  -1  -1

 gtrans:     0.0000000     0.0000000     0.0000000

 ptrans:     0.0000000     0.0000000     0.0000000
 rotmap:
 (   1->   1)  (   2->   2) 


 irot  :  33
 --------------------------------------------------------------------
 isymop:  -1   0   0
           0  -1   0
           1   1   1

 gtrans:     0.0000000     0.0000000     0.0000000

 ptrans:     0.0000000     0.0000000     0.0000000
 rotmap:
 (   1->   1)  (   2->   2) 


 irot  :  34
 --------------------------------------------------------------------
 isymop:   1   0   0
           0   1   0
          -1  -1  -1

 gtrans:     0.0000000     0.0000000     0.0000000

 ptrans:     0.0000000     0.0000000     0.0000000
 rotmap:
 (   1->   1)  (   2->   2) 


 irot  :  35
 --------------------------------------------------------------------
 isymop:   0   0  -1
          -1   0   0
           1   1   1

 gtrans:     0.0000000     0.0000000     0.0000000

 ptrans:     0.0000000     0.0000000     0.0000000
 rotmap:
 (   1->   1)  (   2->   2) 


 irot  :  36
 --------------------------------------------------------------------
 isymop:   0   0   1
           1   0   0
          -1  -1  -1

 gtrans:     0.0000000     0.0000000     0.0000000

 ptrans:     0.0000000     0.0000000     0.0000000
 rotmap:
 (   1->   1)  (   2->   2) 


 irot  :  37
 --------------------------------------------------------------------
 isymop:   1   0   0
          -1  -1  -1
           0   1   0

 gtrans:     0.0000000     0.0000000     0.0000000

 ptrans:     0.0000000     0.0000000     0.0000000
 rotmap:
 (   1->   1)  (   2->   2) 


 irot  :  38
 --------------------------------------------------------------------
 isymop:  -1   0   0
           1   1   1
           0  -1   0

 gtrans:     0.0000000     0.0000000     0.0000000

 ptrans:     0.0000000     0.0000000     0.0000000
 rotmap:
 (   1->   1)  (   2->   2) 


 irot  :  39
 --------------------------------------------------------------------
 isymop:   0   0   1
          -1  -1  -1
           1   0   0

 gtrans:     0.0000000     0.0000000     0.0000000

 ptrans:     0.0000000     0.0000000     0.0000000
 rotmap:
 (   1->   1)  (   2->   2) 


 irot  :  40
 --------------------------------------------------------------------
 isymop:   0   0  -1
           1   1   1
          -1   0   0

 gtrans:     0.0000000     0.0000000     0.0000000

 ptrans:     0.0000000     0.0000000     0.0000000
 rotmap:
 (   1->   1)  (   2->   2) 


 irot  :  41
 --------------------------------------------------------------------
 isymop:   0   1   0
          -1  -1  -1
           0   0   1

 gtrans:     0.0000000     0.0000000     0.0000000

 ptrans:     0.0000000     0.0000000     0.0000000
 rotmap:
 (   1->   1)  (   2->   2) 


 irot  :  42
 --------------------------------------------------------------------
 isymop:   0  -1   0
           1   1   1
           0   0  -1

 gtrans:     0.0000000     0.0000000     0.0000000

 ptrans:     0.0000000     0.0000000     0.0000000
 rotmap:
 (   1->   1)  (   2->   2) 


 irot  :  43
 --------------------------------------------------------------------
 isymop:  -1   0   0
           0   0  -1
           0  -1   0

 gtrans:     0.0000000     0.0000000     0.0000000

 ptrans:     0.0000000     0.0000000     0.0000000
 rotmap:
 (   1->   1)  (   2->   2) 


 irot  :  44
 --------------------------------------------------------------------
 isymop:   1   0   0
           0   0   1
           0   1   0

 gtrans:     0.0000000     0.0000000     0.0000000

 ptrans:     0.0000000     0.0000000     0.0000000
 rotmap:
 (   1->   1)  (   2->   2) 


 irot  :  45
 --------------------------------------------------------------------
 isymop:   0  -1   0
          -1   0   0
           0   0  -1

 gtrans:     0.0000000     0.0000000     0.0000000

 ptrans:     0.0000000     0.0000000     0.0000000
 rotmap:
 (   1->   1)  (   2->   2) 


 irot  :  46
 --------------------------------------------------------------------
 isymop:   0   1   0
           1   0   0
           0   0   1

 gtrans:     0.0000000     0.0000000     0.0000000

 ptrans:     0.0000000     0.0000000     0.0000000
 rotmap:
 (   1->   1)  (   2->   2) 


 irot  :  47
 --------------------------------------------------------------------
 isymop:   0   0  -1
           0  -1   0
          -1   0   0

 gtrans:     0.0000000     0.0000000     0.0000000

 ptrans:     0.0000000     0.0000000     0.0000000
 rotmap:
 (   1->   1)  (   2->   2) 


 irot  :  48
 --------------------------------------------------------------------
 isymop:   0   0   1
           0   1   0
           1   0   0

 gtrans:     0.0000000     0.0000000     0.0000000

 ptrans:     0.0000000     0.0000000     0.0000000
 rotmap:
 (   1->   1)  (   2->   2) 
 
 
 KPOINTS: k-point mesh distance .054150           

Automatic generation of k-mesh.
Space group operators:
 irot       det(A)        alpha          n_x          n_y          n_z        tau_x        tau_y        tau_z
    1     1.000000     0.000000     1.000000     0.000000     0.000000     0.000000     0.000000     0.000000
    2    -1.000000     0.000000     1.000000     0.000000     0.000000     0.000000     0.000000     0.000000
    3     1.000000   120.000000    -0.577350    -0.577350     0.577350     0.000000     0.000000     0.000000
    4    -1.000000   120.000000    -0.577350    -0.577350     0.577350     0.000000     0.000000     0.000000
    5     1.000000   120.000000     0.577350     0.577350    -0.577350     0.000000     0.000000     0.000000
    6    -1.000000   120.000000     0.577350     0.577350    -0.577350     0.000000     0.000000     0.000000
    7     1.000000    90.000000    -1.000000     0.000000     0.000000     0.000000     0.000000     0.000000
    8    -1.000000    90.000000    -1.000000     0.000000     0.000000     0.000000     0.000000     0.000000
    9     1.000000   180.000000     0.707107     0.707107     0.000000     0.000000     0.000000     0.000000
   10    -1.000000   180.000000     0.707107     0.707107     0.000000     0.000000     0.000000     0.000000
   11     1.000000    90.000000     0.000000     1.000000     0.000000     0.000000     0.000000     0.000000
   12    -1.000000    90.000000     0.000000     1.000000     0.000000     0.000000     0.000000     0.000000
   13     1.000000   180.000000     1.000000     0.000000     0.000000     0.000000     0.000000     0.000000
   14    -1.000000   180.000000     1.000000     0.000000     0.000000     0.000000     0.000000     0.000000
   15     1.000000   120.000000     0.577350     0.577350     0.577350     0.000000     0.000000     0.000000
   16    -1.000000   120.000000     0.577350     0.577350     0.577350     0.000000     0.000000     0.000000
   17     1.000000   120.000000    -0.577350     0.577350     0.577350     0.000000     0.000000     0.000000
   18    -1.000000   120.000000    -0.577350     0.577350     0.577350     0.000000     0.000000     0.000000
   19     1.000000    90.000000     1.000000     0.000000     0.000000     0.000000     0.000000     0.000000
   20    -1.000000    90.000000     1.000000     0.000000     0.000000     0.000000     0.000000     0.000000
   21     1.000000    90.000000     0.000000     0.000000     1.000000     0.000000     0.000000     0.000000
   22    -1.000000    90.000000     0.000000     0.000000     1.000000     0.000000     0.000000     0.000000
   23     1.000000   180.000000     0.707107     0.000000    -0.707107     0.000000     0.000000     0.000000
   24    -1.000000   180.000000     0.707107     0.000000    -0.707107     0.000000     0.000000     0.000000
   25     1.000000   120.000000     0.577350    -0.577350    -0.577350     0.000000     0.000000     0.000000
   26    -1.000000   120.000000     0.577350    -0.577350    -0.577350     0.000000     0.000000     0.000000
   27     1.000000   120.000000     0.577350    -0.577350     0.577350     0.000000     0.000000     0.000000
   28    -1.000000   120.000000     0.577350    -0.577350     0.577350     0.000000     0.000000     0.000000
   29     1.000000   180.000000     0.000000     0.000000     1.000000     0.000000     0.000000     0.000000
   30    -1.000000   180.000000     0.000000     0.000000     1.000000     0.000000     0.000000     0.000000
   31     1.000000    90.000000     0.000000    -1.000000     0.000000     0.000000     0.000000     0.000000
   32    -1.000000    90.000000     0.000000    -1.000000     0.000000     0.000000     0.000000     0.000000
   33     1.000000   180.000000     0.000000    -0.707107     0.707107     0.000000     0.000000     0.000000
   34    -1.000000   180.000000     0.000000    -0.707107     0.707107     0.000000     0.000000     0.000000
   35     1.000000    90.000000     0.000000     0.000000    -1.000000     0.000000     0.000000     0.000000
   36    -1.000000    90.000000     0.000000     0.000000    -1.000000     0.000000     0.000000     0.000000
   37     1.000000   120.000000    -0.577350    -0.577350    -0.577350     0.000000     0.000000     0.000000
   38    -1.000000   120.000000    -0.577350    -0.577350    -0.577350     0.000000     0.000000     0.000000
   39     1.000000   180.000000     0.000000     1.000000     0.000000     0.000000     0.000000     0.000000
   40    -1.000000   180.000000     0.000000     1.000000     0.000000     0.000000     0.000000     0.000000
   41     1.000000   120.000000    -0.577350     0.577350    -0.577350     0.000000     0.000000     0.000000
   42    -1.000000   120.000000    -0.577350     0.577350    -0.577350     0.000000     0.000000     0.000000
   43     1.000000   180.000000     0.707107    -0.707107     0.000000     0.000000     0.000000     0.000000
   44    -1.000000   180.000000     0.707107    -0.707107     0.000000     0.000000     0.000000     0.000000
   45     1.000000   180.000000     0.000000     0.707107     0.707107     0.000000     0.000000     0.000000
   46    -1.000000   180.000000     0.000000     0.707107     0.707107     0.000000     0.000000     0.000000
   47     1.000000   180.000000     0.707107     0.000000     0.707107     0.000000     0.000000     0.000000
   48    -1.000000   180.000000     0.707107     0.000000     0.707107     0.000000     0.000000     0.000000
 
 Subroutine IBZKPT returns following result:
 ===========================================
 
 Found     72 irreducible k-points:
 
 Following reciprocal coordinates:
            Coordinates               Weight
  0.000000  0.000000  0.000000      1.000000
  0.083333  0.000000  0.000000      8.000000
  0.166667  0.000000  0.000000      8.000000
  0.250000  0.000000  0.000000      8.000000
  0.333333  0.000000  0.000000      8.000000
  0.416667  0.000000  0.000000      8.000000
  0.500000  0.000000  0.000000      4.000000
  0.083333  0.083333  0.000000      6.000000
  0.166667  0.083333  0.000000     24.000000
  0.250000  0.083333  0.000000     24.000000
  0.333333  0.083333  0.000000     24.000000
  0.416667  0.083333  0.000000     24.000000
  0.500000  0.083333  0.000000     24.000000
 -0.416667  0.083333  0.000000     24.000000
 -0.333333  0.083333  0.000000     24.000000
 -0.250000  0.083333  0.000000     24.000000
 -0.166667  0.083333  0.000000     24.000000
 -0.083333  0.083333  0.000000     12.000000
  0.166667  0.166667  0.000000      6.000000
  0.250000  0.166667  0.000000     24.000000
  0.333333  0.166667  0.000000     24.000000
  0.416667  0.166667  0.000000     24.000000
  0.500000  0.166667  0.000000     24.000000
 -0.416667  0.166667  0.000000     24.000000
 -0.333333  0.166667  0.000000     24.000000
 -0.250000  0.166667  0.000000     24.000000
 -0.166667  0.166667  0.000000     12.000000
  0.250000  0.250000  0.000000      6.000000
  0.333333  0.250000  0.000000     24.000000
  0.416667  0.250000  0.000000     24.000000
  0.500000  0.250000  0.000000     24.000000
 -0.416667  0.250000  0.000000     24.000000
 -0.333333  0.250000  0.000000     24.000000
 -0.250000  0.250000  0.000000     12.000000
  0.333333  0.333333  0.000000      6.000000
  0.416667  0.333333  0.000000     24.000000
  0.500000  0.333333  0.000000     24.000000
 -0.416667  0.333333  0.000000     24.000000
 -0.333333  0.333333  0.000000     12.000000
  0.416667  0.416667  0.000000      6.000000
  0.500000  0.416667  0.000000     24.000000
 -0.416667  0.416667  0.000000     12.000000
  0.500000  0.500000  0.000000      3.000000
  0.250000  0.166667  0.083333     24.000000
  0.333333  0.166667  0.083333     48.000000
  0.416667  0.166667  0.083333     48.000000
  0.500000  0.166667  0.083333     48.000000
 -0.416667  0.166667  0.083333     24.000000
  0.333333  0.250000  0.083333     24.000000
  0.416667  0.250000  0.083333     48.000000
  0.500000  0.250000  0.083333     48.000000
 -0.416667  0.250000  0.083333     48.000000
 -0.333333  0.250000  0.083333     48.000000
 -0.250000  0.250000  0.083333     48.000000
 -0.166667  0.250000  0.083333     24.000000
  0.416667  0.333333  0.083333     24.000000
  0.500000  0.333333  0.083333     48.000000
 -0.416667  0.333333  0.083333     48.000000
 -0.333333  0.333333  0.083333     48.000000
 -0.250000  0.333333  0.083333     24.000000
  0.500000  0.416667  0.083333     24.000000
 -0.416667  0.416667  0.083333     48.000000
 -0.333333  0.416667  0.083333     24.000000
 -0.416667  0.500000  0.083333     12.000000
  0.500000  0.333333  0.166667     24.000000
 -0.416667  0.333333  0.166667     48.000000
 -0.333333  0.333333  0.166667     24.000000
 -0.416667  0.416667  0.166667     24.000000
 -0.333333  0.416667  0.166667     48.000000
 -0.250000  0.416667  0.166667     24.000000
 -0.333333  0.500000  0.166667     12.000000
 -0.250000  0.500000  0.250000      6.000000
 
 Following cartesian coordinates:
            Coordinates               Weight
  0.000000  0.000000  0.000000      1.000000
  0.019626  0.019626  0.019626      8.000000
  0.039253  0.039253  0.039253      8.000000
  0.058879  0.058879  0.058879      8.000000
  0.078506  0.078506  0.078506      8.000000
  0.098132  0.098132  0.098132      8.000000
  0.117758  0.117758  0.117758      4.000000
  0.039253  0.000000  0.000000      6.000000
  0.058879  0.019626  0.019626     24.000000
  0.078506  0.039253  0.039253     24.000000
  0.098132  0.058879  0.058879     24.000000
  0.117758  0.078506  0.078506     24.000000
  0.137385  0.098132  0.098132     24.000000
 -0.078506 -0.117758 -0.117758     24.000000
 -0.058879 -0.098132 -0.098132     24.000000
 -0.039253 -0.078506 -0.078506     24.000000
 -0.019626 -0.058879 -0.058879     24.000000
  0.000000 -0.039253 -0.039253     12.000000
  0.078506  0.000000  0.000000      6.000000
  0.098132  0.019626  0.019626     24.000000
  0.117758  0.039253  0.039253     24.000000
  0.137385  0.058879  0.058879     24.000000
  0.157011  0.078506  0.078506     24.000000
 -0.058879 -0.137385 -0.137385     24.000000
 -0.039253 -0.117758 -0.117758     24.000000
 -0.019626 -0.098132 -0.098132     24.000000
  0.000000 -0.078506 -0.078506     12.000000
  0.117758  0.000000  0.000000      6.000000
  0.137385  0.019626  0.019626     24.000000
  0.157011  0.039253  0.039253     24.000000
  0.176638  0.058879  0.058879     24.000000
 -0.039253 -0.157011 -0.157011     24.000000
 -0.019626 -0.137385 -0.137385     24.000000
  0.000000 -0.117758 -0.117758     12.000000
  0.157011  0.000000  0.000000      6.000000
  0.176638  0.019626  0.019626     24.000000
  0.196264  0.039253  0.039253     24.000000
 -0.019626 -0.176638 -0.176638     24.000000
  0.000000 -0.157011 -0.157011     12.000000
  0.196264  0.000000  0.000000      6.000000
  0.215890  0.019626  0.019626     24.000000
  0.000000 -0.196264 -0.196264     12.000000
  0.235517  0.000000  0.000000      3.000000
  0.078506  0.039253  0.000000     24.000000
  0.098132  0.058879  0.019626     48.000000
  0.117758  0.078506  0.039253     48.000000
  0.137385  0.098132  0.058879     48.000000
 -0.078506 -0.117758 -0.157011     24.000000
  0.117758  0.039253  0.000000     24.000000
  0.137385  0.058879  0.019626     48.000000
  0.157011  0.078506  0.039253     48.000000
 -0.058879 -0.137385 -0.176638     48.000000
 -0.039253 -0.117758 -0.157011     48.000000
 -0.019626 -0.098132 -0.137385     48.000000
  0.000000 -0.078506 -0.117758     24.000000
  0.157011  0.039253  0.000000     24.000000
  0.176638  0.058879  0.019626     48.000000
 -0.039253 -0.157011 -0.196264     48.000000
 -0.019626 -0.137385 -0.176638     48.000000
  0.000000 -0.117758 -0.157011     24.000000
  0.196264  0.039253  0.000000     24.000000
 -0.019626 -0.176638 -0.215890     48.000000
  0.000000 -0.157011 -0.196264     24.000000
  0.000000 -0.196264 -0.235517     12.000000
  0.157011  0.078506  0.000000     24.000000
 -0.058879 -0.137385 -0.215890     48.000000
 -0.039253 -0.117758 -0.196264     24.000000
 -0.039253 -0.157011 -0.235517     24.000000
 -0.019626 -0.137385 -0.215890     48.000000
  0.000000 -0.117758 -0.196264     24.000000
  0.000000 -0.157011 -0.235517     12.000000
  0.000000 -0.117758 -0.235517      6.000000
 
 
 Subroutine IBZKPT_HF returns following result:
 ==============================================
 
 Found   1728 k-points in 1st BZ
 the following   1728 k-points will be used (e.g. in the exchange kernel)
 Following reciprocal coordinates:   # in IRBZ
  0.000000  0.000000  0.000000       1 t-inv F
  0.083333  0.000000  0.000000       2 t-inv F
  0.166667  0.000000  0.000000       3 t-inv F
  0.250000  0.000000  0.000000       4 t-inv F
  0.333333  0.000000  0.000000       5 t-inv F
  0.416667  0.000000  0.000000       6 t-inv F
  0.500000  0.000000  0.000000       7 t-inv F
  0.083333  0.083333  0.000000       8 t-inv F
  0.166667  0.083333  0.000000       9 t-inv F
  0.250000  0.083333  0.000000      10 t-inv F
  0.333333  0.083333  0.000000      11 t-inv F
  0.416667  0.083333  0.000000      12 t-inv F
  0.500000  0.083333  0.000000      13 t-inv F
 -0.416667  0.083333  0.000000      14 t-inv F
 -0.333333  0.083333  0.000000      15 t-inv F
 -0.250000  0.083333  0.000000      16 t-inv F
 -0.166667  0.083333  0.000000      17 t-inv F
 -0.083333  0.083333  0.000000      18 t-inv F
  0.166667  0.166667  0.000000      19 t-inv F
  0.250000  0.166667  0.000000      20 t-inv F
  0.333333  0.166667  0.000000      21 t-inv F
  0.416667  0.166667  0.000000      22 t-inv F
  0.500000  0.166667  0.000000      23 t-inv F
 -0.416667  0.166667  0.000000      24 t-inv F
 -0.333333  0.166667  0.000000      25 t-inv F
 -0.250000  0.166667  0.000000      26 t-inv F
 -0.166667  0.166667  0.000000      27 t-inv F
  0.250000  0.250000  0.000000      28 t-inv F
  0.333333  0.250000  0.000000      29 t-inv F
  0.416667  0.250000  0.000000      30 t-inv F
  0.500000  0.250000  0.000000      31 t-inv F
 -0.416667  0.250000  0.000000      32 t-inv F
 -0.333333  0.250000  0.000000      33 t-inv F
 -0.250000  0.250000  0.000000      34 t-inv F
  0.333333  0.333333  0.000000      35 t-inv F
  0.416667  0.333333  0.000000      36 t-inv F
  0.500000  0.333333  0.000000      37 t-inv F
 -0.416667  0.333333  0.000000      38 t-inv F
 -0.333333  0.333333  0.000000      39 t-inv F
  0.416667  0.416667  0.000000      40 t-inv F
  0.500000  0.416667  0.000000      41 t-inv F
 -0.416667  0.416667  0.000000      42 t-inv F
  0.500000  0.500000  0.000000      43 t-inv F
  0.250000  0.166667  0.083333      44 t-inv F
  0.333333  0.166667  0.083333      45 t-inv F
  0.416667  0.166667  0.083333      46 t-inv F
  0.500000  0.166667  0.083333      47 t-inv F
 -0.416667  0.166667  0.083333      48 t-inv F
  0.333333  0.250000  0.083333      49 t-inv F
  0.416667  0.250000  0.083333      50 t-inv F
  0.500000  0.250000  0.083333      51 t-inv F
 -0.416667  0.250000  0.083333      52 t-inv F
 -0.333333  0.250000  0.083333      53 t-inv F
 -0.250000  0.250000  0.083333      54 t-inv F
 -0.166667  0.250000  0.083333      55 t-inv F
  0.416667  0.333333  0.083333      56 t-inv F
  0.500000  0.333333  0.083333      57 t-inv F
 -0.416667  0.333333  0.083333      58 t-inv F
 -0.333333  0.333333  0.083333      59 t-inv F
 -0.250000  0.333333  0.083333      60 t-inv F
  0.500000  0.416667  0.083333      61 t-inv F
 -0.416667  0.416667  0.083333      62 t-inv F
 -0.333333  0.416667  0.083333      63 t-inv F
 -0.416667  0.500000  0.083333      64 t-inv F
  0.500000  0.333333  0.166667      65 t-inv F
 -0.416667  0.333333  0.166667      66 t-inv F
 -0.333333  0.333333  0.166667      67 t-inv F
 -0.416667  0.416667  0.166667      68 t-inv F
 -0.333333  0.416667  0.166667      69 t-inv F
 -0.250000  0.416667  0.166667      70 t-inv F
 -0.333333  0.500000  0.166667      71 t-inv F
 -0.250000  0.500000  0.250000      72 t-inv F
 -0.083333  0.000000  0.000000       2 t-inv F
  0.000000  0.083333  0.000000       2 t-inv F
  0.000000 -0.083333  0.000000       2 t-inv F
  0.000000  0.000000  0.083333       2 t-inv F
  0.000000  0.000000 -0.083333       2 t-inv F
  0.083333  0.083333  0.083333       2 t-inv F
 -0.083333 -0.083333 -0.083333       2 t-inv F
 -0.166667  0.000000  0.000000       3 t-inv F
  0.000000  0.166667  0.000000       3 t-inv F
  0.000000 -0.166667  0.000000       3 t-inv F
  0.000000  0.000000  0.166667       3 t-inv F
  0.000000  0.000000 -0.166667       3 t-inv F
  0.166667  0.166667  0.166667       3 t-inv F
 -0.166667 -0.166667 -0.166667       3 t-inv F
 -0.250000  0.000000  0.000000       4 t-inv F
  0.000000  0.250000  0.000000       4 t-inv F
  0.000000 -0.250000  0.000000       4 t-inv F
  0.000000  0.000000  0.250000       4 t-inv F
  0.000000  0.000000 -0.250000       4 t-inv F
  0.250000  0.250000  0.250000       4 t-inv F
 -0.250000 -0.250000 -0.250000       4 t-inv F
 -0.333333  0.000000  0.000000       5 t-inv F
  0.000000  0.333333  0.000000       5 t-inv F
  0.000000 -0.333333  0.000000       5 t-inv F
  0.000000  0.000000  0.333333       5 t-inv F
  0.000000  0.000000 -0.333333       5 t-inv F
  0.333333  0.333333  0.333333       5 t-inv F
 -0.333333 -0.333333 -0.333333       5 t-inv F
 -0.416667  0.000000  0.000000       6 t-inv F
  0.000000  0.416667  0.000000       6 t-inv F
  0.000000 -0.416667  0.000000       6 t-inv F
  0.000000  0.000000  0.416667       6 t-inv F
  0.000000  0.000000 -0.416667       6 t-inv F
  0.416667  0.416667  0.416667       6 t-inv F
 -0.416667 -0.416667 -0.416667       6 t-inv F
  0.000000  0.500000  0.000000       7 t-inv F
  0.000000  0.000000  0.500000       7 t-inv F
  0.500000  0.500000  0.500000       7 t-inv F
 -0.083333 -0.083333  0.000000       8 t-inv F
  0.000000  0.083333  0.083333       8 t-inv F
  0.000000 -0.083333 -0.083333       8 t-inv F
  0.083333  0.000000  0.083333       8 t-inv F
 -0.083333  0.000000 -0.083333       8 t-inv F
 -0.166667 -0.083333  0.000000       9 t-inv F
  0.000000  0.166667  0.083333       9 t-inv F
  0.000000 -0.166667 -0.083333       9 t-inv F
  0.083333  0.000000  0.166667       9 t-inv F
 -0.083333  0.000000 -0.166667       9 t-inv F
  0.083333  0.083333 -0.083333       9 t-inv F
 -0.083333 -0.083333  0.083333       9 t-inv F
  0.166667  0.083333  0.166667       9 t-inv F
 -0.166667 -0.083333 -0.166667       9 t-inv F
  0.083333  0.166667  0.000000       9 t-inv F
 -0.083333 -0.166667  0.000000       9 t-inv F
  0.083333 -0.083333 -0.083333       9 t-inv F
 -0.083333  0.083333  0.083333       9 t-inv F
  0.166667  0.166667  0.083333       9 t-inv F
 -0.166667 -0.166667 -0.083333       9 t-inv F
  0.000000  0.083333  0.166667       9 t-inv F
  0.000000 -0.083333 -0.166667       9 t-inv F
 -0.083333  0.083333 -0.083333       9 t-inv F
  0.083333 -0.083333  0.083333       9 t-inv F
  0.083333  0.166667  0.166667       9 t-inv F
 -0.083333 -0.166667 -0.166667       9 t-inv F
  0.166667  0.000000  0.083333       9 t-inv F
 -0.166667  0.000000 -0.083333       9 t-inv F
 -0.250000 -0.083333  0.000000      10 t-inv F
  0.000000  0.250000  0.083333      10 t-inv F
  0.000000 -0.250000 -0.083333      10 t-inv F
  0.083333  0.000000  0.250000      10 t-inv F
 -0.083333  0.000000 -0.250000      10 t-inv F
  0.083333  0.083333 -0.166667      10 t-inv F
 -0.083333 -0.083333  0.166667      10 t-inv F
  0.250000  0.166667  0.250000      10 t-inv F
 -0.250000 -0.166667 -0.250000      10 t-inv F
  0.083333  0.250000  0.000000      10 t-inv F
 -0.083333 -0.250000  0.000000      10 t-inv F
  0.166667 -0.083333 -0.083333      10 t-inv F
 -0.166667  0.083333  0.083333      10 t-inv F
  0.250000  0.250000  0.166667      10 t-inv F
 -0.250000 -0.250000 -0.166667      10 t-inv F
  0.000000  0.083333  0.250000      10 t-inv F
  0.000000 -0.083333 -0.250000      10 t-inv F
 -0.083333  0.166667 -0.083333      10 t-inv F
  0.083333 -0.166667  0.083333      10 t-inv F
  0.166667  0.250000  0.250000      10 t-inv F
 -0.166667 -0.250000 -0.250000      10 t-inv F
  0.250000  0.000000  0.083333      10 t-inv F
 -0.250000  0.000000 -0.083333      10 t-inv F
 -0.333333 -0.083333  0.000000      11 t-inv F
  0.000000  0.333333  0.083333      11 t-inv F
  0.000000 -0.333333 -0.083333      11 t-inv F
  0.083333  0.000000  0.333333      11 t-inv F
 -0.083333  0.000000 -0.333333      11 t-inv F
  0.083333  0.083333 -0.250000      11 t-inv F
 -0.083333 -0.083333  0.250000      11 t-inv F
  0.333333  0.250000  0.333333      11 t-inv F
 -0.333333 -0.250000 -0.333333      11 t-inv F
  0.083333  0.333333  0.000000      11 t-inv F
 -0.083333 -0.333333  0.000000      11 t-inv F
  0.250000 -0.083333 -0.083333      11 t-inv F
 -0.250000  0.083333  0.083333      11 t-inv F
  0.333333  0.333333  0.250000      11 t-inv F
 -0.333333 -0.333333 -0.250000      11 t-inv F
  0.000000  0.083333  0.333333      11 t-inv F
  0.000000 -0.083333 -0.333333      11 t-inv F
 -0.083333  0.250000 -0.083333      11 t-inv F
  0.083333 -0.250000  0.083333      11 t-inv F
  0.250000  0.333333  0.333333      11 t-inv F
 -0.250000 -0.333333 -0.333333      11 t-inv F
  0.333333  0.000000  0.083333      11 t-inv F
 -0.333333  0.000000 -0.083333      11 t-inv F
 -0.416667 -0.083333  0.000000      12 t-inv F
  0.000000  0.416667  0.083333      12 t-inv F
  0.000000 -0.416667 -0.083333      12 t-inv F
  0.083333  0.000000  0.416667      12 t-inv F
 -0.083333  0.000000 -0.416667      12 t-inv F
  0.083333  0.083333 -0.333333      12 t-inv F
 -0.083333 -0.083333  0.333333      12 t-inv F
  0.416667  0.333333  0.416667      12 t-inv F
 -0.416667 -0.333333 -0.416667      12 t-inv F
  0.083333  0.416667  0.000000      12 t-inv F
 -0.083333 -0.416667  0.000000      12 t-inv F
  0.333333 -0.083333 -0.083333      12 t-inv F
 -0.333333  0.083333  0.083333      12 t-inv F
  0.416667  0.416667  0.333333      12 t-inv F
 -0.416667 -0.416667 -0.333333      12 t-inv F
  0.000000  0.083333  0.416667      12 t-inv F
  0.000000 -0.083333 -0.416667      12 t-inv F
 -0.083333  0.333333 -0.083333      12 t-inv F
  0.083333 -0.333333  0.083333      12 t-inv F
  0.333333  0.416667  0.416667      12 t-inv F
 -0.333333 -0.416667 -0.416667      12 t-inv F
  0.416667  0.000000  0.083333      12 t-inv F
 -0.416667  0.000000 -0.083333      12 t-inv F
 -0.500000 -0.083333  0.000000      13 t-inv F
  0.000000  0.500000  0.083333      13 t-inv F
  0.000000 -0.500000 -0.083333      13 t-inv F
  0.083333  0.000000  0.500000      13 t-inv F
 -0.083333  0.000000 -0.500000      13 t-inv F
  0.083333  0.083333 -0.416667      13 t-inv F
 -0.083333 -0.083333  0.416667      13 t-inv F
  0.500000  0.416667  0.500000      13 t-inv F
 -0.500000 -0.416667 -0.500000      13 t-inv F
  0.083333  0.500000  0.000000      13 t-inv F
 -0.083333 -0.500000  0.000000      13 t-inv F
  0.416667 -0.083333 -0.083333      13 t-inv F
 -0.416667  0.083333  0.083333      13 t-inv F
  0.500000  0.500000  0.416667      13 t-inv F
 -0.500000 -0.500000 -0.416667      13 t-inv F
  0.000000  0.083333  0.500000      13 t-inv F
  0.000000 -0.083333 -0.500000      13 t-inv F
 -0.083333  0.416667 -0.083333      13 t-inv F
  0.083333 -0.416667  0.083333      13 t-inv F
  0.416667  0.500000  0.500000      13 t-inv F
 -0.416667 -0.500000 -0.500000      13 t-inv F
  0.500000  0.000000  0.083333      13 t-inv F
 -0.500000  0.000000 -0.083333      13 t-inv F
  0.416667 -0.083333  0.000000      14 t-inv F
  0.000000 -0.416667  0.083333      14 t-inv F
  0.000000  0.416667 -0.083333      14 t-inv F
  0.083333  0.000000 -0.416667      14 t-inv F
 -0.083333  0.000000  0.416667      14 t-inv F
  0.083333  0.083333  0.500000      14 t-inv F
 -0.083333 -0.083333 -0.500000      14 t-inv F
 -0.416667 -0.500000 -0.416667      14 t-inv F
  0.416667  0.500000  0.416667      14 t-inv F
  0.083333 -0.416667  0.000000      14 t-inv F
 -0.083333  0.416667  0.000000      14 t-inv F
 -0.500000 -0.083333 -0.083333      14 t-inv F
  0.500000  0.083333  0.083333      14 t-inv F
 -0.416667 -0.416667 -0.500000      14 t-inv F
  0.416667  0.416667  0.500000      14 t-inv F
  0.000000  0.083333 -0.416667      14 t-inv F
  0.000000 -0.083333  0.416667      14 t-inv F
 -0.083333 -0.500000 -0.083333      14 t-inv F
  0.083333  0.500000  0.083333      14 t-inv F
 -0.500000 -0.416667 -0.416667      14 t-inv F
  0.500000  0.416667  0.416667      14 t-inv F
 -0.416667  0.000000  0.083333      14 t-inv F
  0.416667  0.000000 -0.083333      14 t-inv F
  0.333333 -0.083333  0.000000      15 t-inv F
  0.000000 -0.333333  0.083333      15 t-inv F
  0.000000  0.333333 -0.083333      15 t-inv F
  0.083333  0.000000 -0.333333      15 t-inv F
 -0.083333  0.000000  0.333333      15 t-inv F
  0.083333  0.083333  0.416667      15 t-inv F
 -0.083333 -0.083333 -0.416667      15 t-inv F
 -0.333333 -0.416667 -0.333333      15 t-inv F
  0.333333  0.416667  0.333333      15 t-inv F
  0.083333 -0.333333  0.000000      15 t-inv F
 -0.083333  0.333333  0.000000      15 t-inv F
 -0.416667 -0.083333 -0.083333      15 t-inv F
  0.416667  0.083333  0.083333      15 t-inv F
 -0.333333 -0.333333 -0.416667      15 t-inv F
  0.333333  0.333333  0.416667      15 t-inv F
  0.000000  0.083333 -0.333333      15 t-inv F
  0.000000 -0.083333  0.333333      15 t-inv F
 -0.083333 -0.416667 -0.083333      15 t-inv F
  0.083333  0.416667  0.083333      15 t-inv F
 -0.416667 -0.333333 -0.333333      15 t-inv F
  0.416667  0.333333  0.333333      15 t-inv F
 -0.333333  0.000000  0.083333      15 t-inv F
  0.333333  0.000000 -0.083333      15 t-inv F
  0.250000 -0.083333  0.000000      16 t-inv F
  0.000000 -0.250000  0.083333      16 t-inv F
  0.000000  0.250000 -0.083333      16 t-inv F
  0.083333  0.000000 -0.250000      16 t-inv F
 -0.083333  0.000000  0.250000      16 t-inv F
  0.083333  0.083333  0.333333      16 t-inv F
 -0.083333 -0.083333 -0.333333      16 t-inv F
 -0.250000 -0.333333 -0.250000      16 t-inv F
  0.250000  0.333333  0.250000      16 t-inv F
  0.083333 -0.250000  0.000000      16 t-inv F
 -0.083333  0.250000  0.000000      16 t-inv F
 -0.333333 -0.083333 -0.083333      16 t-inv F
  0.333333  0.083333  0.083333      16 t-inv F
 -0.250000 -0.250000 -0.333333      16 t-inv F
  0.250000  0.250000  0.333333      16 t-inv F
  0.000000  0.083333 -0.250000      16 t-inv F
  0.000000 -0.083333  0.250000      16 t-inv F
 -0.083333 -0.333333 -0.083333      16 t-inv F
  0.083333  0.333333  0.083333      16 t-inv F
 -0.333333 -0.250000 -0.250000      16 t-inv F
  0.333333  0.250000  0.250000      16 t-inv F
 -0.250000  0.000000  0.083333      16 t-inv F
  0.250000  0.000000 -0.083333      16 t-inv F
  0.166667 -0.083333  0.000000      17 t-inv F
  0.000000 -0.166667  0.083333      17 t-inv F
  0.000000  0.166667 -0.083333      17 t-inv F
  0.083333  0.000000 -0.166667      17 t-inv F
 -0.083333  0.000000  0.166667      17 t-inv F
  0.083333  0.083333  0.250000      17 t-inv F
 -0.083333 -0.083333 -0.250000      17 t-inv F
 -0.166667 -0.250000 -0.166667      17 t-inv F
  0.166667  0.250000  0.166667      17 t-inv F
  0.083333 -0.166667  0.000000      17 t-inv F
 -0.083333  0.166667  0.000000      17 t-inv F
 -0.250000 -0.083333 -0.083333      17 t-inv F
  0.250000  0.083333  0.083333      17 t-inv F
 -0.166667 -0.166667 -0.250000      17 t-inv F
  0.166667  0.166667  0.250000      17 t-inv F
  0.000000  0.083333 -0.166667      17 t-inv F
  0.000000 -0.083333  0.166667      17 t-inv F
 -0.083333 -0.250000 -0.083333      17 t-inv F
  0.083333  0.250000  0.083333      17 t-inv F
 -0.250000 -0.166667 -0.166667      17 t-inv F
  0.250000  0.166667  0.166667      17 t-inv F
 -0.166667  0.000000  0.083333      17 t-inv F
  0.166667  0.000000 -0.083333      17 t-inv F
  0.083333 -0.083333  0.000000      18 t-inv F
  0.000000 -0.083333  0.083333      18 t-inv F
  0.000000  0.083333 -0.083333      18 t-inv F
  0.083333  0.000000 -0.083333      18 t-inv F
 -0.083333  0.000000  0.083333      18 t-inv F
  0.083333  0.083333  0.166667      18 t-inv F
 -0.083333 -0.083333 -0.166667      18 t-inv F
 -0.083333 -0.166667 -0.083333      18 t-inv F
  0.083333  0.166667  0.083333      18 t-inv F
 -0.166667 -0.083333 -0.083333      18 t-inv F
  0.166667  0.083333  0.083333      18 t-inv F
 -0.166667 -0.166667  0.000000      19 t-inv F
  0.000000  0.166667  0.166667      19 t-inv F
  0.000000 -0.166667 -0.166667      19 t-inv F
  0.166667  0.000000  0.166667      19 t-inv F
 -0.166667  0.000000 -0.166667      19 t-inv F
 -0.250000 -0.166667  0.000000      20 t-inv F
  0.000000  0.250000  0.166667      20 t-inv F
  0.000000 -0.250000 -0.166667      20 t-inv F
  0.166667  0.000000  0.250000      20 t-inv F
 -0.166667  0.000000 -0.250000      20 t-inv F
  0.166667  0.166667 -0.083333      20 t-inv F
 -0.166667 -0.166667  0.083333      20 t-inv F
  0.250000  0.083333  0.250000      20 t-inv F
 -0.250000 -0.083333 -0.250000      20 t-inv F
  0.166667  0.250000  0.000000      20 t-inv F
 -0.166667 -0.250000  0.000000      20 t-inv F
  0.083333 -0.166667 -0.166667      20 t-inv F
 -0.083333  0.166667  0.166667      20 t-inv F
  0.250000  0.250000  0.083333      20 t-inv F
 -0.250000 -0.250000 -0.083333      20 t-inv F
  0.000000  0.166667  0.250000      20 t-inv F
  0.000000 -0.166667 -0.250000      20 t-inv F
 -0.166667  0.083333 -0.166667      20 t-inv F
  0.166667 -0.083333  0.166667      20 t-inv F
  0.083333  0.250000  0.250000      20 t-inv F
 -0.083333 -0.250000 -0.250000      20 t-inv F
  0.250000  0.000000  0.166667      20 t-inv F
 -0.250000  0.000000 -0.166667      20 t-inv F
 -0.333333 -0.166667  0.000000      21 t-inv F
  0.000000  0.333333  0.166667      21 t-inv F
  0.000000 -0.333333 -0.166667      21 t-inv F
  0.166667  0.000000  0.333333      21 t-inv F
 -0.166667  0.000000 -0.333333      21 t-inv F
  0.166667  0.166667 -0.166667      21 t-inv F
 -0.166667 -0.166667  0.166667      21 t-inv F
  0.333333  0.166667  0.333333      21 t-inv F
 -0.333333 -0.166667 -0.333333      21 t-inv F
  0.166667  0.333333  0.000000      21 t-inv F
 -0.166667 -0.333333  0.000000      21 t-inv F
  0.166667 -0.166667 -0.166667      21 t-inv F
 -0.166667  0.166667  0.166667      21 t-inv F
  0.333333  0.333333  0.166667      21 t-inv F
 -0.333333 -0.333333 -0.166667      21 t-inv F
  0.000000  0.166667  0.333333      21 t-inv F
  0.000000 -0.166667 -0.333333      21 t-inv F
 -0.166667  0.166667 -0.166667      21 t-inv F
  0.166667 -0.166667  0.166667      21 t-inv F
  0.166667  0.333333  0.333333      21 t-inv F
 -0.166667 -0.333333 -0.333333      21 t-inv F
  0.333333  0.000000  0.166667      21 t-inv F
 -0.333333  0.000000 -0.166667      21 t-inv F
 -0.416667 -0.166667  0.000000      22 t-inv F
  0.000000  0.416667  0.166667      22 t-inv F
  0.000000 -0.416667 -0.166667      22 t-inv F
  0.166667  0.000000  0.416667      22 t-inv F
 -0.166667  0.000000 -0.416667      22 t-inv F
  0.166667  0.166667 -0.250000      22 t-inv F
 -0.166667 -0.166667  0.250000      22 t-inv F
  0.416667  0.250000  0.416667      22 t-inv F
 -0.416667 -0.250000 -0.416667      22 t-inv F
  0.166667  0.416667  0.000000      22 t-inv F
 -0.166667 -0.416667  0.000000      22 t-inv F
  0.250000 -0.166667 -0.166667      22 t-inv F
 -0.250000  0.166667  0.166667      22 t-inv F
  0.416667  0.416667  0.250000      22 t-inv F
 -0.416667 -0.416667 -0.250000      22 t-inv F
  0.000000  0.166667  0.416667      22 t-inv F
  0.000000 -0.166667 -0.416667      22 t-inv F
 -0.166667  0.250000 -0.166667      22 t-inv F
  0.166667 -0.250000  0.166667      22 t-inv F
  0.250000  0.416667  0.416667      22 t-inv F
 -0.250000 -0.416667 -0.416667      22 t-inv F
  0.416667  0.000000  0.166667      22 t-inv F
 -0.416667  0.000000 -0.166667      22 t-inv F
 -0.500000 -0.166667  0.000000      23 t-inv F
  0.000000  0.500000  0.166667      23 t-inv F
  0.000000 -0.500000 -0.166667      23 t-inv F
  0.166667  0.000000  0.500000      23 t-inv F
 -0.166667  0.000000 -0.500000      23 t-inv F
  0.166667  0.166667 -0.333333      23 t-inv F
 -0.166667 -0.166667  0.333333      23 t-inv F
  0.500000  0.333333  0.500000      23 t-inv F
 -0.500000 -0.333333 -0.500000      23 t-inv F
  0.166667  0.500000  0.000000      23 t-inv F
 -0.166667 -0.500000  0.000000      23 t-inv F
  0.333333 -0.166667 -0.166667      23 t-inv F
 -0.333333  0.166667  0.166667      23 t-inv F
  0.500000  0.500000  0.333333      23 t-inv F
 -0.500000 -0.500000 -0.333333      23 t-inv F
  0.000000  0.166667  0.500000      23 t-inv F
  0.000000 -0.166667 -0.500000      23 t-inv F
 -0.166667  0.333333 -0.166667      23 t-inv F
  0.166667 -0.333333  0.166667      23 t-inv F
  0.333333  0.500000  0.500000      23 t-inv F
 -0.333333 -0.500000 -0.500000      23 t-inv F
  0.500000  0.000000  0.166667      23 t-inv F
 -0.500000  0.000000 -0.166667      23 t-inv F
  0.416667 -0.166667  0.000000      24 t-inv F
  0.000000 -0.416667  0.166667      24 t-inv F
  0.000000  0.416667 -0.166667      24 t-inv F
  0.166667  0.000000 -0.416667      24 t-inv F
 -0.166667  0.000000  0.416667      24 t-inv F
  0.166667  0.166667  0.583333      24 t-inv F
 -0.166667 -0.166667 -0.583333      24 t-inv F
 -0.416667 -0.583333 -0.416667      24 t-inv F
  0.416667  0.583333  0.416667      24 t-inv F
  0.166667 -0.416667  0.000000      24 t-inv F
 -0.166667  0.416667  0.000000      24 t-inv F
 -0.583333 -0.166667 -0.166667      24 t-inv F
  0.583333  0.166667  0.166667      24 t-inv F
 -0.416667 -0.416667 -0.583333      24 t-inv F
  0.416667  0.416667  0.583333      24 t-inv F
  0.000000  0.166667 -0.416667      24 t-inv F
  0.000000 -0.166667  0.416667      24 t-inv F
 -0.166667 -0.583333 -0.166667      24 t-inv F
  0.166667  0.583333  0.166667      24 t-inv F
 -0.583333 -0.416667 -0.416667      24 t-inv F
  0.583333  0.416667  0.416667      24 t-inv F
 -0.416667  0.000000  0.166667      24 t-inv F
  0.416667  0.000000 -0.166667      24 t-inv F
  0.333333 -0.166667  0.000000      25 t-inv F
  0.000000 -0.333333  0.166667      25 t-inv F
  0.000000  0.333333 -0.166667      25 t-inv F
  0.166667  0.000000 -0.333333      25 t-inv F
 -0.166667  0.000000  0.333333      25 t-inv F
  0.166667  0.166667  0.500000      25 t-inv F
 -0.166667 -0.166667 -0.500000      25 t-inv F
 -0.333333 -0.500000 -0.333333      25 t-inv F
  0.333333  0.500000  0.333333      25 t-inv F
  0.166667 -0.333333  0.000000      25 t-inv F
 -0.166667  0.333333  0.000000      25 t-inv F
 -0.500000 -0.166667 -0.166667      25 t-inv F
  0.500000  0.166667  0.166667      25 t-inv F
 -0.333333 -0.333333 -0.500000      25 t-inv F
  0.333333  0.333333  0.500000      25 t-inv F
  0.000000  0.166667 -0.333333      25 t-inv F
  0.000000 -0.166667  0.333333      25 t-inv F
 -0.166667 -0.500000 -0.166667      25 t-inv F
  0.166667  0.500000  0.166667      25 t-inv F
 -0.500000 -0.333333 -0.333333      25 t-inv F
  0.500000  0.333333  0.333333      25 t-inv F
 -0.333333  0.000000  0.166667      25 t-inv F
  0.333333  0.000000 -0.166667      25 t-inv F
  0.250000 -0.166667  0.000000      26 t-inv F
  0.000000 -0.250000  0.166667      26 t-inv F
  0.000000  0.250000 -0.166667      26 t-inv F
  0.166667  0.000000 -0.250000      26 t-inv F
 -0.166667  0.000000  0.250000      26 t-inv F
  0.166667  0.166667  0.416667      26 t-inv F
 -0.166667 -0.166667 -0.416667      26 t-inv F
 -0.250000 -0.416667 -0.250000      26 t-inv F
  0.250000  0.416667  0.250000      26 t-inv F
  0.166667 -0.250000  0.000000      26 t-inv F
 -0.166667  0.250000  0.000000      26 t-inv F
 -0.416667 -0.166667 -0.166667      26 t-inv F
  0.416667  0.166667  0.166667      26 t-inv F
 -0.250000 -0.250000 -0.416667      26 t-inv F
  0.250000  0.250000  0.416667      26 t-inv F
  0.000000  0.166667 -0.250000      26 t-inv F
  0.000000 -0.166667  0.250000      26 t-inv F
 -0.166667 -0.416667 -0.166667      26 t-inv F
  0.166667  0.416667  0.166667      26 t-inv F
 -0.416667 -0.250000 -0.250000      26 t-inv F
  0.416667  0.250000  0.250000      26 t-inv F
 -0.250000  0.000000  0.166667      26 t-inv F
  0.250000  0.000000 -0.166667      26 t-inv F
  0.166667 -0.166667  0.000000      27 t-inv F
  0.000000 -0.166667  0.166667      27 t-inv F
  0.000000  0.166667 -0.166667      27 t-inv F
  0.166667  0.000000 -0.166667      27 t-inv F
 -0.166667  0.000000  0.166667      27 t-inv F
  0.166667  0.166667  0.333333      27 t-inv F
 -0.166667 -0.166667 -0.333333      27 t-inv F
 -0.166667 -0.333333 -0.166667      27 t-inv F
  0.166667  0.333333  0.166667      27 t-inv F
 -0.333333 -0.166667 -0.166667      27 t-inv F
  0.333333  0.166667  0.166667      27 t-inv F
 -0.250000 -0.250000  0.000000      28 t-inv F
  0.000000  0.250000  0.250000      28 t-inv F
  0.000000 -0.250000 -0.250000      28 t-inv F
  0.250000  0.000000  0.250000      28 t-inv F
 -0.250000  0.000000 -0.250000      28 t-inv F
 -0.333333 -0.250000  0.000000      29 t-inv F
  0.000000  0.333333  0.250000      29 t-inv F
  0.000000 -0.333333 -0.250000      29 t-inv F
  0.250000  0.000000  0.333333      29 t-inv F
 -0.250000  0.000000 -0.333333      29 t-inv F
  0.250000  0.250000 -0.083333      29 t-inv F
 -0.250000 -0.250000  0.083333      29 t-inv F
  0.333333  0.083333  0.333333      29 t-inv F
 -0.333333 -0.083333 -0.333333      29 t-inv F
  0.250000  0.333333  0.000000      29 t-inv F
 -0.250000 -0.333333  0.000000      29 t-inv F
  0.083333 -0.250000 -0.250000      29 t-inv F
 -0.083333  0.250000  0.250000      29 t-inv F
  0.333333  0.333333  0.083333      29 t-inv F
 -0.333333 -0.333333 -0.083333      29 t-inv F
  0.000000  0.250000  0.333333      29 t-inv F
  0.000000 -0.250000 -0.333333      29 t-inv F
 -0.250000  0.083333 -0.250000      29 t-inv F
  0.250000 -0.083333  0.250000      29 t-inv F
  0.083333  0.333333  0.333333      29 t-inv F
 -0.083333 -0.333333 -0.333333      29 t-inv F
  0.333333  0.000000  0.250000      29 t-inv F
 -0.333333  0.000000 -0.250000      29 t-inv F
 -0.416667 -0.250000  0.000000      30 t-inv F
  0.000000  0.416667  0.250000      30 t-inv F
  0.000000 -0.416667 -0.250000      30 t-inv F
  0.250000  0.000000  0.416667      30 t-inv F
 -0.250000  0.000000 -0.416667      30 t-inv F
  0.250000  0.250000 -0.166667      30 t-inv F
 -0.250000 -0.250000  0.166667      30 t-inv F
  0.416667  0.166667  0.416667      30 t-inv F
 -0.416667 -0.166667 -0.416667      30 t-inv F
  0.250000  0.416667  0.000000      30 t-inv F
 -0.250000 -0.416667  0.000000      30 t-inv F
  0.166667 -0.250000 -0.250000      30 t-inv F
 -0.166667  0.250000  0.250000      30 t-inv F
  0.416667  0.416667  0.166667      30 t-inv F
 -0.416667 -0.416667 -0.166667      30 t-inv F
  0.000000  0.250000  0.416667      30 t-inv F
  0.000000 -0.250000 -0.416667      30 t-inv F
 -0.250000  0.166667 -0.250000      30 t-inv F
  0.250000 -0.166667  0.250000      30 t-inv F
  0.166667  0.416667  0.416667      30 t-inv F
 -0.166667 -0.416667 -0.416667      30 t-inv F
  0.416667  0.000000  0.250000      30 t-inv F
 -0.416667  0.000000 -0.250000      30 t-inv F
 -0.500000 -0.250000  0.000000      31 t-inv F
  0.000000  0.500000  0.250000      31 t-inv F
  0.000000 -0.500000 -0.250000      31 t-inv F
  0.250000  0.000000  0.500000      31 t-inv F
 -0.250000  0.000000 -0.500000      31 t-inv F
  0.250000  0.250000 -0.250000      31 t-inv F
 -0.250000 -0.250000  0.250000      31 t-inv F
  0.500000  0.250000  0.500000      31 t-inv F
 -0.500000 -0.250000 -0.500000      31 t-inv F
  0.250000  0.500000  0.000000      31 t-inv F
 -0.250000 -0.500000  0.000000      31 t-inv F
  0.250000 -0.250000 -0.250000      31 t-inv F
 -0.250000  0.250000  0.250000      31 t-inv F
  0.500000  0.500000  0.250000      31 t-inv F
 -0.500000 -0.500000 -0.250000      31 t-inv F
  0.000000  0.250000  0.500000      31 t-inv F
  0.000000 -0.250000 -0.500000      31 t-inv F
 -0.250000  0.250000 -0.250000      31 t-inv F
  0.250000 -0.250000  0.250000      31 t-inv F
  0.250000  0.500000  0.500000      31 t-inv F
 -0.250000 -0.500000 -0.500000      31 t-inv F
  0.500000  0.000000  0.250000      31 t-inv F
 -0.500000  0.000000 -0.250000      31 t-inv F
  0.416667 -0.250000  0.000000      32 t-inv F
  0.000000 -0.416667  0.250000      32 t-inv F
  0.000000  0.416667 -0.250000      32 t-inv F
  0.250000  0.000000 -0.416667      32 t-inv F
 -0.250000  0.000000  0.416667      32 t-inv F
  0.250000  0.250000  0.666667      32 t-inv F
 -0.250000 -0.250000 -0.666667      32 t-inv F
 -0.416667 -0.666667 -0.416667      32 t-inv F
  0.416667  0.666667  0.416667      32 t-inv F
  0.250000 -0.416667  0.000000      32 t-inv F
 -0.250000  0.416667  0.000000      32 t-inv F
 -0.666667 -0.250000 -0.250000      32 t-inv F
  0.666667  0.250000  0.250000      32 t-inv F
 -0.416667 -0.416667 -0.666667      32 t-inv F
  0.416667  0.416667  0.666667      32 t-inv F
  0.000000  0.250000 -0.416667      32 t-inv F
  0.000000 -0.250000  0.416667      32 t-inv F
 -0.250000 -0.666667 -0.250000      32 t-inv F
  0.250000  0.666667  0.250000      32 t-inv F
 -0.666667 -0.416667 -0.416667      32 t-inv F
  0.666667  0.416667  0.416667      32 t-inv F
 -0.416667  0.000000  0.250000      32 t-inv F
  0.416667  0.000000 -0.250000      32 t-inv F
  0.333333 -0.250000  0.000000      33 t-inv F
  0.000000 -0.333333  0.250000      33 t-inv F
  0.000000  0.333333 -0.250000      33 t-inv F
  0.250000  0.000000 -0.333333      33 t-inv F
 -0.250000  0.000000  0.333333      33 t-inv F
  0.250000  0.250000  0.583333      33 t-inv F
 -0.250000 -0.250000 -0.583333      33 t-inv F
 -0.333333 -0.583333 -0.333333      33 t-inv F
  0.333333  0.583333  0.333333      33 t-inv F
  0.250000 -0.333333  0.000000      33 t-inv F
 -0.250000  0.333333  0.000000      33 t-inv F
 -0.583333 -0.250000 -0.250000      33 t-inv F
  0.583333  0.250000  0.250000      33 t-inv F
 -0.333333 -0.333333 -0.583333      33 t-inv F
  0.333333  0.333333  0.583333      33 t-inv F
  0.000000  0.250000 -0.333333      33 t-inv F
  0.000000 -0.250000  0.333333      33 t-inv F
 -0.250000 -0.583333 -0.250000      33 t-inv F
  0.250000  0.583333  0.250000      33 t-inv F
 -0.583333 -0.333333 -0.333333      33 t-inv F
  0.583333  0.333333  0.333333      33 t-inv F
 -0.333333  0.000000  0.250000      33 t-inv F
  0.333333  0.000000 -0.250000      33 t-inv F
  0.250000 -0.250000  0.000000      34 t-inv F
  0.000000 -0.250000  0.250000      34 t-inv F
  0.000000  0.250000 -0.250000      34 t-inv F
  0.250000  0.000000 -0.250000      34 t-inv F
 -0.250000  0.000000  0.250000      34 t-inv F
  0.250000  0.250000  0.500000      34 t-inv F
 -0.250000 -0.250000 -0.500000      34 t-inv F
 -0.250000 -0.500000 -0.250000      34 t-inv F
  0.250000  0.500000  0.250000      34 t-inv F
 -0.500000 -0.250000 -0.250000      34 t-inv F
  0.500000  0.250000  0.250000      34 t-inv F
 -0.333333 -0.333333  0.000000      35 t-inv F
  0.000000  0.333333  0.333333      35 t-inv F
  0.000000 -0.333333 -0.333333      35 t-inv F
  0.333333  0.000000  0.333333      35 t-inv F
 -0.333333  0.000000 -0.333333      35 t-inv F
 -0.416667 -0.333333  0.000000      36 t-inv F
  0.000000  0.416667  0.333333      36 t-inv F
  0.000000 -0.416667 -0.333333      36 t-inv F
  0.333333  0.000000  0.416667      36 t-inv F
 -0.333333  0.000000 -0.416667      36 t-inv F
  0.333333  0.333333 -0.083333      36 t-inv F
 -0.333333 -0.333333  0.083333      36 t-inv F
  0.416667  0.083333  0.416667      36 t-inv F
 -0.416667 -0.083333 -0.416667      36 t-inv F
  0.333333  0.416667  0.000000      36 t-inv F
 -0.333333 -0.416667  0.000000      36 t-inv F
  0.083333 -0.333333 -0.333333      36 t-inv F
 -0.083333  0.333333  0.333333      36 t-inv F
  0.416667  0.416667  0.083333      36 t-inv F
 -0.416667 -0.416667 -0.083333      36 t-inv F
  0.000000  0.333333  0.416667      36 t-inv F
  0.000000 -0.333333 -0.416667      36 t-inv F
 -0.333333  0.083333 -0.333333      36 t-inv F
  0.333333 -0.083333  0.333333      36 t-inv F
  0.083333  0.416667  0.416667      36 t-inv F
 -0.083333 -0.416667 -0.416667      36 t-inv F
  0.416667  0.000000  0.333333      36 t-inv F
 -0.416667  0.000000 -0.333333      36 t-inv F
 -0.500000 -0.333333  0.000000      37 t-inv F
  0.000000  0.500000  0.333333      37 t-inv F
  0.000000 -0.500000 -0.333333      37 t-inv F
  0.333333  0.000000  0.500000      37 t-inv F
 -0.333333  0.000000 -0.500000      37 t-inv F
  0.333333  0.333333 -0.166667      37 t-inv F
 -0.333333 -0.333333  0.166667      37 t-inv F
  0.500000  0.166667  0.500000      37 t-inv F
 -0.500000 -0.166667 -0.500000      37 t-inv F
  0.333333  0.500000  0.000000      37 t-inv F
 -0.333333 -0.500000  0.000000      37 t-inv F
  0.166667 -0.333333 -0.333333      37 t-inv F
 -0.166667  0.333333  0.333333      37 t-inv F
  0.500000  0.500000  0.166667      37 t-inv F
 -0.500000 -0.500000 -0.166667      37 t-inv F
  0.000000  0.333333  0.500000      37 t-inv F
  0.000000 -0.333333 -0.500000      37 t-inv F
 -0.333333  0.166667 -0.333333      37 t-inv F
  0.333333 -0.166667  0.333333      37 t-inv F
  0.166667  0.500000  0.500000      37 t-inv F
 -0.166667 -0.500000 -0.500000      37 t-inv F
  0.500000  0.000000  0.333333      37 t-inv F
 -0.500000  0.000000 -0.333333      37 t-inv F
  0.416667 -0.333333  0.000000      38 t-inv F
  0.000000 -0.416667  0.333333      38 t-inv F
  0.000000  0.416667 -0.333333      38 t-inv F
  0.333333  0.000000 -0.416667      38 t-inv F
 -0.333333  0.000000  0.416667      38 t-inv F
  0.333333  0.333333  0.750000      38 t-inv F
 -0.333333 -0.333333 -0.750000      38 t-inv F
 -0.416667 -0.750000 -0.416667      38 t-inv F
  0.416667  0.750000  0.416667      38 t-inv F
  0.333333 -0.416667  0.000000      38 t-inv F
 -0.333333  0.416667  0.000000      38 t-inv F
 -0.750000 -0.333333 -0.333333      38 t-inv F
  0.750000  0.333333  0.333333      38 t-inv F
 -0.416667 -0.416667 -0.750000      38 t-inv F
  0.416667  0.416667  0.750000      38 t-inv F
  0.000000  0.333333 -0.416667      38 t-inv F
  0.000000 -0.333333  0.416667      38 t-inv F
 -0.333333 -0.750000 -0.333333      38 t-inv F
  0.333333  0.750000  0.333333      38 t-inv F
 -0.750000 -0.416667 -0.416667      38 t-inv F
  0.750000  0.416667  0.416667      38 t-inv F
 -0.416667  0.000000  0.333333      38 t-inv F
  0.416667  0.000000 -0.333333      38 t-inv F
  0.333333 -0.333333  0.000000      39 t-inv F
  0.000000 -0.333333  0.333333      39 t-inv F
  0.000000  0.333333 -0.333333      39 t-inv F
  0.333333  0.000000 -0.333333      39 t-inv F
 -0.333333  0.000000  0.333333      39 t-inv F
  0.333333  0.333333  0.666667      39 t-inv F
 -0.333333 -0.333333 -0.666667      39 t-inv F
 -0.333333 -0.666667 -0.333333      39 t-inv F
  0.333333  0.666667  0.333333      39 t-inv F
 -0.666667 -0.333333 -0.333333      39 t-inv F
  0.666667  0.333333  0.333333      39 t-inv F
 -0.416667 -0.416667  0.000000      40 t-inv F
  0.000000  0.416667  0.416667      40 t-inv F
  0.000000 -0.416667 -0.416667      40 t-inv F
  0.416667  0.000000  0.416667      40 t-inv F
 -0.416667  0.000000 -0.416667      40 t-inv F
 -0.500000 -0.416667  0.000000      41 t-inv F
  0.000000  0.500000  0.416667      41 t-inv F
  0.000000 -0.500000 -0.416667      41 t-inv F
  0.416667  0.000000  0.500000      41 t-inv F
 -0.416667  0.000000 -0.500000      41 t-inv F
  0.416667  0.416667 -0.083333      41 t-inv F
 -0.416667 -0.416667  0.083333      41 t-inv F
  0.500000  0.083333  0.500000      41 t-inv F
 -0.500000 -0.083333 -0.500000      41 t-inv F
  0.416667  0.500000  0.000000      41 t-inv F
 -0.416667 -0.500000  0.000000      41 t-inv F
  0.083333 -0.416667 -0.416667      41 t-inv F
 -0.083333  0.416667  0.416667      41 t-inv F
  0.500000  0.500000  0.083333      41 t-inv F
 -0.500000 -0.500000 -0.083333      41 t-inv F
  0.000000  0.416667  0.500000      41 t-inv F
  0.000000 -0.416667 -0.500000      41 t-inv F
 -0.416667  0.083333 -0.416667      41 t-inv F
  0.416667 -0.083333  0.416667      41 t-inv F
  0.083333  0.500000  0.500000      41 t-inv F
 -0.083333 -0.500000 -0.500000      41 t-inv F
  0.500000  0.000000  0.416667      41 t-inv F
 -0.500000  0.000000 -0.416667      41 t-inv F
  0.416667 -0.416667  0.000000      42 t-inv F
  0.000000 -0.416667  0.416667      42 t-inv F
  0.000000  0.416667 -0.416667      42 t-inv F
  0.416667  0.000000 -0.416667      42 t-inv F
 -0.416667  0.000000  0.416667      42 t-inv F
  0.416667  0.416667  0.833333      42 t-inv F
 -0.416667 -0.416667 -0.833333      42 t-inv F
 -0.416667 -0.833333 -0.416667      42 t-inv F
  0.416667  0.833333  0.416667      42 t-inv F
 -0.833333 -0.416667 -0.416667      42 t-inv F
  0.833333  0.416667  0.416667      42 t-inv F
  0.000000  0.500000  0.500000      43 t-inv F
  0.500000  0.000000  0.500000      43 t-inv F
 -0.250000 -0.166667 -0.083333      44 t-inv F
  0.083333  0.250000  0.166667      44 t-inv F
 -0.083333 -0.250000 -0.166667      44 t-inv F
  0.166667  0.083333  0.250000      44 t-inv F
 -0.166667 -0.083333 -0.250000      44 t-inv F
  0.166667  0.083333 -0.083333      44 t-inv F
 -0.166667 -0.083333  0.083333      44 t-inv F
  0.250000  0.083333  0.166667      44 t-inv F
 -0.250000 -0.083333 -0.166667      44 t-inv F
  0.083333 -0.166667 -0.083333      44 t-inv F
 -0.083333  0.166667  0.083333      44 t-inv F
  0.083333  0.166667 -0.083333      44 t-inv F
 -0.083333 -0.166667  0.083333      44 t-inv F
  0.083333 -0.083333 -0.166667      44 t-inv F
 -0.083333  0.083333  0.166667      44 t-inv F
  0.166667  0.250000  0.083333      44 t-inv F
 -0.166667 -0.250000 -0.083333      44 t-inv F
 -0.083333  0.083333 -0.166667      44 t-inv F
  0.083333 -0.083333  0.166667      44 t-inv F
 -0.166667  0.083333 -0.083333      44 t-inv F
  0.166667 -0.083333  0.083333      44 t-inv F
  0.083333  0.166667  0.250000      44 t-inv F
 -0.083333 -0.166667 -0.250000      44 t-inv F
 -0.333333 -0.166667 -0.083333      45 t-inv F
  0.083333  0.333333  0.166667      45 t-inv F
 -0.083333 -0.333333 -0.166667      45 t-inv F
  0.166667  0.083333  0.333333      45 t-inv F
 -0.166667 -0.083333 -0.333333      45 t-inv F
  0.166667  0.083333 -0.166667      45 t-inv F
 -0.166667 -0.083333  0.166667      45 t-inv F
  0.333333  0.166667  0.250000      45 t-inv F
 -0.333333 -0.166667 -0.250000      45 t-inv F
  0.083333 -0.250000 -0.083333      45 t-inv F
 -0.083333  0.250000  0.083333      45 t-inv F
  0.083333  0.250000 -0.083333      45 t-inv F
 -0.083333 -0.250000  0.083333      45 t-inv F
  0.166667 -0.083333 -0.166667      45 t-inv F
 -0.166667  0.083333  0.166667      45 t-inv F
 -0.250000 -0.166667 -0.333333      45 t-inv F
  0.250000  0.166667  0.333333      45 t-inv F
  0.250000  0.333333  0.166667      45 t-inv F
 -0.250000 -0.333333 -0.166667      45 t-inv F
 -0.083333  0.083333 -0.250000      45 t-inv F
  0.083333 -0.083333  0.250000      45 t-inv F
 -0.166667  0.166667  0.083333      45 t-inv F
  0.166667 -0.166667 -0.083333      45 t-inv F
 -0.083333  0.083333  0.250000      45 t-inv F
  0.083333 -0.083333 -0.250000      45 t-inv F
 -0.166667  0.166667 -0.083333      45 t-inv F
  0.166667 -0.166667  0.083333      45 t-inv F
 -0.333333 -0.250000 -0.166667      45 t-inv F
  0.333333  0.250000  0.166667      45 t-inv F
  0.166667  0.250000  0.333333      45 t-inv F
 -0.166667 -0.250000 -0.333333      45 t-inv F
 -0.250000 -0.083333  0.083333      45 t-inv F
  0.250000  0.083333 -0.083333      45 t-inv F
  0.083333 -0.166667  0.166667      45 t-inv F
 -0.083333  0.166667 -0.166667      45 t-inv F
  0.250000 -0.083333  0.083333      45 t-inv F
 -0.250000  0.083333 -0.083333      45 t-inv F
 -0.083333 -0.166667  0.166667      45 t-inv F
  0.083333  0.166667 -0.166667      45 t-inv F
 -0.166667 -0.333333 -0.250000      45 t-inv F
  0.166667  0.333333  0.250000      45 t-inv F
 -0.333333 -0.083333 -0.166667      45 t-inv F
  0.333333  0.083333  0.166667      45 t-inv F
 -0.166667 -0.333333 -0.083333      45 t-inv F
  0.166667  0.333333  0.083333      45 t-inv F
 -0.083333 -0.166667 -0.333333      45 t-inv F
  0.083333  0.166667  0.333333      45 t-inv F
 -0.416667 -0.166667 -0.083333      46 t-inv F
  0.083333  0.416667  0.166667      46 t-inv F
 -0.083333 -0.416667 -0.166667      46 t-inv F
  0.166667  0.083333  0.416667      46 t-inv F
 -0.166667 -0.083333 -0.416667      46 t-inv F
  0.166667  0.083333 -0.250000      46 t-inv F
 -0.166667 -0.083333  0.250000      46 t-inv F
  0.416667  0.250000  0.333333      46 t-inv F
 -0.416667 -0.250000 -0.333333      46 t-inv F
  0.083333 -0.333333 -0.083333      46 t-inv F
 -0.083333  0.333333  0.083333      46 t-inv F
  0.083333  0.333333 -0.083333      46 t-inv F
 -0.083333 -0.333333  0.083333      46 t-inv F
  0.250000 -0.083333 -0.166667      46 t-inv F
 -0.250000  0.083333  0.166667      46 t-inv F
 -0.333333 -0.250000 -0.416667      46 t-inv F
  0.333333  0.250000  0.416667      46 t-inv F
  0.333333  0.416667  0.250000      46 t-inv F
 -0.333333 -0.416667 -0.250000      46 t-inv F
 -0.083333  0.083333 -0.333333      46 t-inv F
  0.083333 -0.083333  0.333333      46 t-inv F
 -0.250000  0.166667  0.083333      46 t-inv F
  0.250000 -0.166667 -0.083333      46 t-inv F
 -0.083333  0.083333  0.333333      46 t-inv F
  0.083333 -0.083333 -0.333333      46 t-inv F
 -0.166667  0.250000 -0.083333      46 t-inv F
  0.166667 -0.250000  0.083333      46 t-inv F
 -0.416667 -0.333333 -0.250000      46 t-inv F
  0.416667  0.333333  0.250000      46 t-inv F
  0.250000  0.333333  0.416667      46 t-inv F
 -0.250000 -0.333333 -0.416667      46 t-inv F
 -0.333333 -0.083333  0.083333      46 t-inv F
  0.333333  0.083333 -0.083333      46 t-inv F
  0.083333 -0.250000  0.166667      46 t-inv F
 -0.083333  0.250000 -0.166667      46 t-inv F
  0.333333 -0.083333  0.083333      46 t-inv F
 -0.333333  0.083333 -0.083333      46 t-inv F
 -0.083333 -0.166667  0.250000      46 t-inv F
  0.083333  0.166667 -0.250000      46 t-inv F
 -0.250000 -0.416667 -0.333333      46 t-inv F
  0.250000  0.416667  0.333333      46 t-inv F
 -0.416667 -0.083333 -0.166667      46 t-inv F
  0.416667  0.083333  0.166667      46 t-inv F
 -0.166667 -0.416667 -0.083333      46 t-inv F
  0.166667  0.416667  0.083333      46 t-inv F
 -0.083333 -0.166667 -0.416667      46 t-inv F
  0.083333  0.166667  0.416667      46 t-inv F
 -0.500000 -0.166667 -0.083333      47 t-inv F
[...]
      4       0.0003      0.00000
      5       0.0001      0.00000
      6       0.0001      0.00000
      7       0.0002      0.00000
      8       0.0001      0.00000
      9       0.0001      0.00000
     10       0.0001      0.00000
     11       0.0000      0.00000
     12       0.0000      0.00000
     13       0.0000      0.00000
     14       0.0000      0.00000
     15       0.0001      0.00000
     16       0.0001      0.00000

 k-point 152 :      -0.4167    0.0000    0.4167
  band No.  band energies     occupation 
      1       0.0003      0.00000
      2       0.0002      0.00000
      3       0.0003      0.00000
      4       0.0003      0.00000
      5       0.0001      0.00000
      6       0.0001      0.00000
      7       0.0002      0.00000
      8       0.0001      0.00000
      9       0.0001      0.00000
     10       0.0001      0.00000
     11       0.0000      0.00000
     12       0.0000      0.00000
     13       0.0000      0.00000
     14       0.0001      0.00000
     15       0.0000      0.00000
     16       0.0000      0.00000

 k-point 153 :       0.5000    0.0833    0.4167
  band No.  band energies     occupation 
      1       0.0003      0.00000
      2       0.0002      0.00000
      3       0.0003      0.00000
      4       0.0003      0.00000
      5       0.0001      0.00000
      6       0.0001      0.00000
      7       0.0002      0.00000
      8       0.0001      0.00000
      9       0.0001      0.00000
     10       0.0001      0.00000
     11       0.0001      0.00000
     12       0.0000      0.00000
     13       0.0000      0.00000
     14       0.0001      0.00000
     15       0.0000      0.00000
     16       0.0001      0.00000

 k-point 154 :      -0.4167    0.0833    0.4167
  band No.  band energies     occupation 
      1       0.0003      0.00000
      2       0.0002      0.00000
      3       0.0003      0.00000
      4       0.0003      0.00000
      5       0.0001      0.00000
      6       0.0001      0.00000
      7       0.0002      0.00000
      8       0.0001      0.00000
      9       0.0001      0.00000
     10       0.0000      0.00000
     11       0.0001      0.00000
     12       0.0001      0.00000
     13       0.0000      0.00000
     14       0.0001      0.00000
     15       0.0000      0.00000
     16       0.0001      0.00000

 k-point 155 :      -0.3333    0.0833    0.4167
  band No.  band energies     occupation 
      1       0.0003      0.00000
      2       0.0002      0.00000
      3       0.0002      0.00000
      4       0.0003      0.00000
      5       0.0001      0.00000
      6       0.0001      0.00000
      7       0.0002      0.00000
      8       0.0001      0.00000
      9       0.0001      0.00000
     10       0.0000      0.00000
     11       0.0001      0.00000
     12       0.0001      0.00000
     13       0.0000      0.00000
     14       0.0001      0.00000
     15       0.0000      0.00000
     16       0.0000      0.00000

 k-point 156 :      -0.4167   -0.8333   -0.5833
  band No.  band energies     occupation 
      1       0.0003      0.00000
      2       0.0002      0.00000
      3       0.0003      0.00000
      4       0.0003      0.00000
      5       0.0001      0.00000
      6       0.0001      0.00000
      7       0.0001      0.00000
      8       0.0001      0.00000
      9       0.0001      0.00000
     10       0.0000      0.00000
     11       0.0001      0.00000
     12       0.0001      0.00000
     13       0.0000      0.00000
     14       0.0001      0.00000
     15       0.0000      0.00000
     16       0.0000      0.00000

 k-point 157 :      -0.3333    0.1667    0.4167
  band No.  band energies     occupation 
      1       0.0003      0.00000
      2       0.0002      0.00000
      3       0.0002      0.00000
      4       0.0003      0.00000
      5       0.0001      0.00000
      6       0.0002      0.00000
      7       0.0001      0.00000
      8       0.0001      0.00000
      9       0.0001      0.00000
     10       0.0000      0.00000
     11       0.0001      0.00000
     12       0.0001      0.00000
     13       0.0000      0.00000
     14       0.0001      0.00000
     15       0.0000      0.00000
     16       0.0000      0.00000

 k-point 158 :      -0.2500    0.1667    0.4167
  band No.  band energies     occupation 
      1       0.0003      0.00000
      2       0.0002      0.00000
      3       0.0002      0.00000
      4       0.0003      0.00000
      5       0.0002      0.00000
      6       0.0002      0.00000
      7       0.0001      0.00000
      8       0.0001      0.00000
      9       0.0000      0.00000
     10       0.0000      0.00000
     11       0.0001      0.00000
     12       0.0001      0.00000
     13       0.0000      0.00000
     14       0.0001      0.00000
     15       0.0000      0.00000
     16       0.0000      0.00000

 k-point 159 :      -0.0833   -0.5000    0.4167
  band No.  band energies     occupation 
      1       0.0003      0.00000
      2       0.0002      0.00000
      3       0.0003      0.00000
      4       0.0003      0.00000
      5       0.0001      0.00000
      6       0.0001      0.00000
      7       0.0002      0.00000
      8       0.0001      0.00000
      9       0.0001      0.00000
     10       0.0001      0.00000
     11       0.0000      0.00000
     12       0.0000      0.00000
     13       0.0000      0.00000
     14       0.0000      0.00000
     15       0.0001      0.00000
     16       0.0001      0.00000

 k-point 160 :       0.5000    0.0000    0.5000
  band No.  band energies     occupation 
      1       0.0003      0.00000
      2       0.0002      0.00000
      3       0.0003      0.00000
      4       0.0003      0.00000
      5       0.0001      0.00000
      6       0.0000      0.00000
      7       0.0002      0.00000
      8       0.0001      0.00000
      9       0.0001      0.00000
     10       0.0001      0.00000
     11       0.0000      0.00000
     12       0.0000      0.00000
     13       0.0000      0.00000
     14       0.0000      0.00000
     15       0.0001      0.00000
     16       0.0001      0.00000

 k-point 161 :      -0.4167   -0.9167   -0.5000
  band No.  band energies     occupation 
      1       0.0003      0.00000
      2       0.0002      0.00000
      3       0.0003      0.00000
      4       0.0003      0.00000
      5       0.0001      0.00000
      6       0.0001      0.00000
      7       0.0002      0.00000
      8       0.0001      0.00000
      9       0.0001      0.00000
     10       0.0001      0.00000
     11       0.0000      0.00000
     12       0.0000      0.00000
     13       0.0000      0.00000
     14       0.0000      0.00000
     15       0.0001      0.00000
     16       0.0001      0.00000

 k-point 162 :      -0.3333   -0.8333   -0.5000
  band No.  band energies     occupation 
      1       0.0003      0.00000
      2       0.0002      0.00000
      3       0.0002      0.00000
      4       0.0003      0.00000
      5       0.0001      0.00000
      6       0.0001      0.00000
      7       0.0002      0.00000
      8       0.0001      0.00000
      9       0.0001      0.00000
     10       0.0000      0.00000
     11       0.0001      0.00000
     12       0.0001      0.00000
     13       0.0000      0.00000
     14       0.0001      0.00000
     15       0.0000      0.00000
     16       0.0000      0.00000

 k-point 163 :      -0.2500    0.2500   -0.5000
  band No.  band energies     occupation 
      1       0.0003      0.00000
      2       0.0002      0.00000
      3       0.0002      0.00000
      4       0.0003      0.00000
      5       0.0002      0.00000
      6       0.0002      0.00000
      7       0.0001      0.00000
      8       0.0001      0.00000
      9       0.0000      0.00000
     10       0.0000      0.00000
     11       0.0001      0.00000
     12       0.0001      0.00000
     13       0.0000      0.00000
     14       0.0001      0.00000
     15       0.0000      0.00000
     16       0.0000      0.00000


------------------------ aborting loop because EDIFF is reached ----------------------------------------


 FEWALD executed in parallel
    FORLOC:  cpu time    0.00: real time    0.00
    FORNL :  cpu time    0.03: real time    0.03
    STRESS:  cpu time    0.53: real time    0.53
    FORCOR:  cpu time    0.01: real time    0.01
 FEWALD executed in parallel
    FORLOC:  cpu time    0.00: real time    0.00
    FORNL :  cpu time    0.03: real time    0.03
    STRESS:  cpu time    0.53: real time    0.53
    FORCOR:  cpu time    0.00: real time    0.01
 FEWALD executed in parallel
    FORLOC:  cpu time    0.00: real time    0.00
    FORNL :  cpu time    0.03: real time    0.03
    STRESS:  cpu time    0.53: real time    0.53
    FORCOR:  cpu time    0.01: real time    0.01
 FEWALD executed in parallel
    FORLOC:  cpu time    0.00: real time    0.00
    FORNL :  cpu time    0.04: real time    0.04
    STRESS:  cpu time    0.53: real time    0.53
    FORCOR:  cpu time    0.00: real time    0.01

 INTERNAL STRAIN TENSOR  FOR ION    2  DIRECTION 1   (eV/Angst):
 -----------------------------------------------------------------------------
    -0.00008  0.00000  0.00000
     0.00000  0.00099  0.00000
     0.00000  0.00000  0.00099


 POSITION                   FORCE-CONSTANT FOR ION    2 DIRECTION 1 (eV/Angst/Angst)
 -----------------------------------------------------------------------------------
      0.00000      0.00000      0.00000         4.951451      0.000000      0.000000
      2.12299      2.12299     -2.12299        -4.951451      0.000000      0.000000
 -----------------------------------------------------------------------------------
    total drift:                                0.000000      0.000000      0.000000


 BORN EFFECTIVE CHARGE FOR ION    2 DIRECTION 1 :  -1.979   0.000   0.000
                   rigid augmentation           :  -0.650   0.000   0.000
                   ionic contribution           :   6.000   0.000   0.000
                   Berry contribution           :  -7.329   0.000   0.000


--------------------------------------------------------------------------------------------------------


  LATTYP: Found a face centered cubic cell.
 ALAT       =     4.2459832834
  
  Lattice vectors:
  
 A1 = (   2.1229916417,   2.1229916417,   0.0000000000)
 A2 = (   2.1229916417,   0.0000000000,  -2.1229916417)
 A3 = (   0.0000000000,   2.1229916417,  -2.1229916417)


Analysis of symmetry for initial positions (statically):
=====================================================================
 Subroutine PRICEL returns:
 Original cell was already a primitive cell.
 

 Routine SETGRP: Setting up the symmetry group for a 
 face centered cubic supercell.


 Subroutine GETGRP returns: Found 48 space group operations
 (whereof 48 operations were pure point group operations)
 out of a pool of 48 trial point group operations.


The static configuration has the point symmetry O_h .


Analysis of symmetry for dynamics (positions and initial velocities):
=====================================================================
 Subroutine PRICEL returns:
 Original cell was already a primitive cell.
 

 Routine SETGRP: Setting up the symmetry group for a 
 face centered cubic supercell.


 Subroutine GETGRP returns: Found 48 space group operations
 (whereof 48 operations were pure point group operations)
 out of a pool of 48 trial point group operations.


The dynamic configuration has the point symmetry O_h .


--------------------------------------------------------------------------------------------------------




 MACROSCOPIC STATIC DIELECTRIC TENSOR (including local field effects in DFT)
 ------------------------------------------------------
           3.162343     0.000000     0.000000
           0.000000     3.162343     0.000000
           0.000000     0.000000     3.162343
 ------------------------------------------------------


 PIEZOELECTRIC TENSOR  for field in x, y, z        (e  Angst)
          XX          YY          ZZ          XY          YZ          ZX
  --------------------------------------------------------------------------------
  x    -0.00002    -0.00003    -0.00003     0.00000     0.00000     0.00000
  y    -0.00003    -0.00002    -0.00003     0.00000     0.00000     0.00000
  z     0.00005     0.00005    -0.00002     0.00000     0.00000     0.00000

 PIEZOELECTRIC TENSOR  for field in x, y, z        (C/m^2)
          XX          YY          ZZ          XY          YZ          ZX
  --------------------------------------------------------------------------------
  x     0.00000     0.00000     0.00000     0.00000     0.00000     0.00000
  y     0.00000     0.00000     0.00000     0.00000     0.00000     0.00000
  z     0.00000     0.00000     0.00000     0.00000     0.00000     0.00000
 
 BORN EFFECTIVE CHARGES (in e, cummulative output)
 -------------------------------------------------
 ion    1
    1     1.97881     0.00000     0.00000
    2     0.00000     1.97882     0.00000
    3     0.00000     0.00000     1.97883
 ion    2
    1    -1.97897     0.00000     0.00000
    2     0.00000    -1.97897     0.00000
    3     0.00000     0.00000    -1.97893

 INTERNAL STRAIN TENSOR FOR ION    1 for displacements in x,y,z  (eV/Angst):
          X           Y           Z          XY          YZ          ZX
  --------------------------------------------------------------------------------
  x     0.00000     0.00000     0.00000     0.00000     0.00000     0.00000
  y     0.00000     0.00000     0.00000     0.00000     0.00000     0.00000
  z     0.00000     0.00000     0.00000     0.00000     0.00000     0.00000

 INTERNAL STRAIN TENSOR FOR ION    2 for displacements in x,y,z  (eV/Angst):
          X           Y           Z          XY          YZ          ZX
  --------------------------------------------------------------------------------
  x     0.00000     0.00000     0.00000     0.00000     0.00000     0.00000
  y     0.00000     0.00000     0.00000     0.00000     0.00000     0.00000
  z     0.00000     0.00000     0.00000     0.00000     0.00000     0.00000


--------------------------------------------------------------------------------------------------------


 
 SECOND DERIVATIVES (NOT SYMMETRIZED)
 ------------------------------------
               1X          1Y          1Z          2X          2Y          2Z 
  1X    -4.928002    0.000000    0.000000    4.928002    0.000000    0.000000
  1Y     0.000000   -4.928002    0.000000    0.000000    4.928002    0.000000
  1Z     0.000000    0.000000   -4.928002    0.000000    0.000000    4.928002
  2X     4.951451    0.000000    0.000000   -4.951451    0.000000    0.000000
  2Y     0.000000    4.951451    0.000000    0.000000   -4.951451    0.000000
  2Z     0.000000    0.000000    4.951451    0.000000    0.000000   -4.951451
 
 
 Eigenvectors and eigenvalues of the dynamical matrix
 ----------------------------------------------------
 
 
   1 f  =   11.188717 THz    70.300781 2PiTHz  373.215409 cm-1    46.272830 meV
             X         Y         Z           dx          dy          dz
      0.000000  0.000000  0.000000     0.000000    0.629156    0.000000  
      2.122992  2.122992 -2.122992     0.000000   -0.777279    0.000000  
 
   2 f  =   11.188717 THz    70.300781 2PiTHz  373.215409 cm-1    46.272830 meV
             X         Y         Z           dx          dy          dz
      0.000000  0.000000  0.000000    -0.629156    0.000000    0.000000  
      2.122992  2.122992 -2.122992     0.777279    0.000000    0.000000  
 
   3 f  =   11.188717 THz    70.300781 2PiTHz  373.215409 cm-1    46.272830 meV
             X         Y         Z           dx          dy          dz
      0.000000  0.000000  0.000000     0.000000    0.000000   -0.629156  
      2.122992  2.122992 -2.122992     0.000000    0.000000    0.777279  
 
   4 f/i=    0.012987 THz     0.081601 2PiTHz    0.433204 cm-1     0.053711 meV
             X         Y         Z           dx          dy          dz
      0.000000  0.000000  0.000000     0.777279    0.000000    0.000000  
      2.122992  2.122992 -2.122992     0.629156    0.000000    0.000000  
 
   5 f/i=    0.012987 THz     0.081601 2PiTHz    0.433204 cm-1     0.053711 meV
             X         Y         Z           dx          dy          dz
      0.000000  0.000000  0.000000     0.000000   -0.777279    0.000000  
      2.122992  2.122992 -2.122992     0.000000   -0.629156    0.000000  
 
   6 f/i=    0.012987 THz     0.081601 2PiTHz    0.433204 cm-1     0.053711 meV
             X         Y         Z           dx          dy          dz
      0.000000  0.000000  0.000000     0.000000    0.000000    0.777279  
      2.122992  2.122992 -2.122992     0.000000    0.000000    0.629156  
 


--------------------------------------------------------------------------------------------------------




 MACROSCOPIC STATIC DIELECTRIC TENSOR IONIC CONTRIBUTION
 ------------------------------------------------------
           7.496017     0.000000     0.000000
           0.000000     7.496059     0.000000
           0.000000     0.000000     7.495908
 ------------------------------------------------------


 ELASTIC MODULI IONIC CONTR (kBar)
 Direction    XX          YY          ZZ          XY          YZ          ZX
 --------------------------------------------------------------------------------
 XX           0.0000      0.0000      0.0000      0.0000      0.0000      0.0000
 YY           0.0000      0.0000      0.0000      0.0000      0.0000      0.0000
 ZZ           0.0000      0.0000      0.0000      0.0000      0.0000      0.0000
 XY           0.0000      0.0000      0.0000      0.0000      0.0000      0.0000
 YZ           0.0000      0.0000      0.0000      0.0000      0.0000      0.0000
 ZX           0.0000      0.0000      0.0000      0.0000      0.0000      0.0000
 --------------------------------------------------------------------------------


 PIEZOELECTRIC TENSOR IONIC CONTR  for field in x, y, z        (C/m^2)
          XX          YY          ZZ          XY          YZ          ZX
  --------------------------------------------------------------------------------
  x     0.00000     0.00000     0.00000     0.00000     0.00000     0.00000
  y     0.00000     0.00000     0.00000     0.00000     0.00000     0.00000
  z     0.00000     0.00000     0.00000     0.00000     0.00000     0.00000


--------------------------------------------------------------------------------------------------------


 writing wavefunctions
     LOOP+:  cpu time   89.63: real time   91.14
    4ORBIT:  cpu time    0.00: real time    0.00
 


 total charge     
 
# of ion     s       p       d       tot
----------------------------------------
  1        0.145   0.172   0.075   0.392
  2        1.540   3.547   0.000   5.087
------------------------------------------------
tot        1.685   3.719   0.075   5.479
 

 total amount of memory used by VASP on root node    40624. kBytes
========================================================================

   base      :      30000. kBytes
   nonl-proj :       8644. kBytes
   fftplans  :        304. kBytes
   grid      :        960. kBytes
   one-center:         16. kBytes
   wavefun   :        700. kBytes
 
  
  
 General timing and accounting informations for this job:
 ========================================================
  
                  Total CPU time used (sec):       95.634
                            User time (sec):       91.656
                          System time (sec):        3.978
                         Elapsed time (sec):       97.271
  
                   Maximum memory used (kb):      129764.
                   Average memory used (kb):           0.
  
                          Minor page faults:        11887
                          Major page faults:           33
                 Voluntary context switches:         2412
