 vasp.5.4.4.18Apr17-6-g9f103f2a35 (build Apr 25 2017 10:43:04) complex          
  
 executed on             LinuxIFC date 2019.08.28  21:57:56
 running on   36 total cores
 distrk:  each k-point on   36 cores,    1 groups
 distr:  one band on NCORES_PER_BAND=   1 cores,   36 groups


--------------------------------------------------------------------------------------------------------


 INCAR:
 POTCAR:    PAW_PBE Mg 13Apr2007                  
 POTCAR:    PAW_PBE O 08Apr2002                   

 ----------------------------------------------------------------------------- 
|                                                                             |
|           W    W    AA    RRRRR   N    N  II  N    N   GGGG   !!!           |
|           W    W   A  A   R    R  NN   N  II  NN   N  G    G  !!!           |
|           W    W  A    A  R    R  N N  N  II  N N  N  G       !!!           |
|           W WW W  AAAAAA  RRRRR   N  N N  II  N  N N  G  GGG   !            |
|           WW  WW  A    A  R   R   N   NN  II  N   NN  G    G                |
|           W    W  A    A  R    R  N    N  II  N    N   GGGG   !!!           |
|                                                                             |
|      For optimal performance we recommend to set                            |
|        NCORE= 4 - approx SQRT( number of cores)                             |
|      NCORE specifies how many cores store one orbital (NPAR=cpu/NCORE).     |
|      This setting can  greatly improve the performance of VASP for DFT.     |
|      The default,   NCORE=1            might be grossly inefficient         |
|      on modern multi-core architectures or massively parallel machines.     |
|      Do your own testing !!!!                                               |
|      Unfortunately you need to use the default for GW and RPA calculations. |
|      (for HF NCORE is supported but not extensively tested yet)             |
|                                                                             |
 ----------------------------------------------------------------------------- 

 POTCAR:    PAW_PBE Mg 13Apr2007                  
   VRHFIN =Mg: s2p0                                                             
   LEXCH  = PE                                                                  
   EATOM  =    23.0369 eV,    1.6932 Ry                                         
                                                                                
   TITEL  = PAW_PBE Mg 13Apr2007                                                
   LULTRA =        F    use ultrasoft PP ?                                      
   IUNSCR =        1    unscreen: 0-lin 1-nonlin 2-no                           
   RPACOR =    1.500    partial core radius                                     
   POMASS =   24.305; ZVAL   =    2.000    mass and valenz                      
   RCORE  =    2.000    outmost cutoff radius                                   
   RWIGS  =    2.880; RWIGS  =    1.524    wigner-seitz radius (au A)           
   ENMAX  =  200.000; ENMIN  =  100.000 eV                                      
   RCLOC  =    1.506    cutoff for local pot                                    
   LCOR   =        T    correct aug charges                                     
   LPAW   =        T    paw PP                                                  
   EAUG   =  454.734                                                            
   DEXC   =    0.000                                                            
   RMAX   =    2.045    core radius for proj-oper                               
   RAUG   =    1.300    factor for augmentation sphere                          
   RDEP   =    2.025    radius for radial grids                                 
   RDEPT  =    1.942    core radius for aug-charge                              
                                                                                
   Atomic configuration                                                         
    6 entries                                                                   
     n  l   j            E        occ.                                          
     1  0  0.50     -1259.6230   2.0000                                         
     2  0  0.50       -79.8442   2.0000                                         
     2  1  1.50       -46.6121   6.0000                                         
     3  0  0.50        -4.7055   2.0000                                         
     3  1  0.50        -1.3660   0.0000                                         
     3  2  1.50        -1.3606   0.0000                                         
   Description                                                                  
     l       E           TYP  RCUT    TYP  RCUT                                 
     0     -4.7054661     23  2.000                                             
     0     27.2116520     23  2.000                                             
     1      1.3605826     23  2.000                                             
     1     27.2116520     23  2.000                                             
     2     -1.3605826     23  2.000                                             
  local pseudopotential read in
  partial core-charges read in
  partial kinetic energy density read in
  atomic valenz-charges read in
  non local Contribution for L=           0  read in
    real space projection operators read in
  non local Contribution for L=           0  read in
    real space projection operators read in
  non local Contribution for L=           1  read in
    real space projection operators read in
  non local Contribution for L=           1  read in
    real space projection operators read in
  non local Contribution for L=           2  read in
    real space projection operators read in
    PAW grid and wavefunctions read in
 
   number of l-projection  operators is LMAX  =           5
   number of lm-projection operators is LMMAX =          13
 
 POTCAR:    PAW_PBE O 08Apr2002                   
   VRHFIN =O: s2p4                                                              
   LEXCH  = PE                                                                  
   EATOM  =   432.3788 eV,   31.7789 Ry                                         
                                                                                
   TITEL  = PAW_PBE O 08Apr2002                                                 
   LULTRA =        F    use ultrasoft PP ?                                      
   IUNSCR =        1    unscreen: 0-lin 1-nonlin 2-no                           
   RPACOR =    1.200    partial core radius                                     
   POMASS =   16.000; ZVAL   =    6.000    mass and valenz                      
   RCORE  =    1.520    outmost cutoff radius                                   
   RWIGS  =    1.550; RWIGS  =    0.820    wigner-seitz radius (au A)           
   ENMAX  =  400.000; ENMIN  =  300.000 eV                                      
   ICORE  =        2    local potential                                         
   LCOR   =        T    correct aug charges                                     
   LPAW   =        T    paw PP                                                  
   EAUG   =  605.392                                                            
   DEXC   =    0.000                                                            
   RMAX   =    1.553    core radius for proj-oper                               
   RAUG   =    1.300    factor for augmentation sphere                          
   RDEP   =    1.550    radius for radial grids                                 
   RDEPT  =    1.329    core radius for aug-charge                              
                                                                                
   Atomic configuration                                                         
    4 entries                                                                   
     n  l   j            E        occ.                                          
     1  0  0.50      -514.6923   2.0000                                         
     2  0  0.50       -23.9615   2.0000                                         
     2  1  0.50        -9.0305   4.0000                                         
     3  2  1.50        -9.5241   0.0000                                         
   Description                                                                  
     l       E           TYP  RCUT    TYP  RCUT                                 
     0    -23.9615318     23  1.200                                             
     0     -9.5240782     23  1.200                                             
     1     -9.0304911     23  1.520                                             
     1      8.1634956     23  1.520                                             
     2     -9.5240782      7  1.500                                             
  local pseudopotential read in
  partial core-charges read in
  partial kinetic energy density read in
  kinetic energy density of atom read in
  atomic valenz-charges read in
  non local Contribution for L=           0  read in
    real space projection operators read in
  non local Contribution for L=           0  read in
    real space projection operators read in
  non local Contribution for L=           1  read in
    real space projection operators read in
  non local Contribution for L=           1  read in
    real space projection operators read in
    PAW grid and wavefunctions read in
 
   number of l-projection  operators is LMAX  =           4
   number of lm-projection operators is LMMAX =           8
 
 Optimization of the real space projectors (new method)

 maximal supplied QI-value         = 18.90
 optimisation between [QCUT,QGAM] = [ 10.20, 20.41] = [ 29.16,116.64] Ry 
 Optimized for a Real-space Cutoff    1.30 Angstroem

   l    n(q)    QCUT    max X(q) W(low)/X(q) W(high)/X(q)  e(spline) 
   0      8    10.205    28.265    0.22E-03    0.17E-03    0.53E-07
   0      8    10.205    10.429    0.17E-03    0.15E-03    0.43E-07
   1      7    10.205    13.073    0.71E-04    0.41E-03    0.76E-07
   1      7    10.205     9.625    0.71E-04    0.33E-03    0.63E-07
   2      7    10.205     4.652    0.24E-03    0.41E-03    0.55E-07
 Optimization of the real space projectors (new method)

 maximal supplied QI-value         = 24.76
 optimisation between [QCUT,QGAM] = [ 10.15, 20.30] = [ 28.85,115.39] Ry 
 Optimized for a Real-space Cutoff    1.38 Angstroem

   l    n(q)    QCUT    max X(q) W(low)/X(q) W(high)/X(q)  e(spline) 
   0      8    10.150    20.381    0.22E-03    0.32E-03    0.29E-06
   0      8    10.150    15.268    0.23E-03    0.35E-03    0.30E-06
   1      8    10.150     5.964    0.46E-03    0.53E-03    0.21E-06
   1      8    10.150     5.382    0.38E-03    0.45E-03    0.19E-06

 ----------------------------------------------------------------------------- 
|                                                                             |
|  ADVICE TO THIS USER RUNNING 'VASP/VAMP'   (HEAR YOUR MASTER'S VOICE ...):  |
|                                                                             |
|      You enforced a specific xc-type in the INCAR file,                     |
|      a different type was found on the POTCAR file                          |
|          I HOPE YOU KNOW, WHAT YOU ARE  DOING                               |
|                                                                             |
 ----------------------------------------------------------------------------- 

  PAW_PBE Mg 13Apr2007                  :
 energy of atom  1       EATOM=  -23.0369
 kinetic energy error for atom=    0.0001 (will be added to EATOM!!)
  PAW_PBE O 08Apr2002                   :
 energy of atom  2       EATOM= -432.3788
 kinetic energy error for atom=    0.1156 (will be added to EATOM!!)
 
 
 POSCAR: Mg31 O32                                
  positions in direct lattice
  velocities in cartesian coordinates
 exchange correlation table for  LEXCH =       14
   RHO(1)=    0.500       N(1)  =     2000
   RHO(2)=  100.500       N(2)  =     4000
 


--------------------------------------------------------------------------------------------------------


 ion  position               nearest neighbor table
   1  0.000  0.000  0.500-  48 1.99  49 1.99  33 2.12  37 2.12  57 2.12  59 2.12  29 2.97  31 2.97
                            25 2.97  27 2.97  10 2.98  11 2.98  16 2.98  17 2.98  20 2.98  21 2.98
   2  0.000  0.500  0.000-  56 1.99  58 1.99  50 2.12  51 2.12  34 2.12  38 2.12  22 2.97  23 2.97
                            18 2.97  19 2.97  28 2.98  30 2.98   8 2.98   9 2.98  10 2.98  11 2.98
   3  0.000  0.500  0.500-  50 2.09  51 2.09  57 2.09  59 2.09  35 2.11  39 2.11  29 2.98  31 2.98
                            18 2.98  19 2.98  22 2.98  23 2.98  25 2.98  27 2.98  10 3.04  11 3.04
   4  0.500  0.000  0.000-  32 1.99  36 1.99  52 2.12  53 2.12  60 2.12  62 2.12  14 2.97  15 2.97
                            12 2.97  13 2.97  28 2.98  30 2.98  16 2.98  17 2.98  20 2.98  21 2.98
   5  0.500  0.000  0.500-  33 2.09  37 2.09  52 2.09  53 2.09  61 2.11  63 2.11  29 2.98  31 2.98
                            12 2.98  13 2.98  14 2.98  15 2.98  25 2.98  27 2.98  20 3.04  21 3.04
   6  0.500  0.500  0.000-  34 2.09  38 2.09  60 2.09  62 2.09  54 2.11  55 2.11  22 2.98  23 2.98
                            12 2.98  13 2.98  14 2.98  15 2.98  18 2.98  19 2.98  28 3.04  30 3.04
   7  0.500  0.500  0.500-  35 2.10  39 2.10  54 2.10  55 2.10  61 2.10  63 2.10  22 2.99  23 2.99
                            25 2.99  27 2.99  29 2.99  31 2.99  12 2.99  13 2.99  14 2.99  15 2.99
   8  0.000  0.244  0.244-  48 2.06  56 2.06  40 2.10  44 2.10  50 2.15  57 2.15  24 2.91  28 2.91
                            16 2.91  20 2.91   1 2.98   2 2.98  22 3.01  29 3.01  18 3.01  25 3.01
   9  0.000  0.244  0.756-  49 2.06  56 2.06  41 2.10  45 2.10  51 2.15  57 2.15  24 2.91  28 2.91
                            17 2.91  21 2.91   1 2.98   2 2.98  23 3.01  29 3.01  19 3.01  25 3.01
  10  0.000  0.756  0.244-  48 2.06  58 2.06  42 2.10  46 2.10  50 2.15  59 2.15  26 2.91  30 2.91
                            16 2.91  20 2.91   1 2.98   2 2.98  22 3.01  31 3.01  18 3.01  27 3.01
  11  0.000  0.756  0.756-  49 2.06  58 2.06  43 2.10  47 2.10  51 2.15  59 2.15  26 2.91  30 2.91
                            17 2.91  21 2.91   1 2.98   2 2.98  23 3.01  31 3.01  19 3.01  27 3.01
  12  0.500  0.249  0.249-  52 2.10  60 2.10  40 2.11  44 2.11  54 2.11  61 2.11   4 2.97   5 2.98
                             6 2.98  18 2.99  22 2.99  25 2.99  29 2.99   7 2.99  28 3.01  16 3.01
  13  0.500  0.249  0.751-  53 2.10  60 2.10  41 2.11  45 2.11  55 2.11  61 2.11   4 2.97   5 2.98
                             6 2.98  19 2.99  23 2.99  25 2.99  29 2.99   7 2.99  28 3.01  17 3.01
  14  0.500  0.751  0.249-  52 2.10  62 2.10  42 2.11  46 2.11  54 2.11  63 2.11   4 2.97   5 2.98
                             6 2.98  18 2.99  22 2.99  27 2.99  31 2.99   7 2.99  30 3.01  16 3.01
  15  0.500  0.751  0.751-  53 2.10  62 2.10  43 2.11  47 2.11  55 2.11  63 2.11   4 2.97   5 2.98
                             6 2.98  19 2.99  23 2.99  27 2.99  31 2.99   7 2.99  30 3.01  17 3.01
  16  0.244  0.000  0.244-  32 2.06  48 2.06  42 2.10  40 2.10  33 2.15  52 2.15  24 2.91  26 2.91
                             8 2.91  10 2.91   1 2.98   4 2.98  14 3.01  27 3.01  12 3.01  25 3.01
  17  0.244  0.000  0.756-  32 2.06  49 2.06  43 2.10  41 2.10  33 2.15  53 2.15  24 2.91  26 2.91
                             9 2.91  11 2.91   1 2.98   4 2.98  15 3.01  27 3.01  13 3.01  25 3.01
  18  0.249  0.500  0.249-  34 2.10  50 2.10  42 2.11  40 2.11  35 2.11  54 2.11   2 2.97   3 2.98
                             6 2.98  12 2.99  14 2.99  25 2.99  27 2.99   7 2.99  26 3.01  10 3.01
  19  0.249  0.500  0.751-  34 2.10  51 2.10  43 2.11  41 2.11  35 2.11  55 2.11   2 2.97   3 2.98
                             6 2.98  13 2.99  15 2.99  25 2.99  27 2.99   7 2.99  26 3.01  11 3.01
  20  0.756  0.000  0.244-  36 2.06  48 2.06  46 2.10  44 2.10  37 2.15  52 2.15  28 2.91  30 2.91
                             8 2.91  10 2.91   1 2.98   4 2.98  14 3.01  31 3.01  12 3.01  29 3.01
  21  0.756  0.000  0.756-  36 2.06  49 2.06  47 2.10  45 2.10  37 2.15  53 2.15  28 2.91  30 2.91
                             9 2.91  11 2.91   1 2.98   4 2.98  15 3.01  31 3.01  13 3.01  29 3.01
  22  0.751  0.500  0.249-  38 2.10  50 2.10  46 2.11  44 2.11  39 2.11  54 2.11   2 2.97   3 2.98
                             6 2.98  12 2.99  14 2.99  29 2.99  31 2.99   7 2.99  30 3.01  10 3.01
  23  0.751  0.500  0.751-  38 2.10  51 2.10  47 2.11  45 2.11  39 2.11  55 2.11   2 2.97   3 2.98
                             6 2.98  13 2.99  15 2.99  29 2.99  31 2.99   7 2.99  30 3.01  11 3.01
  24  0.244  0.244  0.000-  32 2.06  56 2.06  41 2.10  40 2.10  34 2.15  60 2.15  16 2.91  17 2.91
                             8 2.91   9 2.91   2 2.98   4 2.98  18 3.01  19 3.01  12 3.01  13 3.01
  25  0.249  0.249  0.500-  33 2.10  57 2.10  41 2.11  40 2.11  35 2.11  61 2.11   1 2.97   3 2.98
                             5 2.98  12 2.99  13 2.99  18 2.99  19 2.99   7 2.99   8 3.01   9 3.01
  26  0.244  0.756  0.000-  32 2.06  58 2.06  43 2.10  42 2.10  34 2.15  62 2.15  16 2.91  17 2.91
                            10 2.91  11 2.91   2 2.98   4 2.98  18 3.01  19 3.01  14 3.01  15 3.01
  27  0.249  0.751  0.500-  33 2.10  59 2.10  43 2.11  42 2.11  35 2.11  63 2.11   1 2.97   3 2.98
                             5 2.98  14 2.99  15 2.99  18 2.99  19 2.99   7 2.99  10 3.01  11 3.01
  28  0.756  0.244  0.000-  36 2.06  56 2.06  45 2.10  44 2.10  38 2.15  60 2.15  20 2.91  21 2.91
                             8 2.91   9 2.91   2 2.98   4 2.98  22 3.01  23 3.01  12 3.01  13 3.01
  29  0.751  0.249  0.500-  37 2.10  57 2.10  45 2.11  44 2.11  39 2.11  61 2.11   1 2.97   3 2.98
                             5 2.98  12 2.99  13 2.99  22 2.99  23 2.99   7 2.99   8 3.01   9 3.01
  30  0.756  0.756  0.000-  36 2.06  58 2.06  47 2.10  46 2.10  38 2.15  62 2.15  20 2.91  21 2.91
                            10 2.91  11 2.91   2 2.98   4 2.98  22 3.01  23 3.01  14 3.01  15 3.01
  31  0.751  0.751  0.500-  37 2.10  59 2.10  47 2.11  46 2.11  39 2.11  63 2.11   1 2.97   3 2.98
                             5 2.98  14 2.99  15 2.99  22 2.99  23 2.99   7 2.99  10 3.01  11 3.01
  32  0.263  0.000  0.000-   4 1.99  16 2.06  17 2.06  24 2.06  26 2.06
  33  0.251  0.000  0.500-   5 2.09  25 2.10  27 2.10   1 2.12  16 2.15  17 2.15
  34  0.251  0.500  0.000-   6 2.09  18 2.10  19 2.10   2 2.12  24 2.15  26 2.15
  35  0.250  0.500  0.500-   7 2.10   3 2.11  18 2.11  19 2.11  25 2.11  27 2.11
  36  0.737  0.000  0.000-   4 1.99  20 2.06  21 2.06  28 2.06  30 2.06
  37  0.749  0.000  0.500-   5 2.09  29 2.10  31 2.10   1 2.12  20 2.15  21 2.15
  38  0.749  0.500  0.000-   6 2.09  22 2.10  23 2.10   2 2.12  28 2.15  30 2.15
  39  0.750  0.500  0.500-   7 2.10   3 2.11  22 2.11  23 2.11  29 2.11  31 2.11
  40  0.250  0.250  0.250-   8 2.10  16 2.10  24 2.10  18 2.11  12 2.11  25 2.11
  41  0.250  0.250  0.750-   9 2.10  17 2.10  24 2.10  19 2.11  13 2.11  25 2.11
  42  0.250  0.750  0.250-  10 2.10  16 2.10  26 2.10  18 2.11  14 2.11  27 2.11
  43  0.250  0.750  0.750-  11 2.10  17 2.10  26 2.10  19 2.11  15 2.11  27 2.11
  44  0.750  0.250  0.250-   8 2.10  20 2.10  28 2.10  22 2.11  12 2.11  29 2.11
  45  0.750  0.250  0.750-   9 2.10  21 2.10  28 2.10  23 2.11  13 2.11  29 2.11
  46  0.750  0.750  0.250-  10 2.10  20 2.10  30 2.10  22 2.11  14 2.11  31 2.11
  47  0.750  0.750  0.750-  11 2.10  21 2.10  30 2.10  23 2.11  15 2.11  31 2.11
  48  0.000  0.000  0.263-   1 1.99   8 2.06  10 2.06  16 2.06  20 2.06
  49  0.000  0.000  0.737-   1 1.99   9 2.06  11 2.06  17 2.06  21 2.06
  50  0.000  0.500  0.251-   3 2.09  18 2.10  22 2.10   2 2.12   8 2.15  10 2.15
  51  0.000  0.500  0.749-   3 2.09  19 2.10  23 2.10   2 2.12   9 2.15  11 2.15
  52  0.500  0.000  0.251-   5 2.09  12 2.10  14 2.10   4 2.12  16 2.15  20 2.15
  53  0.500  0.000  0.749-   5 2.09  13 2.10  15 2.10   4 2.12  17 2.15  21 2.15
  54  0.500  0.500  0.250-   7 2.10   6 2.11  12 2.11  14 2.11  18 2.11  22 2.11
  55  0.500  0.500  0.750-   7 2.10   6 2.11  13 2.11  15 2.11  19 2.11  23 2.11
  56  0.000  0.263  0.000-   2 1.99   8 2.06   9 2.06  24 2.06  28 2.06
  57  0.000  0.251  0.500-   3 2.09  25 2.10  29 2.10   1 2.12   8 2.15   9 2.15
  58  0.000  0.737  0.000-   2 1.99  10 2.06  11 2.06  26 2.06  30 2.06
  59  0.000  0.749  0.500-   3 2.09  27 2.10  31 2.10   1 2.12  10 2.15  11 2.15
  60  0.500  0.251  0.000-   6 2.09  12 2.10  13 2.10   4 2.12  24 2.15  28 2.15
  61  0.500  0.250  0.500-   7 2.10   5 2.11  12 2.11  13 2.11  25 2.11  29 2.11
  62  0.500  0.749  0.000-   6 2.09  14 2.10  15 2.10   4 2.12  26 2.15  30 2.15
  63  0.500  0.750  0.500-   7 2.10   5 2.11  14 2.11  15 2.11  27 2.11  31 2.11
 
  LATTYP: Found a simple cubic cell.
 ALAT       =     8.4194560000
  
  Lattice vectors:
  
 A1 = (   8.4194560000,   0.0000000000,   0.0000000000)
 A2 = (   0.0000000000,   8.4194560000,   0.0000000000)
 A3 = (   0.0000000000,   0.0000000000,   8.4194560000)


Analysis of symmetry for initial positions (statically):
=====================================================================
 Subroutine PRICEL returns:
 Original cell was already a primitive cell.
 

 Routine SETGRP: Setting up the symmetry group for a 
 simple cubic supercell.


 Subroutine GETGRP returns: Found 48 space group operations
 (whereof 48 operations were pure point group operations)
 out of a pool of 48 trial point group operations.


The static configuration has the point symmetry O_h .


Analysis of symmetry for dynamics (positions and initial velocities):
=====================================================================
 Subroutine PRICEL returns:
 Original cell was already a primitive cell.
 

 Routine SETGRP: Setting up the symmetry group for a 
 simple cubic supercell.


 Subroutine GETGRP returns: Found 48 space group operations
 (whereof 48 operations were pure point group operations)
 out of a pool of 48 trial point group operations.


The dynamic configuration has the point symmetry O_h .


Analysis of structural, dynamic, and magnetic symmetry:
=====================================================================
 Subroutine PRICEL returns:
 Original cell was already a primitive cell.
 

 Routine SETGRP: Setting up the symmetry group for a 
 simple cubic supercell.


 Subroutine GETGRP returns: Found 48 space group operations
 (whereof 48 operations were pure point group operations)
 out of a pool of 48 trial point group operations.


The magnetic configuration has the point symmetry O_h .


 Subroutine INISYM returns: Found 48 space group operations
 (whereof 48 operations are pure point group operations),
 and found     1 'primitive' translations

 
 
 KPOINTS: mode: manual_set, kpt density: 2, factor

Automatic generation of k-mesh.
Space group operators:
 irot       det(A)        alpha          n_x          n_y          n_z        tau_x        tau_y        tau_z
    1     1.000000     0.000001     1.000000     0.000000     0.000000     0.000000     0.000000     0.000000
    2    -1.000000     0.000001     1.000000     0.000000     0.000000     0.000000     0.000000     0.000000
    3     1.000000   120.000000    -0.577350    -0.577350    -0.577350     0.000000     0.000000     0.000000
    4    -1.000000   120.000000    -0.577350    -0.577350    -0.577350     0.000000     0.000000     0.000000
    5     1.000000   120.000000     0.577350     0.577350     0.577350     0.000000     0.000000     0.000000
    6    -1.000000   120.000000     0.577350     0.577350     0.577350     0.000000     0.000000     0.000000
    7     1.000000    90.000000     0.000000     0.000000    -1.000000     0.000000     0.000000     0.000000
    8    -1.000000    90.000000     0.000000     0.000000    -1.000000     0.000000     0.000000     0.000000
    9     1.000000   180.000000     0.000000     0.707107     0.707107     0.000000     0.000000     0.000000
   10    -1.000000   180.000000     0.000000     0.707107     0.707107     0.000000     0.000000     0.000000
   11     1.000000    90.000000     0.000000     1.000000     0.000000     0.000000     0.000000     0.000000
   12    -1.000000    90.000000     0.000000     1.000000     0.000000     0.000000     0.000000     0.000000
   13     1.000000   180.000000     0.000000     0.000000     1.000000     0.000000     0.000000     0.000000
   14    -1.000000   180.000000     0.000000     0.000000     1.000000     0.000000     0.000000     0.000000
   15     1.000000   120.000000    -0.577350     0.577350     0.577350     0.000000     0.000000     0.000000
   16    -1.000000   120.000000    -0.577350     0.577350     0.577350     0.000000     0.000000     0.000000
   17     1.000000   120.000000    -0.577350     0.577350    -0.577350     0.000000     0.000000     0.000000
   18    -1.000000   120.000000    -0.577350     0.577350    -0.577350     0.000000     0.000000     0.000000
   19     1.000000    90.000000     0.000000     0.000000     1.000000     0.000000     0.000000     0.000000
   20    -1.000000    90.000000     0.000000     0.000000     1.000000     0.000000     0.000000     0.000000
   21     1.000000    90.000000    -1.000000     0.000000     0.000000     0.000000     0.000000     0.000000
   22    -1.000000    90.000000    -1.000000     0.000000     0.000000     0.000000     0.000000     0.000000
   23     1.000000   180.000000     0.707107     0.000000     0.707107     0.000000     0.000000     0.000000
   24    -1.000000   180.000000     0.707107     0.000000     0.707107     0.000000     0.000000     0.000000
   25     1.000000   120.000000     0.577350    -0.577350     0.577350     0.000000     0.000000     0.000000
   26    -1.000000   120.000000     0.577350    -0.577350     0.577350     0.000000     0.000000     0.000000
   27     1.000000   120.000000    -0.577350    -0.577350     0.577350     0.000000     0.000000     0.000000
   28    -1.000000   120.000000    -0.577350    -0.577350     0.577350     0.000000     0.000000     0.000000
   29     1.000000   180.000000     1.000000     0.000000     0.000000     0.000000     0.000000     0.000000
   30    -1.000000   180.000000     1.000000     0.000000     0.000000     0.000000     0.000000     0.000000
   31     1.000000    90.000000     0.000000    -1.000000     0.000000     0.000000     0.000000     0.000000
   32    -1.000000    90.000000     0.000000    -1.000000     0.000000     0.000000     0.000000     0.000000
   33     1.000000   180.000000     0.707107     0.707107     0.000000     0.000000     0.000000     0.000000
   34    -1.000000   180.000000     0.707107     0.707107     0.000000     0.000000     0.000000     0.000000
   35     1.000000    90.000000     1.000000     0.000000     0.000000     0.000000     0.000000     0.000000
   36    -1.000000    90.000000     1.000000     0.000000     0.000000     0.000000     0.000000     0.000000
   37     1.000000   120.000000     0.577350    -0.577350    -0.577350     0.000000     0.000000     0.000000
   38    -1.000000   120.000000     0.577350    -0.577350    -0.577350     0.000000     0.000000     0.000000
   39     1.000000   180.000000     0.000000     1.000000     0.000000     0.000000     0.000000     0.000000
   40    -1.000000   180.000000     0.000000     1.000000     0.000000     0.000000     0.000000     0.000000
   41     1.000000   120.000000     0.577350     0.577350    -0.577350     0.000000     0.000000     0.000000
   42    -1.000000   120.000000     0.577350     0.577350    -0.577350     0.000000     0.000000     0.000000
   43     1.000000   180.000000     0.000000    -0.707107     0.707107     0.000000     0.000000     0.000000
   44    -1.000000   180.000000     0.000000    -0.707107     0.707107     0.000000     0.000000     0.000000
   45     1.000000   180.000000     0.707107    -0.707107     0.000000     0.000000     0.000000     0.000000
   46    -1.000000   180.000000     0.707107    -0.707107     0.000000     0.000000     0.000000     0.000000
   47     1.000000   180.000000     0.707107     0.000000    -0.707107     0.000000     0.000000     0.000000
   48    -1.000000   180.000000     0.707107     0.000000    -0.707107     0.000000     0.000000     0.000000
 
 Subroutine IBZKPT returns following result:
 ===========================================
 
 Found      1 irreducible k-points:
 
 Following reciprocal coordinates:
            Coordinates               Weight
  0.250000  0.250000  0.250000      8.000000
 
 Following cartesian coordinates:
            Coordinates               Weight
  0.029693  0.029693  0.029693      8.000000
 


--------------------------------------------------------------------------------------------------------




 Dimension of arrays:
   k-points           NKPTS =      1   k-points in BZ     NKDIM =      1   number of bands    NBANDS=    216
   number of dos      NEDOS =    301   number of ions     NIONS =     63
   non local maximal  LDIM  =      5   non local SUM 2l+1 LMDIM =     13
   total plane-waves  NPLWV =  74088
   max r-space proj   IRMAX =   1418   max aug-charges    IRDMAX=   5472
   dimension x,y,z NGX =    42 NGY =   42 NGZ =   42
   dimension x,y,z NGXF=    84 NGYF=   84 NGZF=   84
   support grid    NGXF=    84 NGYF=   84 NGZF=   84
   ions per type =              31  32
   NGX,Y,Z   is equivalent  to a cutoff of   8.29,  8.29,  8.29 a.u.
   NGXF,Y,Z  is equivalent  to a cutoff of  16.59, 16.59, 16.59 a.u.

 SYSTEM =  unknown system                          
 POSCAR =  Mg31 O32                                

 Startparameter for this run:
   NWRITE =      2    write-flag & timer
   PREC   = n         normal or accurate (medium, high low for compatibility)
   ISTART =      1    job   : 0-new  1-cont  2-samecut
   ICHARG =      0    charge: 1-file 2-atom 10-const
   ISPIN  =      2    spin polarized calculation?
   LNONCOLLINEAR =      F non collinear calculations
   LSORBIT =      F    spin-orbit coupling
   INIWAV =      1    electr: 0-lowe 1-rand  2-diag
   LASPH  =      T    aspherical Exc in radial PAW
   METAGGA=      F    non-selfconsistent MetaGGA calc.

 Electronic Relaxation 1
   ENCUT  =  400.0 eV  29.40 Ry    5.42 a.u.  13.73 13.73 13.73*2*pi/ulx,y,z
   ENINI  =  400.0     initial cutoff
   ENAUG  =  605.4 eV  augmentation charge cutoff
   NELM   =    100;   NELMIN=  2; NELMDL=  0     # of ELM steps 
   EDIFF  = 0.1E-05   stopping-criterion for ELM
   LREAL  =      T    real-space projection
   NLSPLINE    = F    spline interpolate recip. space projectors
   LCOMPAT=      F    compatible to vasp.4.4
   GGA_COMPAT  = T    GGA compatible to vasp.4.4-vasp.4.6
   LMAXPAW     = -100 max onsite density
   LMAXMIX     =    2 max onsite mixed and CHGCAR
   VOSKOWN=      0    Vosko Wilk Nusair interpolation
   ROPT   =   -0.00050  -0.00050
 Ionic relaxation
   EDIFFG = -.4E-01   stopping-criterion for IOM
   NSW    =     50    number of steps for IOM
   NBLOCK =      1;   KBLOCK =     50    inner block; outer block 
   IBRION =      2    ionic relax: 0-MD 1-quasi-New 2-CG
   NFREE  =      1    steps in history (QN), initial steepest desc. (CG)
   ISIF   =      2    stress and relaxation
   IWAVPR =     11    prediction:  0-non 1-charg 2-wave 3-comb
   ISYM   =      2    0-nonsym 1-usesym 2-fastsym
   LCORR  =      T    Harris-Foulkes like correction to forces

   POTIM  = 0.5000    time-step for ionic-motion
   TEIN   =    0.0    initial temperature
   TEBEG  =    0.0;   TEEND  =   0.0 temperature during run
   SMASS  =  -3.00    Nose mass-parameter (am)
   estimated Nose-frequenzy (Omega)   =  0.10E-29 period in steps =****** mass=  -0.162E-26a.u.
   SCALEE = 1.0000    scale energy and forces
   NPACO  =    256;   APACO  = 16.0  distance and # of slots for P.C.
   PSTRESS=    0.0 pullay stress

  Mass of Ions in am
   POMASS =  24.30 16.00
  Ionic Valenz
   ZVAL   =   2.00  6.00
  Atomic Wigner-Seitz radii
   RWIGS  =  -1.00 -1.00
  virtual crystal weights 
   VCA    =   1.00  1.00
   NELECT =     254.0000    total number of electrons
   NUPDOWN=      -1.0000    fix difference up-down

 DOS related values:
   EMIN   =  10.00;   EMAX   =-10.00  energy-range for DOS
   EFERMI =   0.00
   ISMEAR =     0;   SIGMA  =   0.10  broadening in eV -4-tet -1-fermi 0-gaus

 Electronic relaxation 2 (details)
   IALGO  =     38    algorithm
   LDIAG  =      T    sub-space diagonalisation (order eigenvalues)
   LSUBROT=      F    optimize rotation matrix (better conditioning)
   TURBO    =      0    0=normal 1=particle mesh
   IRESTART =      0    0=no restart 2=restart with 2 vectors
   NREBOOT  =      0    no. of reboots
   NMIN     =      0    reboot dimension
   EREF     =   0.00    reference energy to select bands
   IMIX   =      4    mixing-type and parameters
     AMIX     =   0.40;   BMIX     =  1.00
     AMIX_MAG =   1.60;   BMIX_MAG =  1.00
     AMIN     =   0.10
     WC   =   100.;   INIMIX=   1;  MIXPRE=   1;  MAXMIX= -45

 Intra band minimization:
   WEIMIN = 0.0010     energy-eigenvalue tresh-hold
   EBREAK =  0.12E-08  absolut break condition
   DEPER  =   0.30     relativ break condition  

   TIME   =   0.40     timestep for ELM

  volume/ion in A,a.u.               =       9.47        63.93
  Fermi-wavevector in a.u.,A,eV,Ry     =   1.231408  2.327024 20.631414  1.516366
  Thomas-Fermi vector in A             =   2.366219
 
 Write flags
   LWAVE        =      T    write WAVECAR
   LDOWNSAMPLE  =      F    k-point downsampling of WAVECAR
   LCHARG       =      F    write CHGCAR
   LVTOT        =      F    write LOCPOT, total local potential
   LVHAR        =      F    write LOCPOT, Hartree potential only
   LELF         =      F    write electronic localiz. function (ELF)
   LORBIT       =     12    0 simple, 1 ext, 2 COOP (PROOUT), +10 PAW based schemes


 Dipole corrections
   LMONO  =      F    monopole corrections only (constant potential shift)
   LDIPOL =      F    correct potential (dipole corrections)
   IDIPOL =      0    1-x, 2-y, 3-z, 4-all directions 
   EPSILON=  1.0000000 bulk dielectric constant

 Exchange correlation treatment:
   GGA     =    PS    GGA type
   LEXCH   =    14    internal setting for exchange type
   VOSKOWN=      0    Vosko Wilk Nusair interpolation
   LHFCALC =     F    Hartree Fock is set to
   LHFONE  =     F    Hartree Fock one center treatment
   AEXX    =    0.0000 exact exchange contribution

 Linear response parameters
   LEPSILON=     F    determine dielectric tensor
   LRPA    =     F    only Hartree local field effects (RPA)
   LNABLA  =     F    use nabla operator in PAW spheres
   LVEL    =     F    velocity operator in full k-point grid
   LINTERFAST=   F  fast interpolation
   KINTER  =     0    interpolate to denser k-point grid
   CSHIFT  =0.1000    complex shift for real part using Kramers Kronig
   OMEGAMAX=  -1.0    maximum frequency
   DEG_THRESHOLD= 0.2000000E-02 threshold for treating states as degnerate
   RTIME   =   -0.100 relaxation time in fs
  (WPLASMAI=    0.000 imaginary part of plasma frequency in eV, 0.658/RTIME)
   DFIELD  = 0.0000000 0.0000000 0.0000000 field for delta impulse in time
 
 Orbital magnetization related:
   ORBITALMAG=     F  switch on orbital magnetization
   LCHIMAG   =     F  perturbation theory with respect to B field
   DQ        =  0.001000  dq finite difference perturbation B field
   LLRAUG    =     F  two centre corrections for induced B field



--------------------------------------------------------------------------------------------------------


 conjugate gradient relaxation of ions
 charge density and potential will be updated during run
 spin polarized calculation
 Variant of blocked Davidson
 Davidson routine will perform the subspace rotation
 perform sub-space diagonalisation
    after iterative eigenvector-optimisation
 modified Broyden-mixing scheme, WC =      100.0
 initial mixing is a Kerker type mixing with AMIX =  0.4000 and BMIX =      1.0000
 Hartree-type preconditioning will be used
 using additional bands           89
 real space projection scheme for non local part
 use partial core corrections
 calculate Harris-corrections to forces 
   (improved forces if not selfconsistent)
 use gradient corrections 
 use of overlap-Matrix (Vanderbilt PP)
 Gauss-broadening in eV      SIGMA  =   0.10


--------------------------------------------------------------------------------------------------------


  energy-cutoff  :      400.00
  volume of cell :      596.83
      direct lattice vectors                 reciprocal lattice vectors
     8.419456000  0.000000000  0.000000000     0.118772519  0.000000000  0.000000000
     0.000000000  8.419456000  0.000000000     0.000000000  0.118772519  0.000000000
     0.000000000  0.000000000  8.419456000     0.000000000  0.000000000  0.118772519

  length of vectors
     8.419456000  8.419456000  8.419456000     0.118772519  0.118772519  0.118772519


 
 old parameters found on file WAVECAR:
  energy-cutoff  :      400.00
  volume of cell :      596.83
      direct lattice vectors                 reciprocal lattice vectors
     8.419456000  0.000000000  0.000000000     0.118772519  0.000000000  0.000000000
     0.000000000  8.419456000  0.000000000     0.000000000  0.118772519  0.000000000
     0.000000000  0.000000000  8.419456000     0.000000000  0.000000000  0.118772519

  length of vectors

 
 k-points in units of 2pi/SCALE and weight: mode: manual_set, kpt density: 2, factor
   0.02969313  0.02969313  0.02969313       1.000
 
 k-points in reciprocal lattice and weights: mode: manual_set, kpt density: 2, factor
   0.25000000  0.25000000  0.25000000       1.000
 
 position of ions in fractional coordinates (direct lattice) 
   0.00000000  0.00000000  0.50000000
   0.00000000  0.50000000  0.00000000
   0.00000000  0.50000000  0.50000000
   0.50000000  0.00000000  0.00000000
   0.50000000  0.00000000  0.50000000
   0.50000000  0.50000000  0.00000000
   0.50000000  0.50000000  0.50000000
   0.00000000  0.24429665  0.24429665
   0.00000000  0.24429665  0.75570335
   0.00000000  0.75570335  0.24429665
   0.00000000  0.75570335  0.75570335
   0.50000000  0.24929312  0.24929312
   0.50000000  0.24929312  0.75070688
   0.50000000  0.75070688  0.24929312
   0.50000000  0.75070688  0.75070688
   0.24429665  0.00000000  0.24429665
   0.24429665  0.00000000  0.75570335
   0.24929312  0.50000000  0.24929312
   0.24929312  0.50000000  0.75070688
   0.75570335  0.00000000  0.24429665
   0.75570335  0.00000000  0.75570335
   0.75070688  0.50000000  0.24929312
   0.75070688  0.50000000  0.75070688
   0.24429665  0.24429665  0.00000000
   0.24929312  0.24929312  0.50000000
   0.24429665  0.75570335  0.00000000
   0.24929312  0.75070688  0.50000000
   0.75570335  0.24429665  0.00000000
   0.75070688  0.24929312  0.50000000
   0.75570335  0.75570335  0.00000000
   0.75070688  0.75070688  0.50000000
   0.26312482  0.00000000  0.00000000
   0.25133238  0.00000000  0.50000000
   0.25133238  0.50000000  0.00000000
   0.25035357  0.50000000  0.50000000
   0.73687518  0.00000000  0.00000000
   0.74866762  0.00000000  0.50000000
   0.74866762  0.50000000  0.00000000
   0.74964643  0.50000000  0.50000000
   0.24967809  0.24967809  0.24967809
   0.24967809  0.24967809  0.75032191
   0.24967809  0.75032191  0.24967809
   0.24967809  0.75032191  0.75032191
   0.75032191  0.24967809  0.24967809
   0.75032191  0.24967809  0.75032191
   0.75032191  0.75032191  0.24967809
   0.75032191  0.75032191  0.75032191
   0.00000000  0.00000000  0.26312482
   0.00000000  0.00000000  0.73687518
   0.00000000  0.50000000  0.25133238
   0.00000000  0.50000000  0.74866762
   0.50000000  0.00000000  0.25133238
   0.50000000  0.00000000  0.74866762
   0.50000000  0.50000000  0.25035357
   0.50000000  0.50000000  0.74964643
   0.00000000  0.26312482  0.00000000
   0.00000000  0.25133238  0.50000000
   0.00000000  0.73687518  0.00000000
   0.00000000  0.74866762  0.50000000
   0.50000000  0.25133238  0.00000000
   0.50000000  0.25035357  0.50000000
   0.50000000  0.74866762  0.00000000
   0.50000000  0.74964643  0.50000000
 
 position of ions in cartesian coordinates  (Angst):
   0.00000000  0.00000000  4.20972800
   0.00000000  4.20972800  0.00000000
   0.00000000  4.20972800  4.20972800
   4.20972800  0.00000000  0.00000000
   4.20972800  0.00000000  4.20972800
   4.20972800  4.20972800  0.00000000
   4.20972800  4.20972800  4.20972800
   0.00000000  2.05684493  2.05684493
   0.00000000  2.05684493  6.36261107
   0.00000000  6.36261107  2.05684493
   0.00000000  6.36261107  6.36261107
   4.20972800  2.09891249  2.09891249
   4.20972800  2.09891249  6.32054351
   4.20972800  6.32054351  2.09891249
   4.20972800  6.32054351  6.32054351
   2.05684493  0.00000000  2.05684493
   2.05684493  0.00000000  6.36261107
   2.09891249  4.20972800  2.09891249
   2.09891249  4.20972800  6.32054351
   6.36261107  0.00000000  2.05684493
   6.36261107  0.00000000  6.36261107
   6.32054351  4.20972800  2.09891249
   6.32054351  4.20972800  6.32054351
   2.05684493  2.05684493  0.00000000
   2.09891249  2.09891249  4.20972800
   2.05684493  6.36261107  0.00000000
   2.09891249  6.32054351  4.20972800
   6.36261107  2.05684493  0.00000000
   6.32054351  2.09891249  4.20972800
   6.36261107  6.36261107  0.00000000
   6.32054351  6.32054351  4.20972800
   2.21536785  0.00000000  0.00000000
   2.11608192  0.00000000  4.20972800
   2.11608192  4.20972800  0.00000000
   2.10784083  4.20972800  4.20972800
   6.20408815  0.00000000  0.00000000
   6.30337408  0.00000000  4.20972800
   6.30337408  4.20972800  0.00000000
   6.31161517  4.20972800  4.20972800
   2.10215372  2.10215372  2.10215372
   2.10215372  2.10215372  6.31730228
   2.10215372  6.31730228  2.10215372
   2.10215372  6.31730228  6.31730228
   6.31730228  2.10215372  2.10215372
   6.31730228  2.10215372  6.31730228
   6.31730228  6.31730228  2.10215372
   6.31730228  6.31730228  6.31730228
   0.00000000  0.00000000  2.21536785
   0.00000000  0.00000000  6.20408815
   0.00000000  4.20972800  2.11608192
   0.00000000  4.20972800  6.30337408
   4.20972800  0.00000000  2.11608192
   4.20972800  0.00000000  6.30337408
   4.20972800  4.20972800  2.10784083
   4.20972800  4.20972800  6.31161517
   0.00000000  2.21536785  0.00000000
   0.00000000  2.11608192  4.20972800
   0.00000000  6.20408815  0.00000000
   0.00000000  6.30337408  4.20972800
   4.20972800  2.11608192  0.00000000
   4.20972800  2.10784083  4.20972800
   4.20972800  6.30337408  0.00000000
   4.20972800  6.31161517  4.20972800
 


--------------------------------------------------------------------------------------------------------


 k-point  1 :   0.2500 0.2500 0.2500  plane waves:   10834

 maximum and minimum number of plane-waves per node :     10834    10834

 maximum number of plane-waves:     10834
 maximum index in each direction: 
   IXMAX=   13   IYMAX=   13   IZMAX=   13
   IXMIN=  -13   IYMIN=  -13   IZMIN=  -13


 serial   3D FFT for wavefunctions
 parallel 3D FFT for charge:
    minimum data exchange during FFTs selected (reduces bandwidth)


 total amount of memory used by VASP MPI-rank0    50393. kBytes
=======================================================================

   base      :      30000. kBytes
   nonlr-proj:       8444. kBytes
   fftplans  :       1007. kBytes
   grid      :       7709. kBytes
   one-center:       1022. kBytes
   wavefun   :       2211. kBytes
 
     INWAV:  cpu time    0.2920: real time    0.3581
 Broyden mixing: mesh for mixing (old mesh)
   NGX = 27   NGY = 27   NGZ = 27
  (NGX  = 84   NGY  = 84   NGZ  = 84)
  gives a total of  19683 points

 charge density for first step will be calculated from the start-wavefunctions


--------------------------------------------------------------------------------------------------------


 Maximum index for non-local projection operator         1349
 Maximum index for augmentation-charges          362 (set IRDMAX)


--------------------------------------------------------------------------------------------------------


 initial charge from wavefunction
 First call to EWALD:  gamma=   0.211
 Maximum number of real-space cells 3x 3x 3
 Maximum number of reciprocal cells 3x 3x 3

    FEWALD:  cpu time    0.0040: real time    0.0034


--------------------------------------- Iteration      1(   1)  ---------------------------------------


    POTLOK:  cpu time    0.0320: real time    0.0359
    SETDIJ:  cpu time    0.6680: real time    0.6651
     EDDAV:  cpu time    0.7720: real time    0.7760
       DOS:  cpu time    0.0000: real time    0.0005
    CHARGE:  cpu time    0.0480: real time    0.0510
    MIXING:  cpu time    0.0040: real time    0.0006
    --------------------------------------------
      LOOP:  cpu time    1.5240: real time    1.5292

 eigenvalue-minimisations  :   756
 total energy-change (2. order) :-0.3907532E+03  (-0.1259656E-06)
 number of electron     254.0003140 magnetization       1.2827515
 augmentation part       21.0780531 magnetization       0.3019596

 Broyden mixing:
  rms(total) = 0.38570E-03    rms(broyden)= 0.38433E-03
  rms(prec ) = 0.54153E-03
  weight for this iteration     100.00

 Free energy of the ion-electron system (eV)
  ---------------------------------------------------
  alpha Z        PSCENC =       612.27356201
  Ewald energy   TEWEN  =    -11345.22160675
  -Hartree energ DENC   =     -4470.85321626
  -exchange      EXHF   =         0.00000000
  -V(xc)+E(xc)   XCENC  =      -514.40035439
  PAW double counting   =     17578.21726855   -16054.34950817
  entropy T*S    EENTRO =        -0.09958717
  eigenvalues    EBANDS =      -679.77682634
  atomic energy  EATOM  =     14483.45704548
  Solvation  Ediel_sol  =         0.00000000
  ---------------------------------------------------
  free energy    TOTEN  =      -390.75322305 eV

  energy without entropy =     -390.65363588  energy(sigma->0) =     -390.70342946


--------------------------------------------------------------------------------------------------------




--------------------------------------- Iteration      1(   2)  ---------------------------------------


    POTLOK:  cpu time    0.0320: real time    0.0376
    SETDIJ:  cpu time    0.6680: real time    0.6671
     EDDAV:  cpu time    0.6480: real time    0.6491
       DOS:  cpu time    0.0000: real time    0.0006
    --------------------------------------------
      LOOP:  cpu time    1.3480: real time    1.3543

 eigenvalue-minimisations  :   612
 total energy-change (2. order) : 0.9449104E-07  (-0.1643769E-06)
 number of electron     254.0003140 magnetization       1.2827515
 augmentation part       21.0780531 magnetization       0.3019596

 Free energy of the ion-electron system (eV)
  ---------------------------------------------------
  alpha Z        PSCENC =       612.27356201
  Ewald energy   TEWEN  =    -11345.22160675
  -Hartree energ DENC   =     -4470.85502359
  -exchange      EXHF   =         0.00000000
  -V(xc)+E(xc)   XCENC  =      -514.40019974
  PAW double counting   =     17578.22183538   -16054.35409025
  entropy T*S    EENTRO =        -0.09953994
  eigenvalues    EBANDS =      -679.77520555
  atomic energy  EATOM  =     14483.45704548
  Solvation  Ediel_sol  =         0.00000000
  ---------------------------------------------------
  free energy    TOTEN  =      -390.75322296 eV

  energy without entropy =     -390.65368301  energy(sigma->0) =     -390.70345298


--------------------------------------------------------------------------------------------------------




 average (electrostatic) potential at core
  the test charge radii are     1.0714  0.7215
  (the norm of the test charge is              1.0000)
       1 -34.5545       2 -34.5545       3 -34.8450       4 -34.5545       5 -34.8450
       6 -34.8450       7 -34.9262       8 -34.8508       9 -34.8508      10 -34.8508
      11 -34.8508      12 -34.9644      13 -34.9644      14 -34.9644      15 -34.9644
      16 -34.8508      17 -34.8508      18 -34.9644      19 -34.9644      20 -34.8508
      21 -34.8508      22 -34.9644      23 -34.9644      24 -34.8508      25 -34.9644
      26 -34.8508      27 -34.9644      28 -34.8508      29 -34.9644      30 -34.8508
      31 -34.9644      32 -69.7282      33 -69.9709      34 -69.9709      35 -69.9656
      36 -69.7282      37 -69.9709      38 -69.9709      39 -69.9656      40 -70.0262
      41 -70.0262      42 -70.0262      43 -70.0262      44 -70.0262      45 -70.0262
      46 -70.0262      47 -70.0262      48 -69.7282      49 -69.7282      50 -69.9709
      51 -69.9709      52 -69.9709      53 -69.9709      54 -69.9656      55 -69.9656
      56 -69.7282      57 -69.9709      58 -69.7282      59 -69.9709      60 -69.9709
      61 -69.9656      62 -69.9709      63 -69.9656
 
 
 
 E-fermi :   2.7920     XC(G=0): -11.2127     alpha+bet :-12.8961


 spin component 1

 k-point     1 :       0.2500    0.2500    0.2500
  band No.  band energies     occupation 
      1     -14.2522      1.00000
      2     -13.8833      1.00000
      3     -13.8833      1.00000
      4     -13.8217      1.00000
      5     -13.5707      1.00000
      6     -13.5707      1.00000
      7     -13.5070      1.00000
      8     -13.3301      1.00000
      9     -13.3184      1.00000
     10     -13.3184      1.00000
     11     -13.2725      1.00000
     12     -13.1736      1.00000
     13     -13.1736      1.00000
     14     -13.1368      1.00000
     15     -13.1266      1.00000
     16     -13.1198      1.00000
     17     -13.1198      1.00000
     18     -13.0514      1.00000
     19     -13.0005      1.00000
     20     -13.0005      1.00000
     21     -12.9433      1.00000
     22     -12.9433      1.00000
     23     -12.9427      1.00000
     24     -12.8927      1.00000
     25     -12.8927      1.00000
     26     -12.8560      1.00000
     27     -12.8498      1.00000
     28     -12.8158      1.00000
     29     -12.8158      1.00000
     30     -12.7772      1.00000
     31     -12.7076      1.00000
     32     -12.7076      1.00000
     33      -1.5975      1.00000
     34      -1.5975      1.00000
     35      -1.5096      1.00000
     36      -1.2805      1.00000
     37      -1.1156      1.00000
     38      -1.1156      1.00000
     39      -1.0919      1.00000
     40      -1.0142      1.00000
     41      -1.0142      1.00000
     42      -0.9888      1.00000
     43      -0.9402      1.00000
     44      -0.9402      1.00000
     45      -0.9266      1.00000
     46      -0.9088      1.00000
     47      -0.9088      1.00000
     48      -0.8015      1.00000
     49      -0.7758      1.00000
     50      -0.7479      1.00000
     51      -0.7479      1.00000
     52      -0.6817      1.00000
     53      -0.6817      1.00000
     54      -0.6082      1.00000
     55      -0.5305      1.00000
     56      -0.5305      1.00000
     57      -0.4797      1.00000
     58      -0.3670      1.00000
     59      -0.3670      1.00000
     60      -0.1430      1.00000
     61       0.2321      1.00000
     62       0.2321      1.00000
     63       0.2487      1.00000
     64       0.3227      1.00000
     65       0.3550      1.00000
     66       0.3550      1.00000
     67       0.4572      1.00000
     68       0.4744      1.00000
     69       0.4744      1.00000
     70       0.5501      1.00000
     71       0.5501      1.00000
     72       0.6735      1.00000
     73       0.9871      1.00000
     74       1.0246      1.00000
     75       1.0357      1.00000
     76       1.0357      1.00000
     77       1.1041      1.00000
     78       1.1041      1.00000
     79       1.1628      1.00000
     80       1.1628      1.00000
     81       1.1669      1.00000
     82       1.3841      1.00000
     83       1.3841      1.00000
     84       1.4028      1.00000
     85       1.4159      1.00000
     86       1.4159      1.00000
     87       1.5360      1.00000
     88       1.5418      1.00000
     89       1.5418      1.00000
     90       1.5446      1.00000
     91       1.5760      1.00000
     92       1.5760      1.00000
     93       1.5867      1.00000
     94       1.6724      1.00000
     95       1.6724      1.00000
     96       1.7584      1.00000
     97       1.7802      1.00000
     98       1.7802      1.00000
     99       1.8205      1.00000
    100       1.8616      1.00000
    101       1.8636      1.00000
    102       1.8636      1.00000
    103       1.8973      1.00000
    104       1.9029      1.00000
    105       1.9029      1.00000
    106       1.9199      1.00000
    107       1.9255      1.00000
    108       1.9344      1.00000
    109       1.9344      1.00000
    110       1.9460      1.00000
    111       1.9843      1.00000
    112       1.9843      1.00000
    113       2.0719      1.00000
    114       2.1224      1.00000
    115       2.1224      1.00000
    116       2.2488      1.00000
    117       2.2488      1.00000
    118       2.3067      1.00000
    119       2.3283      1.00000
    120       2.3343      1.00000
    121       2.3343      1.00000
    122       2.3632      1.00000
    123       2.3669      1.00000
    124       2.3669      1.00000
    125       2.5294      0.99990
    126       2.5294      0.99990
    127       2.7270      0.82104
    128       2.7270      0.82104
    129       8.4976      0.00000
    130      10.0643      0.00000
    131      10.0643      0.00000
    132      10.1219      0.00000
    133      10.6327      0.00000
    134      10.8880      0.00000
    135      10.8880      0.00000
    136      10.9494      0.00000
    137      11.3973      0.00000
    138      11.4672      0.00000
    139      11.4672      0.00000
    140      11.9948      0.00000
    141      11.9948      0.00000
    142      12.0169      0.00000
    143      12.3087      0.00000
    144      12.3205      0.00000
    145      12.3205      0.00000
    146      12.3206      0.00000
    147      12.4347      0.00000
    148      12.4347      0.00000
    149      12.4686      0.00000
    150      12.4686      0.00000
    151      12.4883      0.00000
    152      12.7901      0.00000
    153      12.7901      0.00000
    154      12.8591      0.00000
    155      13.2129      0.00000
    156      13.2129      0.00000
    157      13.3813      0.00000
    158      13.4243      0.00000
    159      13.4243      0.00000
    160      13.4245      0.00000
    161      13.4814      0.00000
    162      13.4837      0.00000
    163      13.4837      0.00000
    164      13.5796      0.00000
    165      13.5848      0.00000
    166      13.5848      0.00000
    167      14.4178      0.00000
    168      14.4178      0.00000
    169      14.4440      0.00000
    170      14.4767      0.00000
    171      14.4767      0.00000
    172      14.5052      0.00000
    173      14.5439      0.00000
    174      14.5439      0.00000
    175      14.5541      0.00000
    176      14.6378      0.00000
    177      14.6378      0.00000
    178      14.6889      0.00000
    179      14.9028      0.00000
    180      14.9819      0.00000
    181      14.9819      0.00000
    182      14.9917      0.00000
    183      15.0052      0.00000
    184      15.0052      0.00000
    185      15.1223      0.00000
    186      15.1223      0.00000
    187      15.1482      0.00000
    188      15.2512      0.00000
    189      15.2552      0.00000
    190      15.2552      0.00000
    191      15.3186      0.00000
    192      15.3252      0.00000
    193      15.3252      0.00000
    194      15.3894      0.00000
    195      15.4011      0.00000
    196      15.4011      0.00000
    197      15.4404      0.00000
    198      15.7801      0.00000
    199      15.8120      0.00000
    200      15.8120      0.00000
    201      15.9904      0.00000
    202      16.0236      0.00000
    203      16.0236      0.00000
    204      16.7619      0.00000
    205      16.7619      0.00000
    206      16.7797      0.00000
    207      16.8022      0.00000
    208      16.8022      0.00000
    209      16.8036      0.00000
    210      17.0323      0.00000
    211      17.0323      0.00000
    212      17.0369      0.00000
    213      17.1145      0.00000
    214      17.7192      0.00000
    215      17.7192      0.00000
    216      17.9103      0.00000

 spin component 2

 k-point     1 :       0.2500    0.2500    0.2500
  band No.  band energies     occupation 
      1     -14.2117      1.00000
      2     -13.8375      1.00000
      3     -13.8375      1.00000
      4     -13.7827      1.00000
      5     -13.5230      1.00000
      6     -13.5230      1.00000
      7     -13.4666      1.00000
      8     -13.2861      1.00000
      9     -13.2737      1.00000
     10     -13.2737      1.00000
     11     -13.2397      1.00000
     12     -13.1312      1.00000
     13     -13.1312      1.00000
     14     -13.1031      1.00000
     15     -13.0912      1.00000
     16     -13.0912      1.00000
     17     -13.0680      1.00000
     18     -12.9929      1.00000
     19     -12.9362      1.00000
     20     -12.9362      1.00000
     21     -12.9031      1.00000
     22     -12.8959      1.00000
     23     -12.8959      1.00000
     24     -12.8566      1.00000
     25     -12.8566      1.00000
     26     -12.7893      1.00000
     27     -12.7611      1.00000
     28     -12.6887      1.00000
     29     -12.6887      1.00000
     30     -12.6526      1.00000
     31     -12.5740      1.00000
     32     -12.5740      1.00000
     33      -1.5716      1.00000
     34      -1.5716      1.00000
     35      -1.4825      1.00000
     36      -1.2545      1.00000
     37      -1.0876      1.00000
     38      -1.0876      1.00000
     39      -1.0670      1.00000
     40      -0.9834      1.00000
     41      -0.9834      1.00000
     42      -0.9591      1.00000
     43      -0.9181      1.00000
     44      -0.9181      1.00000
     45      -0.8989      1.00000
     46      -0.8761      1.00000
     47      -0.8761      1.00000
     48      -0.7685      1.00000
     49      -0.7396      1.00000
     50      -0.7183      1.00000
     51      -0.7183      1.00000
     52      -0.6439      1.00000
     53      -0.6439      1.00000
     54      -0.5731      1.00000
     55      -0.4812      1.00000
     56      -0.4812      1.00000
     57      -0.4354      1.00000
     58      -0.3265      1.00000
     59      -0.3265      1.00000
     60      -0.0648      1.00000
     61       0.2673      1.00000
     62       0.2673      1.00000
     63       0.2870      1.00000
     64       0.3508      1.00000
     65       0.3927      1.00000
     66       0.3927      1.00000
     67       0.4942      1.00000
     68       0.5233      1.00000
     69       0.5233      1.00000
     70       0.5924      1.00000
     71       0.5924      1.00000
     72       0.7379      1.00000
     73       1.0325      1.00000
     74       1.0582      1.00000
     75       1.0732      1.00000
     76       1.0732      1.00000
     77       1.1569      1.00000
     78       1.1569      1.00000
     79       1.2142      1.00000
     80       1.2142      1.00000
     81       1.2209      1.00000
     82       1.4268      1.00000
     83       1.4268      1.00000
     84       1.4498      1.00000
     85       1.4599      1.00000
     86       1.4599      1.00000
     87       1.5805      1.00000
     88       1.5860      1.00000
     89       1.5860      1.00000
     90       1.5918      1.00000
     91       1.6267      1.00000
     92       1.6267      1.00000
     93       1.6306      1.00000
     94       1.7119      1.00000
     95       1.7119      1.00000
     96       1.8125      1.00000
     97       1.8283      1.00000
     98       1.8283      1.00000
     99       1.8687      1.00000
    100       1.9088      1.00000
    101       1.9188      1.00000
    102       1.9188      1.00000
    103       1.9506      1.00000
    104       1.9506      1.00000
    105       1.9602      1.00000
    106       1.9637      1.00000
    107       1.9953      1.00000
    108       1.9953      1.00000
    109       1.9970      1.00000
    110       2.0305      1.00000
    111       2.0362      1.00000
    112       2.0362      1.00000
    113       2.1446      1.00000
    114       2.2031      1.00000
    115       2.2031      1.00000
    116       2.2990      1.00000
    117       2.2990      1.00000
    118       2.3613      1.00000
    119       2.3903      1.00000
    120       2.3903      1.00000
    121       2.4207      1.00000
    122       2.4453      1.00000
    123       2.4550      1.00000
    124       2.4550      1.00000
    125       2.6853      0.93433
    126       2.6853      0.93433
    127       2.8409      0.24474
    128       2.8409      0.24474
    129       8.5172      0.00000
    130      10.0869      0.00000
    131      10.0869      0.00000
    132      10.1445      0.00000
    133      10.6389      0.00000
    134      10.9077      0.00000
    135      10.9077      0.00000
    136      10.9770      0.00000
    137      11.4046      0.00000
    138      11.4765      0.00000
    139      11.4765      0.00000
    140      12.0126      0.00000
    141      12.0126      0.00000
    142      12.0323      0.00000
    143      12.3352      0.00000
    144      12.3352      0.00000
    145      12.3365      0.00000
    146      12.3370      0.00000
    147      12.4533      0.00000
    148      12.4533      0.00000
    149      12.4740      0.00000
    150      12.4740      0.00000
    151      12.4888      0.00000
    152      12.8033      0.00000
    153      12.8033      0.00000
    154      12.8750      0.00000
    155      13.2203      0.00000
    156      13.2203      0.00000
    157      13.3924      0.00000
    158      13.4347      0.00000
    159      13.4347      0.00000
    160      13.4347      0.00000
    161      13.4864      0.00000
    162      13.4923      0.00000
    163      13.4923      0.00000
    164      13.5880      0.00000
    165      13.5920      0.00000
    166      13.5920      0.00000
    167      14.4319      0.00000
    168      14.4319      0.00000
    169      14.4538      0.00000
    170      14.4883      0.00000
    171      14.4883      0.00000
    172      14.5199      0.00000
    173      14.5628      0.00000
    174      14.5628      0.00000
    175      14.5820      0.00000
    176      14.6610      0.00000
    177      14.6610      0.00000
    178      14.7152      0.00000
    179      14.9188      0.00000
    180      14.9941      0.00000
    181      14.9941      0.00000
    182      15.0146      0.00000
    183      15.0310      0.00000
    184      15.0310      0.00000
    185      15.1355      0.00000
    186      15.1355      0.00000
    187      15.1592      0.00000
    188      15.2662      0.00000
    189      15.2758      0.00000
    190      15.2758      0.00000
    191      15.3391      0.00000
    192      15.3391      0.00000
    193      15.3489      0.00000
    194      15.4012      0.00000
    195      15.4130      0.00000
    196      15.4130      0.00000
    197      15.4641      0.00000
    198      15.8005      0.00000
    199      15.8385      0.00000
    200      15.8385      0.00000
    201      16.0054      0.00000
    202      16.0350      0.00000
    203      16.0350      0.00000
    204      16.7699      0.00000
    205      16.7699      0.00000
    206      16.7838      0.00000
    207      16.8081      0.00000
    208      16.8081      0.00000
    209      16.8096      0.00000
    210      17.0386      0.00000
    211      17.0386      0.00000
    212      17.0390      0.00000
    213      17.1243      0.00000
    214      17.7217      0.00000
    215      17.7217      0.00000
    216      17.9177      0.00000


--------------------------------------------------------------------------------------------------------


 soft charge-density along one line, spin component           1
         0         1         2         3         4         5         6         7         8         9
 total charge-density along one line
 
 soft charge-density along one line, spin component           2
         0         1         2         3         4         5         6         7         8         9
 total charge-density along one line
 
 pseudopotential strength for first ion, spin component:           1
  2.995   9.491   0.000  -0.000   0.000   0.000  -0.000   0.000
  9.491  29.928   0.000  -0.000   0.000   0.000  -0.000   0.000
  0.000   0.000   7.395  -0.000   0.000  10.674  -0.000   0.000
 -0.000  -0.000  -0.000   7.396   0.000  -0.000  10.672   0.000
  0.000   0.000   0.000   0.000   7.395   0.000   0.000  10.674
  0.000   0.000  10.674  -0.000   0.000  14.633  -0.000   0.000
 -0.000  -0.000  -0.000  10.672   0.000  -0.000  14.628   0.000
  0.000   0.000   0.000   0.000  10.674   0.000   0.000  14.633
  0.000   0.000   0.000  -0.000   0.000   0.000  -0.000   0.000
 -0.000  -0.000  -0.000  -0.000  -0.000  -0.000   0.000  -0.000
 -0.001  -0.003  -0.000  -0.000  -0.000  -0.000  -0.000  -0.000
  0.000   0.000  -0.000   0.000  -0.000  -0.000   0.000  -0.000
  0.000   0.000  -0.000  -0.000   0.000  -0.000  -0.000   0.000
 pseudopotential strength for first ion, spin component:           2
  2.995   9.490   0.000  -0.000   0.000   0.000  -0.000   0.000
  9.490  29.927   0.000  -0.000   0.000   0.000  -0.000   0.000
  0.000   0.000   7.395  -0.000   0.000  10.673  -0.000   0.000
 -0.000  -0.000  -0.000   7.396   0.000  -0.000  10.672   0.000
  0.000   0.000   0.000   0.000   7.395   0.000   0.000  10.673
  0.000   0.000  10.673  -0.000   0.000  14.632  -0.000   0.000
 -0.000  -0.000  -0.000  10.672   0.000  -0.000  14.628   0.000
  0.000   0.000   0.000   0.000  10.673   0.000   0.000  14.632
  0.000   0.000   0.000   0.000  -0.000   0.000   0.000  -0.000
 -0.000  -0.000  -0.000   0.000   0.000  -0.000   0.000   0.000
 -0.001  -0.003  -0.000  -0.000  -0.000  -0.000  -0.000  -0.000
  0.000   0.000   0.000   0.000  -0.000   0.000   0.000  -0.000
  0.000   0.000  -0.000  -0.000   0.000  -0.000  -0.000   0.000
 total augmentation occupancy for first ion, spin component:           1
  1.138  -0.059   0.000   0.000   0.000   0.000   0.000   0.000   0.000   0.000   0.051   0.000   0.000
 -0.059   0.003   0.000   0.000   0.000   0.000   0.000   0.000   0.000   0.000  -0.002   0.000   0.000
  0.000   0.000   0.119   0.000  -0.000  -0.013  -0.000   0.000   0.000   0.000   0.000   0.000   0.000
  0.000   0.000  -0.000   0.161  -0.000   0.000  -0.018   0.000   0.000   0.000   0.000   0.000   0.000
  0.000   0.000  -0.000   0.000   0.119   0.000  -0.000  -0.013   0.000   0.000   0.000   0.000   0.000
  0.000   0.000  -0.013   0.000   0.000   0.001   0.000   0.000   0.000   0.000   0.000   0.000   0.000
  0.000   0.000  -0.000  -0.018  -0.000   0.000   0.002  -0.000   0.000   0.000   0.000   0.000   0.000
  0.000   0.000   0.000   0.000  -0.013   0.000   0.000   0.001   0.000   0.000   0.000   0.000   0.000
  0.000   0.000   0.000   0.000   0.000   0.000   0.000   0.000   0.013  -0.000   0.000  -0.000   0.000
 -0.000   0.000   0.000   0.000   0.000   0.000   0.000   0.000  -0.000   0.017   0.000   0.000   0.000
  0.051  -0.002   0.000   0.000   0.000   0.000   0.000   0.000  -0.000   0.000   0.070  -0.000   0.000
  0.000   0.000   0.000   0.000   0.000   0.000   0.000   0.000  -0.000   0.000   0.000   0.017  -0.000
  0.000   0.000   0.000   0.000   0.000   0.000   0.000   0.000   0.000  -0.000   0.000  -0.000   0.050
 total augmentation occupancy for first ion, spin component:           2
 -0.005  -0.000   0.000   0.000   0.000   0.000   0.000   0.000  -0.000  -0.000   0.000   0.000   0.000
 -0.000   0.000   0.000   0.000   0.000   0.000   0.000   0.000   0.000   0.000  -0.000   0.000   0.000
  0.000   0.000  -0.000  -0.000  -0.000  -0.000   0.000   0.000   0.000   0.000   0.000   0.000   0.000
  0.000   0.000  -0.000   0.006   0.000  -0.000  -0.001  -0.000   0.000   0.000   0.000   0.000   0.000
  0.000   0.000  -0.000  -0.000  -0.000   0.000   0.000  -0.000   0.000   0.000   0.000   0.000   0.000
  0.000   0.000  -0.000  -0.000   0.000   0.000   0.000  -0.000   0.000   0.000   0.000   0.000   0.000
  0.000   0.000  -0.000  -0.001   0.000   0.000   0.000  -0.000   0.000   0.000   0.000   0.000   0.000
  0.000   0.000   0.000  -0.000  -0.000  -0.000   0.000   0.000   0.000   0.000   0.000   0.000   0.000
 -0.000  -0.000   0.000   0.000   0.000   0.000   0.000   0.000  -0.000   0.000   0.000   0.000  -0.000
 -0.000   0.000   0.000   0.000   0.000   0.000   0.000   0.000   0.000  -0.000   0.000   0.000  -0.000
  0.000  -0.000   0.000   0.000   0.000   0.000   0.000   0.000  -0.000   0.000   0.001   0.000   0.000
  0.000   0.000   0.000   0.000   0.000   0.000   0.000   0.000   0.000   0.000   0.000  -0.000   0.000
  0.000   0.000   0.000   0.000   0.000   0.000   0.000   0.000   0.000  -0.000   0.000   0.000  -0.000


------------------------ aborting loop because EDIFF is reached ----------------------------------------


 


 total charge     
 
# of ion       s       p       d       tot
------------------------------------------
    1        0.161   0.196   0.091   0.448
    2        0.161   0.196   0.091   0.448
    3        0.151   0.183   0.081   0.415
    4        0.161   0.196   0.091   0.448
    5        0.151   0.183   0.081   0.415
    6        0.151   0.183   0.081   0.415
    7        0.150   0.182   0.081   0.413
    8        0.149   0.179   0.079   0.408
    9        0.149   0.180   0.079   0.408
   10        0.149   0.180   0.079   0.408
   11        0.149   0.179   0.079   0.408
   12        0.149   0.180   0.079   0.409
   13        0.149   0.180   0.079   0.409
   14        0.149   0.180   0.079   0.409
   15        0.149   0.180   0.079   0.409
   16        0.149   0.179   0.079   0.408
   17        0.149   0.180   0.079   0.408
   18        0.149   0.180   0.079   0.409
   19        0.149   0.180   0.079   0.409
   20        0.149   0.180   0.079   0.408
   21        0.149   0.179   0.079   0.408
   22        0.149   0.180   0.079   0.409
   23        0.149   0.180   0.079   0.409
   24        0.149   0.179   0.079   0.408
   25        0.149   0.180   0.079   0.409
   26        0.149   0.180   0.079   0.408
   27        0.149   0.180   0.079   0.409
   28        0.149   0.180   0.079   0.408
   29        0.149   0.180   0.079   0.409
   30        0.149   0.179   0.079   0.408
   31        0.149   0.180   0.079   0.409
   32        1.571   3.527   0.000   5.098
   33        1.566   3.534   0.000   5.100
   34        1.566   3.534   0.000   5.100
   35        1.564   3.549   0.000   5.113
   36        1.571   3.527   0.000   5.098
   37        1.566   3.534   0.000   5.100
   38        1.566   3.534   0.000   5.100
   39        1.564   3.549   0.000   5.113
   40        1.565   3.539   0.000   5.104
   41        1.565   3.550   0.000   5.115
   42        1.565   3.550   0.000   5.115
   43        1.565   3.550   0.000   5.115
   44        1.565   3.550   0.000   5.115
   45        1.565   3.550   0.000   5.115
   46        1.565   3.550   0.000   5.115
   47        1.565   3.539   0.000   5.104
   48        1.571   3.527   0.000   5.098
   49        1.571   3.527   0.000   5.098
   50        1.566   3.534   0.000   5.100
   51        1.566   3.534   0.000   5.100
   52        1.566   3.534   0.000   5.100
   53        1.566   3.534   0.000   5.100
   54        1.564   3.549   0.000   5.113
   55        1.564   3.549   0.000   5.113
   56        1.571   3.527   0.000   5.098
   57        1.566   3.534   0.000   5.100
   58        1.571   3.527   0.000   5.098
   59        1.566   3.534   0.000   5.100
   60        1.566   3.534   0.000   5.100
   61        1.564   3.549   0.000   5.113
   62        1.566   3.534   0.000   5.100
   63        1.564   3.549   0.000   5.113
--------------------------------------------------
tot         54.790 118.881   2.503 176.174
 


 magnetization (x)
 
# of ion       s       p       d       tot
------------------------------------------
    1       -0.001   0.003   0.000   0.002
    2       -0.001   0.003   0.000   0.002
    3       -0.000  -0.000   0.000  -0.000
    4       -0.001   0.003   0.000   0.002
    5       -0.000  -0.000   0.000  -0.000
    6       -0.000  -0.000   0.000  -0.000
    7       -0.000  -0.000  -0.000  -0.000
    8       -0.001  -0.000  -0.000  -0.001
    9       -0.001  -0.000   0.000  -0.001
   10       -0.001  -0.000   0.000  -0.001
   11       -0.001  -0.000  -0.000  -0.001
   12       -0.000  -0.000  -0.000  -0.000
   13       -0.000  -0.000  -0.000  -0.000
   14       -0.000  -0.000  -0.000  -0.000
   15       -0.000  -0.000  -0.000  -0.000
   16       -0.001  -0.000  -0.000  -0.001
   17       -0.001  -0.000   0.000  -0.001
   18       -0.000  -0.000  -0.000  -0.000
   19       -0.000  -0.000  -0.000  -0.000
   20       -0.001  -0.000   0.000  -0.001
   21       -0.001  -0.000  -0.000  -0.001
   22       -0.000  -0.000  -0.000  -0.000
   23       -0.000  -0.000  -0.000  -0.000
   24       -0.001  -0.000  -0.000  -0.001
   25       -0.000  -0.000  -0.000  -0.000
   26       -0.001  -0.000   0.000  -0.001
   27       -0.000  -0.000  -0.000  -0.000
   28       -0.001  -0.000   0.000  -0.001
   29       -0.000  -0.000  -0.000  -0.000
   30       -0.001  -0.000  -0.000  -0.001
   31       -0.000  -0.000  -0.000  -0.000
   32        0.001   0.087   0.000   0.088
   33        0.000   0.034   0.000   0.034
   34        0.000   0.034   0.000   0.034
   35        0.000   0.006   0.000   0.006
   36        0.001   0.087   0.000   0.088
   37        0.000   0.034   0.000   0.034
   38        0.000   0.034   0.000   0.034
   39        0.000   0.006   0.000   0.006
   40        0.000   0.021   0.000   0.022
   41        0.000   0.014   0.000   0.014
   42        0.000   0.014   0.000   0.014
   43        0.000   0.014   0.000   0.014
   44        0.000   0.014   0.000   0.014
   45        0.000   0.014   0.000   0.014
   46        0.000   0.014   0.000   0.014
   47        0.000   0.021   0.000   0.022
   48        0.001   0.087   0.000   0.088
   49        0.001   0.087   0.000   0.088
   50        0.000   0.034   0.000   0.034
   51        0.000   0.034   0.000   0.034
   52        0.000   0.034   0.000   0.034
   53        0.000   0.034   0.000   0.034
   54        0.000   0.006   0.000   0.006
   55        0.000   0.006   0.000   0.006
   56        0.001   0.087   0.000   0.088
   57        0.000   0.034   0.000   0.034
   58        0.001   0.087   0.000   0.088
   59        0.000   0.034   0.000   0.034
   60        0.000   0.034   0.000   0.034
   61        0.000   0.006   0.000   0.006
   62        0.000   0.034   0.000   0.034
   63        0.000   0.006   0.000   0.006
--------------------------------------------------
tot          0.000   1.094  -0.000   1.094
 
    CHARGE:  cpu time    0.0480: real time    0.0486
    FORLOC:  cpu time    0.0080: real time    0.0048
    FORNL :  cpu time    0.1840: real time    0.1849
    STRESS:  cpu time    0.5480: real time    0.5484
    FORCOR:  cpu time    0.0320: real time    0.0303
    FORHAR:  cpu time    0.0040: real time    0.0070
    MIXING:  cpu time    0.0000: real time    0.0007
    OFIELD:  cpu time    0.0000: real time    0.0000

  FORCE on cell =-STRESS in cart. coord.  units (eV):
  Direction    XX          YY          ZZ          XY          YZ          ZX
  --------------------------------------------------------------------------------------
  Alpha Z   612.27356   612.27356   612.27356
  Ewald   -3781.76092 -3781.76092 -3781.76092    -0.00000    -0.00000    -0.00000
  Hartree  1490.28390  1490.28390  1490.28390    -0.00000    -0.00000    -0.00000
  E(xc)   -1144.98541 -1144.98541 -1144.98541     0.00000    -0.00000     0.00000
  Local   -1322.63750 -1322.63750 -1322.63750    -0.00000    -0.00000    -0.00000
  n-local  -602.67157  -602.67157  -602.67157    -1.91056    -1.91055    -1.91056
  augment   218.00308   218.00308   218.00308     0.00000     0.00000    -0.00000
  Kinetic  4512.23546  4512.23546  4512.23546     6.35368     6.35369     6.35368
  Fock        0.00000     0.00000     0.00000     0.00000     0.00000     0.00000
  -------------------------------------------------------------------------------------
  Total     -19.25940   -19.25940   -19.25940    -0.00000     0.00000    -0.00000
  in kB     -51.70126   -51.70126   -51.70126    -0.00000     0.00000    -0.00000
  external pressure =      -51.70 kB  Pullay stress =        0.00 kB


 VOLUME and BASIS-vectors are now :
 -----------------------------------------------------------------------------
  energy-cutoff  :      400.00
  volume of cell :      596.83
      direct lattice vectors                 reciprocal lattice vectors
     8.419456000  0.000000000  0.000000000     0.118772519  0.000000000  0.000000000
     0.000000000  8.419456000  0.000000000     0.000000000  0.118772519  0.000000000
     0.000000000  0.000000000  8.419456000     0.000000000  0.000000000  0.118772519

  length of vectors
     8.419456000  8.419456000  8.419456000     0.118772519  0.118772519  0.118772519


 FORCES acting on ions
    electron-ion (+dipol)            ewald-force                    non-local-force                 convergence-correction
 -----------------------------------------------------------------------------------------------
   0.602E-14 -.328E-14 -.148E-13   -.341E-13 0.000E+00 -.469E-15   0.000E+00 0.000E+00 0.000E+00   -.395E-16 -.310E-14 -.320E-14
   0.551E-14 -.169E-13 0.446E-14   -.320E-13 -.444E-15 0.722E-14   0.000E+00 0.000E+00 0.000E+00   0.821E-15 0.171E-14 0.283E-14
   0.459E-14 -.325E-13 -.273E-13   0.409E-13 -.711E-14 -.721E-14   0.000E+00 0.000E+00 0.000E+00   0.219E-14 0.283E-14 -.267E-14
   0.300E-14 -.914E-14 0.938E-12   -.108E-13 -.133E-14 0.705E-14   0.000E+00 0.000E+00 0.000E+00   0.102E-14 -.138E-14 0.425E-14
   -.177E-14 -.227E-13 0.671E-12   -.366E-13 0.142E-13 -.649E-14   0.000E+00 0.000E+00 0.000E+00   0.185E-14 0.818E-15 -.409E-14
   -.240E-14 -.131E-12 -.155E-13   -.394E-13 -.164E-13 0.711E-14   0.000E+00 0.000E+00 0.000E+00   0.121E-14 0.211E-14 0.374E-14
   -.866E-15 -.704E-12 0.671E-12   0.274E-14 -.711E-14 -.707E-14   0.000E+00 0.000E+00 0.000E+00   -.280E-15 -.596E-16 -.360E-14
   0.144E-14 0.407E+01 0.407E+01   0.967E-14 -.453E+01 -.453E+01   -.678E-19 0.456E+00 0.456E+00   0.117E-14 0.554E-03 0.554E-03
   0.236E-14 0.407E+01 -.407E+01   0.106E-13 -.453E+01 0.453E+01   0.226E-19 0.456E+00 -.456E+00   0.103E-14 0.554E-03 -.554E-03
   0.871E-14 -.407E+01 0.407E+01   0.109E-13 0.453E+01 -.453E+01   -.226E-19 -.456E+00 0.456E+00   -.146E-14 -.554E-03 0.554E-03
   0.377E-14 -.407E+01 -.407E+01   0.100E-13 0.453E+01 0.453E+01   0.678E-19 -.456E+00 -.456E+00   0.158E-14 -.554E-03 -.554E-03
   0.130E-14 0.255E+00 0.255E+00   -.175E-13 -.330E+00 -.330E+00   -.678E-19 0.691E-01 0.691E-01   0.699E-15 0.746E-04 0.746E-04
   0.329E-14 0.255E+00 -.255E+00   -.168E-13 -.330E+00 0.330E+00   -.858E-19 0.691E-01 -.691E-01   0.682E-15 0.746E-04 -.746E-04
   -.550E-14 -.255E+00 0.255E+00   -.153E-13 0.330E+00 -.330E+00   0.316E-19 -.691E-01 0.691E-01   0.325E-14 -.746E-04 0.746E-04
   0.745E-15 -.255E+00 -.255E+00   -.700E-14 0.330E+00 0.330E+00   0.407E-19 -.691E-01 -.691E-01   0.165E-16 -.746E-04 -.746E-04
   0.407E+01 0.119E-12 0.407E+01   -.453E+01 0.355E-14 -.453E+01   0.456E+00 0.136E-19 0.456E+00   0.554E-03 0.130E-14 0.554E-03
   0.407E+01 0.232E-14 -.407E+01   -.453E+01 0.711E-14 0.453E+01   0.456E+00 -.452E-20 -.456E+00   0.554E-03 -.197E-14 -.554E-03
   0.255E+00 -.284E-12 0.255E+00   -.330E+00 -.888E-15 -.330E+00   0.691E-01 0.136E-19 0.691E-01   0.746E-04 -.121E-14 0.746E-04
   0.255E+00 -.173E-12 -.255E+00   -.330E+00 -.622E-14 0.330E+00   0.691E-01 0.226E-19 -.691E-01   0.746E-04 0.201E-14 -.746E-04
   -.407E+01 -.846E-13 0.407E+01   0.453E+01 0.799E-14 -.453E+01   -.456E+00 0.452E-20 0.456E+00   -.554E-03 -.120E-14 0.554E-03
   -.407E+01 0.118E-13 -.407E+01   0.453E+01 0.444E-14 0.453E+01   -.456E+00 -.136E-19 -.456E+00   -.554E-03 -.110E-14 -.554E-03
   -.255E+00 -.786E-12 0.255E+00   0.330E+00 -.178E-14 -.330E+00   -.691E-01 -.768E-19 0.691E-01   -.746E-04 0.139E-14 0.746E-04
   -.255E+00 0.655E-12 -.255E+00   0.330E+00 0.266E-14 0.330E+00   -.691E-01 0.407E-19 -.691E-01   -.746E-04 0.157E-14 -.746E-04
   0.407E+01 0.407E+01 -.416E-05   -.453E+01 -.453E+01 0.186E-14   0.456E+00 0.456E+00 0.271E-19   0.554E-03 0.554E-03 0.450E-14
   0.255E+00 0.255E+00 -.121E-05   -.330E+00 -.330E+00 -.117E-14   0.691E-01 0.691E-01 0.949E-19   0.746E-04 0.746E-04 -.422E-14
   0.407E+01 -.407E+01 0.949E-13   -.453E+01 0.453E+01 0.694E-16   0.456E+00 -.456E+00 0.768E-19   0.554E-03 -.554E-03 0.110E-14
   0.255E+00 -.255E+00 -.196E-12   -.330E+00 0.330E+00 -.103E-14   0.691E-01 -.691E-01 0.226E-19   0.746E-04 -.746E-04 -.117E-14
   -.407E+01 0.407E+01 0.684E-12   0.453E+01 -.453E+01 -.164E-14   -.456E+00 0.456E+00 -.768E-19   -.554E-03 0.554E-03 0.439E-14
   -.255E+00 0.255E+00 -.892E-13   0.330E+00 -.330E+00 0.682E-14   -.691E-01 0.691E-01 -.226E-19   -.746E-04 0.746E-04 -.420E-14
   -.407E+01 -.407E+01 0.416E-05   0.453E+01 0.453E+01 -.174E-14   -.456E+00 -.456E+00 -.271E-19   -.554E-03 -.554E-03 0.425E-14
   -.255E+00 -.255E+00 0.121E-05   0.330E+00 0.330E+00 0.696E-14   -.691E-01 -.691E-01 -.407E-19   -.746E-04 -.746E-04 -.423E-14
   0.488E+02 -.153E-14 0.196E-04   -.552E+02 0.124E-13 -.912E-14   0.649E+01 0.759E-18 0.651E-18   0.255E-02 0.267E-14 0.168E-13
   -.382E+00 -.531E-15 0.217E-04   0.119E+00 0.142E-13 -.676E-14   0.259E+00 0.847E-21 0.108E-18   0.709E-03 -.282E-15 -.199E-13
   -.382E+00 -.120E-11 0.207E-04   0.119E+00 -.124E-13 -.677E-14   0.259E+00 -.271E-19 -.110E-19   0.709E-03 0.652E-14 0.169E-13
   0.944E+00 0.264E-11 0.592E-05   -.104E+01 0.000E+00 -.542E-15   0.103E+00 0.407E-19 0.000E+00   -.253E-03 0.240E-14 -.213E-13
   -.488E+02 -.747E-15 -.196E-04   0.552E+02 0.888E-14 -.264E-15   -.649E+01 -.163E-17 0.651E-18   -.255E-02 -.227E-14 0.155E-13
   0.382E+00 -.165E-14 -.217E-04   -.119E+00 -.142E-13 0.123E-14   -.259E+00 -.847E-21 -.108E-18   -.709E-03 -.395E-14 -.271E-13
   0.382E+00 0.255E-11 -.207E-04   -.119E+00 -.124E-13 0.146E-13   -.259E+00 0.352E-18 0.593E-20   -.709E-03 0.441E-14 0.185E-13
   -.944E+00 0.257E-11 -.592E-05   0.104E+01 0.711E-14 0.658E-14   -.103E+00 0.203E-19 -.136E-19   0.253E-03 0.399E-14 -.205E-13
   0.639E+01 0.639E+01 0.639E+01   -.620E+01 -.620E+01 -.620E+01   -.193E+00 -.193E+00 -.193E+00   0.858E-03 0.858E-03 0.858E-03
   0.639E+01 0.639E+01 -.639E+01   -.620E+01 -.620E+01 0.620E+01   -.193E+00 -.193E+00 0.193E+00   0.858E-03 0.858E-03 -.858E-03
   0.639E+01 -.639E+01 0.639E+01   -.620E+01 0.620E+01 -.620E+01   -.193E+00 0.193E+00 -.193E+00   0.858E-03 -.858E-03 0.858E-03
   0.639E+01 -.639E+01 -.639E+01   -.620E+01 0.620E+01 0.620E+01   -.193E+00 0.193E+00 0.193E+00   0.858E-03 -.858E-03 -.858E-03
   -.639E+01 0.639E+01 0.639E+01   0.620E+01 -.620E+01 -.620E+01   0.193E+00 -.193E+00 -.193E+00   -.858E-03 0.858E-03 0.858E-03
   -.639E+01 0.639E+01 -.639E+01   0.620E+01 -.620E+01 0.620E+01   0.193E+00 -.193E+00 0.193E+00   -.858E-03 0.858E-03 -.858E-03
   -.639E+01 -.639E+01 0.639E+01   0.620E+01 0.620E+01 -.620E+01   0.193E+00 0.193E+00 -.193E+00   -.858E-03 -.858E-03 0.858E-03
   -.639E+01 -.639E+01 -.639E+01   0.620E+01 0.620E+01 0.620E+01   0.193E+00 0.193E+00 0.193E+00   -.858E-03 -.858E-03 -.858E-03
   -.353E-14 -.169E-12 0.488E+02   -.301E-13 -.160E-13 -.552E+02   -.325E-18 -.271E-17 0.649E+01   0.271E-13 -.743E-14 0.255E-02
   0.379E-14 0.182E-12 -.488E+02   -.107E-13 0.533E-14 0.552E+02   -.141E-17 -.163E-17 -.649E+01   0.235E-13 -.485E-14 -.255E-02
   0.180E-14 0.743E-13 -.382E+00   -.951E-14 -.178E-14 0.119E+00   0.102E-19 -.407E-18 0.259E+00   0.297E-13 0.168E-13 0.709E-03
   -.491E-14 0.663E-12 0.382E+00   -.612E-14 -.169E-13 -.119E+00   -.847E-20 0.190E-18 -.259E+00   0.238E-13 0.106E-13 -.709E-03
   0.357E-12 -.292E-13 -.382E+00   0.387E-13 0.213E-13 0.119E+00   -.569E-18 0.339E-20 0.259E+00   0.657E-14 0.561E-14 0.709E-03
   0.361E-12 0.253E-13 0.382E+00   0.627E-14 0.142E-13 -.119E+00   0.352E-18 -.152E-19 -.259E+00   0.604E-14 0.485E-14 -.709E-03
   0.357E-12 -.216E-11 0.944E+00   -.225E-13 -.426E-13 -.104E+01   0.373E-19 -.508E-19 0.103E+00   0.715E-14 0.560E-14 -.253E-03
   0.362E-12 0.273E-13 -.944E+00   -.252E-13 -.426E-13 0.104E+01   0.576E-19 0.508E-19 -.103E+00   0.581E-14 0.157E-13 0.253E-03
   -.208E-14 0.488E+02 0.196E-04   -.298E-13 -.552E+02 0.262E-14   -.130E-17 0.649E+01 -.217E-18   0.306E-13 0.255E-02 0.309E-13
   -.260E-14 -.382E+00 0.217E-04   0.681E-14 0.119E+00 0.909E-15   -.593E-20 0.259E+00 -.244E-18   0.343E-13 0.709E-03 -.163E-14
   0.347E-14 -.488E+02 -.196E-04   -.243E-13 0.552E+02 0.365E-14   0.651E-18 -.649E+01 0.434E-18   0.298E-13 -.255E-02 0.246E-13
   0.198E-14 0.382E+00 -.217E-04   -.446E-14 -.119E+00 0.118E-13   0.254E-20 -.259E+00 0.352E-18   0.301E-13 -.709E-03 -.190E-13
   0.363E-12 -.382E+00 0.207E-04   0.246E-13 0.119E+00 -.167E-13   -.136E-18 0.259E+00 -.678E-20   0.460E-14 0.709E-03 0.248E-13
   0.363E-12 0.944E+00 0.592E-05   -.519E-13 -.104E+01 -.538E-14   0.339E-20 0.103E+00 0.440E-19   0.160E-14 -.253E-03 -.214E-13
   0.353E-12 0.382E+00 -.207E-04   0.215E-13 -.119E+00 -.181E-14   0.244E-18 -.259E+00 -.339E-20   0.668E-14 -.709E-03 0.206E-13
   0.356E-12 -.944E+00 -.592E-05   -.197E-13 0.104E+01 0.264E-14   0.339E-20 -.103E+00 -.102E-19   0.285E-14 0.253E-03 -.149E-13
 -----------------------------------------------------------------------------------------------
   0.145E-10 0.183E-11 0.785E-10   -.581E-13 0.160E-13 -.140E-14   0.809E-16 0.680E-15 0.847E-15   0.190E-12 0.563E-13 -.322E-13
 
 
 POSITION                                       TOTAL-FORCE (eV/Angst)
 -----------------------------------------------------------------------------------
      0.00000      0.00000      4.20973        -0.000000      0.000000      0.000000
      0.00000      4.20973      0.00000        -0.000000      0.000000      0.000000
      0.00000      4.20973      4.20973        -0.000000      0.000000      0.000000
      4.20973      0.00000      0.00000        -0.000000      0.000000      0.000000
      4.20973      0.00000      4.20973        -0.000000      0.000000      0.000000
      4.20973      4.20973      0.00000        -0.000000      0.000000      0.000000
      4.20973      4.20973      4.20973        -0.000000      0.000000      0.000000
      0.00000      2.05684      2.05684        -0.000000     -0.001482     -0.001482
      0.00000      2.05684      6.36261        -0.000000     -0.001482      0.001482
      0.00000      6.36261      2.05684        -0.000000      0.001482     -0.001482
      0.00000      6.36261      6.36261        -0.000000      0.001482      0.001482
      4.20973      2.09891      2.09891        -0.000000     -0.006038     -0.006038
      4.20973      2.09891      6.32054        -0.000000     -0.006038      0.006038
      4.20973      6.32054      2.09891        -0.000000      0.006038     -0.006038
      4.20973      6.32054      6.32054        -0.000000      0.006038      0.006038
      2.05684      0.00000      2.05684        -0.001482     -0.000000     -0.001482
      2.05684      0.00000      6.36261        -0.001482     -0.000000      0.001482
      2.09891      4.20973      2.09891        -0.006038     -0.000000     -0.006038
      2.09891      4.20973      6.32054        -0.006038     -0.000000      0.006038
      6.36261      0.00000      2.05684         0.001482      0.000000     -0.001482
      6.36261      0.00000      6.36261         0.001482      0.000000      0.001482
      6.32054      4.20973      2.09891         0.006038      0.000000     -0.006038
      6.32054      4.20973      6.32054         0.006038      0.000000      0.006038
      2.05684      2.05684      0.00000        -0.001482     -0.001482      0.000000
      2.09891      2.09891      4.20973        -0.006038     -0.006038      0.000000
      2.05684      6.36261      0.00000        -0.001482      0.001482     -0.000000
      2.09891      6.32054      4.20973        -0.006038      0.006038      0.000000
      6.36261      2.05684      0.00000         0.001482     -0.001482      0.000000
      6.32054      2.09891      4.20973         0.006038     -0.006038      0.000000
      6.36261      6.36261      0.00000         0.001482      0.001482     -0.000000
      6.32054      6.32054      4.20973         0.006038      0.006038     -0.000000
      2.21537      0.00000      0.00000        -0.007028     -0.000000      0.000000
      2.11608      0.00000      4.20973        -0.003128     -0.000000     -0.000000
      2.11608      4.20973      0.00000        -0.003128      0.000000      0.000000
      2.10784      4.20973      4.20973         0.009673      0.000000     -0.000000
      6.20409      0.00000      0.00000         0.007028      0.000000     -0.000000
      6.30337      0.00000      4.20973         0.003128      0.000000      0.000000
      6.30337      4.20973      0.00000         0.003128     -0.000000      0.000000
      6.31162      4.20973      4.20973        -0.009673     -0.000000      0.000000
      2.10215      2.10215      2.10215         0.001145      0.001145      0.001145
      2.10215      2.10215      6.31730         0.001145      0.001145     -0.001145
      2.10215      6.31730      2.10215         0.001145     -0.001145      0.001145
      2.10215      6.31730      6.31730         0.001145     -0.001145     -0.001145
      6.31730      2.10215      2.10215        -0.001145      0.001145      0.001145
      6.31730      2.10215      6.31730        -0.001145      0.001145     -0.001145
      6.31730      6.31730      2.10215        -0.001145     -0.001145      0.001145
      6.31730      6.31730      6.31730        -0.001145     -0.001145     -0.001145
      0.00000      0.00000      2.21537        -0.000000      0.000000     -0.007028
      0.00000      0.00000      6.20409        -0.000000      0.000000      0.007028
      0.00000      4.20973      2.11608        -0.000000      0.000000     -0.003128
      0.00000      4.20973      6.30337        -0.000000      0.000000      0.003128
      4.20973      0.00000      2.11608        -0.000000     -0.000000     -0.003128
      4.20973      0.00000      6.30337        -0.000000      0.000000      0.003128
      4.20973      4.20973      2.10784        -0.000000      0.000000      0.009673
      4.20973      4.20973      6.31162        -0.000000     -0.000000     -0.009673
      0.00000      2.21537      0.00000        -0.000000     -0.007028      0.000000
      0.00000      2.11608      4.20973        -0.000000     -0.003128     -0.000000
      0.00000      6.20409      0.00000        -0.000000      0.007028     -0.000000
      0.00000      6.30337      4.20973        -0.000000      0.003128      0.000000
      4.20973      2.11608      0.00000        -0.000000     -0.003128     -0.000000
      4.20973      2.10784      4.20973        -0.000000      0.009673     -0.000000
      4.20973      6.30337      0.00000        -0.000000      0.003128      0.000000
      4.20973      6.31162      4.20973        -0.000000     -0.009673      0.000000
 -----------------------------------------------------------------------------------
    total drift:                                0.000000      0.000000      0.000000


--------------------------------------------------------------------------------------------------------



  FREE ENERGIE OF THE ION-ELECTRON SYSTEM (eV)
  ---------------------------------------------------
  free  energy   TOTEN  =      -390.75322296 eV

  energy  without entropy=     -390.65368301  energy(sigma->0) =     -390.70345298
 


--------------------------------------------------------------------------------------------------------


    POTLOK:  cpu time    0.7120: real time    0.7148


--------------------------------------------------------------------------------------------------------




--------------------------------------------------------------------------------------------------------


  
 reached required accuracy - stopping structural energy minimisation
 writing wavefunctions
     LOOP+:  cpu time    5.5640: real time    5.9317
    4ORBIT:  cpu time    0.0000: real time    0.0000
 


 total charge     
 
# of ion       s       p       d       tot
------------------------------------------
    1        0.161   0.196   0.091   0.448
    2        0.161   0.196   0.091   0.448
    3        0.151   0.183   0.081   0.415
    4        0.161   0.196   0.091   0.448
    5        0.151   0.183   0.081   0.415
    6        0.151   0.183   0.081   0.415
    7        0.150   0.182   0.081   0.413
    8        0.149   0.179   0.079   0.408
    9        0.149   0.180   0.079   0.408
   10        0.149   0.180   0.079   0.408
   11        0.149   0.179   0.079   0.408
   12        0.149   0.180   0.079   0.409
   13        0.149   0.180   0.079   0.409
   14        0.149   0.180   0.079   0.409
   15        0.149   0.180   0.079   0.409
   16        0.149   0.179   0.079   0.408
   17        0.149   0.180   0.079   0.408
   18        0.149   0.180   0.079   0.409
   19        0.149   0.180   0.079   0.409
   20        0.149   0.180   0.079   0.408
   21        0.149   0.179   0.079   0.408
   22        0.149   0.180   0.079   0.409
   23        0.149   0.180   0.079   0.409
   24        0.149   0.179   0.079   0.408
   25        0.149   0.180   0.079   0.409
   26        0.149   0.180   0.079   0.408
   27        0.149   0.180   0.079   0.409
   28        0.149   0.180   0.079   0.408
   29        0.149   0.180   0.079   0.409
   30        0.149   0.179   0.079   0.408
   31        0.149   0.180   0.079   0.409
   32        1.571   3.527   0.000   5.098
   33        1.566   3.534   0.000   5.100
   34        1.566   3.534   0.000   5.100
   35        1.564   3.549   0.000   5.113
   36        1.571   3.527   0.000   5.098
   37        1.566   3.534   0.000   5.100
   38        1.566   3.534   0.000   5.100
   39        1.564   3.549   0.000   5.113
   40        1.565   3.539   0.000   5.104
   41        1.565   3.550   0.000   5.115
   42        1.565   3.550   0.000   5.115
   43        1.565   3.550   0.000   5.115
   44        1.565   3.550   0.000   5.115
   45        1.565   3.550   0.000   5.115
   46        1.565   3.550   0.000   5.115
   47        1.565   3.539   0.000   5.104
   48        1.571   3.527   0.000   5.098
   49        1.571   3.527   0.000   5.098
   50        1.566   3.534   0.000   5.100
   51        1.566   3.534   0.000   5.100
   52        1.566   3.534   0.000   5.100
   53        1.566   3.534   0.000   5.100
   54        1.564   3.549   0.000   5.113
   55        1.564   3.549   0.000   5.113
   56        1.571   3.527   0.000   5.098
   57        1.566   3.534   0.000   5.100
   58        1.571   3.527   0.000   5.098
   59        1.566   3.534   0.000   5.100
   60        1.566   3.534   0.000   5.100
   61        1.564   3.549   0.000   5.113
   62        1.566   3.534   0.000   5.100
   63        1.564   3.549   0.000   5.113
--------------------------------------------------
tot         54.790 118.881   2.503 176.174
 


 magnetization (x)
 
# of ion       s       p       d       tot
------------------------------------------
    1       -0.001   0.003   0.000   0.002
    2       -0.001   0.003   0.000   0.002
    3       -0.000  -0.000   0.000  -0.000
    4       -0.001   0.003   0.000   0.002
    5       -0.000  -0.000   0.000  -0.000
    6       -0.000  -0.000   0.000  -0.000
    7       -0.000  -0.000  -0.000  -0.000
    8       -0.001  -0.000  -0.000  -0.001
    9       -0.001  -0.000   0.000  -0.001
   10       -0.001  -0.000   0.000  -0.001
   11       -0.001  -0.000  -0.000  -0.001
   12       -0.000  -0.000  -0.000  -0.000
   13       -0.000  -0.000  -0.000  -0.000
   14       -0.000  -0.000  -0.000  -0.000
   15       -0.000  -0.000  -0.000  -0.000
   16       -0.001  -0.000  -0.000  -0.001
   17       -0.001  -0.000   0.000  -0.001
   18       -0.000  -0.000  -0.000  -0.000
   19       -0.000  -0.000  -0.000  -0.000
   20       -0.001  -0.000   0.000  -0.001
   21       -0.001  -0.000  -0.000  -0.001
   22       -0.000  -0.000  -0.000  -0.000
   23       -0.000  -0.000  -0.000  -0.000
   24       -0.001  -0.000  -0.000  -0.001
   25       -0.000  -0.000  -0.000  -0.000
   26       -0.001  -0.000   0.000  -0.001
   27       -0.000  -0.000  -0.000  -0.000
   28       -0.001  -0.000   0.000  -0.001
   29       -0.000  -0.000  -0.000  -0.000
   30       -0.001  -0.000  -0.000  -0.001
   31       -0.000  -0.000  -0.000  -0.000
   32        0.001   0.087   0.000   0.088
   33        0.000   0.034   0.000   0.034
   34        0.000   0.034   0.000   0.034
   35        0.000   0.006   0.000   0.006
   36        0.001   0.087   0.000   0.088
   37        0.000   0.034   0.000   0.034
   38        0.000   0.034   0.000   0.034
   39        0.000   0.006   0.000   0.006
   40        0.000   0.021   0.000   0.022
   41        0.000   0.014   0.000   0.014
   42        0.000   0.014   0.000   0.014
   43        0.000   0.014   0.000   0.014
   44        0.000   0.014   0.000   0.014
   45        0.000   0.014   0.000   0.014
   46        0.000   0.014   0.000   0.014
   47        0.000   0.021   0.000   0.022
   48        0.001   0.087   0.000   0.088
   49        0.001   0.087   0.000   0.088
   50        0.000   0.034   0.000   0.034
   51        0.000   0.034   0.000   0.034
   52        0.000   0.034   0.000   0.034
   53        0.000   0.034   0.000   0.034
   54        0.000   0.006   0.000   0.006
   55        0.000   0.006   0.000   0.006
   56        0.001   0.087   0.000   0.088
   57        0.000   0.034   0.000   0.034
   58        0.001   0.087   0.000   0.088
   59        0.000   0.034   0.000   0.034
   60        0.000   0.034   0.000   0.034
   61        0.000   0.006   0.000   0.006
   62        0.000   0.034   0.000   0.034
   63        0.000   0.006   0.000   0.006
--------------------------------------------------
tot          0.000   1.094  -0.000   1.094
 

 total amount of memory used by VASP MPI-rank0    50393. kBytes
=======================================================================

   base      :      30000. kBytes
   nonlr-proj:       8444. kBytes
   fftplans  :       1007. kBytes
   grid      :       7709. kBytes
   one-center:       1022. kBytes
   wavefun   :       2211. kBytes
 
  
  
 General timing and accounting informations for this job:
 ========================================================
  
                  Total CPU time used (sec):        7.708
                            User time (sec):        7.424
                          System time (sec):        0.284
                         Elapsed time (sec):        8.576
  
                   Maximum memory used (kb):      119908.
                   Average memory used (kb):           0.
  
                          Minor page faults:        27347
                          Major page faults:            8
                 Voluntary context switches:         2492
