 vasp.5.4.4.18Apr17-6-g9f103f2a35 (build Apr 25 2017 10:43:04) complex          
  
 executed on             LinuxIFC date 2019.08.24  15:43:16
 running on   36 total cores
 distrk:  each k-point on   36 cores,    1 groups
 distr:  one band on NCORES_PER_BAND=   1 cores,   36 groups


--------------------------------------------------------------------------------------------------------


 INCAR:
 POTCAR:    PAW_PBE Mg 13Apr2007                  
 POTCAR:    PAW_PBE O 08Apr2002                   

 ----------------------------------------------------------------------------- 
|                                                                             |
|           W    W    AA    RRRRR   N    N  II  N    N   GGGG   !!!           |
|           W    W   A  A   R    R  NN   N  II  NN   N  G    G  !!!           |
|           W    W  A    A  R    R  N N  N  II  N N  N  G       !!!           |
|           W WW W  AAAAAA  RRRRR   N  N N  II  N  N N  G  GGG   !            |
|           WW  WW  A    A  R   R   N   NN  II  N   NN  G    G                |
|           W    W  A    A  R    R  N    N  II  N    N   GGGG   !!!           |
|                                                                             |
|      For optimal performance we recommend to set                            |
|        NCORE= 4 - approx SQRT( number of cores)                             |
|      NCORE specifies how many cores store one orbital (NPAR=cpu/NCORE).     |
|      This setting can  greatly improve the performance of VASP for DFT.     |
|      The default,   NCORE=1            might be grossly inefficient         |
|      on modern multi-core architectures or massively parallel machines.     |
|      Do your own testing !!!!                                               |
|      Unfortunately you need to use the default for GW and RPA calculations. |
|      (for HF NCORE is supported but not extensively tested yet)             |
|                                                                             |
 ----------------------------------------------------------------------------- 

 POTCAR:    PAW_PBE Mg 13Apr2007                  
   VRHFIN =Mg: s2p0                                                             
   LEXCH  = PE                                                                  
   EATOM  =    23.0369 eV,    1.6932 Ry                                         
                                                                                
   TITEL  = PAW_PBE Mg 13Apr2007                                                
   LULTRA =        F    use ultrasoft PP ?                                      
   IUNSCR =        1    unscreen: 0-lin 1-nonlin 2-no                           
   RPACOR =    1.500    partial core radius                                     
   POMASS =   24.305; ZVAL   =    2.000    mass and valenz                      
   RCORE  =    2.000    outmost cutoff radius                                   
   RWIGS  =    2.880; RWIGS  =    1.524    wigner-seitz radius (au A)           
   ENMAX  =  200.000; ENMIN  =  100.000 eV                                      
   RCLOC  =    1.506    cutoff for local pot                                    
   LCOR   =        T    correct aug charges                                     
   LPAW   =        T    paw PP                                                  
   EAUG   =  454.734                                                            
   DEXC   =    0.000                                                            
   RMAX   =    2.045    core radius for proj-oper                               
   RAUG   =    1.300    factor for augmentation sphere                          
   RDEP   =    2.025    radius for radial grids                                 
   RDEPT  =    1.942    core radius for aug-charge                              
                                                                                
   Atomic configuration                                                         
    6 entries                                                                   
     n  l   j            E        occ.                                          
     1  0  0.50     -1259.6230   2.0000                                         
     2  0  0.50       -79.8442   2.0000                                         
     2  1  1.50       -46.6121   6.0000                                         
     3  0  0.50        -4.7055   2.0000                                         
     3  1  0.50        -1.3660   0.0000                                         
     3  2  1.50        -1.3606   0.0000                                         
   Description                                                                  
     l       E           TYP  RCUT    TYP  RCUT                                 
     0     -4.7054661     23  2.000                                             
     0     27.2116520     23  2.000                                             
     1      1.3605826     23  2.000                                             
     1     27.2116520     23  2.000                                             
     2     -1.3605826     23  2.000                                             
  local pseudopotential read in
  partial core-charges read in
  partial kinetic energy density read in
  atomic valenz-charges read in
  non local Contribution for L=           0  read in
    real space projection operators read in
  non local Contribution for L=           0  read in
    real space projection operators read in
  non local Contribution for L=           1  read in
    real space projection operators read in
  non local Contribution for L=           1  read in
    real space projection operators read in
  non local Contribution for L=           2  read in
    real space projection operators read in
    PAW grid and wavefunctions read in
 
   number of l-projection  operators is LMAX  =           5
   number of lm-projection operators is LMMAX =          13
 
 POTCAR:    PAW_PBE O 08Apr2002                   
   VRHFIN =O: s2p4                                                              
   LEXCH  = PE                                                                  
   EATOM  =   432.3788 eV,   31.7789 Ry                                         
                                                                                
   TITEL  = PAW_PBE O 08Apr2002                                                 
   LULTRA =        F    use ultrasoft PP ?                                      
   IUNSCR =        1    unscreen: 0-lin 1-nonlin 2-no                           
   RPACOR =    1.200    partial core radius                                     
   POMASS =   16.000; ZVAL   =    6.000    mass and valenz                      
   RCORE  =    1.520    outmost cutoff radius                                   
   RWIGS  =    1.550; RWIGS  =    0.820    wigner-seitz radius (au A)           
   ENMAX  =  400.000; ENMIN  =  300.000 eV                                      
   ICORE  =        2    local potential                                         
   LCOR   =        T    correct aug charges                                     
   LPAW   =        T    paw PP                                                  
   EAUG   =  605.392                                                            
   DEXC   =    0.000                                                            
   RMAX   =    1.553    core radius for proj-oper                               
   RAUG   =    1.300    factor for augmentation sphere                          
   RDEP   =    1.550    radius for radial grids                                 
   RDEPT  =    1.329    core radius for aug-charge                              
                                                                                
   Atomic configuration                                                         
    4 entries                                                                   
     n  l   j            E        occ.                                          
     1  0  0.50      -514.6923   2.0000                                         
     2  0  0.50       -23.9615   2.0000                                         
     2  1  0.50        -9.0305   4.0000                                         
     3  2  1.50        -9.5241   0.0000                                         
   Description                                                                  
     l       E           TYP  RCUT    TYP  RCUT                                 
     0    -23.9615318     23  1.200                                             
     0     -9.5240782     23  1.200                                             
     1     -9.0304911     23  1.520                                             
     1      8.1634956     23  1.520                                             
     2     -9.5240782      7  1.500                                             
  local pseudopotential read in
  partial core-charges read in
  partial kinetic energy density read in
  kinetic energy density of atom read in
  atomic valenz-charges read in
  non local Contribution for L=           0  read in
    real space projection operators read in
  non local Contribution for L=           0  read in
    real space projection operators read in
  non local Contribution for L=           1  read in
    real space projection operators read in
  non local Contribution for L=           1  read in
    real space projection operators read in
    PAW grid and wavefunctions read in
 
   number of l-projection  operators is LMAX  =           4
   number of lm-projection operators is LMMAX =           8
 
 Optimization of the real space projectors (new method)

 maximal supplied QI-value         = 18.90
 optimisation between [QCUT,QGAM] = [ 10.20, 20.41] = [ 29.16,116.64] Ry 
 Optimized for a Real-space Cutoff    1.30 Angstroem

   l    n(q)    QCUT    max X(q) W(low)/X(q) W(high)/X(q)  e(spline) 
   0      8    10.205    28.265    0.22E-03    0.17E-03    0.53E-07
   0      8    10.205    10.429    0.17E-03    0.15E-03    0.43E-07
   1      7    10.205    13.073    0.71E-04    0.41E-03    0.76E-07
   1      7    10.205     9.625    0.71E-04    0.33E-03    0.63E-07
   2      7    10.205     4.652    0.24E-03    0.41E-03    0.55E-07
 Optimization of the real space projectors (new method)

 maximal supplied QI-value         = 24.76
 optimisation between [QCUT,QGAM] = [ 10.15, 20.30] = [ 28.85,115.39] Ry 
 Optimized for a Real-space Cutoff    1.38 Angstroem

   l    n(q)    QCUT    max X(q) W(low)/X(q) W(high)/X(q)  e(spline) 
   0      8    10.150    20.381    0.22E-03    0.32E-03    0.29E-06
   0      8    10.150    15.268    0.23E-03    0.35E-03    0.30E-06
   1      8    10.150     5.964    0.46E-03    0.53E-03    0.21E-06
   1      8    10.150     5.382    0.38E-03    0.45E-03    0.19E-06

 ----------------------------------------------------------------------------- 
|                                                                             |
|  ADVICE TO THIS USER RUNNING 'VASP/VAMP'   (HEAR YOUR MASTER'S VOICE ...):  |
|                                                                             |
|      You enforced a specific xc-type in the INCAR file,                     |
|      a different type was found on the POTCAR file                          |
|          I HOPE YOU KNOW, WHAT YOU ARE  DOING                               |
|                                                                             |
 ----------------------------------------------------------------------------- 

  PAW_PBE Mg 13Apr2007                  :
 energy of atom  1       EATOM=  -23.0369
 kinetic energy error for atom=    0.0001 (will be added to EATOM!!)
  PAW_PBE O 08Apr2002                   :
 energy of atom  2       EATOM= -432.3788
 kinetic energy error for atom=    0.1156 (will be added to EATOM!!)
 
 
 POSCAR: Mg31 O31                                
  positions in direct lattice
  velocities in cartesian coordinates
 exchange correlation table for  LEXCH =       14
   RHO(1)=    0.500       N(1)  =     2000
   RHO(2)=  100.500       N(2)  =     4000
 


--------------------------------------------------------------------------------------------------------


 ion  position               nearest neighbor table
   1  0.996  0.000  0.500-  47 1.99  48 1.99  36 2.10  56 2.12  58 2.12  32 2.18  16 2.86  17 2.86
                            20 2.93  21 2.93  29 2.94  31 2.94   8 2.98   9 2.98  10 2.98  11 2.98
   2  0.996  0.500  0.000-  55 1.99  57 1.99  37 2.10  49 2.12  50 2.12  33 2.18  24 2.86  26 2.86
                            28 2.93  30 2.93  22 2.94  23 2.94   8 2.98   9 2.98  10 2.98  11 2.98
   3  0.998  0.500  0.500-  49 2.09  50 2.09  56 2.09  58 2.09  38 2.10  34 2.13  29 2.96  31 2.96
                            22 2.96  23 2.96  18 2.97  19 2.97  25 2.97  27 2.97  10 3.05  11 3.05
   4  0.517  0.000  0.000-  35 1.91  51 2.07  52 2.07  59 2.07  61 2.07  21 2.90  28 2.90  30 2.90
                            20 2.90  13 2.96  14 2.96  15 2.96  12 2.96  26 3.23  16 3.23  17 3.23
   5  0.503  0.000  0.500-  36 2.05  32 2.09  60 2.10  62 2.10  51 2.16  52 2.16  16 2.93  17 2.93
                            29 2.97  31 2.97  14 2.98  15 2.98  12 2.98  13 2.98  25 3.02  27 3.02
   6  0.503  0.500  0.000-  37 2.05  33 2.09  53 2.10  54 2.10  59 2.16  61 2.16  24 2.93  26 2.93
                            22 2.97  23 2.97  14 2.98  15 2.98  12 2.98  13 2.98  18 3.02  19 3.02
   7  0.502  0.500  0.500-  38 2.08  34 2.11  53 2.11  54 2.11  60 2.11  62 2.11  29 2.98  31 2.98
                            22 2.98  23 2.98  18 2.99  19 2.99  25 2.99  27 2.99  14 2.99  15 2.99
   8  1.000  0.244  0.244-  47 2.06  55 2.06  39 2.10  43 2.11  49 2.16  56 2.16  20 2.87  28 2.87
                            24 2.91  16 2.91   1 2.98   2 2.98  25 3.00  18 3.00  22 3.01  29 3.01
   9  1.000  0.244  0.756-  48 2.06  55 2.06  40 2.10  44 2.11  50 2.16  56 2.16  21 2.87  28 2.87
                            24 2.91  17 2.91   1 2.98   2 2.98  25 3.00  19 3.00  23 3.01  29 3.01
  10  1.000  0.756  0.244-  47 2.06  57 2.06  41 2.10  45 2.11  49 2.16  58 2.16  20 2.87  30 2.87
                            26 2.91  16 2.91   1 2.98   2 2.98  27 3.00  18 3.00  22 3.01  31 3.01
  11  1.000  0.756  0.756-  48 2.06  57 2.06  42 2.10  46 2.11  50 2.16  58 2.16  21 2.87  30 2.87
                            26 2.91  17 2.91   1 2.98   2 2.98  27 3.00  19 3.00  23 3.01  31 3.01
  12  0.500  0.249  0.249-  51 2.09  59 2.09  43 2.10  39 2.11  53 2.12  60 2.12   4 2.96   5 2.98
                             6 2.98   7 2.99  22 3.00  29 3.00  25 3.00  18 3.00  16 3.01  24 3.01
  13  0.500  0.249  0.751-  52 2.09  59 2.09  44 2.10  40 2.11  54 2.12  60 2.12   4 2.96   5 2.98
                             6 2.98   7 2.99  23 3.00  29 3.00  25 3.00  19 3.00  17 3.01  24 3.01
  14  0.500  0.751  0.249-  51 2.09  61 2.09  45 2.10  41 2.11  53 2.12  62 2.12   4 2.96   5 2.98
                             6 2.98   7 2.99  22 3.00  31 3.00  27 3.00  18 3.00  16 3.01  26 3.01
  15  0.500  0.751  0.751-  52 2.09  61 2.09  46 2.10  42 2.11  54 2.12  62 2.12   4 2.96   5 2.98
                             6 2.98   7 2.99  23 3.00  31 3.00  27 3.00  19 3.00  17 3.01  26 3.01
  16  0.243  0.000  0.269-  32 1.95  47 2.01  41 2.07  39 2.07  51 2.09   1 2.86  27 2.88  25 2.88
                            10 2.91   8 2.91   5 2.93  14 3.01  12 3.01  24 3.20  26 3.20   4 3.23
  17  0.243  0.000  0.731-  32 1.95  48 2.01  42 2.07  40 2.07  52 2.09   1 2.86  27 2.88  25 2.88
                            11 2.91   9 2.91   5 2.93  15 3.01  13 3.01  24 3.20  26 3.20   4 3.23
  18  0.248  0.500  0.252-  49 2.08  34 2.09  53 2.11  33 2.12  39 2.15  41 2.15  24 2.88  26 2.88
                            25 2.96  27 2.96   3 2.97   7 2.99  12 3.00  14 3.00   2 3.00   8 3.00
  19  0.248  0.500  0.748-  50 2.08  34 2.09  54 2.11  33 2.12  40 2.15  42 2.15  24 2.88  26 2.88
                            25 2.96  27 2.96   3 2.97   7 2.99  13 3.00  15 3.00   2 3.00   9 3.00
  20  0.761  0.000  0.243-  35 2.05  47 2.06  45 2.10  43 2.10  36 2.17  51 2.28   8 2.87  10 2.87
                            28 2.89  30 2.89   4 2.90   1 2.93  29 3.02  31 3.02  12 3.04  14 3.04
  21  0.761  0.000  0.757-  35 2.05  48 2.06  46 2.10  44 2.10  36 2.17  52 2.28   9 2.87  11 2.87
                            28 2.89  30 2.89   4 2.90   1 2.93  29 3.02  31 3.02  13 3.04  15 3.04
  22  0.752  0.500  0.249-  37 2.10  49 2.10  38 2.11  45 2.11  43 2.11  53 2.13   2 2.94   3 2.96
                             6 2.97   7 2.98  29 2.98  31 2.98  12 3.00  14 3.00   8 3.01  10 3.01
  23  0.752  0.500  0.751-  37 2.10  50 2.10  38 2.11  46 2.11  44 2.11  54 2.13   2 2.94   3 2.96
                             6 2.97   7 2.98  29 2.98  31 2.98  13 3.00  15 3.00   9 3.01  11 3.01
  24  0.243  0.269  0.000-  33 1.95  55 2.01  40 2.07  39 2.07  59 2.09   2 2.86  19 2.88  18 2.88
                             9 2.91   8 2.91   6 2.93  13 3.01  12 3.01  17 3.20  16 3.20   4 3.23
  25  0.248  0.252  0.500-  56 2.08  34 2.09  60 2.11  32 2.12  39 2.15  40 2.15  16 2.88  17 2.88
                            18 2.96  19 2.96   3 2.97   7 2.99  12 3.00  13 3.00   1 3.00   8 3.00
  26  0.243  0.731  0.000-  33 1.95  57 2.01  42 2.07  41 2.07  61 2.09   2 2.86  19 2.88  18 2.88
                            11 2.91  10 2.91   6 2.93  15 3.01  14 3.01  17 3.20  16 3.20   4 3.23
  27  0.248  0.748  0.500-  58 2.08  34 2.09  62 2.11  32 2.12  41 2.15  42 2.15  16 2.88  17 2.88
                            18 2.96  19 2.96   3 2.97   7 2.99  14 3.00  15 3.00   1 3.00  10 3.00
  28  0.761  0.243  0.000-  35 2.05  55 2.06  44 2.10  43 2.10  37 2.17  59 2.28   8 2.87   9 2.87
                            20 2.89  21 2.89   4 2.90   2 2.93  22 3.02  23 3.02  12 3.04  13 3.04
  29  0.752  0.249  0.500-  36 2.10  56 2.10  38 2.11  44 2.11  43 2.11  60 2.13   1 2.94   3 2.96
                             5 2.97   7 2.98  22 2.98  23 2.98  12 3.00  13 3.00   8 3.01   9 3.01
  30  0.761  0.757  0.000-  35 2.05  57 2.06  46 2.10  45 2.10  37 2.17  61 2.28  10 2.87  11 2.87
                            20 2.89  21 2.89   4 2.90   2 2.93  22 3.02  23 3.02  14 3.04  15 3.04
  31  0.752  0.751  0.500-  36 2.10  58 2.10  38 2.11  46 2.11  45 2.11  62 2.13   1 2.94   3 2.96
                             5 2.97   7 2.98  22 2.98  23 2.98  14 3.00  15 3.00  10 3.01  11 3.01
  32  0.254  0.000  0.500-  16 1.95  17 1.95   5 2.09  25 2.12  27 2.12   1 2.18
  33  0.254  0.500  0.000-  24 1.95  26 1.95   6 2.09  18 2.12  19 2.12   2 2.18
  34  0.251  0.500  0.500-  18 2.09  19 2.09  25 2.09  27 2.09   7 2.11   3 2.13
  35  0.744  0.000  0.000-   4 1.91  20 2.05  21 2.05  28 2.05  30 2.05
  36  0.746  0.000  0.500-   5 2.05   1 2.10  29 2.10  31 2.10  20 2.17  21 2.17
  37  0.746  0.500  0.000-   6 2.05   2 2.10  22 2.10  23 2.10  28 2.17  30 2.17
  38  0.749  0.500  0.500-   7 2.08   3 2.10  22 2.11  23 2.11  29 2.11  31 2.11
  39  0.250  0.245  0.245-  24 2.07  16 2.07   8 2.10  12 2.11  18 2.15  25 2.15
  40  0.250  0.245  0.755-  24 2.07  17 2.07   9 2.10  13 2.11  19 2.15  25 2.15
  41  0.250  0.755  0.245-  26 2.07  16 2.07  10 2.10  14 2.11  18 2.15  27 2.15
  42  0.250  0.755  0.755-  26 2.07  17 2.07  11 2.10  15 2.11  19 2.15  27 2.15
  43  0.749  0.249  0.249-  12 2.10  28 2.10  20 2.10   8 2.11  22 2.11  29 2.11
  44  0.749  0.249  0.751-  13 2.10  28 2.10  21 2.10   9 2.11  23 2.11  29 2.11
  45  0.749  0.751  0.249-  14 2.10  30 2.10  20 2.10  10 2.11  22 2.11  31 2.11
  46  0.749  0.751  0.751-  15 2.10  30 2.10  21 2.10  11 2.11  23 2.11  31 2.11
  47  0.004  0.000  0.263-   1 1.99  16 2.01  20 2.06   8 2.06  10 2.06
  48  0.004  0.000  0.737-   1 1.99  17 2.01  21 2.06   9 2.06  11 2.06
  49  0.001  0.500  0.252-  18 2.08   3 2.09  22 2.10   2 2.12   8 2.16  10 2.16
  50  0.001  0.500  0.748-  19 2.08   3 2.09  23 2.10   2 2.12   9 2.16  11 2.16
  51  0.490  0.000  0.244-   4 2.07  16 2.09  14 2.09  12 2.09   5 2.16  20 2.28
  52  0.490  0.000  0.756-   4 2.07  17 2.09  15 2.09  13 2.09   5 2.16  21 2.28
  53  0.498  0.500  0.249-   6 2.10  18 2.11   7 2.11  14 2.12  12 2.12  22 2.13
  54  0.498  0.500  0.751-   6 2.10  19 2.11   7 2.11  15 2.12  13 2.12  23 2.13
  55  0.004  0.263  0.000-   2 1.99  24 2.01  28 2.06   8 2.06   9 2.06
  56  0.001  0.252  0.500-  25 2.08   3 2.09  29 2.10   1 2.12   8 2.16   9 2.16
  57  0.004  0.737  0.000-   2 1.99  26 2.01  30 2.06  10 2.06  11 2.06
  58  0.001  0.748  0.500-  27 2.08   3 2.09  31 2.10   1 2.12  10 2.16  11 2.16
  59  0.490  0.244  0.000-   4 2.07  24 2.09  13 2.09  12 2.09   6 2.16  28 2.28
  60  0.498  0.249  0.500-   5 2.10  25 2.11   7 2.11  13 2.12  12 2.12  29 2.13
  61  0.490  0.756  0.000-   4 2.07  26 2.09  15 2.09  14 2.09   6 2.16  30 2.28
  62  0.498  0.751  0.500-   5 2.10  27 2.11   7 2.11  15 2.12  14 2.12  31 2.13
 
  LATTYP: Found a simple cubic cell.
 ALAT       =     8.4194560000
  
  Lattice vectors:
  
 A1 = (   8.4194560000,   0.0000000000,   0.0000000000)
 A2 = (   0.0000000000,   8.4194560000,   0.0000000000)
 A3 = (   0.0000000000,   0.0000000000,   8.4194560000)


Analysis of symmetry for initial positions (statically):
=====================================================================
 Subroutine PRICEL returns:
 Original cell was already a primitive cell.
 

 Routine SETGRP: Setting up the symmetry group for a 
 simple cubic supercell.


 Subroutine GETGRP returns: Found  8 space group operations
 (whereof  8 operations were pure point group operations)
 out of a pool of 48 trial point group operations.


The static configuration has the point symmetry C_4v.


Analysis of symmetry for dynamics (positions and initial velocities):
=====================================================================
 Subroutine PRICEL returns:
 Original cell was already a primitive cell.
 

 Routine SETGRP: Setting up the symmetry group for a 
 simple cubic supercell.


 Subroutine GETGRP returns: Found  8 space group operations
 (whereof  8 operations were pure point group operations)
 out of a pool of 48 trial point group operations.


The dynamic configuration has the point symmetry C_4v.


Analysis of structural, dynamic, and magnetic symmetry:
=====================================================================
 Subroutine PRICEL returns:
 Original cell was already a primitive cell.
 

 Routine SETGRP: Setting up the symmetry group for a 
 simple cubic supercell.


 Subroutine GETGRP returns: Found  8 space group operations
 (whereof  8 operations were pure point group operations)
 out of a pool of 48 trial point group operations.


The magnetic configuration has the point symmetry C_4v.


 Subroutine INISYM returns: Found  8 space group operations
 (whereof  8 operations are pure point group operations),
 and found     1 'primitive' translations

 
 
 KPOINTS: mode: manual_set, kpt density: 2, factor

Automatic generation of k-mesh.
Space group operators:
 irot       det(A)        alpha          n_x          n_y          n_z        tau_x        tau_y        tau_z
    1     1.000000     0.000001     1.000000     0.000000     0.000000     0.000000     0.000000     0.000000
    2    -1.000000   180.000000     0.000000     0.707107     0.707107     0.000000     0.000000     0.000000
    3    -1.000000   180.000000     0.000000     0.000000     1.000000     0.000000     0.000000     0.000000
    4     1.000000    90.000000    -1.000000     0.000000     0.000000     0.000000     0.000000     0.000000
    5     1.000000   180.000000     1.000000     0.000000     0.000000     0.000000     0.000000     0.000000
    6     1.000000    90.000000     1.000000     0.000000     0.000000     0.000000     0.000000     0.000000
    7    -1.000000   180.000000     0.000000     1.000000     0.000000     0.000000     0.000000     0.000000
    8    -1.000000   180.000000     0.000000    -0.707107     0.707107     0.000000     0.000000     0.000000
 
 Subroutine IBZKPT returns following result:
 ===========================================
 
 Found      1 irreducible k-points:
 
 Following reciprocal coordinates:
            Coordinates               Weight
  0.250000  0.250000  0.250000      8.000000
 
 Following cartesian coordinates:
            Coordinates               Weight
  0.029693  0.029693  0.029693      8.000000
 


--------------------------------------------------------------------------------------------------------




 Dimension of arrays:
   k-points           NKPTS =      1   k-points in BZ     NKDIM =      1   number of bands    NBANDS=    216
   number of dos      NEDOS =    301   number of ions     NIONS =     62
   non local maximal  LDIM  =      5   non local SUM 2l+1 LMDIM =     13
   total plane-waves  NPLWV =  74088
   max r-space proj   IRMAX =   1418   max aug-charges    IRDMAX=   5472
   dimension x,y,z NGX =    42 NGY =   42 NGZ =   42
   dimension x,y,z NGXF=    84 NGYF=   84 NGZF=   84
   support grid    NGXF=    84 NGYF=   84 NGZF=   84
   ions per type =              31  31
   NGX,Y,Z   is equivalent  to a cutoff of   8.29,  8.29,  8.29 a.u.
   NGXF,Y,Z  is equivalent  to a cutoff of  16.59, 16.59, 16.59 a.u.

 SYSTEM =  unknown system                          
 POSCAR =  Mg31 O31                                

 Startparameter for this run:
   NWRITE =      2    write-flag & timer
   PREC   = n         normal or accurate (medium, high low for compatibility)
   ISTART =      1    job   : 0-new  1-cont  2-samecut
   ICHARG =      0    charge: 1-file 2-atom 10-const
   ISPIN  =      2    spin polarized calculation?
   LNONCOLLINEAR =      F non collinear calculations
   LSORBIT =      F    spin-orbit coupling
   INIWAV =      1    electr: 0-lowe 1-rand  2-diag
   LASPH  =      T    aspherical Exc in radial PAW
   METAGGA=      F    non-selfconsistent MetaGGA calc.

 Electronic Relaxation 1
   ENCUT  =  400.0 eV  29.40 Ry    5.42 a.u.  13.73 13.73 13.73*2*pi/ulx,y,z
   ENINI  =  400.0     initial cutoff
   ENAUG  =  605.4 eV  augmentation charge cutoff
   NELM   =    100;   NELMIN=  2; NELMDL=  0     # of ELM steps 
   EDIFF  = 0.1E-05   stopping-criterion for ELM
   LREAL  =      T    real-space projection
   NLSPLINE    = F    spline interpolate recip. space projectors
   LCOMPAT=      F    compatible to vasp.4.4
   GGA_COMPAT  = T    GGA compatible to vasp.4.4-vasp.4.6
   LMAXPAW     = -100 max onsite density
   LMAXMIX     =    2 max onsite mixed and CHGCAR
   VOSKOWN=      0    Vosko Wilk Nusair interpolation
   ROPT   =   -0.00050  -0.00050
 Ionic relaxation
   EDIFFG = -.4E-01   stopping-criterion for IOM
   NSW    =     50    number of steps for IOM
   NBLOCK =      1;   KBLOCK =     50    inner block; outer block 
   IBRION =      2    ionic relax: 0-MD 1-quasi-New 2-CG
   NFREE  =      1    steps in history (QN), initial steepest desc. (CG)
   ISIF   =      2    stress and relaxation
   IWAVPR =     11    prediction:  0-non 1-charg 2-wave 3-comb
   ISYM   =      2    0-nonsym 1-usesym 2-fastsym
   LCORR  =      T    Harris-Foulkes like correction to forces

   POTIM  = 0.5000    time-step for ionic-motion
   TEIN   =    0.0    initial temperature
   TEBEG  =    0.0;   TEEND  =   0.0 temperature during run
   SMASS  =  -3.00    Nose mass-parameter (am)
   estimated Nose-frequenzy (Omega)   =  0.10E-29 period in steps =****** mass=  -0.162E-26a.u.
   SCALEE = 1.0000    scale energy and forces
   NPACO  =    256;   APACO  = 16.0  distance and # of slots for P.C.
   PSTRESS=    0.0 pullay stress

  Mass of Ions in am
   POMASS =  24.30 16.00
  Ionic Valenz
   ZVAL   =   2.00  6.00
  Atomic Wigner-Seitz radii
   RWIGS  =  -1.00 -1.00
  virtual crystal weights 
   VCA    =   1.00  1.00
   NELECT =     248.0000    total number of electrons
   NUPDOWN=      -1.0000    fix difference up-down

 DOS related values:
   EMIN   =  10.00;   EMAX   =-10.00  energy-range for DOS
   EFERMI =   0.00
   ISMEAR =     0;   SIGMA  =   0.10  broadening in eV -4-tet -1-fermi 0-gaus

 Electronic relaxation 2 (details)
   IALGO  =     38    algorithm
   LDIAG  =      T    sub-space diagonalisation (order eigenvalues)
   LSUBROT=      F    optimize rotation matrix (better conditioning)
   TURBO    =      0    0=normal 1=particle mesh
   IRESTART =      0    0=no restart 2=restart with 2 vectors
   NREBOOT  =      0    no. of reboots
   NMIN     =      0    reboot dimension
   EREF     =   0.00    reference energy to select bands
   IMIX   =      4    mixing-type and parameters
     AMIX     =   0.40;   BMIX     =  1.00
     AMIX_MAG =   1.60;   BMIX_MAG =  1.00
     AMIN     =   0.10
     WC   =   100.;   INIMIX=   1;  MIXPRE=   1;  MAXMIX= -45

 Intra band minimization:
   WEIMIN = 0.0010     energy-eigenvalue tresh-hold
   EBREAK =  0.12E-08  absolut break condition
   DEPER  =   0.30     relativ break condition  

   TIME   =   0.40     timestep for ELM

  volume/ion in A,a.u.               =       9.63        64.96
  Fermi-wavevector in a.u.,A,eV,Ry     =   1.221635  2.308555 20.305217  1.492391
  Thomas-Fermi vector in A             =   2.356810
 
 Write flags
   LWAVE        =      T    write WAVECAR
   LDOWNSAMPLE  =      F    k-point downsampling of WAVECAR
   LCHARG       =      F    write CHGCAR
   LVTOT        =      F    write LOCPOT, total local potential
   LVHAR        =      F    write LOCPOT, Hartree potential only
   LELF         =      F    write electronic localiz. function (ELF)
   LORBIT       =     12    0 simple, 1 ext, 2 COOP (PROOUT), +10 PAW based schemes


 Dipole corrections
   LMONO  =      F    monopole corrections only (constant potential shift)
   LDIPOL =      F    correct potential (dipole corrections)
   IDIPOL =      0    1-x, 2-y, 3-z, 4-all directions 
   EPSILON=  1.0000000 bulk dielectric constant

 Exchange correlation treatment:
   GGA     =    PS    GGA type
   LEXCH   =    14    internal setting for exchange type
   VOSKOWN=      0    Vosko Wilk Nusair interpolation
   LHFCALC =     F    Hartree Fock is set to
   LHFONE  =     F    Hartree Fock one center treatment
   AEXX    =    0.0000 exact exchange contribution

 Linear response parameters
   LEPSILON=     F    determine dielectric tensor
   LRPA    =     F    only Hartree local field effects (RPA)
   LNABLA  =     F    use nabla operator in PAW spheres
   LVEL    =     F    velocity operator in full k-point grid
   LINTERFAST=   F  fast interpolation
   KINTER  =     0    interpolate to denser k-point grid
   CSHIFT  =0.1000    complex shift for real part using Kramers Kronig
   OMEGAMAX=  -1.0    maximum frequency
   DEG_THRESHOLD= 0.2000000E-02 threshold for treating states as degnerate
   RTIME   =   -0.100 relaxation time in fs
  (WPLASMAI=    0.000 imaginary part of plasma frequency in eV, 0.658/RTIME)
   DFIELD  = 0.0000000 0.0000000 0.0000000 field for delta impulse in time
 
 Orbital magnetization related:
   ORBITALMAG=     F  switch on orbital magnetization
   LCHIMAG   =     F  perturbation theory with respect to B field
   DQ        =  0.001000  dq finite difference perturbation B field
   LLRAUG    =     F  two centre corrections for induced B field



--------------------------------------------------------------------------------------------------------


 conjugate gradient relaxation of ions
 charge density and potential will be updated during run
 spin polarized calculation
 Variant of blocked Davidson
 Davidson routine will perform the subspace rotation
 perform sub-space diagonalisation
    after iterative eigenvector-optimisation
 modified Broyden-mixing scheme, WC =      100.0
 initial mixing is a Kerker type mixing with AMIX =  0.4000 and BMIX =      1.0000
 Hartree-type preconditioning will be used
 using additional bands           92
 real space projection scheme for non local part
 use partial core corrections
 calculate Harris-corrections to forces 
   (improved forces if not selfconsistent)
 use gradient corrections 
 use of overlap-Matrix (Vanderbilt PP)
 Gauss-broadening in eV      SIGMA  =   0.10


--------------------------------------------------------------------------------------------------------


  energy-cutoff  :      400.00
  volume of cell :      596.83
      direct lattice vectors                 reciprocal lattice vectors
     8.419456000  0.000000000  0.000000000     0.118772519  0.000000000  0.000000000
     0.000000000  8.419456000  0.000000000     0.000000000  0.118772519  0.000000000
     0.000000000  0.000000000  8.419456000     0.000000000  0.000000000  0.118772519

  length of vectors
     8.419456000  8.419456000  8.419456000     0.118772519  0.118772519  0.118772519


 
 old parameters found on file WAVECAR:
  energy-cutoff  :      400.00
  volume of cell :      596.83
      direct lattice vectors                 reciprocal lattice vectors
     8.419456000  0.000000000  0.000000000     0.118772519  0.000000000  0.000000000
     0.000000000  8.419456000  0.000000000     0.000000000  0.118772519  0.000000000
     0.000000000  0.000000000  8.419456000     0.000000000  0.000000000  0.118772519

  length of vectors

 
 k-points in units of 2pi/SCALE and weight: mode: manual_set, kpt density: 2, factor
   0.02969313  0.02969313  0.02969313       1.000
 
 k-points in reciprocal lattice and weights: mode: manual_set, kpt density: 2, factor
   0.25000000  0.25000000  0.25000000       1.000
 
 position of ions in fractional coordinates (direct lattice) 
   0.99554201  0.00000000  0.50000000
   0.99554201  0.50000000  0.00000000
   0.99838299  0.50000000  0.50000000
   0.51705299  0.00000000  0.00000000
   0.50295862  0.00000000  0.50000000
   0.50295862  0.50000000  0.00000000
   0.50157240  0.50000000  0.50000000
   0.99999001  0.24361635  0.24361635
   0.99999001  0.24361635  0.75638365
   0.99999001  0.75638365  0.24361635
   0.99999001  0.75638365  0.75638365
   0.50010577  0.24852891  0.24852891
   0.50010577  0.24852891  0.75147109
   0.50010577  0.75147109  0.24852891
   0.50010577  0.75147109  0.75147109
   0.24343491  0.00000000  0.26857579
   0.24343491  0.00000000  0.73142421
   0.24811138  0.50000000  0.25161262
   0.24811138  0.50000000  0.74838738
   0.76120071  0.00000000  0.24288493
   0.76120071  0.00000000  0.75711507
   0.75173853  0.50000000  0.24940579
   0.75173853  0.50000000  0.75059421
   0.24343491  0.26857579  0.00000000
   0.24811138  0.25161262  0.50000000
   0.24343491  0.73142421  0.00000000
   0.24811138  0.74838738  0.50000000
   0.76120071  0.24288493  0.00000000
   0.75173853  0.24940579  0.50000000
   0.76120071  0.75711507  0.00000000
   0.75173853  0.75059421  0.50000000
   0.25430119  0.00000000  0.50000000
   0.25430119  0.50000000  0.00000000
   0.25148999  0.50000000  0.50000000
   0.74367106  0.00000000  0.00000000
   0.74612083  0.00000000  0.50000000
   0.74612083  0.50000000  0.00000000
   0.74858984  0.50000000  0.50000000
   0.24999816  0.24494268  0.24494268
   0.24999816  0.24494268  0.75505732
   0.24999816  0.75505732  0.24494268
   0.24999816  0.75505732  0.75505732
   0.74904411  0.24889546  0.24889546
   0.74904411  0.24889546  0.75110454
   0.74904411  0.75110454  0.24889546
   0.74904411  0.75110454  0.75110454
   0.00447516  0.00000000  0.26336449
   0.00447516  0.00000000  0.73663551
   0.00140944  0.50000000  0.25180238
   0.00140944  0.50000000  0.74819762
   0.49008926  0.00000000  0.24403048
   0.49008926  0.00000000  0.75596952
   0.49825142  0.50000000  0.24944307
   0.49825142  0.50000000  0.75055693
   0.00447516  0.26336449  0.00000000
   0.00140944  0.25180238  0.50000000
   0.00447516  0.73663551  0.00000000
   0.00140944  0.74819762  0.50000000
   0.49008926  0.24403048  0.00000000
   0.49825142  0.24944307  0.50000000
   0.49008926  0.75596952  0.00000000
   0.49825142  0.75055693  0.50000000
 
 position of ions in cartesian coordinates  (Angst):
   8.38192212  0.00000000  4.20972800
   8.38192212  4.20972800  0.00000000
   8.40584169  4.20972800  4.20972800
   4.35330491  0.00000000  0.00000000
   4.23463798  0.00000000  4.20972800
   4.23463798  4.20972800  0.00000000
   4.22296676  4.20972800  4.20972800
   8.41937189  2.05111713  2.05111713
   8.41937189  2.05111713  6.36833887
   8.41937189  6.36833887  2.05111713
   8.41937189  6.36833887  6.36833887
   4.21061848  2.09247822  2.09247822
   4.21061848  2.09247822  6.32697778
   4.21061848  6.32697778  2.09247822
   4.21061848  6.32697778  6.32697778
   2.04958953  0.00000000  2.26126203
   2.04958953  0.00000000  6.15819397
   2.08896288  4.20972800  2.11844141
   2.08896288  4.20972800  6.30101459
   6.40889589  0.00000000  2.04495900
   6.40889589  0.00000000  6.37449700
   6.32922944  4.20972800  2.09986109
   6.32922944  4.20972800  6.31959491
   2.04958953  2.26126203  0.00000000
   2.08896288  2.11844141  4.20972800
   2.04958953  6.15819397  0.00000000
   2.08896288  6.30101459  4.20972800
   6.40889589  2.04495900  0.00000000
   6.32922944  2.09986109  4.20972800
   6.40889589  6.37449700  0.00000000
   6.32922944  6.31959491  4.20972800
   2.14107772  0.00000000  4.20972800
   2.14107772  4.20972800  0.00000000
   2.11740887  4.20972800  4.20972800
   6.26130580  0.00000000  0.00000000
   6.28193149  0.00000000  4.20972800
   6.28193149  4.20972800  0.00000000
   6.30271918  4.20972800  4.20972800
   2.10484851  2.06228409  2.06228409
   2.10484851  2.06228409  6.35717191
   2.10484851  6.35717191  2.06228409
   2.10484851  6.35717191  6.35717191
   6.30654394  2.09556437  2.09556437
   6.30654394  2.09556437  6.32389163
   6.30654394  6.32389163  2.09556437
   6.30654394  6.32389163  6.32389163
   0.03767838  0.00000000  2.21738578
   0.03767838  0.00000000  6.20207022
   0.01186668  4.20972800  2.12003909
   0.01186668  4.20972800  6.29941691
   4.12628500  0.00000000  2.05460390
   4.12628500  0.00000000  6.36485210
   4.19500592  4.20972800  2.10017492
   4.19500592  4.20972800  6.31928108
   0.03767838  2.21738578  0.00000000
   0.01186668  2.12003909  4.20972800
   0.03767838  6.20207022  0.00000000
   0.01186668  6.29941691  4.20972800
   4.12628500  2.05460390  0.00000000
   4.19500592  2.10017492  4.20972800
   4.12628500  6.36485210  0.00000000
   4.19500592  6.31928108  4.20972800
 


--------------------------------------------------------------------------------------------------------


 k-point  1 :   0.2500 0.2500 0.2500  plane waves:   10834

 maximum and minimum number of plane-waves per node :     10834    10834

 maximum number of plane-waves:     10834
 maximum index in each direction: 
   IXMAX=   13   IYMAX=   13   IZMAX=   13
   IXMIN=  -13   IYMIN=  -13   IZMIN=  -13


 serial   3D FFT for wavefunctions
 parallel 3D FFT for charge:
    minimum data exchange during FFTs selected (reduces bandwidth)


 total amount of memory used by VASP MPI-rank0    50233. kBytes
=======================================================================

   base      :      30000. kBytes
   nonlr-proj:       8301. kBytes
   fftplans  :       1007. kBytes
   grid      :       7709. kBytes
   one-center:       1005. kBytes
   wavefun   :       2211. kBytes
 
     INWAV:  cpu time    0.2080: real time    0.3335
 Broyden mixing: mesh for mixing (old mesh)
   NGX = 27   NGY = 27   NGZ = 27
  (NGX  = 84   NGY  = 84   NGZ  = 84)
  gives a total of  19683 points

 charge density for first step will be calculated from the start-wavefunctions


--------------------------------------------------------------------------------------------------------


 Maximum index for non-local projection operator         1347
 Maximum index for augmentation-charges          362 (set IRDMAX)


--------------------------------------------------------------------------------------------------------


 initial charge from wavefunction
 First call to EWALD:  gamma=   0.211
 Maximum number of real-space cells 3x 3x 3
 Maximum number of reciprocal cells 3x 3x 3

    FEWALD:  cpu time    0.0040: real time    0.0025


--------------------------------------- Iteration      1(   1)  ---------------------------------------


    POTLOK:  cpu time    0.0320: real time    0.0362
    SETDIJ:  cpu time    0.5160: real time    0.5172
     EDDAV:  cpu time    0.8200: real time    0.8911
       DOS:  cpu time    0.0000: real time    0.0008
    CHARGE:  cpu time    0.0360: real time    0.0370
    MIXING:  cpu time    0.0040: real time    0.0006
    --------------------------------------------
      LOOP:  cpu time    1.4080: real time    1.4829

 eigenvalue-minimisations  :  1080
 total energy-change (2. order) :-0.3843963E+03  (-0.5049856E-06)
 number of electron     248.0001366 magnetization      -0.0000000
 augmentation part       20.5285007 magnetization      -0.0000000

 Broyden mixing:
  rms(total) = 0.47100E-03    rms(broyden)= 0.47052E-03
  rms(prec ) = 0.73522E-03
  weight for this iteration     100.00

 Free energy of the ion-electron system (eV)
  ---------------------------------------------------
  alpha Z        PSCENC =       588.18717815
  Ewald energy   TEWEN  =    -10795.27967607
  -Hartree energ DENC   =     -4559.71829240
  -exchange      EXHF   =         0.00000000
  -V(xc)+E(xc)   XCENC  =      -542.16844852
  PAW double counting   =     17193.23637362   -15668.03291941
  entropy T*S    EENTRO =        -0.00000000
  eigenvalues    EBANDS =      -653.53758058
  atomic energy  EATOM  =     14052.91706009
  Solvation  Ediel_sol  =         0.00000000
  ---------------------------------------------------
  free energy    TOTEN  =      -384.39630512 eV

  energy without entropy =     -384.39630512  energy(sigma->0) =     -384.39630512


--------------------------------------------------------------------------------------------------------




--------------------------------------- Iteration      1(   2)  ---------------------------------------


    POTLOK:  cpu time    0.0320: real time    0.0327
    SETDIJ:  cpu time    0.5400: real time    0.5407
     EDDAV:  cpu time    0.6120: real time    0.6165
       DOS:  cpu time    0.0000: real time    0.0005
    --------------------------------------------
      LOOP:  cpu time    1.1840: real time    1.1905

 eigenvalue-minimisations  :   720
 total energy-change (2. order) : 0.7150265E-06  (-0.1404194E-06)
 number of electron     248.0001366 magnetization      -0.0000000
 augmentation part       20.5285007 magnetization      -0.0000000

 Free energy of the ion-electron system (eV)
  ---------------------------------------------------
  alpha Z        PSCENC =       588.18717815
  Ewald energy   TEWEN  =    -10795.27967607
  -Hartree energ DENC   =     -4559.71935355
  -exchange      EXHF   =         0.00000000
  -V(xc)+E(xc)   XCENC  =      -542.16839045
  PAW double counting   =     17193.23518784   -15668.03174813
  entropy T*S    EENTRO =        -0.00000000
  eigenvalues    EBANDS =      -653.53656229
  atomic energy  EATOM  =     14052.91706009
  Solvation  Ediel_sol  =         0.00000000
  ---------------------------------------------------
  free energy    TOTEN  =      -384.39630440 eV

  energy without entropy =     -384.39630440  energy(sigma->0) =     -384.39630440


--------------------------------------------------------------------------------------------------------




 average (electrostatic) potential at core
  the test charge radii are     1.0714  0.7215
  (the norm of the test charge is              1.0000)
       1 -34.4493       2 -34.4493       3 -34.7100       4 -34.9956       5 -35.0283
       6 -35.0283       7 -34.9472       8 -34.6939       9 -34.6939      10 -34.6939
      11 -34.6939      12 -34.9590      13 -34.9590      14 -34.9590      15 -34.9590
      16 -35.1848      17 -35.1848      18 -35.1704      19 -35.1704      20 -34.8640
      21 -34.8640      22 -34.9378      23 -34.9378      24 -35.1848      25 -35.1704
      26 -35.1848      27 -35.1704      28 -34.8640      29 -34.9378      30 -34.8640
      31 -34.9378      32 -70.0957      33 -70.0957      34 -70.1052      35 -69.2871
      36 -69.8601      37 -69.8601      38 -69.8975      39 -70.1685      40 -70.1685
      41 -70.1685      42 -70.1685      43 -69.9024      44 -69.9024      45 -69.9024
      46 -69.9024      47 -69.3229      48 -69.3229      49 -69.6882      50 -69.6882
      51 -70.0542      52 -70.0542      53 -69.9480      54 -69.9480      55 -69.3229
      56 -69.6882      57 -69.3229      58 -69.6882      59 -70.0542      60 -69.9480
      61 -70.0542      62 -69.9480
 
 
 
 E-fermi :   3.4680     XC(G=0): -11.1071     alpha+bet :-12.7707


 spin component 1

 k-point     1 :       0.2500    0.2500    0.2500
  band No.  band energies     occupation 
      1     -14.2509      1.00000
      2     -13.9413      1.00000
      3     -13.8397      1.00000
      4     -13.7905      1.00000
      5     -13.5982      1.00000
      6     -13.5307      1.00000
      7     -13.4667      1.00000
      8     -13.4159      1.00000
      9     -13.3616      1.00000
     10     -13.3091      1.00000
     11     -13.2647      1.00000
     12     -13.2092      1.00000
     13     -13.1369      1.00000
     14     -13.1171      1.00000
     15     -13.1134      1.00000
     16     -13.0851      1.00000
     17     -13.0807      1.00000
     18     -13.0666      1.00000
     19     -12.9881      1.00000
     20     -12.9261      1.00000
     21     -12.8906      1.00000
     22     -12.8857      1.00000
     23     -12.8203      1.00000
     24     -12.8082      1.00000
     25     -12.8051      1.00000
     26     -12.7191      1.00000
     27     -12.6122      1.00000
     28     -12.5182      1.00000
     29     -12.5181      1.00000
     30     -12.4664      1.00000
     31     -12.4015      1.00000
     32      -1.6096      1.00000
     33      -1.5869      1.00000
     34      -1.5140      1.00000
     35      -1.3321      1.00000
     36      -1.2069      1.00000
     37      -1.1558      1.00000
     38      -1.0992      1.00000
     39      -1.0858      1.00000
     40      -1.0173      1.00000
     41      -0.9663      1.00000
     42      -0.9509      1.00000
     43      -0.9450      1.00000
     44      -0.9090      1.00000
     45      -0.8934      1.00000
     46      -0.8302      1.00000
     47      -0.7666      1.00000
     48      -0.7413      1.00000
     49      -0.7185      1.00000
     50      -0.6997      1.00000
     51      -0.6419      1.00000
     52      -0.6308      1.00000
     53      -0.5218      1.00000
     54      -0.4687      1.00000
     55      -0.4295      1.00000
     56      -0.4060      1.00000
     57      -0.2521      1.00000
     58      -0.2440      1.00000
     59       0.0471      1.00000
     60       0.2397      1.00000
     61       0.2577      1.00000
     62       0.3086      1.00000
     63       0.3177      1.00000
     64       0.3696      1.00000
     65       0.4084      1.00000
     66       0.4735      1.00000
     67       0.5151      1.00000
     68       0.5536      1.00000
     69       0.5858      1.00000
     70       0.7023      1.00000
     71       0.8055      1.00000
     72       0.9700      1.00000
     73       1.0356      1.00000
     74       1.0514      1.00000
     75       1.1072      1.00000
     76       1.1394      1.00000
     77       1.1786      1.00000
     78       1.1888      1.00000
     79       1.2231      1.00000
     80       1.2926      1.00000
     81       1.3873      1.00000
     82       1.3902      1.00000
     83       1.4223      1.00000
     84       1.4484      1.00000
     85       1.4840      1.00000
     86       1.5331      1.00000
     87       1.5529      1.00000
     88       1.6198      1.00000
     89       1.6352      1.00000
     90       1.6382      1.00000
     91       1.6520      1.00000
     92       1.6556      1.00000
     93       1.7132      1.00000
     94       1.7449      1.00000
     95       1.7847      1.00000
     96       1.8320      1.00000
     97       1.8413      1.00000
     98       1.8522      1.00000
     99       1.9060      1.00000
    100       1.9320      1.00000
    101       1.9391      1.00000
    102       1.9711      1.00000
    103       1.9738      1.00000
    104       2.0009      1.00000
    105       2.0021      1.00000
    106       2.0218      1.00000
    107       2.0286      1.00000
    108       2.0664      1.00000
    109       2.0784      1.00000
    110       2.1500      1.00000
    111       2.2277      1.00000
    112       2.2713      1.00000
    113       2.2970      1.00000
    114       2.3443      1.00000
    115       2.3527      1.00000
    116       2.3738      1.00000
    117       2.3882      1.00000
    118       2.4242      1.00000
    119       2.4962      1.00000
    120       2.5087      1.00000
    121       2.5888      1.00000
    122       2.7945      1.00000
    123       2.7959      1.00000
    124       2.9012      1.00000
    125       5.7778      0.00000
    126       8.5451      0.00000
    127       9.5156      0.00000
    128       9.6748      0.00000
    129      10.1516      0.00000
    130      10.3024      0.00000
    131      10.5487      0.00000
    132      10.5644      0.00000
    133      10.6867      0.00000
    134      11.0078      0.00000
    135      11.1512      0.00000
    136      11.4201      0.00000
    137      11.4753      0.00000
    138      11.5594      0.00000
    139      11.8618      0.00000
    140      11.9145      0.00000
    141      11.9433      0.00000
    142      12.1897      0.00000
    143      12.2117      0.00000
    144      12.2204      0.00000
    145      12.2970      0.00000
    146      12.4172      0.00000
    147      12.4819      0.00000
    148      12.4829      0.00000
    149      12.5706      0.00000
    150      12.5718      0.00000
    151      12.7449      0.00000
    152      12.9377      0.00000
    153      13.0573      0.00000
    154      13.1259      0.00000
    155      13.1684      0.00000
    156      13.2740      0.00000
    157      13.3320      0.00000
    158      13.3616      0.00000
    159      13.3938      0.00000
    160      13.5300      0.00000
    161      13.5341      0.00000
    162      13.5654      0.00000
    163      13.6525      0.00000
    164      13.6865      0.00000
    165      13.9058      0.00000
    166      14.2237      0.00000
    167      14.3008      0.00000
    168      14.3120      0.00000
    169      14.3626      0.00000
    170      14.4488      0.00000
    171      14.4565      0.00000
    172      14.5225      0.00000
    173      14.5841      0.00000
    174      14.6171      0.00000
    175      14.6470      0.00000
    176      14.7186      0.00000
    177      14.8019      0.00000
    178      14.8739      0.00000
    179      14.9332      0.00000
    180      14.9608      0.00000
    181      15.0195      0.00000
    182      15.0315      0.00000
    183      15.0431      0.00000
    184      15.1117      0.00000
    185      15.1548      0.00000
    186      15.2262      0.00000
    187      15.2422      0.00000
    188      15.2613      0.00000
    189      15.2729      0.00000
    190      15.4074      0.00000
    191      15.4533      0.00000
    192      15.5332      0.00000
    193      15.6125      0.00000
    194      15.6531      0.00000
    195      15.7131      0.00000
    196      15.7793      0.00000
    197      15.9096      0.00000
    198      15.9718      0.00000
    199      16.1211      0.00000
    200      16.6274      0.00000
    201      16.6347      0.00000
    202      16.6951      0.00000
    203      16.7167      0.00000
    204      16.8017      0.00000
    205      16.8040      0.00000
    206      16.9482      0.00000
    207      16.9708      0.00000
    208      17.0473      0.00000
    209      17.2949      0.00000
    210      17.6349      0.00000
    211      17.7032      0.00000
    212      17.8617      0.00000
    213      18.1075      0.00000
    214      18.3009      0.00000
    215      18.3466      0.00000
    216      18.5346      0.00000

 spin component 2

 k-point     1 :       0.2500    0.2500    0.2500
  band No.  band energies     occupation 
      1     -14.2509      1.00000
      2     -13.9413      1.00000
      3     -13.8397      1.00000
      4     -13.7905      1.00000
      5     -13.5982      1.00000
      6     -13.5307      1.00000
      7     -13.4667      1.00000
      8     -13.4159      1.00000
      9     -13.3616      1.00000
     10     -13.3091      1.00000
     11     -13.2647      1.00000
     12     -13.2092      1.00000
     13     -13.1369      1.00000
     14     -13.1171      1.00000
     15     -13.1134      1.00000
     16     -13.0851      1.00000
     17     -13.0807      1.00000
     18     -13.0666      1.00000
     19     -12.9881      1.00000
     20     -12.9261      1.00000
     21     -12.8906      1.00000
     22     -12.8857      1.00000
     23     -12.8203      1.00000
     24     -12.8082      1.00000
     25     -12.8051      1.00000
     26     -12.7191      1.00000
     27     -12.6122      1.00000
     28     -12.5182      1.00000
     29     -12.5181      1.00000
     30     -12.4664      1.00000
     31     -12.4015      1.00000
     32      -1.6096      1.00000
     33      -1.5869      1.00000
     34      -1.5140      1.00000
     35      -1.3321      1.00000
     36      -1.2069      1.00000
     37      -1.1558      1.00000
     38      -1.0992      1.00000
     39      -1.0858      1.00000
     40      -1.0173      1.00000
     41      -0.9663      1.00000
     42      -0.9509      1.00000
     43      -0.9450      1.00000
     44      -0.9090      1.00000
     45      -0.8934      1.00000
     46      -0.8302      1.00000
     47      -0.7666      1.00000
     48      -0.7413      1.00000
     49      -0.7185      1.00000
     50      -0.6997      1.00000
     51      -0.6419      1.00000
     52      -0.6308      1.00000
     53      -0.5218      1.00000
     54      -0.4687      1.00000
     55      -0.4295      1.00000
     56      -0.4060      1.00000
     57      -0.2521      1.00000
     58      -0.2440      1.00000
     59       0.0471      1.00000
     60       0.2397      1.00000
     61       0.2577      1.00000
     62       0.3086      1.00000
     63       0.3177      1.00000
     64       0.3696      1.00000
     65       0.4084      1.00000
     66       0.4735      1.00000
     67       0.5151      1.00000
     68       0.5536      1.00000
     69       0.5858      1.00000
     70       0.7023      1.00000
     71       0.8055      1.00000
     72       0.9700      1.00000
     73       1.0356      1.00000
     74       1.0514      1.00000
     75       1.1072      1.00000
     76       1.1394      1.00000
     77       1.1786      1.00000
     78       1.1888      1.00000
     79       1.2231      1.00000
     80       1.2926      1.00000
     81       1.3873      1.00000
     82       1.3902      1.00000
     83       1.4223      1.00000
     84       1.4484      1.00000
     85       1.4840      1.00000
     86       1.5331      1.00000
     87       1.5529      1.00000
     88       1.6198      1.00000
     89       1.6352      1.00000
     90       1.6382      1.00000
     91       1.6520      1.00000
     92       1.6556      1.00000
     93       1.7132      1.00000
     94       1.7449      1.00000
     95       1.7847      1.00000
     96       1.8320      1.00000
     97       1.8413      1.00000
     98       1.8522      1.00000
     99       1.9060      1.00000
    100       1.9320      1.00000
    101       1.9391      1.00000
    102       1.9711      1.00000
    103       1.9738      1.00000
    104       2.0009      1.00000
    105       2.0021      1.00000
    106       2.0218      1.00000
    107       2.0286      1.00000
    108       2.0664      1.00000
    109       2.0784      1.00000
    110       2.1500      1.00000
    111       2.2277      1.00000
    112       2.2713      1.00000
    113       2.2970      1.00000
    114       2.3443      1.00000
    115       2.3527      1.00000
    116       2.3738      1.00000
    117       2.3882      1.00000
    118       2.4242      1.00000
    119       2.4962      1.00000
    120       2.5087      1.00000
    121       2.5888      1.00000
    122       2.7945      1.00000
    123       2.7959      1.00000
    124       2.9012      1.00000
    125       5.7778      0.00000
    126       8.5451      0.00000
    127       9.5156      0.00000
    128       9.6748      0.00000
    129      10.1516      0.00000
    130      10.3024      0.00000
    131      10.5487      0.00000
    132      10.5644      0.00000
    133      10.6867      0.00000
    134      11.0078      0.00000
    135      11.1512      0.00000
    136      11.4201      0.00000
    137      11.4753      0.00000
    138      11.5594      0.00000
    139      11.8618      0.00000
    140      11.9145      0.00000
    141      11.9433      0.00000
    142      12.1897      0.00000
    143      12.2117      0.00000
    144      12.2204      0.00000
    145      12.2970      0.00000
    146      12.4172      0.00000
    147      12.4819      0.00000
    148      12.4829      0.00000
    149      12.5706      0.00000
    150      12.5718      0.00000
    151      12.7449      0.00000
    152      12.9377      0.00000
    153      13.0573      0.00000
    154      13.1259      0.00000
    155      13.1684      0.00000
    156      13.2740      0.00000
    157      13.3320      0.00000
    158      13.3616      0.00000
    159      13.3938      0.00000
    160      13.5300      0.00000
    161      13.5341      0.00000
    162      13.5654      0.00000
    163      13.6525      0.00000
    164      13.6865      0.00000
    165      13.9058      0.00000
    166      14.2237      0.00000
    167      14.3008      0.00000
    168      14.3120      0.00000
    169      14.3626      0.00000
    170      14.4488      0.00000
    171      14.4565      0.00000
    172      14.5225      0.00000
    173      14.5841      0.00000
    174      14.6171      0.00000
    175      14.6470      0.00000
    176      14.7186      0.00000
    177      14.8019      0.00000
    178      14.8739      0.00000
    179      14.9332      0.00000
    180      14.9608      0.00000
    181      15.0195      0.00000
    182      15.0315      0.00000
    183      15.0431      0.00000
    184      15.1117      0.00000
    185      15.1548      0.00000
    186      15.2262      0.00000
    187      15.2422      0.00000
    188      15.2613      0.00000
    189      15.2729      0.00000
    190      15.4074      0.00000
    191      15.4533      0.00000
    192      15.5332      0.00000
    193      15.6125      0.00000
    194      15.6531      0.00000
    195      15.7131      0.00000
    196      15.7793      0.00000
    197      15.9096      0.00000
    198      15.9718      0.00000
    199      16.1211      0.00000
    200      16.6274      0.00000
    201      16.6347      0.00000
    202      16.6951      0.00000
    203      16.7167      0.00000
    204      16.8017      0.00000
    205      16.8040      0.00000
    206      16.9482      0.00000
    207      16.9708      0.00000
    208      17.0473      0.00000
    209      17.2949      0.00000
    210      17.6349      0.00000
    211      17.7032      0.00000
    212      17.8617      0.00000
    213      18.1075      0.00000
    214      18.3009      0.00000
    215      18.3466      0.00000
    216      18.5346      0.00000


--------------------------------------------------------------------------------------------------------


 soft charge-density along one line, spin component           1
         0         1         2         3         4         5         6         7         8         9
 total charge-density along one line
 
 soft charge-density along one line, spin component           2
         0         1         2         3         4         5         6         7         8         9
 total charge-density along one line
 
 pseudopotential strength for first ion, spin component:           1
  2.995   9.488   0.000   0.000   0.000   0.000   0.000   0.001
  9.488  29.914   0.000   0.000   0.002   0.000   0.000   0.004
  0.000   0.000   7.403   0.000  -0.000  10.679   0.000  -0.000
  0.000   0.000   0.000   7.403  -0.000   0.000  10.677  -0.000
  0.000   0.002  -0.000  -0.000   7.405  -0.000  -0.000  10.683
  0.000   0.000  10.679   0.000  -0.000  14.635   0.000  -0.000
  0.000   0.000   0.000  10.677  -0.000   0.000  14.628  -0.000
  0.001   0.004  -0.000  -0.000  10.683  -0.000  -0.000  14.641
 -0.000  -0.000   0.001   0.000   0.000   0.001   0.000   0.000
  0.000   0.000   0.000   0.000   0.000   0.000   0.000   0.000
 -0.002  -0.005  -0.000   0.000  -0.001  -0.000   0.000  -0.001
 -0.000  -0.000   0.000   0.001   0.000   0.000   0.001   0.000
  0.001   0.002  -0.000   0.000   0.001  -0.000   0.000   0.002
 pseudopotential strength for first ion, spin component:           2
  2.995   9.488   0.000   0.000   0.000   0.000   0.000   0.001
  9.488  29.914   0.000   0.000   0.002   0.000   0.000   0.004
  0.000   0.000   7.403   0.000  -0.000  10.679   0.000  -0.000
  0.000   0.000   0.000   7.403  -0.000   0.000  10.677  -0.000
  0.000   0.002  -0.000  -0.000   7.405  -0.000  -0.000  10.683
  0.000   0.000  10.679   0.000  -0.000  14.635   0.000  -0.000
  0.000   0.000   0.000  10.677  -0.000   0.000  14.628  -0.000
  0.001   0.004  -0.000  -0.000  10.683  -0.000  -0.000  14.641
  0.000   0.000   0.001   0.000   0.000   0.001   0.000   0.000
  0.000   0.000   0.000   0.000   0.000   0.000   0.000   0.000
 -0.002  -0.005  -0.000   0.000  -0.001  -0.000   0.000  -0.001
 -0.000  -0.000   0.000   0.001   0.000   0.000   0.001   0.000
  0.001   0.002  -0.000   0.000   0.001  -0.000   0.000   0.002
 total augmentation occupancy for first ion, spin component:           1
  1.140  -0.059   0.000   0.000  -0.007   0.000   0.000   0.001   0.000   0.000   0.056   0.000  -0.003
 -0.059   0.003   0.000   0.000   0.000   0.000   0.000  -0.000   0.000   0.000  -0.002   0.000   0.000
  0.000   0.000   0.119   0.000   0.000  -0.013   0.000   0.000   0.001   0.000   0.000   0.000   0.000
  0.000   0.000   0.000   0.172   0.000   0.000  -0.019  -0.000   0.000   0.000   0.000   0.005   0.000
 -0.007   0.000   0.000   0.000   0.114   0.000  -0.000  -0.012   0.000   0.000   0.006   0.000  -0.006
  0.000   0.000  -0.013   0.000   0.000   0.001   0.000   0.000  -0.000   0.000   0.000   0.000   0.000
  0.000   0.000   0.000  -0.019  -0.000   0.000   0.002  -0.000   0.000   0.000   0.000  -0.001  -0.000
  0.001  -0.000   0.000  -0.000  -0.012   0.000  -0.000   0.001   0.000   0.000  -0.001   0.000   0.001
  0.000   0.000   0.001   0.000   0.000  -0.000   0.000   0.000   0.012   0.000   0.000   0.000   0.000
 -0.000   0.000   0.000   0.000   0.000   0.000   0.000   0.000   0.000   0.017   0.000   0.000   0.000
  0.056  -0.002   0.000   0.000   0.006   0.000   0.000  -0.001   0.000  -0.000   0.070  -0.000   0.002
  0.000   0.000   0.000   0.005   0.000   0.000  -0.001   0.000   0.000   0.000   0.000   0.017   0.000
 -0.003   0.000   0.000  -0.000  -0.006   0.000  -0.000   0.001   0.000  -0.000   0.002   0.000   0.048
 total augmentation occupancy for first ion, spin component:           2
  0.000  -0.000   0.000  -0.000  -0.000  -0.000   0.000  -0.000   0.000   0.000  -0.000   0.000   0.000
 -0.000   0.000   0.000  -0.000   0.000   0.000  -0.000  -0.000  -0.000   0.000   0.000   0.000  -0.000
  0.000   0.000  -0.000  -0.000   0.000  -0.000  -0.000   0.000   0.000  -0.000  -0.000   0.000   0.000
 -0.000  -0.000  -0.000  -0.000   0.000   0.000  -0.000   0.000   0.000   0.000   0.000   0.000  -0.000
 -0.000   0.000   0.000   0.000   0.000   0.000   0.000  -0.000   0.000   0.000   0.000   0.000   0.000
 -0.000   0.000  -0.000   0.000   0.000   0.000   0.000   0.000  -0.000   0.000  -0.000   0.000   0.000
  0.000  -0.000  -0.000  -0.000   0.000   0.000   0.000   0.000  -0.000   0.000   0.000  -0.000  -0.000
 -0.000  -0.000   0.000   0.000  -0.000   0.000   0.000   0.000   0.000   0.000  -0.000   0.000  -0.000
  0.000  -0.000   0.000   0.000   0.000  -0.000  -0.000   0.000  -0.000   0.000   0.000   0.000  -0.000
  0.000   0.000  -0.000   0.000   0.000   0.000   0.000   0.000   0.000  -0.000   0.000   0.000   0.000
 -0.000   0.000   0.000   0.000   0.000  -0.000   0.000  -0.000   0.000   0.000  -0.000   0.000  -0.000
  0.000   0.000   0.000   0.000   0.000   0.000  -0.000   0.000   0.000   0.000   0.000  -0.000  -0.000
  0.000  -0.000   0.000  -0.000   0.000  -0.000   0.000  -0.000  -0.000   0.000  -0.000   0.000  -0.000


------------------------ aborting loop because EDIFF is reached ----------------------------------------


 


 total charge     
 
# of ion       s       p       d       tot
------------------------------------------
    1        0.162   0.200   0.090   0.452
    2        0.162   0.200   0.090   0.452
    3        0.151   0.184   0.082   0.416
    4        0.171   0.203   0.091   0.465
    5        0.150   0.180   0.079   0.410
    6        0.150   0.180   0.079   0.410
    7        0.150   0.182   0.080   0.412
    8        0.150   0.181   0.080   0.410
    9        0.150   0.181   0.080   0.410
   10        0.150   0.181   0.080   0.410
   11        0.150   0.181   0.080   0.410
   12        0.149   0.181   0.080   0.410
   13        0.149   0.181   0.080   0.410
   14        0.149   0.181   0.080   0.410
   15        0.149   0.181   0.080   0.410
   16        0.165   0.196   0.087   0.447
   17        0.165   0.196   0.087   0.447
   18        0.149   0.179   0.078   0.406
   19        0.149   0.179   0.078   0.406
   20        0.149   0.178   0.077   0.404
   21        0.149   0.178   0.077   0.404
   22        0.148   0.178   0.078   0.404
   23        0.148   0.178   0.078   0.404
   24        0.165   0.196   0.087   0.447
   25        0.149   0.179   0.078   0.406
   26        0.165   0.196   0.087   0.447
   27        0.149   0.179   0.078   0.406
   28        0.149   0.178   0.077   0.404
   29        0.148   0.178   0.078   0.404
   30        0.149   0.178   0.077   0.404
   31        0.148   0.178   0.078   0.404
   32        1.566   3.591   0.000   5.157
   33        1.566   3.591   0.000   5.157
   34        1.563   3.557   0.000   5.120
   35        1.566   3.574   0.000   5.140
   36        1.563   3.548   0.000   5.112
   37        1.563   3.548   0.000   5.112
   38        1.563   3.556   0.000   5.119
   39        1.565   3.548   0.000   5.112
   40        1.565   3.548   0.000   5.113
   41        1.565   3.548   0.000   5.113
   42        1.565   3.547   0.000   5.112
   43        1.563   3.553   0.000   5.116
   44        1.563   3.553   0.000   5.116
   45        1.563   3.553   0.000   5.116
   46        1.563   3.553   0.000   5.116
   47        1.565   3.561   0.000   5.126
   48        1.565   3.560   0.000   5.125
   49        1.563   3.547   0.000   5.110
   50        1.563   3.547   0.000   5.111
   51        1.565   3.535   0.000   5.100
   52        1.566   3.536   0.000   5.101
   53        1.563   3.549   0.000   5.112
   54        1.563   3.549   0.000   5.112
   55        1.565   3.561   0.000   5.126
   56        1.563   3.547   0.000   5.110
   57        1.565   3.560   0.000   5.125
   58        1.563   3.547   0.000   5.111
   59        1.565   3.535   0.000   5.100
   60        1.563   3.549   0.000   5.112
   61        1.566   3.536   0.000   5.101
   62        1.563   3.549   0.000   5.112
--------------------------------------------------
tot         53.227 115.830   2.509 171.565
 


 magnetization (x)
 
# of ion       s       p       d       tot
------------------------------------------
    1       -0.000  -0.000  -0.000  -0.000
    2       -0.000  -0.000  -0.000  -0.000
    3       -0.000  -0.000  -0.000  -0.000
    4        0.000   0.000  -0.000  -0.000
    5       -0.000   0.000  -0.000  -0.000
    6        0.000  -0.000  -0.000  -0.000
    7        0.000  -0.000  -0.000  -0.000
    8       -0.000  -0.000  -0.000  -0.000
    9       -0.000  -0.000  -0.000  -0.000
   10        0.000  -0.000  -0.000  -0.000
   11        0.000  -0.000  -0.000  -0.000
   12       -0.000  -0.000  -0.000  -0.000
   13        0.000  -0.000  -0.000  -0.000
   14        0.000  -0.000  -0.000  -0.000
   15       -0.000  -0.000  -0.000  -0.000
   16       -0.000  -0.000  -0.000  -0.000
   17       -0.000  -0.000  -0.000  -0.000
   18       -0.000  -0.000  -0.000  -0.000
   19       -0.000  -0.000  -0.000  -0.000
   20       -0.000  -0.000  -0.000  -0.000
   21       -0.000  -0.000  -0.000  -0.000
   22       -0.000  -0.000  -0.000  -0.000
   23        0.000  -0.000  -0.000  -0.000
   24       -0.000   0.000  -0.000  -0.000
   25       -0.000  -0.000  -0.000  -0.000
   26       -0.000  -0.000  -0.000  -0.000
   27       -0.000  -0.000  -0.000  -0.000
   28       -0.000   0.000  -0.000  -0.000
   29       -0.000  -0.000  -0.000  -0.000
   30       -0.000   0.000  -0.000  -0.000
   31        0.000  -0.000  -0.000  -0.000
   32       -0.000  -0.000   0.000  -0.000
   33       -0.000  -0.000   0.000  -0.000
   34       -0.000   0.000   0.000  -0.000
   35       -0.000   0.000   0.000  -0.000
   36        0.000  -0.000   0.000   0.000
   37        0.000  -0.000   0.000   0.000
   38        0.000  -0.000   0.000   0.000
   39        0.000  -0.000   0.000  -0.000
   40        0.000  -0.000   0.000   0.000
   41        0.000  -0.000   0.000   0.000
   42        0.000   0.000   0.000   0.000
   43        0.000  -0.000   0.000   0.000
   44        0.000   0.000   0.000   0.000
   45        0.000  -0.000   0.000  -0.000
   46        0.000  -0.000   0.000   0.000
   47        0.000  -0.000   0.000   0.000
   48        0.000  -0.000   0.000   0.000
   49        0.000  -0.000   0.000   0.000
   50        0.000  -0.000   0.000   0.000
   51        0.000  -0.000   0.000   0.000
   52        0.000  -0.000   0.000   0.000
   53        0.000   0.000   0.000   0.000
   54        0.000  -0.000   0.000   0.000
   55        0.000  -0.000   0.000   0.000
   56        0.000   0.000   0.000   0.000
   57        0.000  -0.000   0.000   0.000
   58        0.000  -0.000   0.000   0.000
   59        0.000  -0.000   0.000   0.000
   60        0.000  -0.000   0.000   0.000
   61        0.000  -0.000   0.000   0.000
   62        0.000   0.000   0.000   0.000
--------------------------------------------------
tot          0.000  -0.000  -0.000  -0.000
 
    CHARGE:  cpu time    0.0360: real time    0.0365
    FORLOC:  cpu time    0.0040: real time    0.0039
    FORNL :  cpu time    0.1480: real time    0.1480
    STRESS:  cpu time    0.4680: real time    0.4751
    FORCOR:  cpu time    0.0240: real time    0.0251
    FORHAR:  cpu time    0.0040: real time    0.0062
    MIXING:  cpu time    0.0040: real time    0.0014
    OFIELD:  cpu time    0.0000: real time    0.0000

  FORCE on cell =-STRESS in cart. coord.  units (eV):
  Direction    XX          YY          ZZ          XY          YZ          ZX
  --------------------------------------------------------------------------------------
  Alpha Z   588.18718   588.18718   588.18718
  Ewald   -3514.61330 -3640.36241 -3640.36241    -0.00000    -0.00000    -0.00000
  Hartree  1569.35052  1495.18407  1495.18407    -0.00000    -0.00000    -0.00000
  E(xc)   -1117.01042 -1116.82920 -1116.82920     0.00000     0.00000    -0.00000
  Local   -1559.91248 -1359.27700 -1359.27700     0.00000    -0.00000    -0.00000
  n-local  -577.08790  -578.41744  -578.41744     0.13069     0.13206     0.13080
  augment   211.91964   212.11968   212.11968    -0.00000     0.00000    -0.00000
  Kinetic  4380.95593  4384.96356  4384.96356    -1.99559    -1.96142    -1.99559
  Fock        0.00000     0.00000     0.00000     0.00000     0.00000     0.00000
  -------------------------------------------------------------------------------------
  Total     -18.21084   -14.43157   -14.43157     0.00000     0.00000    -0.00000
  in kB     -48.88643   -38.74111   -38.74111     0.00000     0.00000    -0.00000
  external pressure =      -42.12 kB  Pullay stress =        0.00 kB


 VOLUME and BASIS-vectors are now :
 -----------------------------------------------------------------------------
  energy-cutoff  :      400.00
  volume of cell :      596.83
      direct lattice vectors                 reciprocal lattice vectors
     8.419456000  0.000000000  0.000000000     0.118772519  0.000000000  0.000000000
     0.000000000  8.419456000  0.000000000     0.000000000  0.118772519  0.000000000
     0.000000000  0.000000000  8.419456000     0.000000000  0.000000000  0.118772519

  length of vectors
     8.419456000  8.419456000  8.419456000     0.118772519  0.118772519  0.118772519


 FORCES acting on ions
    electron-ion (+dipol)            ewald-force                    non-local-force                 convergence-correction
 -----------------------------------------------------------------------------------------------
   -.121E+01 -.645E-13 -.141E-05   0.969E+00 0.204E-13 0.791E-14   0.235E+00 0.000E+00 -.108E-18   -.744E-03 0.115E-14 -.357E-14
   -.121E+01 0.153E-11 -.143E-05   0.969E+00 0.333E-14 -.355E-15   0.235E+00 0.000E+00 0.000E+00   -.744E-03 -.133E-14 0.349E-14
   -.952E+00 -.353E-12 -.126E-05   0.793E+00 0.666E-14 0.854E-14   0.150E+00 0.000E+00 0.000E+00   -.695E-03 -.676E-15 -.250E-14
   0.378E+02 0.665E-13 0.155E-06   -.340E+02 0.533E-14 -.949E-15   -.375E+01 0.000E+00 0.000E+00   0.870E-03 0.574E-15 0.294E-14
   0.223E-01 -.465E-14 0.107E-05   0.234E+00 0.000E+00 -.672E-14   -.257E+00 0.000E+00 0.000E+00   0.736E-03 0.118E-14 -.225E-14
   0.223E-01 0.127E-11 0.109E-05   0.234E+00 -.400E-14 0.709E-14   -.257E+00 0.000E+00 -.542E-19   0.736E-03 -.155E-14 0.332E-14
   0.864E+00 0.480E-12 0.123E-05   -.701E+00 0.213E-13 0.767E-14   -.170E+00 0.000E+00 0.000E+00   0.694E-03 -.205E-14 -.370E-14
   -.272E+01 0.829E+01 0.829E+01   0.280E+01 -.883E+01 -.883E+01   -.767E-01 0.559E+00 0.559E+00   -.780E-03 -.428E-03 -.428E-03
   -.272E+01 0.829E+01 -.829E+01   0.280E+01 -.883E+01 0.883E+01   -.767E-01 0.559E+00 -.559E+00   -.780E-03 -.428E-03 0.428E-03
   -.272E+01 -.829E+01 0.829E+01   0.280E+01 0.883E+01 -.883E+01   -.767E-01 -.559E+00 0.559E+00   -.780E-03 0.428E-03 -.428E-03
   -.272E+01 -.829E+01 -.829E+01   0.280E+01 0.883E+01 0.883E+01   -.767E-01 -.559E+00 -.559E+00   -.780E-03 0.428E-03 0.428E-03
   0.204E+01 0.420E+01 0.420E+01   -.204E+01 -.439E+01 -.439E+01   -.183E-02 0.177E+00 0.177E+00   0.755E-03 -.401E-03 -.401E-03
   0.204E+01 0.420E+01 -.420E+01   -.204E+01 -.439E+01 0.439E+01   -.183E-02 0.177E+00 -.177E+00   0.755E-03 -.401E-03 0.401E-03
   0.204E+01 -.420E+01 0.420E+01   -.204E+01 0.439E+01 -.439E+01   -.183E-02 -.177E+00 0.177E+00   0.755E-03 0.401E-03 -.401E-03
   0.204E+01 -.420E+01 -.420E+01   -.204E+01 0.439E+01 0.439E+01   -.183E-02 -.177E+00 -.177E+00   0.755E-03 0.401E-03 0.401E-03
   0.161E+01 0.473E-13 0.447E+02   -.223E+01 0.888E-15 -.417E+02   0.616E+00 0.000E+00 -.299E+01   -.178E-03 0.179E-14 -.318E-03
   0.161E+01 -.641E-13 -.447E+02   -.223E+01 0.355E-14 0.417E+02   0.616E+00 0.000E+00 0.299E+01   -.178E-03 0.520E-15 0.318E-03
   -.276E+00 -.170E-12 0.218E+01   0.489E-01 0.266E-14 -.206E+01   0.227E+00 0.000E+00 -.119E+00   -.123E-03 -.192E-14 -.415E-03
   -.276E+00 0.152E-12 -.218E+01   0.489E-01 -.178E-14 0.206E+01   0.227E+00 0.108E-18 0.119E+00   -.123E-03 -.271E-15 0.415E-03
   -.143E+00 -.137E-12 0.531E+01   0.128E+01 -.178E-14 -.606E+01   -.112E+01 0.000E+00 0.730E+00   0.102E-03 0.865E-15 -.448E-03
   -.143E+00 0.118E-12 -.531E+01   0.128E+01 0.444E-14 0.606E+01   -.112E+01 0.000E+00 -.730E+00   0.102E-03 0.183E-14 0.448E-03
   0.440E+00 0.843E-12 0.194E+01   -.241E+00 0.622E-14 -.203E+01   -.214E+00 0.000E+00 0.768E-01   0.116E-03 -.424E-15 -.460E-03
   0.440E+00 -.870E-12 -.194E+01   -.241E+00 0.107E-13 0.203E+01   -.214E+00 0.000E+00 -.768E-01   0.116E-03 -.195E-14 0.460E-03
   0.161E+01 0.447E+02 -.138E-05   -.223E+01 -.417E+02 -.870E-14   0.616E+00 -.299E+01 0.000E+00   -.178E-03 -.318E-03 0.426E-14
   -.276E+00 0.218E+01 -.154E-06   0.489E-01 -.206E+01 0.165E-15   0.227E+00 -.119E+00 -.108E-18   -.123E-03 -.415E-03 -.374E-14
   0.161E+01 -.447E+02 0.127E-05   -.223E+01 0.417E+02 -.695E-14   0.616E+00 0.299E+01 0.000E+00   -.178E-03 0.318E-03 0.234E-14
   -.276E+00 -.218E+01 -.264E-05   0.489E-01 0.206E+01 0.206E-14   0.227E+00 0.119E+00 0.000E+00   -.123E-03 0.415E-03 -.254E-14
   -.143E+00 0.531E+01 -.179E-05   0.128E+01 -.606E+01 -.279E-14   -.112E+01 0.730E+00 0.000E+00   0.102E-03 -.448E-03 0.212E-14
   0.440E+00 0.194E+01 0.811E-06   -.241E+00 -.203E+01 -.160E-14   -.214E+00 0.768E-01 -.271E-19   0.116E-03 -.460E-03 -.223E-14
   -.143E+00 -.531E+01 0.137E-05   0.128E+01 0.606E+01 0.758E-16   -.112E+01 -.730E+00 0.000E+00   0.102E-03 0.448E-03 0.339E-14
   0.440E+00 -.194E+01 0.178E-05   -.241E+00 0.203E+01 0.820E-14   -.214E+00 -.768E-01 0.000E+00   0.116E-03 0.460E-03 -.344E-14
   -.136E-01 0.348E-15 0.286E-04   -.357E+00 -.355E-13 0.892E-14   0.379E+00 0.000E+00 0.000E+00   -.110E-02 -.447E-14 -.160E-13
   -.136E-01 0.118E-12 0.264E-04   -.357E+00 0.222E-13 0.724E-14   0.379E+00 0.000E+00 0.000E+00   -.110E-02 -.850E-14 0.295E-13
   0.300E+00 0.131E-11 0.230E-04   -.509E+00 0.711E-14 0.763E-14   0.208E+00 0.000E+00 0.271E-19   0.356E-03 -.607E-14 -.148E-13
   -.439E+02 -.331E-14 0.369E-05   0.531E+02 -.204E-13 -.806E-14   -.917E+01 0.000E+00 -.108E-18   0.432E-03 0.112E-13 0.135E-13
   0.308E+01 0.133E-14 -.269E-04   -.268E+01 0.711E-14 0.227E-13   -.393E+00 0.000E+00 0.000E+00   0.123E-02 0.791E-14 -.233E-13
   0.308E+01 0.277E-11 -.249E-04   -.268E+01 0.435E-13 0.704E-14   -.393E+00 0.000E+00 0.169E-20   0.123E-02 -.177E-14 0.163E-13
   0.878E-02 0.256E-11 -.218E-04   0.260E+00 -.142E-13 0.195E-14   -.278E+00 0.000E+00 -.271E-19   -.372E-03 0.778E-16 -.255E-13
   0.659E+01 0.362E+02 0.362E+02   -.633E+01 -.357E+02 -.357E+02   -.265E+00 -.483E+00 -.483E+00   -.813E-04 -.157E-02 -.157E-02
   0.659E+01 0.362E+02 -.362E+02   -.633E+01 -.357E+02 0.357E+02   -.265E+00 -.483E+00 0.483E+00   -.813E-04 -.157E-02 0.157E-02
   0.659E+01 -.362E+02 0.362E+02   -.633E+01 0.357E+02 -.357E+02   -.265E+00 0.483E+00 -.483E+00   -.813E-04 0.157E-02 -.157E-02
   0.659E+01 -.362E+02 -.362E+02   -.633E+01 0.357E+02 0.357E+02   -.265E+00 0.483E+00 0.483E+00   -.813E-04 0.157E-02 0.157E-02
   -.393E+01 0.131E+02 0.131E+02   0.378E+01 -.127E+02 -.127E+02   0.155E+00 -.420E+00 -.420E+00   0.600E-03 -.168E-02 -.168E-02
   -.393E+01 0.131E+02 -.131E+02   0.378E+01 -.127E+02 0.127E+02   0.155E+00 -.420E+00 0.420E+00   0.600E-03 -.168E-02 0.168E-02
   -.393E+01 -.131E+02 0.131E+02   0.378E+01 0.127E+02 -.127E+02   0.155E+00 0.420E+00 -.420E+00   0.600E-03 0.168E-02 -.168E-02
   -.393E+01 -.131E+02 -.131E+02   0.378E+01 0.127E+02 0.127E+02   0.155E+00 0.420E+00 0.420E+00   0.600E-03 0.168E-02 0.168E-02
   -.205E+02 0.980E-13 0.783E+02   0.198E+02 -.178E-14 -.850E+02   0.687E+00 0.000E+00 0.668E+01   -.369E-02 0.135E-13 -.807E-03
   -.205E+02 -.152E-12 -.783E+02   0.198E+02 0.888E-14 0.850E+02   0.687E+00 0.000E+00 -.668E+01   -.369E-02 0.130E-13 0.807E-03
   -.215E+01 0.593E-12 0.538E+01   0.188E+01 -.169E-13 -.557E+01   0.255E+00 0.000E+00 0.188E+00   -.274E-02 0.377E-14 -.276E-02
   -.215E+01 0.844E-14 -.538E+01   0.188E+01 -.711E-14 0.557E+01   0.255E+00 0.000E+00 -.188E+00   -.274E-02 0.552E-14 0.276E-02
   0.227E+02 0.334E-14 0.333E+02   -.214E+02 0.142E-13 -.326E+02   -.135E+01 0.000E+00 -.715E+00   0.310E-02 0.153E-15 -.161E-02
   0.227E+02 -.119E-13 -.333E+02   -.214E+02 0.355E-13 0.326E+02   -.135E+01 -.542E-19 0.715E+00   0.310E-02 0.617E-14 0.161E-02
   0.143E+01 -.621E-12 0.685E+01   -.114E+01 -.355E-13 -.668E+01   -.289E+00 -.136E-19 -.170E+00   0.290E-02 -.104E-13 -.115E-02
   0.143E+01 0.101E-11 -.685E+01   -.114E+01 0.000E+00 0.668E+01   -.289E+00 0.000E+00 0.170E+00   0.290E-02 -.857E-14 0.115E-02
   -.205E+02 0.783E+02 0.308E-04   0.198E+02 -.850E+02 0.102E-14   0.687E+00 0.668E+01 0.000E+00   -.369E-02 -.807E-03 0.300E-13
   -.215E+01 0.538E+01 0.486E-04   0.188E+01 -.557E+01 -.693E-14   0.255E+00 0.188E+00 0.000E+00   -.274E-02 -.276E-02 -.151E-13
   -.205E+02 -.783E+02 -.162E-04   0.198E+02 0.850E+02 -.541E-14   0.687E+00 -.668E+01 0.000E+00   -.369E-02 0.807E-03 0.235E-13
   -.215E+01 -.538E+01 -.623E-05   0.188E+01 0.557E+01 0.584E-14   0.255E+00 -.188E+00 0.000E+00   -.274E-02 0.276E-02 -.139E-13
   0.227E+02 0.333E+02 0.146E-04   -.214E+02 -.326E+02 0.745E-14   -.135E+01 -.715E+00 0.000E+00   0.310E-02 -.161E-02 0.325E-13
   0.143E+01 0.685E+01 -.355E-04   -.114E+01 -.668E+01 -.140E-13   -.289E+00 -.170E+00 0.000E+00   0.290E-02 -.115E-02 -.734E-14
   0.227E+02 -.333E+02 0.124E-04   -.214E+02 0.326E+02 -.319E-15   -.135E+01 0.715E+00 0.000E+00   0.310E-02 0.161E-02 0.298E-13
   0.143E+01 -.685E+01 -.166E-04   -.114E+01 0.668E+01 0.736E-14   -.289E+00 0.170E+00 0.136E-19   0.290E-02 0.115E-02 -.179E-14
 -----------------------------------------------------------------------------------------------
   0.186E+02 0.789E-11 0.365E-04   -.533E-14 -.453E-13 0.377E-13   -.186E+02 0.305E-15 0.278E-16   0.143E-02 0.446E-13 0.615E-13
 
 
 POSITION                                       TOTAL-FORCE (eV/Angst)
 -----------------------------------------------------------------------------------
      8.38192      0.00000      4.20973        -0.003389      0.000000     -0.000000
      8.38192      4.20973      0.00000        -0.003389      0.000000     -0.000000
      8.40584      4.20973      4.20973        -0.009988      0.000000     -0.000000
      4.35330      0.00000      0.00000         0.027888      0.000000     -0.000000
      4.23464      0.00000      4.20973         0.000119      0.000000     -0.000000
      4.23464      4.20973      0.00000         0.000119      0.000000     -0.000000
      4.22297      4.20973      4.20973        -0.006624      0.000000     -0.000000
      8.41937      2.05112      2.05112        -0.002498      0.016638      0.016638
      8.41937      2.05112      6.36834        -0.002498      0.016638     -0.016638
      8.41937      6.36834      2.05112        -0.002498     -0.016638      0.016638
      8.41937      6.36834      6.36834        -0.002498     -0.016638     -0.016638
      4.21062      2.09248      2.09248         0.001124     -0.008992     -0.008992
      4.21062      2.09248      6.32698         0.001124     -0.008992      0.008992
      4.21062      6.32698      2.09248         0.001124      0.008992     -0.008992
      4.21062      6.32698      6.32698         0.001124      0.008992      0.008992
      2.04959      0.00000      2.26126        -0.007029      0.000000     -0.019344
      2.04959      0.00000      6.15819        -0.007029      0.000000      0.019344
      2.08896      4.20973      2.11844        -0.000425      0.000000      0.000337
      2.08896      4.20973      6.30101        -0.000425      0.000000     -0.000337
      6.40890      0.00000      2.04496         0.015456      0.000000     -0.014289
      6.40890      0.00000      6.37450         0.015456      0.000000      0.014289
      6.32923      4.20973      2.09986        -0.015326      0.000000     -0.007098
      6.32923      4.20973      6.31959        -0.015326      0.000000      0.007098
      2.04959      2.26126      0.00000        -0.007029     -0.019344     -0.000000
      2.08896      2.11844      4.20973        -0.000425      0.000337     -0.000000
      2.04959      6.15819      0.00000        -0.007029      0.019344     -0.000000
      2.08896      6.30101      4.20973        -0.000425     -0.000337     -0.000000
      6.40890      2.04496      0.00000         0.015456     -0.014289     -0.000000
      6.32923      2.09986      4.20973        -0.015326     -0.007098     -0.000000
      6.40890      6.37450      0.00000         0.015456      0.014289     -0.000000
      6.32923      6.31959      4.20973        -0.015326      0.007098     -0.000000
      2.14108      0.00000      4.20973         0.007033      0.000000     -0.000000
      2.14108      4.20973      0.00000         0.007033      0.000000     -0.000000
      2.11741      4.20973      4.20973        -0.000597      0.000000     -0.000000
      6.26131      0.00000      0.00000         0.025140      0.000000     -0.000000
      6.28193      0.00000      4.20973         0.007800      0.000000     -0.000000
      6.28193      4.20973      0.00000         0.007800      0.000000     -0.000000
      6.30272      4.20973      4.20973        -0.010615      0.000000     -0.000000
      2.10485      2.06228      2.06228        -0.004218      0.009315      0.009315
      2.10485      2.06228      6.35717        -0.004218      0.009315     -0.009315
      2.10485      6.35717      2.06228        -0.004218     -0.009315      0.009315
      2.10485      6.35717      6.35717        -0.004218     -0.009315     -0.009315
      6.30654      2.09556      2.09556        -0.001952      0.000630      0.000630
      6.30654      2.09556      6.32389        -0.001952      0.000630     -0.000630
      6.30654      6.32389      2.09556        -0.001952     -0.000630      0.000630
      6.30654      6.32389      6.32389        -0.001952     -0.000630     -0.000630
      0.03768      0.00000      2.21739         0.032079      0.000000     -0.012670
      0.03768      0.00000      6.20207         0.032079      0.000000      0.012670
      0.01187      4.20973      2.12004        -0.017318      0.000000     -0.002805
      0.01187      4.20973      6.29942        -0.017318      0.000000      0.002805
      4.12628      0.00000      2.05460        -0.016314      0.000000     -0.009670
      4.12628      0.00000      6.36485        -0.016314      0.000000      0.009670
      4.19501      4.20973      2.10017         0.004340      0.000000     -0.000730
      4.19501      4.20973      6.31928         0.004340      0.000000      0.000730
      0.03768      2.21739      0.00000         0.032079     -0.012670     -0.000000
      0.01187      2.12004      4.20973        -0.017318     -0.002805     -0.000000
      0.03768      6.20207      0.00000         0.032079      0.012670     -0.000000
      0.01187      6.29942      4.20973        -0.017318      0.002805     -0.000000
      4.12628      2.05460      0.00000        -0.016314     -0.009670     -0.000000
      4.19501      2.10017      4.20973         0.004340     -0.000730     -0.000000
      4.12628      6.36485      0.00000        -0.016314      0.009670     -0.000000
      4.19501      6.31928      4.20973         0.004340      0.000730     -0.000000
 -----------------------------------------------------------------------------------
    total drift:                                0.032319      0.000000      0.000037


--------------------------------------------------------------------------------------------------------



  FREE ENERGIE OF THE ION-ELECTRON SYSTEM (eV)
  ---------------------------------------------------
  free  energy   TOTEN  =      -384.39630440 eV

  energy  without entropy=     -384.39630440  energy(sigma->0) =     -384.39630440
 


--------------------------------------------------------------------------------------------------------


    POTLOK:  cpu time    0.5560: real time    0.5573


--------------------------------------------------------------------------------------------------------




--------------------------------------------------------------------------------------------------------


  
 reached required accuracy - stopping structural energy minimisation
 writing wavefunctions
     LOOP+:  cpu time    4.8400: real time    5.2998
    4ORBIT:  cpu time    0.0000: real time    0.0000
 


 total charge     
 
# of ion       s       p       d       tot
------------------------------------------
    1        0.162   0.200   0.090   0.452
    2        0.162   0.200   0.090   0.452
    3        0.151   0.184   0.082   0.416
    4        0.171   0.203   0.091   0.465
    5        0.150   0.180   0.079   0.410
    6        0.150   0.180   0.079   0.410
    7        0.150   0.182   0.080   0.412
    8        0.150   0.181   0.080   0.410
    9        0.150   0.181   0.080   0.410
   10        0.150   0.181   0.080   0.410
   11        0.150   0.181   0.080   0.410
   12        0.149   0.181   0.080   0.410
   13        0.149   0.181   0.080   0.410
   14        0.149   0.181   0.080   0.410
   15        0.149   0.181   0.080   0.410
   16        0.165   0.196   0.087   0.447
   17        0.165   0.196   0.087   0.447
   18        0.149   0.179   0.078   0.406
   19        0.149   0.179   0.078   0.406
   20        0.149   0.178   0.077   0.404
   21        0.149   0.178   0.077   0.404
   22        0.148   0.178   0.078   0.404
   23        0.148   0.178   0.078   0.404
   24        0.165   0.196   0.087   0.447
   25        0.149   0.179   0.078   0.406
   26        0.165   0.196   0.087   0.447
   27        0.149   0.179   0.078   0.406
   28        0.149   0.178   0.077   0.404
   29        0.148   0.178   0.078   0.404
   30        0.149   0.178   0.077   0.404
   31        0.148   0.178   0.078   0.404
   32        1.566   3.591   0.000   5.157
   33        1.566   3.591   0.000   5.157
   34        1.563   3.557   0.000   5.120
   35        1.566   3.574   0.000   5.140
   36        1.563   3.548   0.000   5.112
   37        1.563   3.548   0.000   5.112
   38        1.563   3.556   0.000   5.119
   39        1.565   3.548   0.000   5.112
   40        1.565   3.548   0.000   5.113
   41        1.565   3.548   0.000   5.113
   42        1.565   3.547   0.000   5.112
   43        1.563   3.553   0.000   5.116
   44        1.563   3.553   0.000   5.116
   45        1.563   3.553   0.000   5.116
   46        1.563   3.553   0.000   5.116
   47        1.565   3.561   0.000   5.126
   48        1.565   3.560   0.000   5.125
   49        1.563   3.547   0.000   5.110
   50        1.563   3.547   0.000   5.111
   51        1.565   3.535   0.000   5.100
   52        1.566   3.536   0.000   5.101
   53        1.563   3.549   0.000   5.112
   54        1.563   3.549   0.000   5.112
   55        1.565   3.561   0.000   5.126
   56        1.563   3.547   0.000   5.110
   57        1.565   3.560   0.000   5.125
   58        1.563   3.547   0.000   5.111
   59        1.565   3.535   0.000   5.100
   60        1.563   3.549   0.000   5.112
   61        1.566   3.536   0.000   5.101
   62        1.563   3.549   0.000   5.112
--------------------------------------------------
tot         53.227 115.830   2.509 171.565
 


 magnetization (x)
 
# of ion       s       p       d       tot
------------------------------------------
    1       -0.000  -0.000  -0.000  -0.000
    2       -0.000  -0.000  -0.000  -0.000
    3       -0.000  -0.000  -0.000  -0.000
    4        0.000   0.000  -0.000  -0.000
    5       -0.000   0.000  -0.000  -0.000
    6        0.000  -0.000  -0.000  -0.000
    7        0.000  -0.000  -0.000  -0.000
    8       -0.000  -0.000  -0.000  -0.000
    9       -0.000  -0.000  -0.000  -0.000
   10        0.000  -0.000  -0.000  -0.000
   11        0.000  -0.000  -0.000  -0.000
   12       -0.000  -0.000  -0.000  -0.000
   13        0.000  -0.000  -0.000  -0.000
   14        0.000  -0.000  -0.000  -0.000
   15       -0.000  -0.000  -0.000  -0.000
   16       -0.000  -0.000  -0.000  -0.000
   17       -0.000  -0.000  -0.000  -0.000
   18       -0.000  -0.000  -0.000  -0.000
   19       -0.000  -0.000  -0.000  -0.000
   20       -0.000  -0.000  -0.000  -0.000
   21       -0.000  -0.000  -0.000  -0.000
   22       -0.000  -0.000  -0.000  -0.000
   23        0.000  -0.000  -0.000  -0.000
   24       -0.000   0.000  -0.000  -0.000
   25       -0.000  -0.000  -0.000  -0.000
   26       -0.000  -0.000  -0.000  -0.000
   27       -0.000  -0.000  -0.000  -0.000
   28       -0.000   0.000  -0.000  -0.000
   29       -0.000  -0.000  -0.000  -0.000
   30       -0.000   0.000  -0.000  -0.000
   31        0.000  -0.000  -0.000  -0.000
   32       -0.000  -0.000   0.000  -0.000
   33       -0.000  -0.000   0.000  -0.000
   34       -0.000   0.000   0.000  -0.000
   35       -0.000   0.000   0.000  -0.000
   36        0.000  -0.000   0.000   0.000
   37        0.000  -0.000   0.000   0.000
   38        0.000  -0.000   0.000   0.000
   39        0.000  -0.000   0.000  -0.000
   40        0.000  -0.000   0.000   0.000
   41        0.000  -0.000   0.000   0.000
   42        0.000   0.000   0.000   0.000
   43        0.000  -0.000   0.000   0.000
   44        0.000   0.000   0.000   0.000
   45        0.000  -0.000   0.000  -0.000
   46        0.000  -0.000   0.000   0.000
   47        0.000  -0.000   0.000   0.000
   48        0.000  -0.000   0.000   0.000
   49        0.000  -0.000   0.000   0.000
   50        0.000  -0.000   0.000   0.000
   51        0.000  -0.000   0.000   0.000
   52        0.000  -0.000   0.000   0.000
   53        0.000   0.000   0.000   0.000
   54        0.000  -0.000   0.000   0.000
   55        0.000  -0.000   0.000   0.000
   56        0.000   0.000   0.000   0.000
   57        0.000  -0.000   0.000   0.000
   58        0.000  -0.000   0.000   0.000
   59        0.000  -0.000   0.000   0.000
   60        0.000  -0.000   0.000   0.000
   61        0.000  -0.000   0.000   0.000
   62        0.000   0.000   0.000   0.000
--------------------------------------------------
tot          0.000  -0.000  -0.000  -0.000
 

 total amount of memory used by VASP MPI-rank0    50233. kBytes
=======================================================================

   base      :      30000. kBytes
   nonlr-proj:       8301. kBytes
   fftplans  :       1007. kBytes
   grid      :       7709. kBytes
   one-center:       1005. kBytes
   wavefun   :       2211. kBytes
 
  
  
 General timing and accounting informations for this job:
 ========================================================
  
                  Total CPU time used (sec):        6.504
                            User time (sec):        6.160
                          System time (sec):        0.344
                         Elapsed time (sec):        7.445
  
                   Maximum memory used (kb):      115908.
                   Average memory used (kb):           0.
  
                          Minor page faults:        24542
                          Major page faults:           10
                 Voluntary context switches:         2453
