PROCAR lm decomposed + phase
# of k-points:   47         # of bands:  16         # of ions:   4

 k-point    1 :    0.00000000 0.00000000 0.00000000     weight = 0.00100000

band   1 # energy   -5.46177090 # occ.  2.00000000
 
ion      s     py     pz     px    dxy    dyz    dz2    dxz    dx2    tot
  1  0.466  0.000  0.000  0.000  0.000  0.000  0.000  0.000  0.000  0.466
  2  0.016  0.000  0.000  0.000  0.000  0.000  0.000  0.000  0.000  0.016
  3  0.016  0.000  0.000  0.000  0.000  0.000  0.000  0.000  0.000  0.016
  4  0.011  0.000  0.000  0.000  0.000  0.000  0.000  0.000  0.000  0.011
tot  0.509  0.000  0.000  0.000  0.000  0.000  0.000  0.000  0.000  0.509
ion      s     py     pz     px    dxy    dyz    dz2    dxz    dx2
  1 -0.471  0.000 -0.000  0.000  0.000  0.000  0.000  0.000 -0.000
  1  0.827  0.000 -0.000 -0.000 -0.000 -0.000 -0.000 -0.000  0.000
  2 -0.204  0.000  0.000  0.000  0.000  0.000  0.000  0.000  0.000
  2  0.359 -0.000 -0.000 -0.000  0.000  0.000  0.000  0.000  0.000
  3 -0.204 -0.000 -0.000 -0.000  0.000  0.000  0.000  0.000  0.000
  3  0.359  0.000  0.000  0.000  0.000  0.000  0.000  0.000  0.000
  4 -0.154 -0.000  0.000  0.000  0.000  0.000  0.000  0.000  0.000
  4  0.271 -0.000  0.000 -0.000  0.000  0.000  0.000  0.000  0.000
 
band   2 # energy    3.57461296 # occ.  2.00000000
 
ion      s     py     pz     px    dxy    dyz    dz2    dxz    dx2    tot
  1  0.000  0.235  0.050  0.092  0.000  0.000  0.000  0.000  0.000  0.378
  2  0.000  0.005  0.001  0.002  0.000  0.000  0.000  0.000  0.000  0.008
  3  0.000  0.005  0.001  0.002  0.000  0.000  0.000  0.000  0.000  0.008
  4  0.000  0.005  0.001  0.002  0.000  0.000  0.000  0.000  0.000  0.008
tot  0.000  0.250  0.054  0.098  0.000  0.000  0.000  0.000  0.000  0.402
ion      s     py     pz     px    dxy    dyz    dz2    dxz    dx2
  1  0.000 -0.659  0.136  0.523 -0.000 -0.000  0.000  0.000 -0.000
  1  0.000 -0.634  0.401  0.233  0.000  0.000 -0.000 -0.000 -0.000
  2  0.000  0.059 -0.012 -0.047  0.000  0.000  0.000  0.000  0.000
  2  0.000  0.057 -0.036 -0.021  0.000  0.000  0.000  0.000  0.000
  3  0.000  0.059 -0.012 -0.047  0.000  0.000  0.000  0.000  0.000
  3  0.000  0.057 -0.036 -0.021  0.000  0.000  0.000  0.000  0.000
  4  0.000  0.064 -0.013 -0.051  0.000  0.000  0.000  0.000  0.000
  4  0.000  0.062 -0.039 -0.023  0.000  0.000  0.000  0.000  0.000
 
band   3 # energy    3.57461296 # occ.  2.00000000
 
ion      s     py     pz     px    dxy    dyz    dz2    dxz    dx2    tot
  1  0.000  0.017  0.202  0.160  0.000  0.000  0.000  0.000  0.000  0.378
  2  0.000  0.000  0.004  0.003  0.000  0.000  0.000  0.000  0.000  0.008
  3  0.000  0.000  0.004  0.003  0.000  0.000  0.000  0.000  0.000  0.008
  4  0.000  0.000  0.004  0.003  0.000  0.000  0.000  0.000  0.000  0.008
tot  0.000  0.018  0.214  0.170  0.000  0.000  0.000  0.000  0.000  0.402
ion      s     py     pz     px    dxy    dyz    dz2    dxz    dx2
  1 -0.000  0.006 -0.742  0.736  0.000  0.000 -0.000 -0.000  0.000
  1 -0.000  0.244 -0.407  0.164 -0.000 -0.000  0.000 -0.000  0.000
  2 -0.000 -0.001  0.067 -0.066  0.000  0.000  0.000  0.000  0.000
  2 -0.000 -0.022  0.037 -0.015  0.000  0.000  0.000  0.000  0.000
  3 -0.000 -0.001  0.067 -0.066  0.000  0.000  0.000  0.000  0.000
  3 -0.000 -0.022  0.037 -0.015  0.000  0.000  0.000  0.000  0.000
  4  0.000 -0.001  0.072 -0.072  0.000  0.000  0.000  0.000  0.000
  4 -0.000 -0.024  0.040 -0.016  0.000  0.000  0.000  0.000  0.000
 
band   4 # energy    3.57461430 # occ.  2.00000000
 
ion      s     py     pz     px    dxy    dyz    dz2    dxz    dx2    tot
  1  0.000  0.126  0.126  0.126  0.000  0.000  0.000  0.000  0.000  0.378
  2  0.000  0.003  0.003  0.003  0.000  0.000  0.000  0.000  0.000  0.008
  3  0.000  0.003  0.003  0.003  0.000  0.000  0.000  0.000  0.000  0.008
  4  0.000  0.003  0.003  0.003  0.000  0.000  0.000  0.000  0.000  0.008
tot  0.000  0.134  0.134  0.134  0.000  0.000  0.000  0.000  0.000  0.402
ion      s     py     pz     px    dxy    dyz    dz2    dxz    dx2
  1  0.000 -0.392 -0.392 -0.392  0.000 -0.000  0.000 -0.000 -0.000
  1  0.000  0.543  0.543  0.543  0.000 -0.000 -0.000  0.000 -0.000
  2 -0.000  0.035  0.035  0.035  0.000  0.000  0.000  0.000  0.000
  2  0.000 -0.049 -0.049 -0.049  0.000  0.000  0.000  0.000  0.000
  3  0.000  0.035  0.035  0.035  0.000  0.000  0.000  0.000  0.000
  3 -0.000 -0.049 -0.049 -0.049  0.000  0.000  0.000  0.000  0.000
  4  0.000  0.038  0.038  0.038  0.000  0.000  0.000  0.000  0.000
  4 -0.000 -0.053 -0.053 -0.053  0.000  0.000  0.000  0.000  0.000
 
band   5 # energy    5.25231483 # occ.  0.00000000
 
ion      s     py     pz     px    dxy    dyz    dz2    dxz    dx2    tot
  1  0.273  0.000  0.000  0.000  0.000  0.000  0.000  0.000  0.000  0.273
  2  0.052  0.000  0.000  0.000  0.000  0.000  0.000  0.000  0.000  0.052
  3  0.052  0.000  0.000  0.000  0.000  0.000  0.000  0.000  0.000  0.052
  4  0.120  0.000  0.000  0.000  0.000  0.000  0.000  0.000  0.000  0.120
tot  0.496  0.000  0.000  0.000  0.000  0.000  0.000  0.000  0.000  0.496
ion      s     py     pz     px    dxy    dyz    dz2    dxz    dx2
  1 -0.175  0.000 -0.000 -0.000  0.000  0.000 -0.000  0.000 -0.000
  1  0.332 -0.000 -0.000 -0.000 -0.000 -0.000  0.000 -0.000 -0.000
  2  0.326  0.000  0.000  0.000  0.000  0.000  0.000  0.000  0.000
  2 -0.618 -0.000 -0.000 -0.000  0.000  0.000  0.000  0.000  0.000
  3  0.326 -0.000 -0.000 -0.000  0.000  0.000  0.000  0.000  0.000
  3 -0.618  0.000  0.000  0.000  0.000  0.000  0.000  0.000  0.000
  4  0.481  0.000 -0.000 -0.000  0.000  0.000  0.000  0.000  0.000
  4 -0.911  0.000  0.000  0.000  0.000  0.000  0.000  0.000  0.000
 
band   6 # energy    6.22239915 # occ.  0.00000000
 
ion      s     py     pz     px    dxy    dyz    dz2    dxz    dx2    tot
  1  0.000  0.000  0.000  0.000  0.012  0.023  0.000  0.007  0.000  0.041
  2  0.000  0.018  0.031  0.059  0.000  0.000  0.000  0.000  0.000  0.108
  3  0.000  0.018  0.031  0.059  0.000  0.000  0.000  0.000  0.000  0.108
  4  0.000  0.000  0.000  0.000  0.000  0.000  0.000  0.000  0.000  0.000
tot  0.000  0.036  0.062  0.118  0.012  0.023  0.000  0.007  0.000  0.258
ion      s     py     pz     px    dxy    dyz    dz2    dxz    dx2
  1 -0.000  0.000  0.000  0.000 -0.133  0.117  0.000  0.016 -0.000
  1 -0.000  0.000  0.000  0.000  0.052 -0.160 -0.000  0.108  0.000
  2 -0.000  0.024 -0.193  0.169  0.000  0.000  0.000  0.000  0.000
  2 -0.000  0.156  0.075 -0.231  0.000  0.000  0.000  0.000  0.000
  3 -0.000 -0.024  0.193 -0.169  0.000  0.000  0.000  0.000  0.000
  3 -0.000 -0.156 -0.075  0.231  0.000  0.000  0.000  0.000  0.000
  4 -0.000  0.000  0.000  0.000  0.000  0.000  0.000  0.000  0.000
  4  0.000 -0.000  0.000  0.000  0.000  0.000  0.000  0.000  0.000
 
band   7 # energy    6.22239915 # occ.  0.00000000
 
ion      s     py     pz     px    dxy    dyz    dz2    dxz    dx2    tot
  1  0.000  0.000  0.000  0.000  0.016  0.005  0.000  0.021  0.000  0.041
  2  0.000  0.054  0.041  0.013  0.000  0.000  0.000  0.000  0.000  0.108
  3  0.000  0.054  0.041  0.013  0.000  0.000  0.000  0.000  0.000  0.108
  4  0.000  0.000  0.000  0.000  0.000  0.000  0.000  0.000  0.000  0.000
tot  0.000  0.108  0.082  0.026  0.016  0.005  0.000  0.021  0.000  0.258
ion      s     py     pz     px    dxy    dyz    dz2    dxz    dx2
  1 -0.000  0.000  0.000  0.000  0.125  0.061 -0.000 -0.185 -0.000
  1  0.000  0.000 -0.000 -0.000  0.108 -0.070 -0.000 -0.038  0.000
  2 -0.000 -0.268  0.180  0.088  0.000  0.000  0.000  0.000  0.000
  2  0.000 -0.055  0.156 -0.101  0.000  0.000  0.000  0.000  0.000
  3 -0.000  0.268 -0.180 -0.088  0.000  0.000  0.000  0.000  0.000
  3  0.000  0.055 -0.156  0.101  0.000  0.000  0.000  0.000  0.000
  4  0.000  0.000 -0.000 -0.000  0.000  0.000  0.000  0.000  0.000
  4  0.000  0.000 -0.000 -0.000  0.000  0.000  0.000  0.000  0.000
 
band   8 # energy    6.22240208 # occ.  0.00000000
 
ion      s     py     pz     px    dxy    dyz    dz2    dxz    dx2    tot
  1  0.000  0.000  0.000  0.000  0.014  0.014  0.000  0.014  0.000  0.041
  2  0.000  0.036  0.036  0.036  0.000  0.000  0.000  0.000  0.000  0.108
  3  0.000  0.036  0.036  0.036  0.000  0.000  0.000  0.000  0.000  0.108
  4  0.000  0.000  0.000  0.000  0.000  0.000  0.000  0.000  0.000  0.000
tot  0.000  0.072  0.072  0.072  0.014  0.014  0.000  0.014  0.000  0.258
ion      s     py     pz     px    dxy    dyz    dz2    dxz    dx2
  1  0.000 -0.000 -0.000 -0.000  0.152  0.152 -0.000  0.152 -0.000
  1  0.000 -0.000  0.000  0.000  0.028  0.028 -0.000  0.028  0.000
  2 -0.000  0.220  0.220  0.220  0.000  0.000  0.000  0.000  0.000
  2 -0.000  0.040  0.040  0.040  0.000  0.000  0.000  0.000  0.000
  3 -0.000 -0.220 -0.220 -0.220  0.000  0.000  0.000  0.000  0.000
  3 -0.000 -0.040 -0.040 -0.040  0.000  0.000  0.000  0.000  0.000
  4 -0.000  0.000 -0.000 -0.000  0.000  0.000  0.000  0.000  0.000
  4 -0.000 -0.000  0.000  0.000  0.000  0.000  0.000  0.000  0.000
 
band   9 # energy    9.63959253 # occ.  0.00000000
 
ion      s     py     pz     px    dxy    dyz    dz2    dxz    dx2    tot
  1  0.000  0.001  0.001  0.004  0.000  0.000  0.000  0.000  0.000  0.006
  2  0.000  0.019  0.014  0.060  0.000  0.000  0.000  0.000  0.000  0.093
  3  0.000  0.019  0.014  0.060  0.000  0.000  0.000  0.000  0.000  0.093
  4  0.000  0.028  0.021  0.090  0.000  0.000  0.000  0.000  0.000  0.140
tot  0.000  0.067  0.049  0.215  0.000  0.000  0.000  0.000  0.000  0.331
ion      s     py     pz     px    dxy    dyz    dz2    dxz    dx2
  1 -0.000  0.018  0.009 -0.026  0.000  0.000 -0.000  0.000  0.000
  1 -0.000  0.009  0.015 -0.024  0.000 -0.000  0.000  0.000 -0.000
  2 -0.000 -0.142 -0.070  0.212  0.000  0.000  0.000  0.000  0.000
  2  0.000 -0.076 -0.119  0.195  0.000  0.000  0.000  0.000  0.000
  3 -0.000 -0.142 -0.070  0.212  0.000  0.000  0.000  0.000  0.000
  3  0.000 -0.076 -0.119  0.195  0.000  0.000  0.000  0.000  0.000
  4 -0.000  0.186  0.091 -0.278  0.000  0.000  0.000  0.000  0.000
  4  0.000  0.099  0.156 -0.255  0.000  0.000  0.000  0.000  0.000
 
band  10 # energy    9.63959253 # occ.  0.00000000
 
ion      s     py     pz     px    dxy    dyz    dz2    dxz    dx2    tot
  1  0.000  0.003  0.003  0.000  0.000  0.000  0.000  0.000  0.000  0.006
  2  0.000  0.043  0.048  0.002  0.000  0.000  0.000  0.000  0.000  0.093
  3  0.000  0.043  0.048  0.002  0.000  0.000  0.000  0.000  0.000  0.093
  4  0.000  0.065  0.072  0.003  0.000  0.000  0.000  0.000  0.000  0.140
tot  0.000  0.154  0.171  0.006  0.000  0.000  0.000  0.000  0.000  0.331
ion      s     py     pz     px    dxy    dyz    dz2    dxz    dx2
  1 -0.000  0.022 -0.018 -0.003  0.000  0.000 -0.000  0.000 -0.000
  1 -0.000  0.021 -0.026  0.005 -0.000 -0.000  0.000 -0.000  0.000
  2 -0.000 -0.176  0.149  0.027  0.000  0.000  0.000  0.000  0.000
  2  0.000 -0.169  0.210 -0.041  0.000  0.000  0.000  0.000  0.000
  3 -0.000 -0.176  0.149  0.027  0.000  0.000  0.000  0.000  0.000
  3  0.000 -0.169  0.210 -0.041  0.000  0.000  0.000  0.000  0.000
  4  0.000  0.229 -0.195 -0.035  0.000  0.000  0.000  0.000  0.000
  4 -0.000  0.221 -0.275  0.054  0.000  0.000  0.000  0.000  0.000
 
band  11 # energy    9.63959923 # occ.  0.00000000
 
ion      s     py     pz     px    dxy    dyz    dz2    dxz    dx2    tot
  1  0.000  0.002  0.002  0.002  0.000  0.000  0.000  0.000  0.000  0.006
  2  0.000  0.031  0.031  0.031  0.000  0.000  0.000  0.000  0.000  0.093
  3  0.000  0.031  0.031  0.031  0.000  0.000  0.000  0.000  0.000  0.093
  4  0.000  0.047  0.047  0.047  0.000  0.000  0.000  0.000  0.000  0.140
tot  0.000  0.110  0.110  0.110  0.000  0.000  0.000  0.000  0.000  0.331
ion      s     py     pz     px    dxy    dyz    dz2    dxz    dx2
  1  0.000  0.014  0.014  0.014 -0.000  0.000  0.000  0.000  0.000
  1 -0.000 -0.021 -0.021 -0.021 -0.000  0.000  0.000 -0.000 -0.000
  2  0.000 -0.116 -0.116 -0.116  0.000  0.000  0.000  0.000  0.000
  2 -0.000  0.171  0.171  0.171  0.000  0.000  0.000  0.000  0.000
  3 -0.000 -0.116 -0.116 -0.116  0.000  0.000  0.000  0.000  0.000
  3  0.000  0.171  0.171  0.171  0.000  0.000  0.000  0.000  0.000
  4 -0.000  0.152  0.152  0.152  0.000  0.000  0.000  0.000  0.000
  4  0.000 -0.224 -0.224 -0.224  0.000  0.000  0.000  0.000  0.000
 
band  12 # energy   10.04299463 # occ.  0.00000000
 
ion      s     py     pz     px    dxy    dyz    dz2    dxz    dx2    tot
  1  0.000  0.000  0.000  0.000  0.000  0.000  0.048  0.000  0.057  0.105
  2  0.000  0.000  0.000  0.000  0.000  0.000  0.000  0.000  0.000  0.000
  3  0.000  0.000  0.000  0.000  0.000  0.000  0.000  0.000  0.000  0.000
  4  0.000  0.000  0.000  0.000  0.000  0.000  0.000  0.000  0.000  0.000
tot  0.000  0.000  0.000  0.000  0.000  0.000  0.048  0.000  0.057  0.105
ion      s     py     pz     px    dxy    dyz    dz2    dxz    dx2
  1  0.000 -0.000 -0.000 -0.000  0.000 -0.000  0.284  0.000 -0.220
  1 -0.000  0.000  0.000  0.000 -0.000  0.000 -0.045 -0.000  0.224
  2 -0.000  0.000  0.000 -0.000  0.000  0.000  0.000  0.000  0.000
  2 -0.000 -0.000 -0.000  0.000  0.000  0.000  0.000  0.000  0.000
  3 -0.000 -0.000 -0.000  0.000  0.000  0.000  0.000  0.000  0.000
  3 -0.000  0.000  0.000 -0.000  0.000  0.000  0.000  0.000  0.000
  4 -0.000 -0.000  0.000  0.000  0.000  0.000  0.000  0.000  0.000
  4 -0.000 -0.000  0.000 -0.000  0.000  0.000  0.000  0.000  0.000
 
band  13 # energy   10.04299463 # occ.  0.00000000
 
ion      s     py     pz     px    dxy    dyz    dz2    dxz    dx2    tot
  1  0.000  0.000  0.000  0.000  0.000  0.000  0.057  0.000  0.048  0.105
  2  0.000  0.000  0.000  0.000  0.000  0.000  0.000  0.000  0.000  0.000
  3  0.000  0.000  0.000  0.000  0.000  0.000  0.000  0.000  0.000  0.000
  4  0.000  0.000  0.000  0.000  0.000  0.000  0.000  0.000  0.000  0.000
tot  0.000  0.000  0.000  0.000  0.000  0.000  0.057  0.000  0.048  0.105
ion      s     py     pz     px    dxy    dyz    dz2    dxz    dx2
  1 -0.000  0.000  0.000  0.000 -0.000  0.000 -0.233  0.000 -0.056
  1  0.000 -0.000 -0.000 -0.000  0.000  0.000  0.211 -0.000  0.282
  2 -0.000  0.000 -0.000  0.000  0.000  0.000  0.000  0.000  0.000
  2  0.000 -0.000  0.000  0.000  0.000  0.000  0.000  0.000  0.000
  3 -0.000 -0.000  0.000 -0.000  0.000  0.000  0.000  0.000  0.000
  3  0.000  0.000 -0.000 -0.000  0.000  0.000  0.000  0.000  0.000
  4 -0.000  0.000 -0.000 -0.000  0.000  0.000  0.000  0.000  0.000
  4 -0.000  0.000  0.000  0.000  0.000  0.000  0.000  0.000  0.000
 
band  14 # energy   11.58775627 # occ.  0.00000000
 
ion      s     py     pz     px    dxy    dyz    dz2    dxz    dx2    tot
  1  0.000  0.000  0.000  0.000  0.000  0.000  0.000  0.000  0.000  0.000
  2  0.219  0.000  0.000  0.000  0.000  0.000  0.000  0.000  0.000  0.219
  3  0.219  0.000  0.000  0.000  0.000  0.000  0.000  0.000  0.000  0.219
  4  0.000  0.000  0.000  0.000  0.000  0.000  0.000  0.000  0.000  0.000
tot  0.438  0.000  0.000  0.000  0.000  0.000  0.000  0.000  0.000  0.438
ion      s     py     pz     px    dxy    dyz    dz2    dxz    dx2
  1 -0.000  0.000  0.000  0.000 -0.000  0.000  0.000  0.000  0.000
  1 -0.000 -0.000 -0.000 -0.000 -0.000  0.000  0.000 -0.000 -0.000
  2 -0.653 -0.000 -0.000 -0.000  0.000  0.000  0.000  0.000  0.000
  2  1.208  0.000  0.000  0.000  0.000  0.000  0.000  0.000  0.000
  3  0.653 -0.000 -0.000 -0.000  0.000  0.000  0.000  0.000  0.000
  3 -1.208  0.000  0.000  0.000  0.000  0.000  0.000  0.000  0.000
  4 -0.000  0.000  0.000  0.000  0.000  0.000  0.000  0.000  0.000
  4 -0.000 -0.000 -0.000 -0.000  0.000  0.000  0.000  0.000  0.000
 
band  15 # energy   16.72504844 # occ.  0.00000000
 
ion      s     py     pz     px    dxy    dyz    dz2    dxz    dx2    tot
  1  0.025  0.000  0.000  0.000  0.000  0.000  0.000  0.000  0.000  0.025
  2  0.120  0.000  0.000  0.000  0.000  0.000  0.000  0.000  0.000  0.120
  3  0.120  0.000  0.000  0.000  0.000  0.000  0.000  0.000  0.000  0.120
  4  0.384  0.000  0.000  0.000  0.000  0.000  0.000  0.000  0.000  0.384
tot  0.648  0.000  0.000  0.000  0.000  0.000  0.000  0.000  0.000  0.648
ion      s     py     pz     px    dxy    dyz    dz2    dxz    dx2
  1 -0.038 -0.000  0.000  0.000 -0.000 -0.000  0.000 -0.000  0.000
  1  0.024 -0.000 -0.000 -0.000  0.000  0.000  0.000  0.000 -0.000
  2 -0.831 -0.000 -0.000 -0.000  0.000  0.000  0.000  0.000  0.000
  2  0.527  0.000  0.000  0.000  0.000  0.000  0.000  0.000  0.000
  3 -0.831  0.000  0.000  0.000  0.000  0.000  0.000  0.000  0.000
  3  0.527 -0.000 -0.000 -0.000  0.000  0.000  0.000  0.000  0.000
  4  1.613  0.000  0.000  0.000  0.000  0.000  0.000  0.000  0.000
  4 -1.022 -0.000 -0.000 -0.000  0.000  0.000  0.000  0.000  0.000
 
band  16 # energy   19.02842644 # occ.  0.00000000
 
ion      s     py     pz     px    dxy    dyz    dz2    dxz    dx2    tot
  1  0.000  0.100  0.054  0.024  0.000  0.000  0.000  0.000  0.000  0.178
  2  0.000  0.104  0.057  0.025  0.000  0.000  0.000  0.000  0.000  0.185
  3  0.000  0.104  0.057  0.025  0.000  0.000  0.000  0.000  0.000  0.185
  4  0.000  0.151  0.083  0.037  0.000  0.000  0.000  0.000  0.000  0.270
tot  0.000  0.458  0.250  0.111  0.000  0.000  0.000  0.000  0.000  0.819
ion      s     py     pz     px    dxy    dyz    dz2    dxz    dx2
  1 -0.000 -0.147  0.027  0.041 -0.000  0.000 -0.000  0.000  0.000
  1  0.000 -0.066  0.116  0.068 -0.000  0.000  0.000 -0.000  0.000
  2 -0.000  0.346 -0.064 -0.097  0.000  0.000  0.000  0.000  0.000
  2  0.000  0.154 -0.272 -0.159  0.000  0.000  0.000  0.000  0.000
  3 -0.000  0.346 -0.064 -0.097  0.000  0.000  0.000  0.000  0.000
  3  0.000  0.154 -0.272 -0.159  0.000  0.000  0.000  0.000  0.000
  4  0.000  0.445 -0.083 -0.125  0.000  0.000  0.000  0.000  0.000
  4 -0.000  0.198 -0.351 -0.205  0.000  0.000  0.000  0.000  0.000
 

 k-point    2 :    0.10000000 0.00000000 0.00000000     weight = 0.00800000

band   1 # energy   -5.41325317 # occ.  2.00000000
 
ion      s     py     pz     px    dxy    dyz    dz2    dxz    dx2    tot
  1  0.470  0.000  0.000  0.000  0.000  0.000  0.000  0.000  0.000  0.471
  2  0.015  0.000  0.000  0.000  0.000  0.000  0.000  0.000  0.000  0.016
  3  0.015  0.000  0.000  0.000  0.000  0.000  0.000  0.000  0.000  0.016
  4  0.010  0.000  0.000  0.000  0.000  0.000  0.000  0.000  0.000  0.010
tot  0.511  0.000  0.000  0.000  0.000  0.000  0.000  0.000  0.000  0.512
ion      s     py     pz     px    dxy    dyz    dz2    dxz    dx2
  1  0.954  0.000  0.000 -0.000  0.000 -0.000 -0.000  0.000  0.000
  1 -0.010  0.023  0.023 -0.023 -0.000  0.000  0.000 -0.000 -0.000
  2  0.403  0.002  0.002 -0.002  0.000  0.000  0.000  0.000  0.000
  2 -0.004  0.014  0.014 -0.014  0.000  0.000  0.000  0.000  0.000
  3  0.403 -0.001 -0.001  0.001  0.000  0.000  0.000  0.000  0.000
  3 -0.005  0.014  0.014 -0.014  0.000  0.000  0.000  0.000  0.000
  4  0.302  0.000  0.000 -0.000  0.000  0.000  0.000  0.000  0.000
  4 -0.003  0.009  0.009 -0.009  0.000  0.000  0.000  0.000  0.000
 
band   2 # energy    2.86465304 # occ.  2.00000000
 
ion      s     py     pz     px    dxy    dyz    dz2    dxz    dx2    tot
  1  0.038  0.092  0.092  0.092  0.000  0.000  0.000  0.000  0.000  0.316
  2  0.010  0.004  0.004  0.004  0.000  0.000  0.000  0.000  0.000  0.022
  3  0.010  0.004  0.004  0.004  0.000  0.000  0.000  0.000  0.000  0.022
  4  0.019  0.002  0.002  0.002  0.000  0.000  0.000  0.000  0.000  0.025
tot  0.076  0.103  0.103  0.103  0.000  0.000  0.000  0.000  0.000  0.385
ion      s     py     pz     px    dxy    dyz    dz2    dxz    dx2
  1 -0.006  0.604  0.604 -0.604 -0.001  0.001  0.000 -0.001 -0.000
  1  0.171  0.022  0.022 -0.022  0.023 -0.023 -0.000  0.023  0.000
  2 -0.056 -0.039 -0.039  0.039  0.000  0.000  0.000  0.000  0.000
  2 -0.301  0.065  0.065 -0.065  0.000  0.000  0.000  0.000  0.000
  3  0.078 -0.034 -0.034  0.034  0.000  0.000  0.000  0.000  0.000
  3 -0.296 -0.067 -0.067  0.067  0.000  0.000  0.000  0.000  0.000
  4  0.015 -0.055 -0.055  0.055  0.000  0.000  0.000  0.000  0.000
  4 -0.412 -0.002 -0.002  0.002  0.000  0.000  0.000  0.000  0.000
 
band   3 # energy    3.47085744 # occ.  2.00000000
 
ion      s     py     pz     px    dxy    dyz    dz2    dxz    dx2    tot
  1  0.000  0.182  0.182  0.000  0.000  0.000  0.000  0.000  0.000  0.364
  2  0.000  0.006  0.006  0.000  0.000  0.000  0.000  0.000  0.000  0.012
  3  0.000  0.006  0.006  0.000  0.000  0.000  0.000  0.000  0.000  0.012
  4  0.000  0.004  0.004  0.000  0.000  0.000  0.000  0.000  0.000  0.007
tot  0.000  0.197  0.197  0.000  0.000  0.000  0.000  0.000  0.000  0.395
ion      s     py     pz     px    dxy    dyz    dz2    dxz    dx2
  1  0.000  0.100 -0.100 -0.000  0.020  0.000  0.004 -0.020  0.002
  1  0.000 -0.803  0.803  0.000  0.003  0.000  0.000 -0.003  0.000
  2  0.000 -0.062  0.062  0.000  0.000  0.000  0.000  0.000  0.000
  2  0.000  0.067 -0.067 -0.000  0.000  0.000  0.000  0.000  0.000
  3  0.000  0.044 -0.044 -0.000  0.000  0.000  0.000  0.000  0.000
  3 -0.000  0.080 -0.080 -0.000  0.000  0.000  0.000  0.000  0.000
  4  0.000 -0.009  0.009  0.000  0.000  0.000  0.000  0.000  0.000
  4 -0.000  0.074 -0.074 -0.000  0.000  0.000  0.000  0.000  0.000
 
band   4 # energy    3.47085862 # occ.  2.00000000
 
ion      s     py     pz     px    dxy    dyz    dz2    dxz    dx2    tot
  1  0.000  0.061  0.061  0.242  0.000  0.000  0.000  0.000  0.000  0.364
  2  0.000  0.002  0.002  0.008  0.000  0.000  0.000  0.000  0.000  0.012
  3  0.000  0.002  0.002  0.008  0.000  0.000  0.000  0.000  0.000  0.012
  4  0.000  0.001  0.001  0.005  0.000  0.000  0.000  0.000  0.000  0.007
tot  0.000  0.066  0.066  0.263  0.000  0.000  0.000  0.000  0.000  0.395
ion      s     py     pz     px    dxy    dyz    dz2    dxz    dx2
  1  0.000 -0.079 -0.079 -0.158 -0.012 -0.023 -0.002 -0.012  0.004
  1 -0.000 -0.461 -0.461 -0.922  0.002  0.004  0.000  0.002 -0.001
  2 -0.000 -0.023 -0.023 -0.047  0.000  0.000  0.000  0.000  0.000
  2 -0.000  0.047  0.047  0.095  0.000  0.000  0.000  0.000  0.000
  3 -0.000  0.038  0.038  0.076  0.000  0.000  0.000  0.000  0.000
  3  0.000  0.037  0.037  0.074  0.000  0.000  0.000  0.000  0.000
  4 -0.000  0.007  0.007  0.015  0.000  0.000  0.000  0.000  0.000
  4  0.000  0.042  0.042  0.085  0.000  0.000  0.000  0.000  0.000
 
band   5 # energy    5.59812251 # occ.  0.00000000
 
ion      s     py     pz     px    dxy    dyz    dz2    dxz    dx2    tot
  1  0.206  0.010  0.010  0.010  0.002  0.002  0.000  0.002  0.000  0.241
  2  0.040  0.007  0.007  0.007  0.000  0.000  0.000  0.000  0.000  0.060
  3  0.040  0.007  0.007  0.007  0.000  0.000  0.000  0.000  0.000  0.060
  4  0.087  0.002  0.002  0.002  0.000  0.000  0.000  0.000  0.000  0.092
tot  0.372  0.025  0.025  0.025  0.002  0.002  0.000  0.002  0.000  0.453
ion      s     py     pz     px    dxy    dyz    dz2    dxz    dx2
  1 -0.185  0.129  0.129 -0.129  0.035 -0.035 -0.000  0.035  0.000
  1 -0.256 -0.093 -0.093  0.093  0.048 -0.048 -0.000  0.048  0.000
  2  0.260  0.031  0.031 -0.031  0.000  0.000  0.000  0.000  0.000
  2  0.557  0.091  0.091 -0.091  0.000  0.000  0.000  0.000  0.000
  3  0.447 -0.077 -0.077  0.077  0.000  0.000  0.000  0.000  0.000
  3  0.422 -0.059 -0.059  0.059  0.000  0.000  0.000  0.000  0.000
  4  0.512 -0.042 -0.042  0.042  0.000  0.000  0.000  0.000  0.000
  4  0.709  0.031  0.031 -0.031  0.000  0.000  0.000  0.000  0.000
 
band   6 # energy    6.39882660 # occ.  0.00000000
 
ion      s     py     pz     px    dxy    dyz    dz2    dxz    dx2    tot
  1  0.000  0.007  0.007  0.000  0.021  0.000  0.000  0.021  0.000  0.056
  2  0.000  0.052  0.052  0.000  0.000  0.000  0.000  0.000  0.000  0.105
  3  0.000  0.052  0.052  0.000  0.000  0.000  0.000  0.000  0.000  0.105
  4  0.000  0.000  0.000  0.000  0.000  0.000  0.000  0.000  0.000  0.001
tot  0.000  0.113  0.113  0.000  0.021  0.000  0.000  0.021  0.000  0.267
ion      s     py     pz     px    dxy    dyz    dz2    dxz    dx2
  1  0.000  0.041 -0.041  0.000 -0.179  0.000  0.015  0.179  0.008
  1  0.000 -0.122  0.122 -0.000 -0.060  0.000  0.005  0.060  0.003
  2  0.000  0.241 -0.241  0.000  0.000  0.000  0.000  0.000  0.000
  2  0.000  0.121 -0.121  0.000  0.000  0.000  0.000  0.000  0.000
  3  0.000 -0.265  0.265 -0.000  0.000  0.000  0.000  0.000  0.000
  3 -0.000 -0.048  0.048  0.000  0.000  0.000  0.000  0.000  0.000
  4  0.000  0.007 -0.007  0.000  0.000  0.000  0.000  0.000  0.000
  4 -0.000 -0.020  0.020 -0.000  0.000  0.000  0.000  0.000  0.000
 
band   7 # energy    6.39882939 # occ.  0.00000000
 
ion      s     py     pz     px    dxy    dyz    dz2    dxz    dx2    tot
  1  0.000  0.002  0.002  0.010  0.007  0.027  0.000  0.007  0.000  0.056
  2  0.000  0.017  0.017  0.070  0.000  0.000  0.000  0.000  0.000  0.105
  3  0.000  0.017  0.017  0.070  0.000  0.000  0.000  0.000  0.000  0.105
  4  0.000  0.000  0.000  0.000  0.000  0.000  0.000  0.000  0.000  0.001
tot  0.000  0.038  0.038  0.150  0.007  0.027  0.000  0.007  0.000  0.267
ion      s     py     pz     px    dxy    dyz    dz2    dxz    dx2
  1  0.000 -0.020 -0.020 -0.039 -0.105 -0.210  0.009 -0.105 -0.015
  1  0.000  0.072  0.072  0.143 -0.029 -0.058  0.002 -0.029 -0.004
  2  0.000 -0.143 -0.143 -0.285  0.000  0.000  0.000  0.000  0.000
  2  0.000 -0.062 -0.062 -0.124  0.000  0.000  0.000  0.000  0.000
  3  0.000  0.154  0.154  0.309  0.000  0.000  0.000  0.000  0.000
  3 -0.000  0.019  0.019  0.039  0.000  0.000  0.000  0.000  0.000
  4 -0.000 -0.003 -0.003 -0.006  0.000  0.000  0.000  0.000  0.000
  4 -0.000  0.012  0.012  0.024  0.000  0.000  0.000  0.000  0.000
 
band   8 # energy    6.69064122 # occ.  0.00000000
 
ion      s     py     pz     px    dxy    dyz    dz2    dxz    dx2    tot
  1  0.022  0.027  0.027  0.027  0.012  0.012  0.000  0.012  0.000  0.137
  2  0.009  0.026  0.026  0.026  0.000  0.000  0.000  0.000  0.000  0.087
  3  0.009  0.026  0.026  0.026  0.000  0.000  0.000  0.000  0.000  0.087
  4  0.014  0.000  0.000  0.000  0.000  0.000  0.000  0.000  0.000  0.015
tot  0.056  0.079  0.079  0.079  0.012  0.012  0.000  0.012  0.000  0.327
ion      s     py     pz     px    dxy    dyz    dz2    dxz    dx2
  1  0.056 -0.192 -0.192  0.192  0.087 -0.087 -0.000  0.087  0.000
  1  0.072  0.149  0.149 -0.149  0.112 -0.112 -0.000  0.112  0.000
  2 -0.296  0.160  0.160 -0.160  0.000  0.000  0.000  0.000  0.000
  2  0.027  0.101  0.101 -0.101  0.000  0.000  0.000  0.000  0.000
  3  0.100 -0.058 -0.058  0.058  0.000  0.000  0.000  0.000  0.000
  3 -0.280 -0.180 -0.180  0.180  0.000  0.000  0.000  0.000  0.000
  4 -0.221 -0.008 -0.008  0.008  0.000  0.000  0.000  0.000  0.000
  4 -0.285  0.006  0.006 -0.006  0.000  0.000  0.000  0.000  0.000
 
band   9 # energy    8.94543932 # occ.  0.00000000
 
ion      s     py     pz     px    dxy    dyz    dz2    dxz    dx2    tot
  1  0.000  0.000  0.000  0.000  0.000  0.000  0.028  0.000  0.009  0.038
  2  0.000  0.027  0.027  0.000  0.000  0.000  0.000  0.000  0.000  0.054
  3  0.000  0.027  0.027  0.000  0.000  0.000  0.000  0.000  0.000  0.054
  4  0.000  0.045  0.045  0.000  0.000  0.000  0.000  0.000  0.000  0.091
tot  0.000  0.099  0.099  0.000  0.000  0.000  0.028  0.000  0.009  0.236
ion      s     py     pz     px    dxy    dyz    dz2    dxz    dx2
  1 -0.000 -0.001  0.001 -0.000 -0.017 -0.000 -0.220  0.017 -0.127
  1 -0.000 -0.010  0.010  0.000  0.001 -0.000  0.013 -0.001  0.008
  2 -0.000  0.015 -0.015 -0.000  0.000  0.000  0.000  0.000  0.000
  2 -0.000 -0.192  0.192  0.000  0.000  0.000  0.000  0.000  0.000
  3 -0.000 -0.039  0.039 -0.000  0.000  0.000  0.000  0.000  0.000
  3  0.000 -0.189  0.189  0.000  0.000  0.000  0.000  0.000  0.000
  4 -0.000  0.016 -0.016  0.000  0.000  0.000  0.000  0.000  0.000
  4 -0.000  0.267 -0.267 -0.000  0.000  0.000  0.000  0.000  0.000
 
band  10 # energy    8.94544269 # occ.  0.00000000
 
ion      s     py     pz     px    dxy    dyz    dz2    dxz    dx2    tot
  1  0.000  0.000  0.000  0.000  0.000  0.000  0.009  0.000  0.028  0.038
  2  0.000  0.009  0.009  0.036  0.000  0.000  0.000  0.000  0.000  0.054
  3  0.000  0.009  0.009  0.036  0.000  0.000  0.000  0.000  0.000  0.054
  4  0.000  0.015  0.015  0.061  0.000  0.000  0.000  0.000  0.000  0.091
tot  0.000  0.033  0.033  0.132  0.000  0.000  0.009  0.000  0.028  0.236
ion      s     py     pz     px    dxy    dyz    dz2    dxz    dx2
  1 -0.000  0.002  0.002  0.004 -0.009 -0.018 -0.119 -0.009  0.207
  1  0.000  0.005  0.005  0.011  0.003  0.007  0.044  0.003 -0.076
  2  0.000  0.023  0.023  0.047  0.000  0.000  0.000  0.000  0.000
  2 -0.000  0.109  0.109  0.218  0.000  0.000  0.000  0.000  0.000
  3  0.000  0.053  0.053  0.105  0.000  0.000  0.000  0.000  0.000
  3  0.000  0.098  0.098  0.196  0.000  0.000  0.000  0.000  0.000
  4 -0.000 -0.053 -0.053 -0.107  0.000  0.000  0.000  0.000  0.000
  4  0.000 -0.145 -0.145 -0.290  0.000  0.000  0.000  0.000  0.000
 
band  11 # energy    9.67653205 # occ.  0.00000000
 
ion      s     py     pz     px    dxy    dyz    dz2    dxz    dx2    tot
  1  0.002  0.001  0.001  0.001  0.000  0.000  0.000  0.000  0.000  0.006
  2  0.008  0.027  0.027  0.027  0.000  0.000  0.000  0.000  0.000  0.090
  3  0.008  0.027  0.027  0.027  0.000  0.000  0.000  0.000  0.000  0.090
  4  0.009  0.042  0.042  0.042  0.000  0.000  0.000  0.000  0.000  0.135
tot  0.027  0.098  0.098  0.098  0.000  0.000  0.000  0.000  0.000  0.320
ion      s     py     pz     px    dxy    dyz    dz2    dxz    dx2
  1  0.001  0.013  0.013 -0.013  0.001 -0.001 -0.000  0.001  0.000
  1  0.015 -0.001 -0.001  0.001  0.017 -0.017 -0.000  0.017  0.000
  2 -0.123 -0.189 -0.189  0.189  0.000  0.000  0.000  0.000  0.000
  2 -0.237  0.043  0.043 -0.043  0.000  0.000  0.000  0.000  0.000
  3  0.086 -0.193 -0.193  0.193  0.000  0.000  0.000  0.000  0.000
  3 -0.253 -0.015 -0.015  0.015  0.000  0.000  0.000  0.000  0.000
  4  0.020  0.257  0.257 -0.257  0.000  0.000  0.000  0.000  0.000