<?xml version="1.0" encoding="ISO-8859-1"?>
<modeling>
 <generator>
  <i name="program" type="string">vasp </i>
  <i name="version" type="string">5.4.1  </i>
  <i name="subversion" type="string">05Feb16 (build Oct 05 2016 16:10:00) complex                          parallel </i>
  <i name="platform" type="string">IFC91_ompi </i>
  <i name="date" type="string">2017 11 09 </i>
  <i name="time" type="string">09:36:59 </i>
 </generator>
 <incar>
  <i type="string" name="PREC">a</i>
  <i type="string" name="ALGO"> N</i>
  <i type="int" name="NELM">   100</i>
  <i type="int" name="NELMIN">     4</i>
  <i type="int" name="IBRION">     8</i>
  <i name="EDIFF">      0.00000100</i>
  <i name="EDIFFG">     -0.00500000</i>
  <i type="int" name="NSW">     1</i>
  <i type="int" name="ISIF">     3</i>
  <i type="logical" name="LREAL"> F  </i>
  <i type="int" name="ISMEAR">     0</i>
  <i name="SIGMA">      0.05000000</i>
  <i type="logical" name="LWAVE"> F  </i>
  <i type="logical" name="LCHARG"> T  </i>
  <i type="logical" name="LORBIT"> F  </i>
  <i type="logical" name="LASPH"> T  </i>
  <v type="int" name="KPOINT_BSE">    -1     0     0     0</v>
  <i type="int" name="NELM">   100</i>
  <i type="string" name="GGA"> PS</i>
  <i type="logical" name="LEPSILON"> T  </i>
  <i type="logical" name="LRPA"> F  </i>
  <i type="logical" name="LASPH"> T  </i>
 </incar>
 <kpoints>
  <generation param="Gamma">
   <v type="int" name="divisions">      10       10       10 </v>
   <v name="usershift">      0.00000000       0.00000000       0.00000000 </v>
   <v name="genvec1">      0.10000000       0.00000000       0.00000000 </v>
   <v name="genvec2">      0.00000000       0.10000000       0.00000000 </v>
   <v name="genvec3">      0.00000000       0.00000000       0.10000000 </v>
   <v name="shift">      0.00000000       0.00000000       0.00000000 </v>
  </generation>
  <varray name="kpointlist" >
   <v>       0.00000000       0.00000000       0.00000000 </v>
   <v>       0.10000000       0.00000000       0.00000000 </v>
   <v>       0.20000000       0.00000000       0.00000000 </v>
   <v>       0.30000000       0.00000000       0.00000000 </v>
   <v>       0.40000000       0.00000000       0.00000000 </v>
   <v>       0.50000000       0.00000000       0.00000000 </v>
   <v>       0.10000000       0.10000000       0.00000000 </v>
   <v>       0.20000000       0.10000000       0.00000000 </v>
   <v>       0.30000000       0.10000000       0.00000000 </v>
   <v>       0.40000000       0.10000000       0.00000000 </v>
   <v>       0.50000000       0.10000000       0.00000000 </v>
   <v>      -0.40000000       0.10000000       0.00000000 </v>
   <v>      -0.30000000       0.10000000       0.00000000 </v>
   <v>      -0.20000000       0.10000000       0.00000000 </v>
   <v>      -0.10000000       0.10000000       0.00000000 </v>
   <v>       0.20000000       0.20000000       0.00000000 </v>
   <v>       0.30000000       0.20000000       0.00000000 </v>
   <v>       0.40000000       0.20000000       0.00000000 </v>
   <v>       0.50000000       0.20000000       0.00000000 </v>
   <v>      -0.40000000       0.20000000       0.00000000 </v>
   <v>      -0.30000000       0.20000000       0.00000000 </v>
   <v>      -0.20000000       0.20000000       0.00000000 </v>
   <v>       0.30000000       0.30000000       0.00000000 </v>
   <v>       0.40000000       0.30000000       0.00000000 </v>
   <v>       0.50000000       0.30000000       0.00000000 </v>
   <v>      -0.40000000       0.30000000       0.00000000 </v>
   <v>      -0.30000000       0.30000000       0.00000000 </v>
   <v>       0.40000000       0.40000000       0.00000000 </v>
   <v>       0.50000000       0.40000000       0.00000000 </v>
   <v>      -0.40000000       0.40000000       0.00000000 </v>
   <v>       0.50000000       0.50000000       0.00000000 </v>
   <v>       0.30000000       0.20000000       0.10000000 </v>
   <v>       0.40000000       0.20000000       0.10000000 </v>
   <v>       0.50000000       0.20000000       0.10000000 </v>
   <v>      -0.40000000       0.20000000       0.10000000 </v>
   <v>       0.40000000       0.30000000       0.10000000 </v>
   <v>       0.50000000       0.30000000       0.10000000 </v>
   <v>      -0.40000000       0.30000000       0.10000000 </v>
   <v>      -0.30000000       0.30000000       0.10000000 </v>
   <v>      -0.20000000       0.30000000       0.10000000 </v>
   <v>       0.50000000       0.40000000       0.10000000 </v>
   <v>      -0.40000000       0.40000000       0.10000000 </v>
   <v>      -0.30000000       0.40000000       0.10000000 </v>
   <v>      -0.40000000       0.50000000       0.10000000 </v>
   <v>      -0.40000000       0.40000000       0.20000000 </v>
   <v>      -0.30000000       0.40000000       0.20000000 </v>
   <v>      -0.30000000       0.50000000       0.20000000 </v>
  </varray>
  <varray name="weights" >
   <v>       0.00100000 </v>
   <v>       0.00800000 </v>
   <v>       0.00800000 </v>
   <v>       0.00800000 </v>
   <v>       0.00800000 </v>
   <v>       0.00400000 </v>
   <v>       0.00600000 </v>
   <v>       0.02400000 </v>
   <v>       0.02400000 </v>
   <v>       0.02400000 </v>
   <v>       0.02400000 </v>
   <v>       0.02400000 </v>
   <v>       0.02400000 </v>
   <v>       0.02400000 </v>
   <v>       0.01200000 </v>
   <v>       0.00600000 </v>
   <v>       0.02400000 </v>
   <v>       0.02400000 </v>
   <v>       0.02400000 </v>
   <v>       0.02400000 </v>
   <v>       0.02400000 </v>
   <v>       0.01200000 </v>
   <v>       0.00600000 </v>
   <v>       0.02400000 </v>
   <v>       0.02400000 </v>
   <v>       0.02400000 </v>
   <v>       0.01200000 </v>
   <v>       0.00600000 </v>
   <v>       0.02400000 </v>
   <v>       0.01200000 </v>
   <v>       0.00300000 </v>
   <v>       0.02400000 </v>
   <v>       0.04800000 </v>
   <v>       0.04800000 </v>
   <v>       0.02400000 </v>
   <v>       0.02400000 </v>
   <v>       0.04800000 </v>
   <v>       0.04800000 </v>
   <v>       0.04800000 </v>
   <v>       0.02400000 </v>
   <v>       0.02400000 </v>
   <v>       0.04800000 </v>
   <v>       0.02400000 </v>
   <v>       0.01200000 </v>
   <v>       0.02400000 </v>
   <v>       0.02400000 </v>
   <v>       0.01200000 </v>
  </varray>
 </kpoints>
 <parameters>
  <separator name="general" >
   <i type="string" name="SYSTEM">unknown system</i>
   <i type="logical" name="LCOMPAT"> F  </i>
  </separator>
  <separator name="electronic" >
   <i type="string" name="PREC">a</i>
   <i name="ENMAX">    172.06900000</i>
   <i name="ENAUG">    380.51300000</i>
   <i name="EDIFF">      0.00000100</i>
   <i type="int" name="IALGO">    38</i>
   <i type="int" name="IWAVPR">    11</i>
   <i type="int" name="NBANDS">    16</i>
   <i name="NELECT">      8.00000000</i>
   <i type="int" name="TURBO">     0</i>
   <i type="int" name="IRESTART">     0</i>
   <i type="int" name="NREBOOT">     0</i>
   <i type="int" name="NMIN">     0</i>
   <i name="EREF">      0.00000000</i>
   <separator name="electronic smearing" >
    <i type="int" name="ISMEAR">     0</i>
    <i name="SIGMA">      0.05000000</i>
    <i name="KSPACING">      0.50000000</i>
    <i type="logical" name="KGAMMA"> T  </i>
   </separator>
   <separator name="electronic projectors" >
    <i type="logical" name="LREAL"> F  </i>
    <v name="ROPT">      0.00000000      0.00000000      0.00000000</v>
    <i type="int" name="LMAXPAW">  -100</i>
    <i type="int" name="LMAXMIX">     2</i>
    <i type="logical" name="NLSPLINE"> F  </i>
   </separator>
   <separator name="electronic startup" >
    <i type="int" name="ISTART">     0</i>
    <i type="int" name="ICHARG">     2</i>
    <i type="int" name="INIWAV">     1</i>
   </separator>
   <separator name="electronic spin" >
    <i type="int" name="ISPIN">     1</i>
    <i type="logical" name="LNONCOLLINEAR"> F  </i>
    <v name="MAGMOM">      1.00000000      1.00000000      1.00000000      1.00000000</v>
    <i name="NUPDOWN">     -1.00000000</i>
    <i type="logical" name="LSORBIT"> F  </i>
    <v name="SAXIS">      0.00000000      0.00000000      1.00000000</v>
    <i type="logical" name="LSPIRAL"> F  </i>
    <v name="QSPIRAL">      0.00000000      0.00000000      0.00000000</v>
    <i type="logical" name="LZEROZ"> F  </i>
   </separator>
   <separator name="electronic exchange-correlation" >
    <i type="logical" name="LASPH"> T  </i>
    <i type="logical" name="LMETAGGA"> F  </i>
   </separator>
   <separator name="electronic convergence" >
    <i type="int" name="NELM">   100</i>
    <i type="int" name="NELMDL">    -5</i>
    <i type="int" name="NELMIN">     4</i>
    <i name="ENINI">    172.06900000</i>
    <separator name="electronic convergence detail" >
     <i type="logical" name="LDIAG"> T  </i>
     <i type="logical" name="LSUBROT"> F  </i>
     <i name="WEIMIN">      0.00100000</i>
     <i name="EBREAK">      0.00000002</i>
     <i name="DEPER">      0.30000000</i>
     <i type="int" name="NRMM">     4</i>
     <i name="TIME">      0.40000000</i>
    </separator>
   </separator>
   <separator name="electronic mixer" >
    <i name="AMIX">      0.40000000</i>
    <i name="BMIX">      1.00000000</i>
    <i name="AMIN">      0.10000000</i>
    <i name="AMIX_MAG">      1.60000000</i>
    <i name="BMIX_MAG">      1.00000000</i>
    <separator name="electronic mixer details" >
     <i type="int" name="IMIX">     4</i>
     <i type="logical" name="MIXFIRST"> F  </i>
     <i type="int" name="MAXMIX">   -45</i>
     <i name="WC">    100.00000000</i>
     <i type="int" name="INIMIX">     1</i>
     <i type="int" name="MIXPRE">     1</i>
     <i type="int" name="MREMOVE">     5</i>
    </separator>
   </separator>
   <separator name="electronic dipolcorrection" >
    <i type="logical" name="LDIPOL"> F  </i>
    <i type="logical" name="LMONO"> F  </i>
    <i type="int" name="IDIPOL">     0</i>
    <i name="EPSILON">      1.00000000</i>
    <v name="DIPOL">   -100.00000000   -100.00000000   -100.00000000</v>
    <i name="EFIELD">      0.00000000</i>
   </separator>
  </separator>
  <separator name="grids" >
   <i type="int" name="NGX">    24</i>
   <i type="int" name="NGY">    24</i>
   <i type="int" name="NGZ">    24</i>
   <i type="int" name="NGXF">    48</i>
   <i type="int" name="NGYF">    48</i>
   <i type="int" name="NGZF">    48</i>
   <i type="logical" name="ADDGRID"> F  </i>
  </separator>
  <separator name="ionic" >
   <i type="int" name="NSW">     1</i>
   <i type="int" name="IBRION">     8</i>
   <i type="int" name="ISIF">     3</i>
   <i name="PSTRESS">      0.00000000</i>
   <i name="EDIFFG">     -0.00500000</i>
   <i type="int" name="NFREE">     0</i>
   <i name="POTIM">      0.50000000</i>
   <i name="SMASS">     -3.00000000</i>
   <i name="SCALEE">      1.00000000</i>
  </separator>
  <separator name="ionic md" >
   <i name="TEBEG">      0.00010000</i>
   <i name="TEEND">      0.00010000</i>
   <i type="int" name="NBLOCK">     1</i>
   <i type="int" name="KBLOCK">     1</i>
   <i type="int" name="NPACO">   256</i>
   <i name="APACO">     16.00000000</i>
  </separator>
  <separator name="symmetry" >
   <i type="int" name="ISYM">     2</i>
   <i name="SYMPREC">      0.00001000</i>
  </separator>
  <separator name="dos" >
   <i type="logical" name="LORBIT"> F  </i>
   <v name="RWIGS">     -1.00000000     -1.00000000     -1.00000000</v>
   <i type="int" name="NEDOS">   301</i>
   <i name="EMIN">     10.00000000</i>
   <i name="EMAX">    -10.00000000</i>
   <i name="EFERMI">      0.00000000</i>
  </separator>
  <separator name="writing" >
   <i type="int" name="NWRITE">     2</i>
   <i type="logical" name="LWAVE"> F  </i>
   <i type="logical" name="LCHARG"> T  </i>
   <i type="logical" name="LPARD"> F  </i>
   <i type="logical" name="LVTOT"> F  </i>
   <i type="logical" name="LVHAR"> F  </i>
   <i type="logical" name="LELF"> F  </i>
   <i type="logical" name="LOPTICS"> F  </i>
   <v name="STM">      0.00000000      0.00000000      0.00000000      0.00000000      0.00000000      0.00000000      0.00000000</v>
  </separator>
  <separator name="performance" >
   <i type="int" name="NPAR">    16</i>
   <i type="int" name="NSIM">     4</i>
   <i type="int" name="NBLK">    -1</i>
   <i type="logical" name="LPLANE"> T  </i>
   <i type="logical" name="LSCALAPACK"> T  </i>
   <i type="logical" name="LSCAAWARE"> F  </i>
   <i type="logical" name="LSCALU"> F  </i>
   <i type="logical" name="LASYNC"> F  </i>
   <i type="logical" name="LORBITALREAL"> F  </i>
  </separator>
  <separator name="miscellaneous" >
   <i type="int" name="IDIOT">     3</i>
   <i type="logical" name="LMUSIC"> F  </i>
   <v name="POMASS">    121.75000000      7.01000000     22.99000000</v>
   <v name="DARWINR">      0.00000000      0.00000000      0.00000000</v>
   <v name="DARWINV">      1.00000000      1.00000000      1.00000000</v>
   <i type="logical" name="LCORR"> T  </i>
  </separator>
  <i type="logical" name="GGA_COMPAT"> T  </i>
  <i type="logical" name="LBERRY"> F  </i>
  <i type="int" name="ICORELEVEL">     0</i>
  <i type="logical" name="LDAU"> F  </i>
  <i type="int" name="I_CONSTRAINED_M">     0</i>
  <separator name="electronic exchange-correlation" >
   <i type="string" name="GGA">PS</i>
   <i type="int" name="VOSKOWN">     0</i>
   <i type="logical" name="LHFCALC"> F  </i>
   <i type="string" name="PRECFOCK"></i>
   <i type="logical" name="LSYMGRAD"> F  </i>
   <i type="logical" name="LHFONE"> F  </i>
   <i type="logical" name="LRHFCALC"> F  </i>
   <i type="logical" name="LTHOMAS"> F  </i>
   <i type="logical" name="LMODELHF"> F  </i>
   <i name="ENCUT4O">     -1.00000000</i>
   <i type="int" name="EXXOEP">     0</i>
   <i type="int" name="FOURORBIT">     0</i>
   <i name="AEXX">      0.00000000</i>
   <i name="HFALPHA">      0.00000000</i>
   <i name="MCALPHA">      0.00000000</i>
   <i name="ALDAX">      1.00000000</i>
   <i name="AGGAX">      1.00000000</i>
   <i name="ALDAC">      1.00000000</i>
   <i name="AGGAC">      1.00000000</i>
   <i type="int" name="NKREDX">     1</i>
   <i type="int" name="NKREDY">     1</i>
   <i type="int" name="NKREDZ">     1</i>
   <i type="logical" name="SHIFTRED"> F  </i>
   <i type="logical" name="ODDONLY"> F  </i>
   <i type="logical" name="EVENONLY"> F  </i>
   <i type="int" name="LMAXFOCK">     0</i>
   <i type="int" name="NMAXFOCKAE">     0</i>
   <i type="logical" name="LFOCKAEDFT"> F  </i>
   <i name="HFSCREEN">      0.00000000</i>
   <i name="HFSCREENC">      0.00000000</i>
   <i type="int" name="NBANDSGWLOW">     0</i>
  </separator>
  <separator name="vdW DFT" >
   <i type="logical" name="LUSE_VDW"> F  </i>
   <i name="Zab_VDW">     -0.84910000</i>
   <i name="PARAM1">      0.12340000</i>
   <i name="PARAM2">      1.00000000</i>
   <i name="PARAM3">      0.00000000</i>
  </separator>
  <separator name="model GW" >
   <i type="int" name="MODEL_GW">     0</i>
   <i name="MODEL_EPS0">     11.78079906</i>
   <i name="MODEL_ALPHA">      1.00000000</i>
  </separator>
  <separator name="linear response parameters" >
   <i type="logical" name="LEPSILON"> T  </i>
   <i type="logical" name="LRPA"> F  </i>
   <i type="logical" name="LNABLA"> F  </i>
   <i type="logical" name="LVEL"> F  </i>
   <i type="int" name="KINTER">     0</i>
   <i name="CSHIFT">      0.10000000</i>
   <i name="OMEGAMAX">     -1.00000000</i>
   <i name="DEG_THRESHOLD">      0.00200000</i>
  </separator>
  <separator name="orbital magnetization" >
   <i type="logical" name="NUCIND"> F  </i>
   <v name="MAGPOS">      0.00000000      0.00000000      0.00000000</v>
   <i type="logical" name="LNICSALL"> T  </i>
   <i type="logical" name="ORBITALMAG"> F  </i>
   <i type="logical" name="LMAGBLOCH"> F  </i>
   <i type="logical" name="LCHIMAG"> F  </i>
   <i type="logical" name="LGAUGE"> T  </i>
   <i type="int" name="MAGATOM">     0</i>
   <v name="MAGDIPOL">      0.00000000      0.00000000      0.00000000</v>
   <v name="AVECCONST">      0.00000000      0.00000000      0.00000000</v>
  </separator>
  <separator name="response functions" >
   <i type="logical" name="LADDER"> T  </i>
   <i type="logical" name="LFXC"> F  </i>
   <i type="logical" name="LHARTREE"> T  </i>
   <i type="int" name="IBSE">     0</i>
   <v type="int" name="KPOINT">    -1     0     0     0</v>
   <i type="logical" name="LTCTE"> F  </i>
   <i type="logical" name="LTETE"> F  </i>
   <i type="logical" name="LTRIPLET"> F  </i>
   <i type="logical" name="LFXCEPS"> F  </i>
   <i type="logical" name="LFXHEG"> F  </i>
   <i type="int" name="NATURALO">     0</i>
   <i type="logical" name="L2ORDER"> F  </i>
   <i type="logical" name="LUSEW"> F  </i>
   <i name="ENCUTGW">     -2.00000000</i>
   <i name="ENCUTGWSOFT">     -2.00000000</i>
   <i name="ENCUTLF">     -1.00000000</i>
   <i type="int" name="LMAXMP2">    -1</i>
   <i name="SCISSOR">      0.00000000</i>
   <i type="int" name="NOMEGA">     0</i>
   <i type="int" name="NOMEGAR">     0</i>
   <i type="int" name="NBANDSGW">    -1</i>
   <i type="int" name="NBANDSO">    -1</i>
   <i type="int" name="NBANDSV">    -1</i>
   <i type="int" name="NELM">   100</i>
   <i type="int" name="NELMHF">     1</i>
   <i type="int" name="DIM">     3</i>
   <i type="int" name="ANTIRES">     0</i>
   <i name="OMEGAMAX">    -30.00000000</i>
   <i name="OMEGAMIN">    -30.00000000</i>
   <i name="OMEGATL">   -200.00000000</i>
   <i type="int" name="OMEGAGRID">     0</i>
   <i name="CSHIFT">     -0.10000000</i>
   <i type="logical" name="SELFENERGY"> F  </i>
   <i type="logical" name="LSPECTRAL"> F  </i>
   <i type="logical" name="LSPECTRALGW"> F  </i>
   <i type="logical" name="LSINGLES"> F  </i>
   <i type="logical" name="LFERMIGW"> F  </i>
   <i type="logical" name="ODDONLYGW"> F  </i>
   <i type="logical" name="EVENONLYGW"> F  </i>
   <i type="int" name="NKREDLFX">     1</i>
   <i type="int" name="NKREDLFY">     1</i>
   <i type="int" name="NKREDLFZ">     1</i>
   <i type="int" name="MAXMEM">  1800</i>
   <i type="int" name="TELESCOPE">     0</i>
   <i type="int" name="TAUPAR">     1</i>
   <i type="int" name="OMEGAPAR">    -1</i>
   <i name="LAMBDA">      1.00000000</i>
  </separator>
  <separator name="External order field" >
   <i name="OFIELD_KAPPA">      0.00000000</i>
   <v name="OFIELD_K">      0.00000000      0.00000000      0.00000000</v>
   <i name="OFIELD_Q6_NEAR">      0.00000000</i>
   <i name="OFIELD_Q6_FAR">      0.00000000</i>
   <i name="OFIELD_A">      0.00000000</i>
  </separator>
 </parameters>
 <atominfo>
  <atoms>       4 </atoms>
  <types>       3 </types>
  <array name="atoms" >
   <dimension dim="1">ion</dimension>
   <field type="string">element</field>
   <field type="int">atomtype</field>
   <set>
    <rc><c>Sb</c><c>   1</c></rc>
    <rc><c>Li</c><c>   2</c></rc>
    <rc><c>Li</c><c>   2</c></rc>
    <rc><c>Na</c><c>   3</c></rc>
   </set>
  </array>
  <array name="atomtypes" >
   <dimension dim="1">type</dimension>
   <field type="int">atomspertype</field>
   <field type="string">element</field>
   <field>mass</field>
   <field>valence</field>
   <field type="string">pseudopotential</field>
   <set>
    <rc><c>   1</c><c>Sb</c><c>    121.75000000</c><c>      5.00000000</c><c>  PAW_PBE Sb 06Sep2000                  </c></rc>
    <rc><c>   2</c><c>Li</c><c>      7.01000000</c><c>      1.00000000</c><c>  PAW_PBE Li 17Jan2003                  </c></rc>
    <rc><c>   1</c><c>Na</c><c>     22.99000000</c><c>      1.00000000</c><c>  PAW_PBE Na 08Apr2002                  </c></rc>
   </set>
  </array>
 </atominfo>
 <structure name="initialpos" >
  <crystal>
   <varray name="basis" >
    <v>       0.00000000       3.39900000       3.39900000 </v>
    <v>       3.39900000       0.00000000       3.39900000 </v>
    <v>       3.39900000       3.39900000       0.00000000 </v>
   </varray>
   <i name="volume">     78.53866040 </i>
   <varray name="rec_basis" >
    <v>      -0.14710209       0.14710209       0.14710209 </v>
    <v>       0.14710209      -0.14710209       0.14710209 </v>
    <v>       0.14710209       0.14710209      -0.14710209 </v>
   </varray>
  </crystal>
  <varray name="positions" >
   <v>       0.00000000       0.00000000       0.00000000 </v>
   <v>       0.75000000       0.75000000       0.75000000 </v>
   <v>       0.25000000       0.25000000       0.25000000 </v>
   <v>       0.50000000       0.50000000       0.50000000 </v>
  </varray>
 </structure>
 <calculation>
  <scstep>
   <time name="dav">    0.17    0.17</time>
   <time name="total">    0.36    0.37</time>
   <energy>
    <i name="alphaZ">     -2.54617199 </i>
    <i name="ewald">   -170.19984777 </i>
    <i name="hartreedc">    -15.49841983 </i>
    <i name="XCdc">    -88.30338848 </i>
    <i name="pawpsdc">    216.55630365 </i>
    <i name="pawaedc">   -115.81769553 </i>
    <i name="eentropy">     -0.00106095 </i>
    <i name="bandstr">      3.03898986 </i>
    <i name="atom">    165.37915838 </i>
    <i name="e_fr_energy">     -7.39213268 </i>
    <i name="e_wo_entrp">     -7.39107173 </i>
    <i name="e_0_energy">     -7.39160220 </i>
   </energy>
  </scstep>
  <scstep>
   <time name="dav">    0.27    0.27</time>
   <time name="total">    0.28    0.28</time>
   <energy>
    <i name="e_fr_energy">    -12.39004328 </i>
    <i name="e_wo_entrp">    -12.39004328 </i>
    <i name="e_0_energy">    -12.39004328 </i>
   </energy>
  </scstep>
  <scstep>
   <time name="dav">    0.22    0.22</time>
   <time name="total">    0.22    0.22</time>
   <energy>
    <i name="e_fr_energy">    -12.42711586 </i>
    <i name="e_wo_entrp">    -12.42711586 </i>
    <i name="e_0_energy">    -12.42711586 </i>
   </energy>
  </scstep>
  <scstep>
   <time name="dav">    0.35    0.35</time>
   <time name="total">    0.35    0.35</time>
   <energy>
    <i name="e_fr_energy">    -12.42720675 </i>
    <i name="e_wo_entrp">    -12.42720675 </i>
    <i name="e_0_energy">    -12.42720675 </i>
   </energy>
  </scstep>
  <scstep>
   <time name="dav">    0.22    0.23</time>
   <time name="total">    0.24    0.24</time>
   <energy>
    <i name="e_fr_energy">    -12.42720685 </i>
    <i name="e_wo_entrp">    -12.42720685 </i>
    <i name="e_0_energy">    -12.42720685 </i>
   </energy>
  </scstep>
  <scstep>
   <time name="dav">    0.20    0.20</time>
   <time name="total">    0.40    0.41</time>
   <energy>
    <i name="e_fr_energy">    -12.28992154 </i>
    <i name="e_wo_entrp">    -12.28992154 </i>
    <i name="e_0_energy">    -12.28992154 </i>
   </energy>
  </scstep>
  <scstep>
   <time name="dav">    0.24    0.23</time>
   <time name="total">    0.44    0.44</time>
   <energy>
    <i name="e_fr_energy">    -12.23662109 </i>
    <i name="e_wo_entrp">    -12.23662109 </i>
    <i name="e_0_energy">    -12.23662109 </i>
   </energy>
  </scstep>
  <scstep>
   <time name="dav">    0.20    0.20</time>
   <time name="total">    0.41    0.41</time>
   <energy>
    <i name="e_fr_energy">    -12.23264107 </i>
    <i name="e_wo_entrp">    -12.23264107 </i>
    <i name="e_0_energy">    -12.23264107 </i>
   </energy>
  </scstep>
  <scstep>
   <time name="dav">    0.29    0.29</time>
   <time name="total">    0.50    0.50</time>
   <energy>
    <i name="e_fr_energy">    -12.23264833 </i>
    <i name="e_wo_entrp">    -12.23264833 </i>
    <i name="e_0_energy">    -12.23264833 </i>
   </energy>
  </scstep>
  <scstep>
   <time name="dav">    0.20    0.20</time>
   <time name="total">    0.41    0.41</time>
   <energy>
    <i name="e_fr_energy">    -12.23263188 </i>
    <i name="e_wo_entrp">    -12.23263188 </i>
    <i name="e_0_energy">    -12.23263188 </i>
   </energy>
  </scstep>
  <scstep>
   <time name="dav">    0.22    0.22</time>
   <time name="total">    0.42    0.43</time>
   <energy>
    <i name="e_fr_energy">    -12.23262388 </i>
    <i name="e_wo_entrp">    -12.23262388 </i>
    <i name="e_0_energy">    -12.23262388 </i>
   </energy>
  </scstep>
  <scstep>
   <time name="dav">    0.22    0.21</time>
   <time name="total">    0.41    0.41</time>
   <energy>
    <i name="alphaZ">     -2.54617199 </i>
    <i name="ewald">   -170.19984777 </i>
    <i name="hartreedc">    -18.36225819 </i>
    <i name="XCdc">    -87.66010213 </i>
    <i name="pawpsdc">    504.52389890 </i>
    <i name="pawaedc">   -403.89823666 </i>
    <i name="eentropy">     -0.00000000 </i>
    <i name="bandstr">      0.53093533 </i>
    <i name="atom">    165.37915838 </i>
    <i name="e_fr_energy">    -12.23262413 </i>
    <i name="e_wo_entrp">    -12.23262413 </i>
    <i name="e_0_energy">    -12.23262413 </i>
   </energy>
  </scstep>
  <structure>
   <crystal>
    <varray name="basis" >
     <v>       0.00000000       3.39900000       3.39900000 </v>
     <v>       3.39900000       0.00000000       3.39900000 </v>
     <v>       3.39900000       3.39900000       0.00000000 </v>
    </varray>
    <i name="volume">     78.53866040 </i>
    <varray name="rec_basis" >
     <v>      -0.14710209       0.14710209       0.14710209 </v>
     <v>       0.14710209      -0.14710209       0.14710209 </v>
     <v>       0.14710209       0.14710209      -0.14710209 </v>
    </varray>
   </crystal>
   <varray name="positions" >
    <v>       0.00000000       0.00000000       0.00000000 </v>
    <v>       0.75000000       0.75000000       0.75000000 </v>
    <v>       0.25000000       0.25000000       0.25000000 </v>
    <v>       0.50000000       0.50000000       0.50000000 </v>
   </varray>
  </structure>
  <varray name="forces" >
   <v>      -0.00000000      -0.00000000      -0.00000000 </v>
   <v>       0.00000000       0.00000000       0.00000000 </v>
   <v>      -0.00000000      -0.00000000      -0.00000000 </v>
   <v>      -0.00000000      -0.00000000      -0.00000000 </v>
  </varray>
  <varray name="stress" >
   <v>      -3.46265456       0.00000000      -0.00000000 </v>
   <v>      -0.00000000      -3.46265456       0.00000000 </v>
   <v>       0.00000000       0.00000000      -3.46265456 </v>
  </varray>
  <energy>
   <i name="e_fr_energy">    -12.23262413 </i>
   <i name="e_wo_entrp">    -12.23262413 </i>
   <i name="e_0_energy">     -0.00000000 </i>
  </energy>
  <scstep>
   <time name="total">    0.16    0.16</time>
   <energy>
    <i name="e_fr_energy">    -47.73768530 </i>
    <i name="e_wo_entrp">    -47.73768530 </i>
    <i name="e_0_energy">    -47.73768530 </i>
   </energy>
  </scstep>
  <scstep>
   <time name="total">    0.14    0.15</time>
   <energy>
    <i name="e_fr_energy">    -40.41193928 </i>
    <i name="e_wo_entrp">    -40.41193928 </i>
    <i name="e_0_energy">    -40.41193928 </i>
   </energy>
  </scstep>
  <scstep>
   <time name="total">    0.15    0.15</time>
   <energy>
    <i name="e_fr_energy">    -40.33984038 </i>
    <i name="e_wo_entrp">    -40.33984038 </i>
    <i name="e_0_energy">    -40.33984038 </i>
   </energy>
  </scstep>
  <scstep>
   <time name="total">    0.12    0.13</time>
   <energy>
    <i name="e_fr_energy">    -40.33833154 </i>
    <i name="e_wo_entrp">    -40.33833154 </i>
    <i name="e_0_energy">    -40.33833154 </i>
   </energy>
  </scstep>
  <scstep>
   <time name="total">    0.12    0.13</time>
   <energy>
    <i name="e_fr_energy">    -40.33843199 </i>
    <i name="e_wo_entrp">    -40.33843199 </i>
    <i name="e_0_energy">    -40.33843199 </i>
   </energy>
  </scstep>
  <scstep>
   <time name="total">    0.12    0.13</time>
   <energy>
    <i name="e_fr_energy">    -40.33841667 </i>
    <i name="e_wo_entrp">    -40.33841667 </i>
    <i name="e_0_energy">    -40.33841667 </i>
   </energy>
  </scstep>
  <scstep>
   <time name="total">    0.12    0.13</time>
   <energy>
    <i name="e_fr_energy">    -40.33841521 </i>
    <i name="e_wo_entrp">    -40.33841521 </i>
    <i name="e_0_energy">    -40.33841521 </i>
   </energy>
  </scstep>
  <scstep>
   <time name="total">    0.12    0.13</time>
   <energy>
    <i name="e_fr_energy">    -40.33841521 </i>
    <i name="e_wo_entrp">    -40.33841521 </i>
    <i name="e_0_energy">    -40.33841521 </i>
   </energy>
  </scstep>
  <scstep>
   <time name="total">    0.15    0.15</time>
   <energy>
    <i name="e_fr_energy">    -45.89678315 </i>
    <i name="e_wo_entrp">    -45.89678315 </i>
    <i name="e_0_energy">    -45.89678315 </i>
   </energy>
  </scstep>
  <scstep>
   <time name="total">    0.14    0.14</time>
   <energy>
    <i name="e_fr_energy">    -42.63956008 </i>
    <i name="e_wo_entrp">    -42.63956008 </i>
    <i name="e_0_energy">    -42.63956008 </i>
   </energy>
  </scstep>
  <scstep>
   <time name="total">    0.14    0.15</time>
   <energy>
    <i name="e_fr_energy">    -42.65104887 </i>
    <i name="e_wo_entrp">    -42.65104887 </i>
    <i name="e_0_energy">    -42.65104887 </i>
   </energy>
  </scstep>
  <scstep>
   <time name="total">    0.12    0.13</time>
   <energy>
    <i name="e_fr_energy">    -42.65123708 </i>
    <i name="e_wo_entrp">    -42.65123708 </i>
    <i name="e_0_energy">    -42.65123708 </i>
   </energy>
  </scstep>
  <scstep>
   <time name="total">    0.12    0.13</time>
   <energy>
    <i name="e_fr_energy">    -42.65123906 </i>
    <i name="e_wo_entrp">    -42.65123906 </i>
    <i name="e_0_energy">    -42.65123906 </i>
   </energy>
  </scstep>
  <scstep>
   <time name="total">    0.12    0.13</time>
   <energy>
    <i name="e_fr_energy">    -42.65123913 </i>
    <i name="e_wo_entrp">    -42.65123913 </i>
    <i name="e_0_energy">    -42.65123913 </i>
   </energy>
  </scstep>
  <scstep>
   <time name="total">    0.15    0.15</time>
   <energy>
    <i name="e_fr_energy">    -33.55954079 </i>
    <i name="e_wo_entrp">    -33.55954079 </i>
    <i name="e_0_energy">    -33.55954079 </i>
   </energy>
  </scstep>
  <scstep>
   <time name="total">    0.13    0.14</time>
   <energy>
    <i name="e_fr_energy">    -28.16604103 </i>
    <i name="e_wo_entrp">    -28.16604103 </i>
    <i name="e_0_energy">    -28.16604103 </i>
   </energy>
  </scstep>
  <scstep>
   <time name="total">    0.14    0.14</time>
   <energy>
    <i name="e_fr_energy">    -28.15122612 </i>
    <i name="e_wo_entrp">    -28.15122612 </i>
    <i name="e_0_energy">    -28.15122612 </i>
   </energy>
  </scstep>
  <scstep>
   <time name="total">    0.12    0.12</time>
   <energy>
    <i name="e_fr_energy">    -28.15143369 </i>
    <i name="e_wo_entrp">    -28.15143369 </i>
    <i name="e_0_energy">    -28.15143369 </i>
   </energy>
  </scstep>
  <scstep>
   <time name="total">    0.12    0.12</time>
   <energy>
    <i name="e_fr_energy">    -28.15144042 </i>
    <i name="e_wo_entrp">    -28.15144042 </i>
    <i name="e_0_energy">    -28.15144042 </i>
   </energy>
  </scstep>
  <scstep>
   <time name="total">    0.12    0.12</time>
   <energy>
    <i name="e_fr_energy">    -28.15144044 </i>
    <i name="e_wo_entrp">    -28.15144044 </i>
    <i name="e_0_energy">    -28.15144044 </i>
   </energy>
  </scstep>
  <scstep>
   <time name="total">    0.55    0.55</time>
   <energy>
    <i name="e_fr_energy">     -2.24339458 </i>
    <i name="e_wo_entrp">     -2.24339458 </i>
    <i name="e_0_energy">     -2.24339458 </i>
   </energy>
  </scstep>
  <scstep>
   <time name="total">    0.54    0.54</time>
   <energy>
    <i name="e_fr_energy">     -2.29955731 </i>
    <i name="e_wo_entrp">     -2.29955731 </i>
    <i name="e_0_energy">     -2.29955731 </i>
   </energy>
  </scstep>
  <scstep>
   <time name="total">    0.53    0.54</time>
   <energy>
    <i name="e_fr_energy">     -2.29960599 </i>
    <i name="e_wo_entrp">     -2.29960599 </i>
    <i name="e_0_energy">     -2.29960599 </i>
   </energy>
  </scstep>
  <scstep>
   <time name="total">    0.54    0.54</time>
   <energy>
    <i name="e_fr_energy">     -2.29960799 </i>
    <i name="e_wo_entrp">     -2.29960799 </i>
    <i name="e_0_energy">     -2.29960799 </i>
   </energy>
  </scstep>
  <scstep>
   <time name="total">    0.54    0.54</time>
   <energy>
    <i name="e_fr_energy">     -2.29960805 </i>
    <i name="e_wo_entrp">     -2.29960805 </i>
    <i name="e_0_energy">     -2.29960805 </i>
   </energy>
  </scstep>
  <scstep>
   <time name="total">    0.55    0.55</time>
   <energy>
    <i name="e_fr_energy">     -2.40536721 </i>
    <i name="e_wo_entrp">     -2.40536721 </i>
    <i name="e_0_energy">     -2.40536721 </i>
   </energy>
  </scstep>
  <scstep>
   <time name="total">    0.53    0.54</time>
   <energy>
    <i name="e_fr_energy">     -2.46565655 </i>
    <i name="e_wo_entrp">     -2.46565655 </i>
    <i name="e_0_energy">     -2.46565655 </i>
   </energy>
  </scstep>
  <scstep>
   <time name="total">    0.53    0.54</time>
   <energy>
    <i name="e_fr_energy">     -2.46568997 </i>
    <i name="e_wo_entrp">     -2.46568997 </i>
    <i name="e_0_energy">     -2.46568997 </i>
   </energy>
  </scstep>
  <scstep>
   <time name="total">    0.54    0.54</time>
   <energy>
    <i name="e_fr_energy">     -2.46569176 </i>
    <i name="e_wo_entrp">     -2.46569176 </i>
    <i name="e_0_energy">     -2.46569176 </i>
   </energy>
  </scstep>
  <scstep>
   <time name="total">    0.53    0.54</time>
   <energy>
    <i name="e_fr_energy">     -2.46569181 </i>
    <i name="e_wo_entrp">     -2.46569181 </i>
    <i name="e_0_energy">     -2.46569181 </i>
   </energy>
  </scstep>
  <scstep>
   <time name="total">    0.55    0.55</time>
   <energy>
    <i name="e_fr_energy">     -1.07953626 </i>
    <i name="e_wo_entrp">     -1.07953626 </i>
    <i name="e_0_energy">     -1.07953626 </i>
   </energy>
  </scstep>
  <scstep>
   <time name="total">    0.52    0.53</time>
   <energy>
    <i name="e_fr_energy">     -1.10776712 </i>
    <i name="e_wo_entrp">     -1.10776712 </i>
    <i name="e_0_energy">     -1.10776712 </i>
   </energy>
  </scstep>
  <scstep>
   <time name="total">    0.53    0.53</time>
   <energy>
    <i name="e_fr_energy">     -1.10781454 </i>
    <i name="e_wo_entrp">     -1.10781454 </i>
    <i name="e_0_energy">     -1.10781454 </i>
   </energy>
  </scstep>
  <scstep>
   <time name="total">    0.53    0.53</time>
   <energy>
    <i name="e_fr_energy">     -1.10781570 </i>
    <i name="e_wo_entrp">     -1.10781570 </i>
    <i name="e_0_energy">     -1.10781570 </i>
   </energy>
  </scstep>
  <scstep>
   <time name="total">    0.53    0.53</time>
   <energy>
    <i name="e_fr_energy">     -1.10781572 </i>
    <i name="e_wo_entrp">     -1.10781572 </i>
    <i name="e_0_energy">     -1.10781572 </i>
   </energy>
  </scstep>
  <varray name="epsilon_rpa" >
   <v>      10.02110600       0.00000000       0.00000000 </v>
   <v>       0.00000000      10.02110600       0.00000000 </v>
   <v>      -0.00000000       0.00000000      10.02110600 </v>
  </varray>
  <kpoints>
   <generation param="Gamma">
    <v type="int" name="divisions">      10       10       10 </v>
    <v name="usershift">      0.00000000       0.00000000       0.00000000 </v>
    <v name="genvec1">      0.10000000       0.00000000       0.00000000 </v>
    <v name="genvec2">      0.00000000       0.10000000       0.00000000 </v>
    <v name="genvec3">      0.00000000       0.00000000       0.10000000 </v>
    <v name="shift">      0.00000000       0.00000000       0.00000000 </v>
   </generation>
   <varray name="kpointlist" >
    <v>       0.00000000       0.00000000       0.00000000 </v>
    <v>       0.10000000       0.00000000       0.00000000 </v>
    <v>       0.20000000       0.00000000       0.00000000 </v>
    <v>       0.30000000       0.00000000       0.00000000 </v>
    <v>       0.40000000       0.00000000       0.00000000 </v>
    <v>       0.50000000       0.00000000       0.00000000 </v>
    <v>       0.10000000       0.10000000       0.00000000 </v>
    <v>       0.20000000       0.10000000       0.00000000 </v>
    <v>       0.30000000       0.10000000       0.00000000 </v>
    <v>       0.40000000       0.10000000       0.00000000 </v>
    <v>       0.50000000       0.10000000       0.00000000 </v>
    <v>      -0.40000000       0.10000000       0.00000000 </v>
    <v>      -0.30000000       0.10000000       0.00000000 </v>
    <v>      -0.20000000       0.10000000       0.00000000 </v>
    <v>      -0.10000000       0.10000000       0.00000000 </v>
    <v>       0.20000000       0.20000000       0.00000000 </v>
    <v>       0.30000000       0.20000000       0.00000000 </v>
    <v>       0.40000000       0.20000000       0.00000000 </v>
    <v>       0.50000000       0.20000000       0.00000000 </v>
    <v>      -0.40000000       0.20000000       0.00000000 </v>
    <v>      -0.30000000       0.20000000       0.00000000 </v>
    <v>      -0.20000000       0.20000000       0.00000000 </v>
    <v>       0.30000000       0.30000000       0.00000000 </v>
    <v>       0.40000000       0.30000000       0.00000000 </v>
    <v>       0.50000000       0.30000000       0.00000000 </v>
    <v>      -0.40000000       0.30000000       0.00000000 </v>
    <v>      -0.30000000       0.30000000       0.00000000 </v>
    <v>       0.40000000       0.40000000       0.00000000 </v>
    <v>       0.50000000       0.40000000       0.00000000 </v>
    <v>      -0.40000000       0.40000000       0.00000000 </v>
    <v>       0.50000000       0.50000000       0.00000000 </v>
    <v>       0.00000000       0.10000000       0.10000000 </v>
    <v>       0.20000000       0.10000000       0.10000000 </v>
    <v>       0.30000000       0.10000000       0.10000000 </v>
    <v>       0.40000000       0.10000000       0.10000000 </v>
    <v>       0.50000000       0.10000000       0.10000000 </v>
    <v>      -0.40000000       0.10000000       0.10000000 </v>
    <v>      -0.30000000       0.10000000       0.10000000 </v>
    <v>      -0.20000000       0.10000000       0.10000000 </v>
    <v>      -0.10000000       0.10000000       0.10000000 </v>
    <v>       0.30000000       0.20000000       0.10000000 </v>
    <v>       0.40000000       0.20000000       0.10000000 </v>
    <v>       0.50000000       0.20000000       0.10000000 </v>
    <v>      -0.40000000       0.20000000       0.10000000 </v>
    <v>      -0.30000000       0.20000000       0.10000000 </v>
    <v>      -0.20000000       0.20000000       0.10000000 </v>
    <v>      -0.10000000       0.20000000       0.10000000 </v>
    <v>       0.20000000       0.30000000       0.10000000 </v>
    <v>       0.40000000       0.30000000       0.10000000 </v>
    <v>       0.50000000       0.30000000       0.10000000 </v>
    <v>      -0.40000000       0.30000000       0.10000000 </v>
    <v>      -0.30000000       0.30000000       0.10000000 </v>
    <v>      -0.20000000       0.30000000       0.10000000 </v>
    <v>       0.20000000       0.40000000       0.10000000 </v>
    <v>       0.30000000       0.40000000       0.10000000 </v>
    <v>       0.50000000       0.40000000       0.10000000 </v>
    <v>      -0.40000000       0.40000000       0.10000000 </v>
    <v>      -0.30000000       0.40000000       0.10000000 </v>
    <v>       0.20000000       0.50000000       0.10000000 </v>
    <v>       0.30000000       0.50000000       0.10000000 </v>
    <v>       0.40000000       0.50000000       0.10000000 </v>
    <v>      -0.40000000       0.50000000       0.10000000 </v>
    <v>       0.20000000      -0.40000000       0.10000000 </v>
    <v>       0.30000000      -0.40000000       0.10000000 </v>
    <v>       0.40000000      -0.40000000       0.10000000 </v>
    <v>       0.50000000      -0.40000000       0.10000000 </v>
    <v>       0.30000000      -0.30000000       0.10000000 </v>
    <v>       0.40000000      -0.30000000       0.10000000 </v>
    <v>       0.30000000      -0.20000000       0.10000000 </v>
    <v>       0.00000000       0.20000000       0.20000000 </v>
    <v>       0.40000000       0.20000000       0.20000000 </v>
    <v>       0.50000000       0.20000000       0.20000000 </v>
    <v>      -0.40000000       0.20000000       0.20000000 </v>
    <v>      -0.30000000       0.20000000       0.20000000 </v>
    <v>      -0.20000000       0.20000000       0.20000000 </v>
    <v>      -0.10000000       0.20000000       0.20000000 </v>
    <v>       0.50000000       0.30000000       0.20000000 </v>
    <v>      -0.40000000       0.30000000       0.20000000 </v>
    <v>      -0.30000000       0.30000000       0.20000000 </v>
    <v>      -0.20000000       0.30000000       0.20000000 </v>
    <v>      -0.10000000       0.30000000       0.20000000 </v>
    <v>      -0.40000000       0.40000000       0.20000000 </v>
    <v>      -0.30000000       0.40000000       0.20000000 </v>
    <v>      -0.20000000       0.40000000       0.20000000 </v>
    <v>      -0.30000000       0.50000000       0.20000000 </v>
    <v>       0.40000000      -0.40000000       0.20000000 </v>
    <v>       0.40000000      -0.30000000       0.20000000 </v>
    <v>       0.50000000      -0.30000000       0.20000000 </v>
    <v>       0.00000000       0.30000000       0.30000000 </v>
    <v>      -0.40000000       0.30000000       0.30000000 </v>
    <v>      -0.30000000       0.30000000       0.30000000 </v>
    <v>      -0.20000000       0.30000000       0.30000000 </v>
    <v>      -0.10000000       0.30000000       0.30000000 </v>
    <v>      -0.30000000       0.40000000       0.30000000 </v>
    <v>      -0.20000000       0.40000000       0.30000000 </v>
    <v>      -0.10000000       0.40000000       0.30000000 </v>
    <v>      -0.20000000       0.50000000       0.30000000 </v>
    <v>       0.00000000       0.40000000       0.40000000 </v>
    <v>      -0.20000000       0.40000000       0.40000000 </v>
    <v>      -0.10000000       0.40000000       0.40000000 </v>
    <v>      -0.10000000       0.50000000       0.40000000 </v>
    <v>       0.00000000       0.50000000       0.50000000 </v>
   </varray>
   <varray name="weights" >
    <v>       0.00100000 </v>
    <v>       0.00800000 </v>
    <v>       0.00800000 </v>
    <v>       0.00800000 </v>
    <v>       0.00800000 </v>
    <v>       0.00400000 </v>
    <v>       0.00400000 </v>
    <v>       0.01600000 </v>
    <v>       0.01600000 </v>
    <v>       0.01600000 </v>
    <v>       0.01600000 </v>
    <v>       0.01600000 </v>
    <v>       0.01600000 </v>
    <v>       0.01600000 </v>
    <v>       0.00800000 </v>
    <v>       0.00400000 </v>
    <v>       0.01600000 </v>
    <v>       0.01600000 </v>
    <v>       0.01600000 </v>
    <v>       0.01600000 </v>
    <v>       0.01600000 </v>
    <v>       0.00800000 </v>
    <v>       0.00400000 </v>
    <v>       0.01600000 </v>
    <v>       0.01600000 </v>
    <v>       0.01600000 </v>
    <v>       0.00800000 </v>
    <v>       0.00400000 </v>
    <v>       0.01600000 </v>
    <v>       0.00800000 </v>
    <v>       0.00200000 </v>
    <v>       0.00200000 </v>
    <v>       0.00400000 </v>
    <v>       0.00800000 </v>
    <v>       0.00800000 </v>
    <v>       0.00800000 </v>
    <v>       0.00800000 </v>
    <v>       0.00800000 </v>
    <v>       0.00800000 </v>
    <v>       0.00800000 </v>
    <v>       0.00800000 </v>
    <v>       0.01600000 </v>
    <v>       0.01600000 </v>
    <v>       0.01600000 </v>
    <v>       0.01600000 </v>
    <v>       0.01600000 </v>
    <v>       0.00800000 </v>
    <v>       0.00800000 </v>
    <v>       0.00800000 </v>
    <v>       0.01600000 </v>
    <v>       0.01600000 </v>
    <v>       0.01600000 </v>
    <v>       0.00800000 </v>
    <v>       0.01600000 </v>
    <v>       0.00800000 </v>
    <v>       0.00800000 </v>
    <v>       0.01600000 </v>
    <v>       0.00800000 </v>
    <v>       0.01600000 </v>
    <v>       0.01600000 </v>
    <v>       0.00800000 </v>
    <v>       0.00400000 </v>
    <v>       0.00800000 </v>
    <v>       0.01600000 </v>
    <v>       0.01600000 </v>
    <v>       0.00400000 </v>
    <v>       0.01600000 </v>
    <v>       0.00800000 </v>
    <v>       0.00800000 </v>
    <v>       0.00200000 </v>
    <v>       0.00400000 </v>
    <v>       0.00800000 </v>
    <v>       0.00800000 </v>
    <v>       0.00800000 </v>
    <v>       0.00800000 </v>
    <v>       0.00800000 </v>
    <v>       0.00800000 </v>
    <v>       0.01600000 </v>
    <v>       0.01600000 </v>
    <v>       0.01600000 </v>
    <v>       0.00800000 </v>
    <v>       0.00800000 </v>
    <v>       0.01600000 </v>
    <v>       0.00800000 </v>
    <v>       0.00400000 </v>
    <v>       0.00800000 </v>
    <v>       0.00800000 </v>
    <v>       0.00400000 </v>
    <v>       0.00200000 </v>
    <v>       0.00400000 </v>
    <v>       0.00800000 </v>
    <v>       0.00800000 </v>
    <v>       0.00800000 </v>
    <v>       0.00800000 </v>
    <v>       0.01600000 </v>
    <v>       0.00800000 </v>
    <v>       0.00400000 </v>
    <v>       0.00200000 </v>
    <v>       0.00400000 </v>
    <v>       0.00800000 </v>
    <v>       0.00400000 </v>
    <v>       0.00100000 </v>
   </varray>
  </kpoints>
  <scstep>
   <time name="total">    0.74    0.74</time>
   <energy>
    <i name="e_fr_energy">     -1.90956310 </i>
    <i name="e_wo_entrp">     -1.90956310 </i>
    <i name="e_0_energy">     -1.90956310 </i>
   </energy>
  </scstep>
  <scstep>
   <time name="total">    0.74    0.74</time>
   <energy>
    <i name="e_fr_energy">     -1.95766050 </i>
    <i name="e_wo_entrp">     -1.95766050 </i>
    <i name="e_0_energy">     -1.95766050 </i>
   </energy>
  </scstep>
  <scstep>
   <time name="total">    0.74    0.74</time>
   <energy>
    <i name="e_fr_energy">     -1.82933505 </i>
    <i name="e_wo_entrp">     -1.82933505 </i>
    <i name="e_0_energy">     -1.82933505 </i>
   </energy>
  </scstep>
  <scstep>
   <time name="total">    0.73    0.73</time>
   <energy>
    <i name="e_fr_energy">     -1.89226587 </i>
    <i name="e_wo_entrp">     -1.89226587 </i>
    <i name="e_0_energy">     -1.89226587 </i>
   </energy>
  </scstep>
  <scstep>
   <time name="total">    0.74    0.74</time>
   <energy>
    <i name="e_fr_energy">     -1.92849175 </i>
    <i name="e_wo_entrp">     -1.92849175 </i>
    <i name="e_0_energy">     -1.92849175 </i>
   </energy>
  </scstep>
  <scstep>
   <time name="total">    0.74    0.75</time>
   <energy>
    <i name="e_fr_energy">     -1.92897770 </i>
    <i name="e_wo_entrp">     -1.92897770 </i>
    <i name="e_0_energy">     -1.92897770 </i>
   </energy>
  </scstep>
  <scstep>
   <time name="total">    0.74    0.75</time>
   <energy>
    <i name="e_fr_energy">     -1.92967800 </i>
    <i name="e_wo_entrp">     -1.92967800 </i>
    <i name="e_0_energy">     -1.92967800 </i>
   </energy>
  </scstep>
  <scstep>
   <time name="total">    0.75    0.75</time>
   <energy>
    <i name="e_fr_energy">     -1.92963510 </i>
    <i name="e_wo_entrp">     -1.92963510 </i>
    <i name="e_0_energy">     -1.92963510 </i>
   </energy>
  </scstep>
  <scstep>
   <time name="total">    0.74    0.75</time>
   <energy>
    <i name="e_fr_energy">     -1.92960971 </i>
    <i name="e_wo_entrp">     -1.92960971 </i>
    <i name="e_0_energy">     -1.92960971 </i>
   </energy>
  </scstep>
  <scstep>
   <time name="total">    0.74    0.74</time>
   <energy>
    <i name="e_fr_energy">     -1.92961744 </i>
    <i name="e_wo_entrp">     -1.92961744 </i>
    <i name="e_0_energy">     -1.92961744 </i>
   </energy>
  </scstep>
  <scstep>
   <time name="total">    0.72    0.73</time>
   <energy>
    <i name="e_fr_energy">     -1.92961773 </i>
    <i name="e_wo_entrp">     -1.92961773 </i>
    <i name="e_0_energy">     -1.92961773 </i>
   </energy>
  </scstep>
  <kpoints>
   <generation param="Gamma">
    <v type="int" name="divisions">      10       10       10 </v>
    <v name="usershift">      0.00000000       0.00000000       0.00000000 </v>
    <v name="genvec1">      0.10000000       0.00000000       0.00000000 </v>
    <v name="genvec2">      0.00000000       0.10000000       0.00000000 </v>
    <v name="genvec3">      0.00000000       0.00000000       0.10000000 </v>
    <v name="shift">      0.00000000       0.00000000       0.00000000 </v>
   </generation>
   <varray name="kpointlist" >
    <v>       0.00000000       0.00000000       0.00000000 </v>
    <v>       0.10000000       0.00000000       0.00000000 </v>
    <v>       0.20000000       0.00000000       0.00000000 </v>
    <v>       0.30000000       0.00000000       0.00000000 </v>
    <v>       0.40000000       0.00000000       0.00000000 </v>
    <v>       0.50000000       0.00000000       0.00000000 </v>
    <v>       0.10000000       0.10000000       0.00000000 </v>
    <v>       0.20000000       0.10000000       0.00000000 </v>
    <v>       0.30000000       0.10000000       0.00000000 </v>
    <v>       0.40000000       0.10000000       0.00000000 </v>
    <v>       0.50000000       0.10000000       0.00000000 </v>
    <v>      -0.40000000       0.10000000       0.00000000 </v>
    <v>      -0.30000000       0.10000000       0.00000000 </v>
    <v>      -0.20000000       0.10000000       0.00000000 </v>
    <v>      -0.10000000       0.10000000       0.00000000 </v>
    <v>       0.20000000       0.20000000       0.00000000 </v>
    <v>       0.30000000       0.20000000       0.00000000 </v>
    <v>       0.40000000       0.20000000       0.00000000 </v>
    <v>       0.50000000       0.20000000       0.00000000 </v>
    <v>      -0.40000000       0.20000000       0.00000000 </v>
    <v>      -0.30000000       0.20000000       0.00000000 </v>
    <v>      -0.20000000       0.20000000       0.00000000 </v>
    <v>       0.30000000       0.30000000       0.00000000 </v>
    <v>       0.40000000       0.30000000       0.00000000 </v>
    <v>       0.50000000       0.30000000       0.00000000 </v>
    <v>      -0.40000000       0.30000000       0.00000000 </v>
    <v>      -0.30000000       0.30000000       0.00000000 </v>
    <v>       0.40000000       0.40000000       0.00000000 </v>
    <v>       0.50000000       0.40000000       0.00000000 </v>
    <v>      -0.40000000       0.40000000       0.00000000 </v>
    <v>       0.50000000       0.50000000       0.00000000 </v>
    <v>       0.10000000       0.00000000       0.10000000 </v>
    <v>       0.20000000       0.00000000       0.10000000 </v>
    <v>       0.30000000       0.00000000       0.10000000 </v>
    <v>       0.40000000       0.00000000       0.10000000 </v>
    <v>       0.50000000       0.00000000       0.10000000 </v>
    <v>      -0.40000000       0.00000000       0.10000000 </v>
    <v>      -0.30000000       0.00000000       0.10000000 </v>
    <v>      -0.20000000       0.00000000       0.10000000 </v>
    <v>      -0.10000000       0.00000000       0.10000000 </v>
    <v>       0.30000000       0.20000000       0.10000000 </v>
    <v>       0.40000000       0.20000000       0.10000000 </v>
    <v>       0.50000000       0.20000000       0.10000000 </v>
    <v>      -0.40000000       0.20000000       0.10000000 </v>
    <v>       0.20000000       0.30000000       0.10000000 </v>
    <v>       0.40000000       0.30000000       0.10000000 </v>
    <v>       0.50000000       0.30000000       0.10000000 </v>
    <v>      -0.40000000       0.30000000       0.10000000 </v>
    <v>      -0.30000000       0.30000000       0.10000000 </v>
    <v>      -0.20000000       0.30000000       0.10000000 </v>
    <v>       0.20000000       0.40000000       0.10000000 </v>
    <v>       0.30000000       0.40000000       0.10000000 </v>
    <v>       0.50000000       0.40000000       0.10000000 </v>
    <v>      -0.40000000       0.40000000       0.10000000 </v>
    <v>      -0.30000000       0.40000000       0.10000000 </v>
    <v>       0.20000000       0.50000000       0.10000000 </v>
    <v>       0.30000000       0.50000000       0.10000000 </v>
    <v>       0.40000000       0.50000000       0.10000000 </v>
    <v>      -0.40000000       0.50000000       0.10000000 </v>
    <v>       0.20000000      -0.40000000       0.10000000 </v>
    <v>       0.30000000      -0.40000000       0.10000000 </v>
    <v>       0.40000000      -0.40000000       0.10000000 </v>
    <v>       0.50000000      -0.40000000       0.10000000 </v>
    <v>       0.20000000      -0.30000000       0.10000000 </v>
    <v>       0.30000000      -0.30000000       0.10000000 </v>
    <v>       0.40000000      -0.30000000       0.10000000 </v>
    <v>       0.20000000      -0.20000000       0.10000000 </v>
    <v>       0.30000000      -0.20000000       0.10000000 </v>
    <v>       0.20000000      -0.10000000       0.10000000 </v>
    <v>       0.20000000       0.00000000       0.20000000 </v>
    <v>       0.30000000       0.00000000       0.20000000 </v>
    <v>       0.40000000       0.00000000       0.20000000 </v>
    <v>       0.50000000       0.00000000       0.20000000 </v>
    <v>      -0.40000000       0.00000000       0.20000000 </v>
    <v>      -0.30000000       0.00000000       0.20000000 </v>
    <v>      -0.20000000       0.00000000       0.20000000 </v>
    <v>      -0.40000000       0.40000000       0.20000000 </v>
    <v>      -0.30000000       0.40000000       0.20000000 </v>
    <v>       0.30000000       0.50000000       0.20000000 </v>
    <v>      -0.30000000       0.50000000       0.20000000 </v>
    <v>       0.30000000      -0.40000000       0.20000000 </v>
    <v>       0.40000000      -0.40000000       0.20000000 </v>
    <v>       0.30000000      -0.30000000       0.20000000 </v>
    <v>       0.40000000      -0.30000000       0.20000000 </v>
    <v>       0.50000000      -0.30000000       0.20000000 </v>
    <v>       0.30000000      -0.20000000       0.20000000 </v>
    <v>       0.40000000      -0.20000000       0.20000000 </v>
    <v>       0.30000000      -0.10000000       0.20000000 </v>
    <v>       0.30000000       0.00000000       0.30000000 </v>
    <v>       0.40000000       0.00000000       0.30000000 </v>
    <v>       0.50000000       0.00000000       0.30000000 </v>
    <v>      -0.40000000       0.00000000       0.30000000 </v>
    <v>      -0.30000000       0.00000000       0.30000000 </v>
    <v>       0.40000000      -0.30000000       0.30000000 </v>
    <v>       0.40000000      -0.20000000       0.30000000 </v>
    <v>       0.50000000      -0.20000000       0.30000000 </v>
    <v>       0.40000000      -0.10000000       0.30000000 </v>
    <v>       0.40000000       0.00000000       0.40000000 </v>
    <v>       0.50000000       0.00000000       0.40000000 </v>
    <v>      -0.40000000       0.00000000       0.40000000 </v>
    <v>       0.50000000      -0.10000000       0.40000000 </v>
    <v>       0.50000000       0.00000000       0.50000000 </v>
   </varray>
   <varray name="weights" >
    <v>       0.00100000 </v>
    <v>       0.00800000 </v>
    <v>       0.00800000 </v>
    <v>       0.00800000 </v>
    <v>       0.00800000 </v>
    <v>       0.00400000 </v>
    <v>       0.00400000 </v>
    <v>       0.01600000 </v>
    <v>       0.01600000 </v>
    <v>       0.01600000 </v>
    <v>       0.01600000 </v>
    <v>       0.01600000 </v>
    <v>       0.01600000 </v>
    <v>       0.01600000 </v>
    <v>       0.00800000 </v>
    <v>       0.00400000 </v>
    <v>       0.01600000 </v>
    <v>       0.01600000 </v>
    <v>       0.01600000 </v>
    <v>       0.01600000 </v>
    <v>       0.01600000 </v>
    <v>       0.00800000 </v>
    <v>       0.00400000 </v>
    <v>       0.01600000 </v>
    <v>       0.01600000 </v>
    <v>       0.01600000 </v>
    <v>       0.00800000 </v>
    <v>       0.00400000 </v>
    <v>       0.01600000 </v>
    <v>       0.00800000 </v>
    <v>       0.00200000 </v>
    <v>       0.00200000 </v>
    <v>       0.00800000 </v>
    <v>       0.00800000 </v>
    <v>       0.00800000 </v>
    <v>       0.00800000 </v>
    <v>       0.00800000 </v>
    <v>       0.00800000 </v>
    <v>       0.00800000 </v>
    <v>       0.00400000 </v>
    <v>       0.00800000 </v>
    <v>       0.01600000 </v>
    <v>       0.01600000 </v>
    <v>       0.00800000 </v>
    <v>       0.00800000 </v>
    <v>       0.00800000 </v>
    <v>       0.01600000 </v>
    <v>       0.01600000 </v>
    <v>       0.01600000 </v>
    <v>       0.00800000 </v>
    <v>       0.01600000 </v>
    <v>       0.00800000 </v>
    <v>       0.00800000 </v>
    <v>       0.01600000 </v>
    <v>       0.00800000 </v>
    <v>       0.01600000 </v>
    <v>       0.01600000 </v>
    <v>       0.00800000 </v>
    <v>       0.00400000 </v>
    <v>       0.01600000 </v>
    <v>       0.01600000 </v>
    <v>       0.01600000 </v>
    <v>       0.00400000 </v>
    <v>       0.01600000 </v>
    <v>       0.01600000 </v>
    <v>       0.00800000 </v>
    <v>       0.01600000 </v>
    <v>       0.00800000 </v>
    <v>       0.00800000 </v>
    <v>       0.00200000 </v>
    <v>       0.00800000 </v>
    <v>       0.00800000 </v>
    <v>       0.00800000 </v>
    <v>       0.00800000 </v>
    <v>       0.00800000 </v>
    <v>       0.00400000 </v>
    <v>       0.00800000 </v>
    <v>       0.00800000 </v>
    <v>       0.00800000 </v>
    <v>       0.00400000 </v>
    <v>       0.01600000 </v>
    <v>       0.00800000 </v>
    <v>       0.01600000 </v>
    <v>       0.01600000 </v>
    <v>       0.00400000 </v>
    <v>       0.01600000 </v>
    <v>       0.00800000 </v>
    <v>       0.00800000 </v>
    <v>       0.00200000 </v>
    <v>       0.00800000 </v>
    <v>       0.00800000 </v>
    <v>       0.00800000 </v>
    <v>       0.00400000 </v>
    <v>       0.00800000 </v>
    <v>       0.01600000 </v>
    <v>       0.00400000 </v>
    <v>       0.00800000 </v>
    <v>       0.00200000 </v>
    <v>       0.00800000 </v>
    <v>       0.00400000 </v>
    <v>       0.00400000 </v>
    <v>       0.00100000 </v>
   </varray>
  </kpoints>
  <scstep>
   <time name="total">    0.74    0.74</time>
   <energy>
    <i name="e_fr_energy">     -1.90945459 </i>
    <i name="e_wo_entrp">     -1.90945459 </i>
    <i name="e_0_energy">     -1.90945459 </i>
   </energy>
  </scstep>
  <scstep>
   <time name="total">    0.74    0.74</time>
   <energy>
    <i name="e_fr_energy">     -1.95765982 </i>
    <i name="e_wo_entrp">     -1.95765982 </i>
    <i name="e_0_energy">     -1.95765982 </i>
   </energy>
  </scstep>
  <scstep>
   <time name="total">    0.74    0.74</time>
   <energy>
    <i name="e_fr_energy">     -1.82931943 </i>
    <i name="e_wo_entrp">     -1.82931943 </i>
    <i name="e_0_energy">     -1.82931943 </i>
   </energy>
  </scstep>
  <scstep>
   <time name="total">    0.73    0.73</time>
   <energy>
    <i name="e_fr_energy">     -1.89226410 </i>
    <i name="e_wo_entrp">     -1.89226410 </i>
    <i name="e_0_energy">     -1.89226410 </i>
   </energy>
  </scstep>
  <scstep>
   <time name="total">    0.74    0.74</time>
   <energy>
    <i name="e_fr_energy">     -1.92849178 </i>
    <i name="e_wo_entrp">     -1.92849178 </i>
    <i name="e_0_energy">     -1.92849178 </i>
   </energy>
  </scstep>
  <scstep>
   <time name="total">    0.74    0.75</time>
   <energy>
    <i name="e_fr_energy">     -1.92897653 </i>
    <i name="e_wo_entrp">     -1.92897653 </i>
    <i name="e_0_energy">     -1.92897653 </i>
   </energy>
  </scstep>
  <scstep>
   <time name="total">    0.75    0.75</time>
   <energy>
    <i name="e_fr_energy">     -1.92967600 </i>
    <i name="e_wo_entrp">     -1.92967600 </i>
    <i name="e_0_energy">     -1.92967600 </i>
   </energy>
  </scstep>
  <scstep>
   <time name="total">    0.75    0.75</time>
   <energy>
    <i name="e_fr_energy">     -1.92963317 </i>
    <i name="e_wo_entrp">     -1.92963317 </i>
    <i name="e_0_energy">     -1.92963317 </i>
   </energy>
  </scstep>
  <scstep>
   <time name="total">    0.75    0.75</time>
   <energy>
    <i name="e_fr_energy">     -1.92960774 </i>
    <i name="e_wo_entrp">     -1.92960774 </i>
    <i name="e_0_energy">     -1.92960774 </i>
   </energy>
  </scstep>
  <scstep>
   <time name="total">    0.74    0.74</time>
   <energy>
    <i name="e_fr_energy">     -1.92961548 </i>
    <i name="e_wo_entrp">     -1.92961548 </i>
    <i name="e_0_energy">     -1.92961548 </i>
   </energy>
  </scstep>
  <scstep>
   <time name="total">    0.72    0.73</time>
   <energy>
    <i name="e_fr_energy">     -1.92961584 </i>
    <i name="e_wo_entrp">     -1.92961584 </i>
    <i name="e_0_energy">     -1.92961584 </i>
   </energy>
  </scstep>
  <kpoints>
   <generation param="Gamma">
    <v type="int" name="divisions">      10       10       10 </v>
    <v name="usershift">      0.00000000       0.00000000       0.00000000 </v>
    <v name="genvec1">      0.10000000       0.00000000       0.00000000 </v>
    <v name="genvec2">      0.00000000       0.10000000       0.00000000 </v>
    <v name="genvec3">      0.00000000       0.00000000       0.10000000 </v>
    <v name="shift">      0.00000000       0.00000000       0.00000000 </v>
   </generation>
   <varray name="kpointlist" >
    <v>       0.00000000       0.00000000       0.00000000 </v>
    <v>       0.10000000       0.00000000       0.00000000 </v>
    <v>       0.20000000       0.00000000       0.00000000 </v>
    <v>       0.30000000       0.00000000       0.00000000 </v>
    <v>       0.40000000       0.00000000       0.00000000 </v>
    <v>       0.50000000       0.00000000       0.00000000 </v>
    <v>       0.10000000       0.10000000       0.00000000 </v>
    <v>       0.20000000       0.10000000       0.00000000 </v>
    <v>       0.30000000       0.10000000       0.00000000 </v>
    <v>       0.40000000       0.10000000       0.00000000 </v>
    <v>       0.50000000       0.10000000       0.00000000 </v>
    <v>      -0.40000000       0.10000000       0.00000000 </v>
    <v>      -0.30000000       0.10000000       0.00000000 </v>
    <v>      -0.20000000       0.10000000       0.00000000 </v>
    <v>      -0.10000000       0.10000000       0.00000000 </v>
    <v>       0.20000000       0.20000000       0.00000000 </v>
    <v>       0.30000000       0.20000000       0.00000000 </v>
    <v>       0.40000000       0.20000000       0.00000000 </v>
    <v>       0.50000000       0.20000000       0.00000000 </v>
    <v>      -0.40000000       0.20000000       0.00000000 </v>
    <v>      -0.30000000       0.20000000       0.00000000 </v>
    <v>      -0.20000000       0.20000000       0.00000000 </v>
    <v>       0.30000000       0.30000000       0.00000000 </v>
    <v>       0.40000000       0.30000000       0.00000000 </v>
    <v>       0.50000000       0.30000000       0.00000000 </v>
    <v>      -0.40000000       0.30000000       0.00000000 </v>
    <v>      -0.30000000       0.30000000       0.00000000 </v>
    <v>       0.40000000       0.40000000       0.00000000 </v>
    <v>       0.50000000       0.40000000       0.00000000 </v>
    <v>      -0.40000000       0.40000000       0.00000000 </v>
    <v>       0.50000000       0.50000000       0.00000000 </v>
    <v>       0.10000000       0.00000000       0.10000000 </v>
    <v>       0.20000000       0.00000000       0.10000000 </v>
    <v>       0.30000000       0.00000000       0.10000000 </v>
    <v>       0.40000000       0.00000000       0.10000000 </v>
    <v>       0.50000000       0.00000000       0.10000000 </v>
    <v>      -0.40000000       0.00000000       0.10000000 </v>
    <v>      -0.30000000       0.00000000       0.10000000 </v>
    <v>      -0.20000000       0.00000000       0.10000000 </v>
    <v>      -0.10000000       0.00000000       0.10000000 </v>
    <v>       0.30000000       0.20000000       0.10000000 </v>
    <v>       0.40000000       0.20000000       0.10000000 </v>
    <v>       0.50000000       0.20000000       0.10000000 </v>
    <v>      -0.40000000       0.20000000       0.10000000 </v>
    <v>      -0.30000000       0.20000000       0.10000000 </v>
    <v>      -0.20000000       0.20000000       0.10000000 </v>
    <v>      -0.10000000       0.20000000       0.10000000 </v>
    <v>       0.40000000       0.30000000       0.10000000 </v>
    <v>       0.50000000       0.30000000       0.10000000 </v>
    <v>      -0.40000000       0.30000000       0.10000000 </v>
    <v>      -0.30000000       0.30000000       0.10000000 </v>
    <v>      -0.20000000       0.30000000       0.10000000 </v>
    <v>       0.50000000       0.40000000       0.10000000 </v>
    <v>      -0.40000000       0.40000000       0.10000000 </v>
    <v>      -0.30000000       0.40000000       0.10000000 </v>
    <v>      -0.40000000       0.50000000       0.10000000 </v>
    <v>       0.20000000       0.00000000       0.20000000 </v>
    <v>       0.30000000       0.00000000       0.20000000 </v>
    <v>       0.40000000       0.00000000       0.20000000 </v>
    <v>       0.50000000       0.00000000       0.20000000 </v>
    <v>      -0.40000000       0.00000000       0.20000000 </v>
    <v>      -0.30000000       0.00000000       0.20000000 </v>
    <v>      -0.20000000       0.00000000       0.20000000 </v>
    <v>       0.30000000       0.10000000       0.20000000 </v>
    <v>       0.40000000       0.10000000       0.20000000 </v>
    <v>       0.50000000       0.10000000       0.20000000 </v>
    <v>      -0.40000000       0.10000000       0.20000000 </v>
    <v>       0.50000000       0.30000000       0.20000000 </v>
    <v>      -0.40000000       0.30000000       0.20000000 </v>
    <v>      -0.30000000       0.30000000       0.20000000 </v>
    <v>      -0.20000000       0.30000000       0.20000000 </v>
    <v>      -0.10000000       0.30000000       0.20000000 </v>
    <v>      -0.40000000       0.40000000       0.20000000 </v>
    <v>      -0.30000000       0.40000000       0.20000000 </v>
    <v>      -0.20000000       0.40000000       0.20000000 </v>
    <v>      -0.30000000       0.50000000       0.20000000 </v>
    <v>       0.30000000       0.00000000       0.30000000 </v>
    <v>       0.40000000       0.00000000       0.30000000 </v>
    <v>       0.50000000       0.00000000       0.30000000 </v>
    <v>      -0.40000000       0.00000000       0.30000000 </v>
    <v>      -0.30000000       0.00000000       0.30000000 </v>
    <v>       0.40000000       0.10000000       0.30000000 </v>
    <v>       0.50000000       0.10000000       0.30000000 </v>
    <v>      -0.40000000       0.10000000       0.30000000 </v>
    <v>      -0.30000000       0.10000000       0.30000000 </v>
    <v>      -0.20000000       0.10000000       0.30000000 </v>
    <v>      -0.30000000       0.40000000       0.30000000 </v>
    <v>      -0.20000000       0.40000000       0.30000000 </v>
    <v>      -0.10000000       0.40000000       0.30000000 </v>
    <v>      -0.20000000       0.50000000       0.30000000 </v>
    <v>       0.40000000       0.00000000       0.40000000 </v>
    <v>       0.50000000       0.00000000       0.40000000 </v>
    <v>      -0.40000000       0.00000000       0.40000000 </v>
    <v>       0.50000000       0.10000000       0.40000000 </v>
    <v>      -0.40000000       0.10000000       0.40000000 </v>
    <v>      -0.30000000       0.10000000       0.40000000 </v>
    <v>      -0.40000000       0.20000000       0.40000000 </v>
    <v>      -0.30000000       0.20000000       0.40000000 </v>
    <v>      -0.10000000       0.50000000       0.40000000 </v>
    <v>       0.50000000       0.00000000       0.50000000 </v>
    <v>      -0.40000000       0.10000000       0.50000000 </v>
    <v>      -0.30000000       0.20000000       0.50000000 </v>
   </varray>
   <varray name="weights" >
    <v>       0.00100000 </v>
    <v>       0.00800000 </v>
    <v>       0.00800000 </v>
    <v>       0.00800000 </v>
    <v>       0.00800000 </v>
    <v>       0.00400000 </v>
    <v>       0.00200000 </v>
    <v>       0.00800000 </v>
    <v>       0.00800000 </v>
    <v>       0.00800000 </v>
    <v>       0.00800000 </v>
    <v>       0.00800000 </v>
    <v>       0.00800000 </v>
    <v>       0.00800000 </v>
    <v>       0.00400000 </v>
    <v>       0.00200000 </v>
    <v>       0.00800000 </v>
    <v>       0.00800000 </v>
    <v>       0.00800000 </v>
    <v>       0.00800000 </v>
    <v>       0.00800000 </v>
    <v>       0.00400000 </v>
    <v>       0.00200000 </v>
    <v>       0.00800000 </v>
    <v>       0.00800000 </v>
    <v>       0.00800000 </v>
    <v>       0.00400000 </v>
    <v>       0.00200000 </v>
    <v>       0.00800000 </v>
    <v>       0.00400000 </v>
    <v>       0.00100000 </v>
    <v>       0.00400000 </v>
    <v>       0.01600000 </v>
    <v>       0.01600000 </v>
    <v>       0.01600000 </v>
    <v>       0.01600000 </v>
    <v>       0.01600000 </v>
    <v>       0.01600000 </v>
    <v>       0.01600000 </v>
    <v>       0.00800000 </v>
    <v>       0.00800000 </v>
    <v>       0.01600000 </v>
    <v>       0.01600000 </v>
    <v>       0.01600000 </v>
    <v>       0.01600000 </v>
    <v>       0.01600000 </v>
    <v>       0.00800000 </v>
    <v>       0.00800000 </v>
    <v>       0.01600000 </v>
    <v>       0.01600000 </v>
    <v>       0.01600000 </v>
    <v>       0.00800000 </v>
    <v>       0.00800000 </v>
    <v>       0.01600000 </v>
    <v>       0.00800000 </v>
    <v>       0.00400000 </v>
    <v>       0.00400000 </v>
    <v>       0.01600000 </v>
    <v>       0.01600000 </v>
    <v>       0.01600000 </v>
    <v>       0.01600000 </v>
    <v>       0.01600000 </v>
    <v>       0.00800000 </v>
    <v>       0.00800000 </v>
    <v>       0.01600000 </v>
    <v>       0.01600000 </v>
    <v>       0.00800000 </v>
    <v>       0.00800000 </v>
    <v>       0.01600000 </v>
    <v>       0.01600000 </v>
    <v>       0.01600000 </v>
    <v>       0.00800000 </v>
    <v>       0.00800000 </v>
    <v>       0.01600000 </v>
    <v>       0.00800000 </v>
    <v>       0.00400000 </v>
    <v>       0.00400000 </v>
    <v>       0.01600000 </v>
    <v>       0.01600000 </v>
    <v>       0.01600000 </v>
    <v>       0.00800000 </v>
    <v>       0.00800000 </v>
    <v>       0.01600000 </v>
    <v>       0.01600000 </v>
    <v>       0.01600000 </v>
    <v>       0.00800000 </v>
    <v>       0.00800000 </v>
    <v>       0.01600000 </v>
    <v>       0.00800000 </v>
    <v>       0.00400000 </v>
    <v>       0.00400000 </v>
    <v>       0.01600000 </v>
    <v>       0.00800000 </v>
    <v>       0.00800000 </v>
    <v>       0.01600000 </v>
    <v>       0.00800000 </v>
    <v>       0.00800000 </v>
    <v>       0.00800000 </v>
    <v>       0.00400000 </v>
    <v>       0.00200000 </v>
    <v>       0.00400000 </v>
    <v>       0.00400000 </v>
   </varray>
  </kpoints>
  <scstep>
   <time name="total">    0.74    0.74</time>
   <energy>
    <i name="e_fr_energy">     -1.90928103 </i>
    <i name="e_wo_entrp">     -1.90928103 </i>
    <i name="e_0_energy">     -1.90928103 </i>
   </energy>
  </scstep>
  <scstep>
   <time name="total">    0.74    0.74</time>
   <energy>
    <i name="e_fr_energy">     -1.95766137 </i>
    <i name="e_wo_entrp">     -1.95766137 </i>
    <i name="e_0_energy">     -1.95766137 </i>
   </energy>
  </scstep>
  <scstep>
   <time name="total">    0.74    0.74</time>
   <energy>
    <i name="e_fr_energy">     -1.82930961 </i>
    <i name="e_wo_entrp">     -1.82930961 </i>
    <i name="e_0_energy">     -1.82930961 </i>
   </energy>
  </scstep>
  <scstep>
   <time name="total">    0.73    0.73</time>
   <energy>
    <i name="e_fr_energy">     -1.89226307 </i>
    <i name="e_wo_entrp">     -1.89226307 </i>
    <i name="e_0_energy">     -1.89226307 </i>
   </energy>
  </scstep>
  <scstep>
   <time name="total">    0.74    0.74</time>
   <energy>
    <i name="e_fr_energy">     -1.92849418 </i>
    <i name="e_wo_entrp">     -1.92849418 </i>
    <i name="e_0_energy">     -1.92849418 </i>
   </energy>
  </scstep>
  <scstep>
   <time name="total">    0.74    0.75</time>
   <energy>
    <i name="e_fr_energy">     -1.92897801 </i>
    <i name="e_wo_entrp">     -1.92897801 </i>
    <i name="e_0_energy">     -1.92897801 </i>
   </energy>
  </scstep>
  <scstep>
   <time name="total">    0.74    0.74</time>
   <energy>
    <i name="e_fr_energy">     -1.92967711 </i>
    <i name="e_wo_entrp">     -1.92967711 </i>
    <i name="e_0_energy">     -1.92967711 </i>
   </energy>
  </scstep>
  <scstep>
   <time name="total">    0.75    0.76</time>
   <energy>
    <i name="e_fr_energy">     -1.92963428 </i>
    <i name="e_wo_entrp">     -1.92963428 </i>
    <i name="e_0_energy">     -1.92963428 </i>
   </energy>
  </scstep>
  <scstep>
   <time name="total">    0.74    0.75</time>
   <energy>
    <i name="e_fr_energy">     -1.92960886 </i>
    <i name="e_wo_entrp">     -1.92960886 </i>
    <i name="e_0_energy">     -1.92960886 </i>
   </energy>
  </scstep>
  <scstep>
   <time name="total">    0.73    0.74</time>
   <energy>
    <i name="e_fr_energy">     -1.92961661 </i>
    <i name="e_wo_entrp">     -1.92961661 </i>
    <i name="e_0_energy">     -1.92961661 </i>
   </energy>
  </scstep>
  <scstep>
   <time name="total">    0.72    0.72</time>
   <energy>
    <i name="e_fr_energy">     -1.92961697 </i>
    <i name="e_wo_entrp">     -1.92961697 </i>
    <i name="e_0_energy">     -1.92961697 </i>
   </energy>
  </scstep>
  <varray name="epsilon" >
   <v>       9.04289331       0.00000000       0.00000000 </v>
   <v>      -0.00000000       9.04289331       0.00000000 </v>
   <v>       0.00000000       0.00000000       9.04289331 </v>
  </varray>
  <kpoints>
   <generation param="Gamma">
    <v type="int" name="divisions">      10       10       10 </v>
    <v name="usershift">      0.00000000       0.00000000       0.00000000 </v>
    <v name="genvec1">      0.10000000       0.00000000       0.00000000 </v>
    <v name="genvec2">      0.00000000       0.10000000       0.00000000 </v>
    <v name="genvec3">      0.00000000       0.00000000       0.10000000 </v>
    <v name="shift">      0.00000000       0.00000000       0.00000000 </v>
   </generation>
   <varray name="kpointlist" >
    <v>       0.00000000       0.00000000       0.00000000 </v>
    <v>       0.10000000       0.00000000       0.00000000 </v>
    <v>       0.20000000       0.00000000       0.00000000 </v>
    <v>       0.30000000       0.00000000       0.00000000 </v>
    <v>       0.40000000       0.00000000       0.00000000 </v>
    <v>       0.50000000       0.00000000       0.00000000 </v>
    <v>       0.10000000       0.10000000       0.00000000 </v>
    <v>       0.20000000       0.10000000       0.00000000 </v>
    <v>       0.30000000       0.10000000       0.00000000 </v>
    <v>       0.40000000       0.10000000       0.00000000 </v>
    <v>       0.50000000       0.10000000       0.00000000 </v>
    <v>      -0.40000000       0.10000000       0.00000000 </v>
    <v>      -0.30000000       0.10000000       0.00000000 </v>
    <v>      -0.20000000       0.10000000       0.00000000 </v>
    <v>      -0.10000000       0.10000000       0.00000000 </v>
    <v>       0.20000000       0.20000000       0.00000000 </v>
    <v>       0.30000000       0.20000000       0.00000000 </v>
    <v>       0.40000000       0.20000000       0.00000000 </v>
    <v>       0.50000000       0.20000000       0.00000000 </v>
    <v>      -0.40000000       0.20000000       0.00000000 </v>
    <v>      -0.30000000       0.20000000       0.00000000 </v>
    <v>      -0.20000000       0.20000000       0.00000000 </v>
    <v>       0.30000000       0.30000000       0.00000000 </v>
    <v>       0.40000000       0.30000000       0.00000000 </v>
    <v>       0.50000000       0.30000000       0.00000000 </v>
    <v>      -0.40000000       0.30000000       0.00000000 </v>
    <v>      -0.30000000       0.30000000       0.00000000 </v>
    <v>       0.40000000       0.40000000       0.00000000 </v>
    <v>       0.50000000       0.40000000       0.00000000 </v>
    <v>      -0.40000000       0.40000000       0.00000000 </v>
    <v>       0.50000000       0.50000000       0.00000000 </v>
    <v>       0.00000000       0.10000000       0.10000000 </v>
    <v>       0.20000000       0.10000000       0.10000000 </v>
    <v>       0.30000000       0.10000000       0.10000000 </v>
    <v>       0.40000000       0.10000000       0.10000000 </v>
    <v>       0.50000000       0.10000000       0.10000000 </v>
    <v>      -0.40000000       0.10000000       0.10000000 </v>
    <v>      -0.30000000       0.10000000       0.10000000 </v>
    <v>      -0.20000000       0.10000000       0.10000000 </v>
    <v>      -0.10000000       0.10000000       0.10000000 </v>
    <v>       0.30000000       0.20000000       0.10000000 </v>
    <v>       0.40000000       0.20000000       0.10000000 </v>
    <v>       0.50000000       0.20000000       0.10000000 </v>
    <v>      -0.40000000       0.20000000       0.10000000 </v>
    <v>      -0.30000000       0.20000000       0.10000000 </v>
    <v>      -0.20000000       0.20000000       0.10000000 </v>
    <v>      -0.10000000       0.20000000       0.10000000 </v>
    <v>       0.20000000       0.30000000       0.10000000 </v>
    <v>       0.40000000       0.30000000       0.10000000 </v>
    <v>       0.50000000       0.30000000       0.10000000 </v>
    <v>      -0.40000000       0.30000000       0.10000000 </v>
    <v>      -0.30000000       0.30000000       0.10000000 </v>
    <v>      -0.20000000       0.30000000       0.10000000 </v>
    <v>       0.20000000       0.40000000       0.10000000 </v>
    <v>       0.30000000       0.40000000       0.10000000 </v>
    <v>       0.50000000       0.40000000       0.10000000 </v>
    <v>      -0.40000000       0.40000000       0.10000000 </v>
    <v>      -0.30000000       0.40000000       0.10000000 </v>
    <v>       0.20000000       0.50000000       0.10000000 </v>
    <v>       0.30000000       0.50000000       0.10000000 </v>
    <v>       0.40000000       0.50000000       0.10000000 </v>
    <v>      -0.40000000       0.50000000       0.10000000 </v>
    <v>       0.20000000      -0.40000000       0.10000000 </v>
    <v>       0.30000000      -0.40000000       0.10000000 </v>
    <v>       0.40000000      -0.40000000       0.10000000 </v>
    <v>       0.50000000      -0.40000000       0.10000000 </v>
    <v>       0.30000000      -0.30000000       0.10000000 </v>
    <v>       0.40000000      -0.30000000       0.10000000 </v>
    <v>       0.30000000      -0.20000000       0.10000000 </v>
    <v>       0.00000000       0.20000000       0.20000000 </v>
    <v>       0.40000000       0.20000000       0.20000000 </v>
    <v>       0.50000000       0.20000000       0.20000000 </v>
    <v>      -0.40000000       0.20000000       0.20000000 </v>
    <v>      -0.30000000       0.20000000       0.20000000 </v>
    <v>      -0.20000000       0.20000000       0.20000000 </v>
    <v>      -0.10000000       0.20000000       0.20000000 </v>
    <v>       0.50000000       0.30000000       0.20000000 </v>
    <v>      -0.40000000       0.30000000       0.20000000 </v>
    <v>      -0.30000000       0.30000000       0.20000000 </v>
    <v>      -0.20000000       0.30000000       0.20000000 </v>
    <v>      -0.10000000       0.30000000       0.20000000 </v>
    <v>      -0.40000000       0.40000000       0.20000000 </v>
    <v>      -0.30000000       0.40000000       0.20000000 </v>
    <v>      -0.20000000       0.40000000       0.20000000 </v>
    <v>      -0.30000000       0.50000000       0.20000000 </v>
    <v>       0.40000000      -0.40000000       0.20000000 </v>
    <v>       0.40000000      -0.30000000       0.20000000 </v>
    <v>       0.50000000      -0.30000000       0.20000000 </v>
    <v>       0.00000000       0.30000000       0.30000000 </v>
    <v>      -0.40000000       0.30000000       0.30000000 </v>
    <v>      -0.30000000       0.30000000       0.30000000 </v>
    <v>      -0.20000000       0.30000000       0.30000000 </v>
    <v>      -0.10000000       0.30000000       0.30000000 </v>
    <v>      -0.30000000       0.40000000       0.30000000 </v>
    <v>      -0.20000000       0.40000000       0.30000000 </v>
    <v>      -0.10000000       0.40000000       0.30000000 </v>
    <v>      -0.20000000       0.50000000       0.30000000 </v>
[...]
        <r>  0.0005  0.0008  0.0003  0.0000  0.0000  0.0000  0.0000  0.0000  0.0000 </r>
       </set>
       <set comment="band 2">
        <r>  0.0068  0.0599  0.1249  0.0000  0.0000  0.0001  0.0003  0.0000  0.0002 </r>
        <r>  0.0248  0.0039  0.0023  0.0113  0.0000  0.0000  0.0000  0.0000  0.0000 </r>
        <r>  0.0248  0.0039  0.0023  0.0113  0.0000  0.0000  0.0000  0.0000  0.0000 </r>
        <r>  0.0273  0.0003  0.0058  0.0000  0.0000  0.0000  0.0000  0.0000  0.0000 </r>
       </set>
       <set comment="band 3">
        <r>  0.0000  0.0000  0.0000  0.2175  0.0007  0.0000  0.0000  0.0002  0.0000 </r>
        <r>  0.0229  0.0188  0.0012  0.0001  0.0000  0.0000  0.0000  0.0000  0.0000 </r>
        <r>  0.0229  0.0188  0.0012  0.0001  0.0000  0.0000  0.0000  0.0000  0.0000 </r>
        <r>  0.0000  0.0000  0.0000  0.0156  0.0000  0.0000  0.0000  0.0000  0.0000 </r>
       </set>
       <set comment="band 4">
        <r>  0.0006  0.1372  0.0859  0.0000  0.0000  0.0004  0.0013  0.0000  0.0002 </r>
        <r>  0.0080  0.0051  0.0141  0.0125  0.0000  0.0000  0.0000  0.0000  0.0000 </r>
        <r>  0.0080  0.0051  0.0141  0.0125  0.0000  0.0000  0.0000  0.0000  0.0000 </r>
        <r>  0.0149  0.0005  0.0081  0.0000  0.0000  0.0000  0.0000  0.0000  0.0000 </r>
       </set>
       <set comment="band 5">
        <r>  0.0391  0.0847  0.0002  0.0000  0.0000  0.0000  0.0201  0.0000  0.0000 </r>
        <r>  0.0000  0.0001  0.0264  0.0069  0.0000  0.0000  0.0000  0.0000  0.0000 </r>
        <r>  0.0000  0.0001  0.0264  0.0069  0.0000  0.0000  0.0000  0.0000  0.0000 </r>
        <r>  0.0882  0.0213  0.0034  0.0000  0.0000  0.0000  0.0000  0.0000  0.0000 </r>
       </set>
       <set comment="band 6">
        <r>  0.0425  0.0520  0.0061  0.0000  0.0000  0.0134  0.0008  0.0000  0.0133 </r>
        <r>  0.0197  0.0135  0.0058  0.0274  0.0000  0.0000  0.0000  0.0000  0.0000 </r>
        <r>  0.0197  0.0135  0.0058  0.0274  0.0000  0.0000  0.0000  0.0000  0.0000 </r>
        <r>  0.0211  0.0392  0.0034  0.0000  0.0000  0.0000  0.0000  0.0000  0.0000 </r>
       </set>
       <set comment="band 7">
        <r>  0.0000  0.0000  0.0000  0.0230  0.0447  0.0000  0.0000  0.0004  0.0000 </r>
        <r>  0.0599  0.0337  0.0095  0.0002  0.0000  0.0000  0.0000  0.0000  0.0000 </r>
        <r>  0.0599  0.0337  0.0095  0.0002  0.0000  0.0000  0.0000  0.0000  0.0000 </r>
        <r>  0.0000  0.0000  0.0000  0.0000  0.0000  0.0000  0.0000  0.0000  0.0000 </r>
       </set>
       <set comment="band 8">
        <r>  0.0123  0.0341  0.0185  0.0000  0.0000  0.0359  0.0015  0.0000  0.0036 </r>
        <r>  0.0255  0.0509  0.0103  0.0075  0.0000  0.0000  0.0000  0.0000  0.0000 </r>
        <r>  0.0255  0.0509  0.0103  0.0075  0.0000  0.0000  0.0000  0.0000  0.0000 </r>
        <r>  0.0129  0.0076  0.0017  0.0000  0.0000  0.0000  0.0000  0.0000  0.0000 </r>
       </set>
       <set comment="band 9">
        <r>  0.0000  0.0000  0.0000  0.1550  0.0020  0.0000  0.0000  0.0459  0.0000 </r>
        <r>  0.0128  0.0275  0.0119  0.0368  0.0000  0.0000  0.0000  0.0000  0.0000 </r>
        <r>  0.0128  0.0275  0.0119  0.0368  0.0000  0.0000  0.0000  0.0000  0.0000 </r>
        <r>  0.0000  0.0000  0.0000  0.0366  0.0000  0.0000  0.0000  0.0000  0.0000 </r>
       </set>
       <set comment="band 10">
        <r>  0.0284  0.0005  0.1721  0.0000  0.0000  0.0040  0.0077  0.0000  0.0202 </r>
        <r>  0.0139  0.0187  0.0001  0.0044  0.0000  0.0000  0.0000  0.0000  0.0000 </r>
        <r>  0.0139  0.0187  0.0001  0.0044  0.0000  0.0000  0.0000  0.0000  0.0000 </r>
        <r>  0.0118  0.0148  0.0556  0.0000  0.0000  0.0000  0.0000  0.0000  0.0000 </r>
       </set>
       <set comment="band 11">
        <r>  0.0000  0.0000  0.0000  0.0011  0.0000  0.0000  0.0000  0.0012  0.0000 </r>
        <r>  0.0206  0.0000  0.0817  0.0716  0.0000  0.0000  0.0000  0.0000  0.0000 </r>
        <r>  0.0206  0.0000  0.0817  0.0716  0.0000  0.0000  0.0000  0.0000  0.0000 </r>
        <r>  0.0000  0.0000  0.0000  0.0202  0.0000  0.0000  0.0000  0.0000  0.0000 </r>
       </set>
       <set comment="band 12">
        <r>  0.0000  0.0000  0.0000  0.1028  0.0003  0.0000  0.0000  0.0735  0.0000 </r>
        <r>  0.0003  0.0208  0.0469  0.0700  0.0000  0.0000  0.0000  0.0000  0.0000 </r>
        <r>  0.0003  0.0208  0.0469  0.0700  0.0000  0.0000  0.0000  0.0000  0.0000 </r>
        <r>  0.0000  0.0000  0.0000  0.0404  0.0000  0.0000  0.0000  0.0000  0.0000 </r>
       </set>
       <set comment="band 13">
        <r>  0.0290  0.0013  0.0310  0.0000  0.0000  0.0020  0.0003  0.0000  0.0832 </r>
        <r>  0.0026  0.0076  0.0306  0.0005  0.0000  0.0000  0.0000  0.0000  0.0000 </r>
        <r>  0.0026  0.0076  0.0306  0.0005  0.0000  0.0000  0.0000  0.0000  0.0000 </r>
        <r>  0.0614  0.0019  0.0132  0.0000  0.0000  0.0000  0.0000  0.0000  0.0000 </r>
       </set>
       <set comment="band 14">
        <r>  0.0002  0.0466  0.0927  0.0000  0.0000  0.0340  0.0056  0.0000  0.0313 </r>
        <r>  0.0203  0.0132  0.0026  0.0487  0.0000  0.0000  0.0000  0.0000  0.0000 </r>
        <r>  0.0203  0.0132  0.0026  0.0487  0.0000  0.0000  0.0000  0.0000  0.0000 </r>
        <r>  0.0183  0.0219  0.0040  0.0000  0.0000  0.0000  0.0000  0.0000  0.0000 </r>
       </set>
       <set comment="band 15">
        <r>  0.0219  0.0614  0.0029  0.0000  0.0000  0.0177  0.0543  0.0000  0.0068 </r>
        <r>  0.0110  0.0001  0.0290  0.0022  0.0000  0.0000  0.0000  0.0000  0.0000 </r>
        <r>  0.0110  0.0001  0.0290  0.0022  0.0000  0.0000  0.0000  0.0000  0.0000 </r>
        <r>  0.0024  0.0116  0.0347  0.0000  0.0000  0.0000  0.0000  0.0000  0.0000 </r>
       </set>
       <set comment="band 16">
        <r>  0.0000  0.0000  0.0000  0.0015  0.0022  0.0000  0.0000  0.0303  0.0000 </r>
        <r>  0.0003  0.0325  0.0696  0.0006  0.0000  0.0000  0.0000  0.0000  0.0000 </r>
        <r>  0.0003  0.0325  0.0696  0.0006  0.0000  0.0000  0.0000  0.0000  0.0000 </r>
        <r>  0.0000  0.0000  0.0000  0.1424  0.0000  0.0000  0.0000  0.0000  0.0000 </r>
       </set>
      </set>
      <set comment="kpoint 46">
       <set comment="band 1">
        <r>  0.5600  0.0000  0.0000  0.0000  0.0000  0.0000  0.0000  0.0000  0.0000 </r>
        <r>  0.0005  0.0002  0.0035  0.0035  0.0000  0.0000  0.0000  0.0000  0.0000 </r>
        <r>  0.0005  0.0002  0.0035  0.0035  0.0000  0.0000  0.0000  0.0000  0.0000 </r>
        <r>  0.0000  0.0010  0.0001  0.0001  0.0000  0.0000  0.0000  0.0000  0.0000 </r>
       </set>
       <set comment="band 2">
        <r>  0.0000  0.0632  0.0611  0.0611  0.0001  0.0001  0.0005  0.0000  0.0002 </r>
        <r>  0.0220  0.0071  0.0071  0.0071  0.0000  0.0000  0.0000  0.0000  0.0000 </r>
        <r>  0.0220  0.0071  0.0071  0.0071  0.0000  0.0000  0.0000  0.0000  0.0000 </r>
        <r>  0.0264  0.0000  0.0036  0.0036  0.0000  0.0000  0.0000  0.0000  0.0000 </r>
       </set>
       <set comment="band 3">
        <r>  0.0020  0.0000  0.1064  0.1064  0.0003  0.0003  0.0000  0.0001  0.0000 </r>
        <r>  0.0289  0.0130  0.0007  0.0007  0.0000  0.0000  0.0000  0.0000  0.0000 </r>
        <r>  0.0289  0.0130  0.0007  0.0007  0.0000  0.0000  0.0000  0.0000  0.0000 </r>
        <r>  0.0000  0.0000  0.0077  0.0077  0.0000  0.0000  0.0000  0.0000  0.0000 </r>
       </set>
       <set comment="band 4">
        <r>  0.0000  0.1267  0.0438  0.0438  0.0002  0.0002  0.0011  0.0000  0.0004 </r>
        <r>  0.0079  0.0071  0.0128  0.0128  0.0000  0.0000  0.0000  0.0000  0.0000 </r>
        <r>  0.0079  0.0071  0.0128  0.0128  0.0000  0.0000  0.0000  0.0000  0.0000 </r>
        <r>  0.0186  0.0000  0.0041  0.0041  0.0000  0.0000  0.0000  0.0000  0.0000 </r>
       </set>
       <set comment="band 5">
        <r>  0.0000  0.1471  0.0006  0.0006  0.0022  0.0022  0.0163  0.0000  0.0054 </r>
        <r>  0.0081  0.0043  0.0028  0.0028  0.0000  0.0000  0.0000  0.0000  0.0000 </r>
        <r>  0.0081  0.0043  0.0028  0.0028  0.0000  0.0000  0.0000  0.0000  0.0000 </r>
        <r>  0.1094  0.0000  0.0017  0.0017  0.0000  0.0000  0.0000  0.0000  0.0000 </r>
       </set>
       <set comment="band 6">
        <r>  0.0799  0.0000  0.0013  0.0013  0.0036  0.0036  0.0034  0.0000  0.0102 </r>
        <r>  0.0125  0.0055  0.0299  0.0299  0.0000  0.0000  0.0000  0.0000  0.0000 </r>
        <r>  0.0125  0.0055  0.0299  0.0299  0.0000  0.0000  0.0000  0.0000  0.0000 </r>
        <r>  0.0000  0.0644  0.0001  0.0001  0.0000  0.0000  0.0000  0.0000  0.0000 </r>
       </set>
       <set comment="band 7">
        <r>  0.0115  0.0000  0.0120  0.0120  0.0198  0.0198  0.0004  0.0004  0.0013 </r>
        <r>  0.0432  0.0429  0.0084  0.0084  0.0000  0.0000  0.0000  0.0000  0.0000 </r>
        <r>  0.0432  0.0429  0.0084  0.0084  0.0000  0.0000  0.0000  0.0000  0.0000 </r>
        <r>  0.0000  0.0080  0.0000  0.0000  0.0000  0.0000  0.0000  0.0000  0.0000 </r>
       </set>
       <set comment="band 8">
        <r>  0.0000  0.0266  0.0139  0.0139  0.0220  0.0220  0.0025  0.0000  0.0008 </r>
        <r>  0.0467  0.0412  0.0018  0.0018  0.0000  0.0000  0.0000  0.0000  0.0000 </r>
        <r>  0.0467  0.0412  0.0018  0.0018  0.0000  0.0000  0.0000  0.0000  0.0000 </r>
        <r>  0.0163  0.0000  0.0001  0.0001  0.0000  0.0000  0.0000  0.0000  0.0000 </r>
       </set>
       <set comment="band 9">
        <r>  0.0144  0.0000  0.0784  0.0784  0.0014  0.0014  0.0032  0.0280  0.0095 </r>
        <r>  0.0165  0.0217  0.0155  0.0155  0.0000  0.0000  0.0000  0.0000  0.0000 </r>
        <r>  0.0165  0.0217  0.0155  0.0155  0.0000  0.0000  0.0000  0.0000  0.0000 </r>
        <r>  0.0000  0.0049  0.0223  0.0223  0.0000  0.0000  0.0000  0.0000  0.0000 </r>
       </set>
       <set comment="band 10">
        <r>  0.0000  0.0000  0.1207  0.1207  0.0014  0.0014  0.0005  0.0000  0.0002 </r>
        <r>  0.0066  0.0384  0.0036  0.0036  0.0000  0.0000  0.0000  0.0000  0.0000 </r>
        <r>  0.0066  0.0384  0.0036  0.0036  0.0000  0.0000  0.0000  0.0000  0.0000 </r>
        <r>  0.0135  0.0000  0.0393  0.0393  0.0000  0.0000  0.0000  0.0000  0.0000 </r>
       </set>
       <set comment="band 11">
        <r>  0.0000  0.0000  0.0053  0.0053  0.0000  0.0000  0.0002  0.0000  0.0001 </r>
        <r>  0.0159  0.0003  0.0834  0.0834  0.0000  0.0000  0.0000  0.0000  0.0000 </r>
        <r>  0.0159  0.0003  0.0834  0.0834  0.0000  0.0000  0.0000  0.0000  0.0000 </r>
        <r>  0.0005  0.0000  0.0016  0.0016  0.0000  0.0000  0.0000  0.0000  0.0000 </r>
       </set>
       <set comment="band 12">
        <r>  0.0193  0.0000  0.0092  0.0092  0.0000  0.0000  0.0062  0.0911  0.0186 </r>
        <r>  0.0005  0.0041  0.0608  0.0608  0.0000  0.0000  0.0000  0.0000  0.0000 </r>
        <r>  0.0005  0.0041  0.0608  0.0608  0.0000  0.0000  0.0000  0.0000  0.0000 </r>
        <r>  0.0000  0.0070  0.0090  0.0090  0.0000  0.0000  0.0000  0.0000  0.0000 </r>
       </set>
       <set comment="band 13">
        <r>  0.0325  0.0000  0.0498  0.0498  0.0000  0.0000  0.0229  0.0069  0.0688 </r>
        <r>  0.0009  0.0181  0.0212  0.0212  0.0000  0.0000  0.0000  0.0000  0.0000 </r>
        <r>  0.0009  0.0181  0.0212  0.0212  0.0000  0.0000  0.0000  0.0000  0.0000 </r>
        <r>  0.0000  0.0210  0.0104  0.0104  0.0000  0.0000  0.0000  0.0000  0.0000 </r>
       </set>
       <set comment="band 14">
        <r>  0.0000  0.0306  0.0118  0.0118  0.0033  0.0033  0.0121  0.0000  0.0040 </r>
        <r>  0.0139  0.0054  0.0380  0.0380  0.0000  0.0000  0.0000  0.0000  0.0000 </r>
        <r>  0.0139  0.0054  0.0380  0.0380  0.0000  0.0000  0.0000  0.0000  0.0000 </r>
        <r>  0.0933  0.0000  0.0007  0.0007  0.0000  0.0000  0.0000  0.0000  0.0000 </r>
       </set>
       <set comment="band 15">
        <r>  0.0033  0.0000  0.0033  0.0033  0.0108  0.0108  0.0000  0.0051  0.0001 </r>
        <r>  0.0248  0.0138  0.0088  0.0088  0.0000  0.0000  0.0000  0.0000  0.0000 </r>
        <r>  0.0248  0.0138  0.0088  0.0088  0.0000  0.0000  0.0000  0.0000  0.0000 </r>
        <r>  0.0000  0.0024  0.0649  0.0649  0.0000  0.0000  0.0000  0.0000  0.0000 </r>
       </set>
       <set comment="band 16">
        <r>  0.0000  0.1074  0.0014  0.0014  0.0049  0.0049  0.0424  0.0000  0.0141 </r>
        <r>  0.0049  0.0030  0.0333  0.0333  0.0000  0.0000  0.0000  0.0000  0.0000 </r>
        <r>  0.0049  0.0030  0.0333  0.0333  0.0000  0.0000  0.0000  0.0000  0.0000 </r>
        <r>  0.0000  0.0000  0.0558  0.0558  0.0000  0.0000  0.0000  0.0000  0.0000 </r>
       </set>
      </set>
      <set comment="kpoint 47">
       <set comment="band 1">
        <r>  0.5626  0.0000  0.0000  0.0000  0.0000  0.0000  0.0000  0.0000  0.0000 </r>
        <r>  0.0000  0.0000  0.0050  0.0025  0.0000  0.0000  0.0000  0.0000  0.0000 </r>
        <r>  0.0000  0.0000  0.0050  0.0025  0.0000  0.0000  0.0000  0.0000  0.0000 </r>
        <r>  0.0002  0.0009  0.0000  0.0000  0.0000  0.0000  0.0000  0.0000  0.0000 </r>
       </set>
       <set comment="band 2">
        <r>  0.0000  0.0000  0.2044  0.0000  0.0000  0.0005  0.0000  0.0000  0.0000 </r>
        <r>  0.0359  0.0087  0.0000  0.0000  0.0000  0.0000  0.0000  0.0000  0.0000 </r>
        <r>  0.0359  0.0087  0.0000  0.0000  0.0000  0.0000  0.0000  0.0000  0.0000 </r>
        <r>  0.0000  0.0000  0.0163  0.0000  0.0000  0.0000  0.0000  0.0000  0.0000 </r>
       </set>
       <set comment="band 3">
        <r>  0.0000  0.0000  0.0000  0.2154  0.0007  0.0000  0.0000  0.0000  0.0000 </r>
        <r>  0.0238  0.0195  0.0000  0.0000  0.0000  0.0000  0.0000  0.0000  0.0000 </r>
        <r>  0.0238  0.0195  0.0000  0.0000  0.0000  0.0000  0.0000  0.0000  0.0000 </r>
        <r>  0.0000  0.0000  0.0000  0.0159  0.0000  0.0000  0.0000  0.0000  0.0000 </r>
       </set>
       <set comment="band 4">
        <r>  0.0003  0.1872  0.0000  0.0000  0.0000  0.0000  0.0018  0.0000  0.0004 </r>
        <r>  0.0000  0.0000  0.0161  0.0246  0.0000  0.0000  0.0000  0.0000  0.0000 </r>
        <r>  0.0000  0.0000  0.0161  0.0246  0.0000  0.0000  0.0000  0.0000  0.0000 </r>
        <r>  0.0432  0.0010  0.0000  0.0000  0.0000  0.0000  0.0000  0.0000  0.0000 </r>
       </set>
       <set comment="band 5">
        <r>  0.0403  0.0867  0.0000  0.0000  0.0000  0.0000  0.0197  0.0000  0.0000 </r>
        <r>  0.0000  0.0000  0.0249  0.0078  0.0000  0.0000  0.0000  0.0000  0.0000 </r>
        <r>  0.0000  0.0000  0.0249  0.0078  0.0000  0.0000  0.0000  0.0000  0.0000 </r>
        <r>  0.0895  0.0228  0.0000  0.0000  0.0000  0.0000  0.0000  0.0000  0.0000 </r>
       </set>
       <set comment="band 6">
        <r>  0.0000  0.0000  0.0000  0.0236  0.0454  0.0000  0.0000  0.0000  0.0000 </r>
        <r>  0.0695  0.0336  0.0000  0.0000  0.0000  0.0000  0.0000  0.0000  0.0000 </r>
        <r>  0.0695  0.0336  0.0000  0.0000  0.0000  0.0000  0.0000  0.0000  0.0000 </r>
        <r>  0.0000  0.0000  0.0000  0.0000  0.0000  0.0000  0.0000  0.0000  0.0000 </r>
       </set>
       <set comment="band 7">
        <r>  0.0484  0.0919  0.0000  0.0000  0.0000  0.0000  0.0014  0.0000  0.0194 </r>
        <r>  0.0000  0.0000  0.0149  0.0301  0.0000  0.0000  0.0000  0.0000  0.0000 </r>
        <r>  0.0000  0.0000  0.0149  0.0301  0.0000  0.0000  0.0000  0.0000  0.0000 </r>
        <r>  0.0396  0.0506  0.0000  0.0000  0.0000  0.0000  0.0000  0.0000  0.0000 </r>
       </set>
       <set comment="band 8">
        <r>  0.0000  0.0000  0.0333  0.0000  0.0000  0.0510  0.0000  0.0000  0.0000 </r>
        <r>  0.0470  0.0617  0.0000  0.0000  0.0000  0.0000  0.0000  0.0000  0.0000 </r>
        <r>  0.0470  0.0617  0.0000  0.0000  0.0000  0.0000  0.0000  0.0000  0.0000 </r>
        <r>  0.0000  0.0000  0.0001  0.0000  0.0000  0.0000  0.0000  0.0000  0.0000 </r>
       </set>
       <set comment="band 9">
        <r>  0.0000  0.0000  0.0000  0.2578  0.0022  0.0000  0.0000  0.0000  0.0000 </r>
        <r>  0.0078  0.0431  0.0000  0.0000  0.0000  0.0000  0.0000  0.0000  0.0000 </r>
        <r>  0.0078  0.0431  0.0000  0.0000  0.0000  0.0000  0.0000  0.0000  0.0000 </r>
        <r>  0.0000  0.0000  0.0000  0.0819  0.0000  0.0000  0.0000  0.0000  0.0000 </r>
       </set>
       <set comment="band 10">
        <r>  0.0000  0.0000  0.2758  0.0000  0.0000  0.0025  0.0000  0.0000  0.0000 </r>
        <r>  0.0187  0.0354  0.0000  0.0000  0.0000  0.0000  0.0000  0.0000  0.0000 </r>
        <r>  0.0187  0.0354  0.0000  0.0000  0.0000  0.0000  0.0000  0.0000  0.0000 </r>
        <r>  0.0000  0.0000  0.0784  0.0000  0.0000  0.0000  0.0000  0.0000  0.0000 </r>
       </set>
       <set comment="band 11">
        <r>  0.0000  0.0000  0.0000  0.0000  0.0000  0.0000  0.0000  0.1106  0.0000 </r>
        <r>  0.0000  0.0000  0.0156  0.1523  0.0000  0.0000  0.0000  0.0000  0.0000 </r>
        <r>  0.0000  0.0000  0.0156  0.1523  0.0000  0.0000  0.0000  0.0000  0.0000 </r>
        <r>  0.0000  0.0000  0.0000  0.0000  0.0000  0.0000  0.0000  0.0000  0.0000 </r>
       </set>
       <set comment="band 12">
        <r>  0.0000  0.0000  0.0000  0.0000  0.0000  0.0000  0.0000  0.0197  0.0000 </r>
        <r>  0.0000  0.0000  0.1741  0.0253  0.0000  0.0000  0.0000  0.0000  0.0000 </r>
        <r>  0.0000  0.0000  0.1741  0.0253  0.0000  0.0000  0.0000  0.0000  0.0000 </r>
        <r>  0.0000  0.0000  0.0000  0.0000  0.0000  0.0000  0.0000  0.0000  0.0000 </r>
       </set>
       <set comment="band 13">
        <r>  0.0713  0.0000  0.0000  0.0000  0.0000  0.0000  0.0214  0.0000  0.1034 </r>
        <r>  0.0000  0.0000  0.0230  0.0105  0.0000  0.0000  0.0000  0.0000  0.0000 </r>
        <r>  0.0000  0.0000  0.0230  0.0105  0.0000  0.0000  0.0000  0.0000  0.0000 </r>
        <r>  0.0034  0.0260  0.0000  0.0000  0.0000  0.0000  0.0000  0.0000  0.0000 </r>
       </set>
       <set comment="band 14">
        <r>  0.0002  0.0516  0.0000  0.0000  0.0000  0.0000  0.0152  0.0000  0.0002 </r>
        <r>  0.0000  0.0000  0.0412  0.0615  0.0000  0.0000  0.0000  0.0000  0.0000 </r>
        <r>  0.0000  0.0000  0.0412  0.0615  0.0000  0.0000  0.0000  0.0000  0.0000 </r>
        <r>  0.1147  0.0081  0.0000  0.0000  0.0000  0.0000  0.0000  0.0000  0.0000 </r>
       </set>
       <set comment="band 15">
        <r>  0.0000  0.0000  0.0019  0.0000  0.0000  0.0098  0.0000  0.0000  0.0000 </r>
        <r>  0.0394  0.0000  0.0000  0.0000  0.0000  0.0000  0.0000  0.0000  0.0000 </r>
        <r>  0.0394  0.0000  0.0000  0.0000  0.0000  0.0000  0.0000  0.0000  0.0000 </r>
        <r>  0.0000  0.0000  0.1241  0.0000  0.0000  0.0000  0.0000  0.0000  0.0000 </r>
       </set>
       <set comment="band 16">
        <r>  0.0000  0.0000  0.0000  0.0081  0.0071  0.0000  0.0000  0.0000  0.0000 </r>
        <r>  0.0290  0.0253  0.0000  0.0000  0.0000  0.0000  0.0000  0.0000  0.0000 </r>
        <r>  0.0290  0.0253  0.0000  0.0000  0.0000  0.0000  0.0000  0.0000  0.0000 </r>
        <r>  0.0000  0.0000  0.0000  0.1760  0.0000  0.0000  0.0000  0.0000  0.0000 </r>
       </set>
      </set>
     </set>
    </set>
   </array>
  </projected>
 </calculation>
 <structure name="finalpos" >
  <crystal>
   <varray name="basis" >
    <v>       0.00000000       3.39900000       3.39900000 </v>
    <v>       3.39900000       0.00000000       3.39900000 </v>
    <v>       3.39900000       3.39900000       0.00000000 </v>
   </varray>
   <i name="volume">     78.53866040 </i>
   <varray name="rec_basis" >
    <v>      -0.14710209       0.14710209       0.14710209 </v>
    <v>       0.14710209      -0.14710209       0.14710209 </v>
    <v>       0.14710209       0.14710209      -0.14710209 </v>
   </varray>
  </crystal>
  <varray name="positions" >
   <v>       0.00000000       0.00000000       0.00000000 </v>
   <v>       0.75000000       0.75000000       0.75000000 </v>
   <v>       0.25000000       0.25000000       0.25000000 </v>
   <v>       0.50000000       0.50000000       0.50000000 </v>
  </varray>
 </structure>
</modeling>
