unknown system                          
           1
     0.000000    3.399000    3.399000
     3.399000    0.000000    3.399000
     3.399000    3.399000    0.000000
   Sb   Li   Na
   1   2   1
Direct configuration=     1
   0.00000000  0.00000000  0.00000000
   0.75000000  0.75000000  0.75000000
   0.25000000  0.25000000  0.25000000
   0.50000000  0.50000000  0.50000000
