 vasp.5.3.3 18Dez12 (build Mar 11 2013 19:18:40) complex                        
  
 executed on             LinuxIFC date 2013.10.29  22:02:07
 running on   16 total cores
 distrk:  each k-point on   16 cores,    1 groups
 distr:  one band on NCORES_PER_BAND=   1 cores,   16 groups


--------------------------------------------------------------------------------------------------------


 INCAR:
 POTCAR:    PAW_PBE Li 17Jan2003                  
 POTCAR:    PAW_PBE Ti 08Apr2002                  
 POTCAR:    PAW_PBE O 08Apr2002                   

 ----------------------------------------------------------------------------- 
|                                                                             |
|           W    W    AA    RRRRR   N    N  II  N    N   GGGG   !!!           |
|           W    W   A  A   R    R  NN   N  II  NN   N  G    G  !!!           |
|           W    W  A    A  R    R  N N  N  II  N N  N  G       !!!           |
|           W WW W  AAAAAA  RRRRR   N  N N  II  N  N N  G  GGG   !            |
|           WW  WW  A    A  R   R   N   NN  II  N   NN  G    G                |
|           W    W  A    A  R    R  N    N  II  N    N   GGGG   !!!           |
|                                                                             |
|      For optimal performance we recommend that you set                      |
|        NPAR = 4 - approx SQRT( number of cores)                             |
|      (number of cores/NPAR must be integer)                                 |
|      This setting will greatly improve the performance of VASP for DFT.     |
|      The default NPAR=number of cores might be grossly inefficient          |
|      on modern multi-core architectures or massively parallel machines.     |
|      Do your own testing.                                                   |
|      Unfortunately you need to use the default for hybrid, GW and RPA       |
|      calculations.                                                          |
|                                                                             |
 ----------------------------------------------------------------------------- 

 POTCAR:    PAW_PBE Li 17Jan2003                  
   VRHFIN =Li: s1p0                                                             
   LEXCH  = PE                                                                  
   EATOM  =     5.3001 eV,    0.3895 Ry                                         
                                                                                
   TITEL  = PAW_PBE Li 17Jan2003                                                
   LULTRA =        F    use ultrasoft PP ?                                      
   IUNSCR =        1    unscreen: 0-lin 1-nonlin 2-no                           
   RPACOR =    1.500    partial core radius                                     
   POMASS =    7.010; ZVAL   =    1.000    mass and valenz                      
   RCORE  =    2.050    outmost cutoff radius                                   
   RWIGS  =    2.600; RWIGS  =    1.376    wigner-seitz radius (au A)           
   ENMAX  =  140.000; ENMIN  =  100.000 eV                                      
   ICORE  =        2    local potential                                         
   LCOR   =        T    correct aug charges                                     
   LPAW   =        T    paw PP                                                  
   EAUG   =  331.638                                                            
   DEXC   =    0.000                                                            
   RMAX   =    2.098    core radius for proj-oper                               
   RAUG   =    1.300    factor for augmentation sphere                          
   RDEP   =    2.094    radius for radial grids                                 
   RDEPT  =    1.810    core radius for aug-charge                              
                                                                                
   Atomic configuration                                                         
    4 entries                                                                   
     n  l   j            E        occ.                                          
     1  0  0.50       -51.8549   2.0000                                         
     2  0  0.50        -2.8742   1.0000                                         
     2  1  0.50        -1.3606   0.0000                                         
     3  2  1.50        -1.3606   0.0000                                         
   Description                                                                  
     l       E           TYP  RCUT    TYP  RCUT                                 
     0     -2.8742052     23  2.050                                             
     0     27.2116520     23  2.050                                             
     1     -1.3605826     23  2.050                                             
     2     -1.3605826     23  2.050                                             
  local pseudopotential read in
  partial core-charges read in
  partial kinetic energy density read in
  atomic valenz-charges read in
  non local Contribution for L=           0  read in
    real space projection operators read in
  non local Contribution for L=           0  read in
    real space projection operators read in
  non local Contribution for L=           1  read in
    real space projection operators read in
    PAW grid and wavefunctions read in
 
   number of l-projection  operators is LMAX  =           3
   number of lm-projection operators is LMMAX =           5
 
 POTCAR:    PAW_PBE Ti 08Apr2002                  
   VRHFIN =Ti: d3 s1                                                            
   LEXCH  = PE                                                                  
   EATOM  =    94.7928 eV,    6.9671 Ry                                         
                                                                                
   TITEL  = PAW_PBE Ti 08Apr2002                                                
   LULTRA =        F    use ultrasoft PP ?                                      
   IUNSCR =        1    unscreen: 0-lin 1-nonlin 2-no                           
   RPACOR =    2.200    partial core radius                                     
   POMASS =   47.880; ZVAL   =    4.000    mass and valenz                      
   RCORE  =    2.800    outmost cutoff radius                                   
   RWIGS  =    2.500; RWIGS  =    1.323    wigner-seitz radius (au A)           
   ENMAX  =  178.330; ENMIN  =  133.747 eV                                      
   RCLOC  =    2.215    cutoff for local pot                                    
   LCOR   =        T    correct aug charges                                     
   LPAW   =        T    paw PP                                                  
   EAUG   =  328.883                                                            
   DEXC   =    0.000                                                            
   RMAX   =    2.868    core radius for proj-oper                               
   RAUG   =    1.300    factor for augmentation sphere                          
   RDEP   =    2.885    radius for radial grids                                 
   RDEPT  =    2.320    core radius for aug-charge                              
                                                                                
   Atomic configuration                                                         
    9 entries                                                                   
     n  l   j            E        occ.                                          
     1  0  0.50     -4865.3608   2.0000                                         
     2  0  0.50      -533.1367   2.0000                                         
     2  1  1.50      -440.5031   6.0000                                         
     3  0  0.50       -59.3186   2.0000                                         
     3  1  1.50       -35.7012   6.0000                                         
     3  2  2.50        -1.9157   3.0000                                         
     4  0  0.50        -3.7291   1.0000                                         
     4  1  1.50        -4.0817   0.0000                                         
     4  3  2.50        -1.3606   0.0000                                         
   Description                                                                  
     l       E           TYP  RCUT    TYP  RCUT                                 
     2     -1.9156924     23  2.800                                             
     2     -0.4062961     23  2.800                                             
     0     -3.7290832     23  2.800                                             
     0     20.4087390     23  2.800                                             
     1     -5.4423304     23  2.800                                             
  local pseudopotential read in
  partial core-charges read in
  partial kinetic energy density read in
  atomic valenz-charges read in
  non local Contribution for L=           2  read in
    real space projection operators read in
  non local Contribution for L=           2  read in
    real space projection operators read in
  non local Contribution for L=           0  read in
    real space projection operators read in
  non local Contribution for L=           0  read in
    real space projection operators read in
  non local Contribution for L=           1  read in
    real space projection operators read in
    PAW grid and wavefunctions read in
 
   number of l-projection  operators is LMAX  =           5
   number of lm-projection operators is LMMAX =          15
 
 POTCAR:    PAW_PBE O 08Apr2002                   
   VRHFIN =O: s2p4                                                              
   LEXCH  = PE                                                                  
   EATOM  =   432.3788 eV,   31.7789 Ry                                         
                                                                                
   TITEL  = PAW_PBE O 08Apr2002                                                 
   LULTRA =        F    use ultrasoft PP ?                                      
   IUNSCR =        1    unscreen: 0-lin 1-nonlin 2-no                           
   RPACOR =    1.200    partial core radius                                     
   POMASS =   16.000; ZVAL   =    6.000    mass and valenz                      
   RCORE  =    1.520    outmost cutoff radius                                   
   RWIGS  =    1.550; RWIGS  =    0.820    wigner-seitz radius (au A)           
   ENMAX  =  400.000; ENMIN  =  300.000 eV                                      
   ICORE  =        2    local potential                                         
   LCOR   =        T    correct aug charges                                     
   LPAW   =        T    paw PP                                                  
   EAUG   =  605.392                                                            
   DEXC   =    0.000                                                            
   RMAX   =    1.553    core radius for proj-oper                               
   RAUG   =    1.300    factor for augmentation sphere                          
   RDEP   =    1.550    radius for radial grids                                 
   RDEPT  =    1.329    core radius for aug-charge                              
                                                                                
   Atomic configuration                                                         
    4 entries                                                                   
     n  l   j            E        occ.                                          
     1  0  0.50      -514.6923   2.0000                                         
     2  0  0.50       -23.9615   2.0000                                         
     2  1  0.50        -9.0305   4.0000                                         
     3  2  1.50        -9.5241   0.0000                                         
   Description                                                                  
     l       E           TYP  RCUT    TYP  RCUT                                 
     0    -23.9615318     23  1.200                                             
     0     -9.5240782     23  1.200                                             
     1     -9.0304911     23  1.520                                             
     1      8.1634956     23  1.520                                             
     2     -9.5240782      7  1.500                                             
  local pseudopotential read in
  partial core-charges read in
  partial kinetic energy density read in
  kinetic energy density of atom read in
  atomic valenz-charges read in
  non local Contribution for L=           0  read in
    real space projection operators read in
  non local Contribution for L=           0  read in
    real space projection operators read in
  non local Contribution for L=           1  read in
    real space projection operators read in
  non local Contribution for L=           1  read in
    real space projection operators read in
    PAW grid and wavefunctions read in
 
   number of l-projection  operators is LMAX  =           4
   number of lm-projection operators is LMMAX =           8
 

 ----------------------------------------------------------------------------- 
|                                                                             |
|  ADVICE TO THIS USER RUNNING 'VASP/VAMP'   (HEAR YOUR MASTER'S VOICE ...):  |
|                                                                             |
|      You have a (more or less) 'large supercell' and for larger cells       |
|      it might be more efficient to use real space projection opertators     |
|      So try LREAL= Auto  in the INCAR   file.                               |
|      Mind: At the moment your POTCAR file does not contain real space       |
|       projectors, and has to be modified,  BUT if you                       |
|      want to do an extremely  accurate calculation you might also keep the  |
|      reciprocal projection scheme          (i.e. LREAL=.FALSE.)             |
|                                                                             |
 ----------------------------------------------------------------------------- 

  PAW_PBE Li 17Jan2003                  :
 energy of atom  1       EATOM=   -5.3001
 kinetic energy error for atom=    0.0000 (will be added to EATOM!!)
  PAW_PBE Ti 08Apr2002                  :
 energy of atom  2       EATOM=  -94.7928
 kinetic energy error for atom=    0.0005 (will be added to EATOM!!)
  PAW_PBE O 08Apr2002                   :
 energy of atom  3       EATOM= -432.3788
 kinetic energy error for atom=    0.1156 (will be added to EATOM!!)
 
 
 POSCAR: Li2 O3 Ti1-2x2x1                        
  positions in direct lattice
  No initial velocities read in
 exchange correlation table for  LEXCH =        8
   RHO(1)=    0.500       N(1)  =     2000
   RHO(2)=  100.500       N(2)  =     4000
 


--------------------------------------------------------------------------------------------------------


 ion  position               nearest neighbor table
   1  0.121  0.040  0.999- 117 2.09 145 2.09 166 2.14 163 2.15 151 2.20  97 2.22   8 2.84  42 2.92
                            47 2.92  55 2.93  49 2.94  85 2.95  75 2.95  77 2.98  89 2.98   7 2.99
   2  0.621  0.040  0.999- 118 2.09 146 2.09 165 2.14 164 2.15 152 2.20  98 2.22   7 2.84  41 2.92
                            48 2.92  56 2.93  50 2.94  86 2.95  76 2.95  78 2.98  90 2.98   8 2.99
   3  0.121  0.540  0.999- 119 2.09 147 2.09 168 2.14 161 2.15 149 2.20  99 2.22   6 2.84  44 2.92
                            45 2.92  53 2.93  51 2.94  87 2.95  73 2.95  79 2.98  91 2.98   5 2.99
   4  0.621  0.540  0.999- 120 2.09 148 2.09 167 2.14 162 2.15 150 2.20 100 2.22   5 2.84  43 2.92
                            46 2.92  54 2.93  52 2.94  88 2.95  74 2.95  80 2.98  92 2.98   6 2.99
   5  0.379  0.460  0.001- 113 2.09 149 2.09 162 2.14 167 2.15 147 2.20 101 2.22   4 2.84  46 2.92
                            43 2.92  52 2.93  54 2.94  82 2.95  79 2.95  73 2.98  93 2.98   3 2.99
   6  0.879  0.460  0.001- 114 2.09 150 2.09 161 2.14 168 2.15 148 2.20 102 2.22   3 2.84  45 2.92
                            44 2.92  51 2.93  53 2.94  81 2.95  80 2.95  74 2.98  94 2.98   4 2.99
   7  0.379  0.960  0.001- 115 2.09 151 2.09 164 2.14 165 2.15 145 2.20 103 2.22   2 2.84  48 2.92
                            41 2.92  50 2.93  56 2.94  84 2.95  77 2.95  75 2.98  95 2.98   1 2.99
   8  0.879  0.960  0.001- 116 2.09 152 2.09 163 2.14 166 2.15 146 2.20 104 2.22   1 2.84  47 2.92
                            42 2.92  49 2.93  55 2.94  83 2.95  78 2.95  76 2.98  96 2.98   2 2.99
   9  0.379  0.040  0.501- 125 2.09 153 2.09 174 2.14 171 2.15 159 2.20 105 2.22  16 2.84  34 2.92
                            39 2.92  56 2.93  50 2.94  86 2.95  75 2.95  77 2.98  89 2.98  15 2.99
  10  0.879  0.040  0.501- 126 2.09 154 2.09 173 2.14 172 2.15 160 2.20 106 2.22  15 2.84  33 2.92
                            40 2.92  55 2.93  49 2.94  85 2.95  76 2.95  78 2.98  90 2.98  16 2.99
  11  0.379  0.540  0.501- 127 2.09 155 2.09 176 2.14 169 2.15 157 2.20 107 2.22  14 2.84  36 2.92
                            37 2.92  54 2.93  52 2.94  88 2.95  73 2.95  79 2.98  91 2.98  13 2.99
  12  0.879  0.540  0.501- 128 2.09 156 2.09 175 2.14 170 2.15 158 2.20 108 2.22  13 2.84  35 2.92
                            38 2.92  53 2.93  51 2.94  87 2.95  74 2.95  80 2.98  92 2.98  14 2.99
  13  0.121  0.460  0.499- 121 2.09 157 2.09 170 2.14 175 2.15 155 2.20 109 2.22  12 2.84  38 2.92
                            35 2.92  51 2.93  53 2.94  81 2.95  79 2.95  73 2.98  93 2.98  11 2.99
  14  0.621  0.460  0.499- 122 2.09 158 2.09 169 2.14 176 2.15 156 2.20 110 2.22  11 2.84  37 2.92
                            36 2.92  52 2.93  54 2.94  82 2.95  80 2.95  74 2.98  94 2.98  12 2.99
  15  0.121  0.960  0.499- 123 2.09 159 2.09 172 2.14 173 2.15 153 2.20 111 2.22  10 2.84  40 2.92
                            33 2.92  49 2.93  55 2.94  83 2.95  77 2.95  75 2.98  95 2.98   9 2.99
  16  0.621  0.960  0.499- 124 2.09 160 2.09 171 2.14 174 2.15 154 2.20 112 2.22   9 2.84  39 2.92
                            34 2.92  50 2.93  56 2.94  84 2.95  78 2.95  76 2.98  96 2.98  10 2.99
  17  0.371  0.290  0.999- 101 2.09 130 2.09 181 2.14 177 2.15 133 2.20 113 2.22  21 2.84  45 2.92
                            41 2.92  61 2.93  57 2.94  93 2.95  66 2.95  70 2.98  82 2.98  22 2.99
  18  0.871  0.290  0.999- 102 2.09 129 2.09 182 2.14 178 2.15 134 2.20 114 2.22  22 2.84  46 2.92
                            42 2.92  62 2.93  58 2.94  94 2.95  65 2.95  69 2.98  81 2.98  21 2.99
  19  0.371  0.790  0.999- 103 2.09 132 2.09 183 2.14 179 2.15 135 2.20 115 2.22  23 2.84  47 2.92
                            43 2.92  63 2.93  59 2.94  95 2.95  68 2.95  72 2.98  84 2.98  24 2.99
  20  0.871  0.790  0.999- 104 2.09 131 2.09 184 2.14 180 2.15 136 2.20 116 2.22  24 2.84  48 2.92
                            44 2.92  64 2.93  60 2.94  96 2.95  67 2.95  71 2.98  83 2.98  23 2.99
  21  0.129  0.210  0.001-  97 2.09 134 2.09 177 2.14 181 2.15 129 2.20 117 2.22  17 2.84  41 2.92
                            45 2.92  57 2.93  61 2.94  89 2.95  69 2.95  65 2.98  85 2.98  18 2.99
  22  0.629  0.210  0.001-  98 2.09 133 2.09 178 2.14 182 2.15 130 2.20 118 2.22  18 2.84  42 2.92
                            46 2.92  58 2.93  62 2.94  90 2.95  70 2.95  66 2.98  86 2.98  17 2.99
  23  0.129  0.710  0.001-  99 2.09 136 2.09 179 2.14 183 2.15 131 2.20 119 2.22  19 2.84  43 2.92
                            47 2.92  59 2.93  63 2.94  91 2.95  71 2.95  67 2.98  87 2.98  20 2.99
  24  0.629  0.710  0.001- 100 2.09 135 2.09 180 2.14 184 2.15 132 2.20 120 2.22  20 2.84  44 2.92
                            48 2.92  60 2.93  64 2.94  92 2.95  72 2.95  68 2.98  88 2.98  19 2.99
  25  0.129  0.290  0.501- 109 2.09 138 2.09 189 2.14 185 2.15 141 2.20 121 2.22  29 2.84  37 2.92
                            33 2.92  61 2.93  57 2.94  93 2.95  65 2.95  69 2.98  81 2.98  30 2.99
  26  0.629  0.290  0.501- 110 2.09 137 2.09 190 2.14 186 2.15 142 2.20 122 2.22  30 2.84  38 2.92
                            34 2.92  62 2.93  58 2.94  94 2.95  66 2.95  70 2.98  82 2.98  29 2.99
  27  0.129  0.790  0.501- 111 2.09 140 2.09 191 2.14 187 2.15 143 2.20 123 2.22  31 2.84  39 2.92
                            35 2.92  63 2.93  59 2.94  95 2.95  67 2.95  71 2.98  83 2.98  32 2.99
  28  0.629  0.790  0.501- 112 2.09 139 2.09 192 2.14 188 2.15 144 2.20 124 2.22  32 2.84  40 2.92
                            36 2.92  64 2.93  60 2.94  96 2.95  68 2.95  72 2.98  84 2.98  31 2.99
  29  0.371  0.210  0.499- 105 2.09 142 2.09 185 2.14 189 2.15 137 2.20 125 2.22  25 2.84  33 2.92
                            37 2.92  57 2.93  61 2.94  89 2.95  70 2.95  66 2.98  86 2.98  26 2.99
  30  0.871  0.210  0.499- 106 2.09 141 2.09 186 2.14 190 2.15 138 2.20 126 2.22  26 2.84  34 2.92
                            38 2.92  58 2.93  62 2.94  90 2.95  69 2.95  65 2.98  85 2.98  25 2.99
  31  0.371  0.710  0.499- 107 2.09 144 2.09 187 2.14 191 2.15 139 2.20 127 2.22  27 2.84  35 2.92
                            39 2.92  59 2.93  63 2.94  91 2.95  72 2.95  68 2.98  88 2.98  28 2.99
  32  0.871  0.710  0.499- 108 2.09 143 2.09 188 2.14 192 2.15 140 2.20 128 2.22  28 2.84  36 2.92
                            40 2.92  60 2.93  64 2.94  92 2.95  71 2.95  67 2.98  87 2.98  27 2.99
  33  0.125  0.125  0.500- 185 2.05 173 2.05 106 2.19 125 2.19 141 2.20 153 2.20  10 2.92  29 2.92
                            25 2.92  15 2.92  61 2.95  49 2.95  65 2.95  77 2.95  85 2.96  89 2.96
  34  0.625  0.125  0.500- 186 2.05 174 2.05 105 2.19 126 2.19 142 2.20 154 2.20   9 2.92  30 2.92
                            26 2.92  16 2.92  62 2.95  50 2.95  66 2.95  78 2.95  86 2.96  90 2.96
  35  0.125  0.625  0.500- 187 2.05 175 2.05 108 2.19 127 2.19 143 2.20 155 2.20  12 2.92  31 2.92
                            27 2.92  13 2.92  63 2.95  51 2.95  67 2.95  79 2.95  87 2.96  91 2.96
  36  0.625  0.625  0.500- 188 2.05 176 2.05 107 2.19 128 2.19 144 2.20 156 2.20  11 2.92  32 2.92
                            28 2.92  14 2.92  64 2.95  52 2.95  68 2.95  80 2.95  88 2.96  92 2.96
  37  0.375  0.375  0.500- 189 2.05 169 2.05 110 2.19 121 2.19 137 2.20 157 2.20  14 2.92  25 2.92
                            29 2.92  11 2.92  54 2.95  57 2.95  70 2.95  73 2.95  82 2.96  93 2.96
  38  0.875  0.375  0.500- 190 2.05 170 2.05 109 2.19 122 2.19 138 2.20 158 2.20  13 2.92  26 2.92
                            30 2.92  12 2.92  53 2.95  58 2.95  69 2.95  74 2.95  81 2.96  94 2.96
  39  0.375  0.875  0.500- 191 2.05 171 2.05 112 2.19 123 2.19 139 2.20 159 2.20  16 2.92  27 2.92
                            31 2.92   9 2.92  56 2.95  59 2.95  72 2.95  75 2.95  84 2.96  95 2.96
  40  0.875  0.875  0.500- 192 2.05 172 2.05 111 2.19 124 2.19 140 2.20 160 2.20  15 2.92  28 2.92
                            32 2.92  10 2.92  55 2.95  60 2.95  71 2.95  76 2.95  83 2.96  96 2.96
  41  0.375  0.125  0.000- 165 2.05 177 2.05  98 2.19 117 2.19 145 2.20 133 2.20   2 2.92  21 2.92
                            17 2.92   7 2.92  61 2.95  50 2.95  66 2.95  77 2.95  86 2.96  89 2.96
  42  0.875  0.125  0.000- 166 2.05 178 2.05  97 2.19 118 2.19 146 2.20 134 2.20   1 2.92  22 2.92
                            18 2.92   8 2.92  62 2.95  49 2.95  65 2.95  78 2.95  85 2.96  90 2.96
  43  0.375  0.625  0.000- 167 2.05 179 2.05 100 2.19 119 2.19 147 2.20 135 2.20   4 2.92  23 2.92
                            19 2.92   5 2.92  63 2.95  52 2.95  68 2.95  79 2.95  88 2.96  91 2.96
  44  0.875  0.625  0.000- 168 2.05 180 2.05  99 2.19 120 2.19 148 2.20 136 2.20   3 2.92  24 2.92
                            20 2.92   6 2.92  64 2.95  51 2.95  67 2.95  80 2.95  87 2.96  92 2.96
  45  0.125  0.375  0.000- 181 2.05 161 2.05 113 2.19 102 2.19 129 2.20 149 2.20   6 2.92  17 2.92
                            21 2.92   3 2.92  53 2.95  57 2.95  69 2.95  73 2.95  81 2.96  93 2.96
  46  0.625  0.375  0.000- 182 2.05 162 2.05 114 2.19 101 2.19 130 2.20 150 2.20   5 2.92  18 2.92
                            22 2.92   4 2.92  54 2.95  58 2.95  70 2.95  74 2.95  82 2.96  94 2.96
  47  0.125  0.875  0.000- 183 2.05 163 2.05 115 2.19 104 2.19 131 2.20 151 2.20   8 2.92  19 2.92
                            23 2.92   1 2.92  55 2.95  59 2.95  71 2.95  75 2.95  83 2.96  95 2.96
  48  0.625  0.875  0.000- 184 2.05 164 2.05 116 2.19 103 2.19 132 2.20 152 2.20   7 2.92  20 2.92
                            24 2.92   2 2.92  56 2.95  60 2.95  72 2.95  76 2.95  84 2.96  96 2.96
  49  0.000  0.042  0.250- 153 2.12 146 2.12 106 2.13  97 2.13 163 2.14 172 2.14  15 2.93   8 2.93
                            89 2.94  90 2.94   1 2.94  10 2.94  75 2.94  76 2.94  65 2.95  42 2.95
  50  0.500  0.042  0.250- 154 2.12 145 2.12 105 2.13  98 2.13 164 2.14 171 2.14  16 2.93   7 2.93
                            89 2.94  90 2.94   2 2.94   9 2.94  75 2.94  76 2.94  66 2.95  41 2.95
  51  0.000  0.542  0.250- 155 2.12 148 2.12 108 2.13  99 2.13 161 2.14 170 2.14  13 2.93   6 2.93
                            91 2.94  92 2.94   3 2.94  12 2.94  73 2.94  74 2.94  67 2.95  44 2.95
  52  0.500  0.542  0.250- 156 2.12 147 2.12 107 2.13 100 2.13 162 2.14 169 2.14  14 2.93   5 2.93
                            91 2.94  92 2.94   4 2.94  11 2.94  73 2.94  74 2.94  68 2.95  43 2.95
  53  0.000  0.458  0.750- 149 2.12 158 2.12 109 2.13 102 2.13 175 2.14 168 2.14   3 2.93  12 2.93
                            93 2.94  94 2.94  13 2.94   6 2.94  79 2.94  80 2.94  69 2.95  45 2.95
  54  0.500  0.458  0.750- 150 2.12 157 2.12 110 2.13 101 2.13 176 2.14 167 2.14   4 2.93  11 2.93
                            93 2.94  94 2.94  14 2.94   5 2.94  79 2.94  80 2.94  70 2.95  46 2.95
  55  0.000  0.958  0.750- 151 2.12 160 2.12 111 2.13 104 2.13 173 2.14 166 2.14   1 2.93  10 2.93
                            95 2.94  96 2.94  15 2.94   8 2.94  77 2.94  78 2.94  71 2.95  47 2.95
  56  0.500  0.958  0.750- 152 2.12 159 2.12 112 2.13 103 2.13 174 2.14 165 2.14   2 2.93   9 2.93
                            95 2.94  96 2.94  16 2.94   7 2.94  77 2.94  78 2.94  72 2.95  48 2.95
  57  0.250  0.292  0.250- 137 2.12 129 2.12 121 2.13 113 2.13 177 2.14 185 2.14  21 2.93  29 2.93
                            81 2.94  82 2.94  25 2.94  17 2.94  65 2.94  66 2.94  73 2.95  45 2.95
  58  0.750  0.292  0.250- 138 2.12 130 2.12 122 2.13 114 2.13 178 2.14 186 2.14  22 2.93  30 2.93
                            81 2.94  82 2.94  26 2.94  18 2.94  65 2.94  66 2.94  74 2.95  46 2.95
  59  0.250  0.792  0.250- 139 2.12 131 2.12 123 2.13 115 2.13 179 2.14 187 2.14  23 2.93  31 2.93
                            83 2.94  84 2.94  27 2.94  19 2.94  67 2.94  68 2.94  75 2.95  47 2.95
  60  0.750  0.792  0.250- 140 2.12 132 2.12 124 2.13 116 2.13 180 2.14 188 2.14  24 2.93  32 2.93
                            83 2.94  84 2.94  28 2.94  20 2.94  67 2.94  68 2.94  76 2.95  48 2.95
  61  0.250  0.208  0.750- 133 2.12 141 2.12 117 2.13 125 2.13 181 2.14 189 2.14  25 2.93  17 2.93
                            85 2.94  86 2.94  21 2.94  29 2.94  69 2.94  70 2.94  77 2.95  41 2.95
  62  0.750  0.208  0.750- 134 2.12 142 2.12 118 2.13 126 2.13 182 2.14 190 2.14  26 2.93  18 2.93
                            85 2.94  86 2.94  22 2.94  30 2.94  69 2.94  70 2.94  78 2.95  42 2.95
  63  0.250  0.708  0.750- 135 2.12 143 2.12 119 2.13 127 2.13 183 2.14 191 2.14  27 2.93  19 2.93
                            87 2.94  88 2.94  23 2.94  31 2.94  71 2.94  72 2.94  79 2.95  43 2.95
  64  0.750  0.708  0.750- 136 2.12 144 2.12 120 2.13 128 2.13 184 2.14 192 2.14  28 2.93  20 2.93
                            87 2.94  88 2.94  24 2.94  32 2.94  71 2.94  72 2.94  80 2.95  44 2.95
  65  0.000  0.209  0.250- 106 1.98  97 1.98 138 1.98 129 1.98 178 1.99 185 1.99  81 2.94  58 2.94
                            57 2.94  49 2.95  89 2.95  90 2.95  18 2.95  25 2.95  33 2.95  42 2.95
  66  0.500  0.209  0.250- 105 1.98  98 1.98 137 1.98 130 1.98 177 1.99 186 1.99  82 2.94  58 2.94
                            57 2.94  50 2.95  89 2.95  90 2.95  17 2.95  26 2.95  34 2.95  41 2.95
  67  0.000  0.709  0.250- 108 1.98  99 1.98 140 1.98 131 1.98 180 1.99 187 1.99  83 2.94  60 2.94
                            59 2.94  51 2.95  91 2.95  92 2.95  20 2.95  27 2.95  35 2.95  44 2.95
  68  0.500  0.709  0.250- 107 1.98 100 1.98 139 1.98 132 1.98 179 1.99 188 1.99  84 2.94  60 2.94
                            59 2.94  52 2.95  91 2.95  92 2.95  19 2.95  28 2.95  36 2.95  43 2.95
  69  0.000  0.291  0.750- 109 1.98 102 1.98 134 1.98 141 1.98 181 1.99 190 1.99  85 2.94  62 2.94
                            61 2.94  53 2.95  93 2.95  94 2.95  30 2.95  21 2.95  38 2.95  45 2.95
  70  0.500  0.291  0.750- 110 1.98 101 1.98 133 1.98 142 1.98 182 1.99 189 1.99  86 2.94  62 2.94
                            61 2.94  54 2.95  93 2.95  94 2.95  29 2.95  22 2.95  37 2.95  46 2.95
  71  0.000  0.791  0.750- 111 1.98 104 1.98 136 1.98 143 1.98 183 1.99 192 1.99  87 2.94  64 2.94
                            63 2.94  55 2.95  95 2.95  96 2.95  32 2.95  23 2.95  40 2.95  47 2.95
  72  0.500  0.791  0.750- 112 1.98 103 1.98 135 1.98 144 1.98 184 1.99 191 1.99  88 2.94  64 2.94
                            63 2.94  56 2.95  95 2.95  96 2.95  31 2.95  24 2.95  39 2.95  48 2.95
  73  0.250  0.459  0.250- 121 1.98 113 1.98 155 1.98 147 1.98 161 1.99 169 1.99  91 2.94  52 2.94
                            51 2.94  57 2.95  82 2.95  81 2.95  11 2.95   3 2.95  37 2.95  45 2.95
  74  0.750  0.459  0.250- 122 1.98 114 1.98 156 1.98 148 1.98 162 1.99 170 1.99  92 2.94  52 2.94
                            51 2.94  58 2.95  82 2.95  81 2.95  12 2.95   4 2.95  38 2.95  46 2.95
  75  0.250  0.959  0.250- 123 1.98 115 1.98 153 1.98 145 1.98 163 1.99 171 1.99  89 2.94  50 2.94
                            49 2.94  59 2.95  84 2.95  83 2.95   9 2.95   1 2.95  39 2.95  47 2.95
  76  0.750  0.959  0.250- 124 1.98 116 1.98 154 1.98 146 1.98 164 1.99 172 1.99  90 2.94  50 2.94
                            49 2.94  60 2.95  84 2.95  83 2.95  10 2.95   2 2.95  40 2.95  48 2.95
  77  0.250  0.041  0.750- 117 1.98 125 1.98 151 1.98 159 1.98 165 1.99 173 1.99  95 2.94  56 2.94
                            55 2.94  61 2.95  86 2.95  85 2.95   7 2.95  15 2.95  33 2.95  41 2.95
  78  0.750  0.041  0.750- 118 1.98 126 1.98 152 1.98 160 1.98 166 1.99 174 1.99  96 2.94  56 2.94
                            55 2.94  62 2.95  86 2.95  85 2.95   8 2.95  16 2.95  34 2.95  42 2.95
  79  0.250  0.541  0.750- 119 1.98 127 1.98 149 1.98 157 1.98 167 1.99 175 1.99  93 2.94  54 2.94
                            53 2.94  63 2.95  88 2.95  87 2.95   5 2.95  13 2.95  35 2.95  43 2.95
  80  0.750  0.541  0.750- 120 1.98 128 1.98 150 1.98 158 1.98 168 1.99 176 1.99  94 2.94  54 2.94
                            53 2.94  64 2.95  88 2.95  87 2.95   6 2.95  14 2.95  36 2.95  44 2.95
  81  0.000  0.375  0.250- 138 1.97 129 1.97 114 1.98 121 1.98 161 2.00 170 2.00  57 2.94  58 2.94
                            65 2.94  73 2.95  74 2.95  13 2.95   6 2.95  51 2.96  38 2.96  45 2.96
  82  0.500  0.375  0.250- 137 1.97 130 1.97 113 1.98 122 1.98 162 2.00 169 2.00  57 2.94  58 2.94
                            66 2.94  73 2.95  74 2.95  14 2.95   5 2.95  52 2.96  37 2.96  46 2.96
  83  0.000  0.875  0.250- 140 1.97 131 1.97 116 1.98 123 1.98 163 2.00 172 2.00  59 2.94  60 2.94
                            67 2.94  75 2.95  76 2.95  15 2.95   8 2.95  49 2.96  40 2.96  47 2.96
  84  0.500  0.875  0.250- 139 1.97 132 1.97 115 1.98 124 1.98 164 2.00 171 2.00  59 2.94  60 2.94
                            68 2.94  75 2.95  76 2.95  16 2.95   7 2.95  50 2.96  39 2.96  48 2.96
  85  0.000  0.125  0.750- 134 1.97 141 1.97 126 1.98 117 1.98 173 2.00 166 2.00  61 2.94  62 2.94
                            69 2.94  77 2.95  78 2.95   1 2.95  10 2.95  55 2.96  33 2.96  42 2.96
  86  0.500  0.125  0.750- 133 1.97 142 1.97 125 1.98 118 1.98 174 2.00 165 2.00  61 2.94  62 2.94
                            70 2.94  77 2.95  78 2.95   2 2.95   9 2.95  56 2.96  34 2.96  41 2.96
  87  0.000  0.625  0.750- 136 1.97 143 1.97 128 1.98 119 1.98 175 2.00 168 2.00  63 2.94  64 2.94
                            71 2.94  79 2.95  80 2.95   3 2.95  12 2.95  53 2.96  35 2.96  44 2.96
  88  0.500  0.625  0.750- 135 1.97 144 1.97 127 1.98 120 1.98 176 2.00 167 2.00  63 2.94  64 2.94
                            72 2.94  79 2.95  80 2.95   4 2.95  11 2.95  54 2.96  36 2.96  43 2.96
  89  0.250  0.125  0.250- 153 1.97 145 1.97 105 1.98  97 1.98 177 2.00 185 2.00  49 2.94  50 2.94
                            75 2.94  66 2.95  65 2.95  21 2.95  29 2.95  57 2.96  33 2.96  41 2.96
  90  0.750  0.125  0.250- 154 1.97 146 1.97 106 1.98  98 1.98 178 2.00 186 2.00  49 2.94  50 2.94
                            76 2.94  66 2.95  65 2.95  22 2.95  30 2.95  58 2.96  34 2.96  42 2.96
  91  0.250  0.625  0.250- 155 1.97 147 1.97 107 1.98  99 1.98 179 2.00 187 2.00  51 2.94  52 2.94
                            73 2.94  68 2.95  67 2.95  23 2.95  31 2.95  59 2.96  35 2.96  43 2.96
  92  0.750  0.625  0.250- 156 1.97 148 1.97 108 1.98 100 1.98 180 2.00 188 2.00  51 2.94  52 2.94
                            74 2.94  68 2.95  67 2.95  24 2.95  32 2.95  60 2.96  36 2.96  44 2.96
  93  0.250  0.375  0.750- 149 1.97 157 1.97 101 1.98 109 1.98 181 2.00 189 2.00  53 2.94  54 2.94
                            79 2.94  70 2.95  69 2.95  25 2.95  17 2.95  61 2.96  37 2.96  45 2.96
  94  0.750  0.375  0.750- 150 1.97 158 1.97 102 1.98 110 1.98 182 2.00 190 2.00  53 2.94  54 2.94
                            80 2.94  70 2.95  69 2.95  26 2.95  18 2.95  62 2.96  38 2.96  46 2.96
  95  0.250  0.875  0.750- 151 1.97 159 1.97 103 1.98 111 1.98 183 2.00 191 2.00  55 2.94  56 2.94
                            77 2.94  72 2.95  71 2.95  27 2.95  19 2.95  63 2.96  39 2.96  47 2.96
  96  0.750  0.875  0.750- 152 1.97 160 1.97 104 1.98 112 1.98 184 2.00 192 2.00  55 2.94  56 2.94
                            78 2.94  72 2.95  71 2.95  28 2.95  20 2.95  64 2.96  40 2.96  48 2.96
  97  0.070  0.131  0.136-  89 1.98  65 1.98  21 2.09  49 2.13  42 2.19   1 2.22
  98  0.570  0.131  0.136-  90 1.98  66 1.98  22 2.09  50 2.13  41 2.19   2 2.22
  99  0.070  0.631  0.136-  91 1.98  67 1.98  23 2.09  51 2.13  44 2.19   3 2.22
 100  0.570  0.631  0.136-  92 1.98  68 1.98  24 2.09  52 2.13  43 2.19   4 2.22
 101  0.430  0.369  0.864-  93 1.98  70 1.98  17 2.09  54 2.13  46 2.19   5 2.22
 102  0.930  0.369  0.864-  94 1.98  69 1.98  18 2.09  53 2.13  45 2.19   6 2.22
 103  0.430  0.869  0.864-  95 1.98  72 1.98  19 2.09  56 2.13  48 2.19   7 2.22
 104  0.930  0.869  0.864-  96 1.98  71 1.98  20 2.09  55 2.13  47 2.19   8 2.22
 105  0.430  0.131  0.364-  89 1.98  66 1.98  29 2.09  50 2.13  34 2.19   9 2.22
 106  0.930  0.131  0.364-  90 1.98  65 1.98  30 2.09  49 2.13  33 2.19  10 2.22
 107  0.430  0.631  0.364-  91 1.98  68 1.98  31 2.09  52 2.13  36 2.19  11 2.22
 108  0.930  0.631  0.364-  92 1.98  67 1.98  32 2.09  51 2.13  35 2.19  12 2.22
 109  0.070  0.369  0.636-  93 1.98  69 1.98  25 2.09  53 2.13  38 2.19  13 2.22
 110  0.570  0.369  0.636-  94 1.98  70 1.98  26 2.09  54 2.13  37 2.19  14 2.22
 111  0.070  0.869  0.636-  95 1.98  71 1.98  27 2.09  55 2.13  40 2.19  15 2.22
 112  0.570  0.869  0.636-  96 1.98  72 1.98  28 2.09  56 2.13  39 2.19  16 2.22
 113  0.320  0.381  0.136-  82 1.98  73 1.98   5 2.09  57 2.13  45 2.19  17 2.22
 114  0.820  0.381  0.136-  81 1.98  74 1.98   6 2.09  58 2.13  46 2.19  18 2.22
 115  0.320  0.881  0.136-  84 1.98  75 1.98   7 2.09  59 2.13  47 2.19  19 2.22
 116  0.820  0.881  0.136-  83 1.98  76 1.98   8 2.09  60 2.13  48 2.19  20 2.22
 117  0.180  0.119  0.864-  85 1.98  77 1.98   1 2.09  61 2.13  41 2.19  21 2.22
 118  0.680  0.119  0.864-  86 1.98  78 1.98   2 2.09  62 2.13  42 2.19  22 2.22
 119  0.180  0.619  0.864-  87 1.98  79 1.98   3 2.09  63 2.13  43 2.19  23 2.22
 120  0.680  0.619  0.864-  88 1.98  80 1.98   4 2.09  64 2.13  44 2.19  24 2.22
 121  0.180  0.381  0.364-  81 1.98  73 1.98  13 2.09  57 2.13  37 2.19  25 2.22
 122  0.680  0.381  0.364-  82 1.98  74 1.98  14 2.09  58 2.13  38 2.19  26 2.22
 123  0.180  0.881  0.364-  83 1.98  75 1.98  15 2.09  59 2.13  39 2.19  27 2.22
 124  0.680  0.881  0.364-  84 1.98  76 1.98  16 2.09  60 2.13  40 2.19  28 2.22
 125  0.320  0.119  0.636-  86 1.98  77 1.98   9 2.09  61 2.13  33 2.19  29 2.22
 126  0.820  0.119  0.636-  85 1.98  78 1.98  10 2.09  62 2.13  34 2.19  30 2.22
 127  0.320  0.619  0.636-  88 1.98  79 1.98  11 2.09  63 2.13  35 2.19  31 2.22
 128  0.820  0.619  0.636-  87 1.98  80 1.98  12 2.09  64 2.13  36 2.19  32 2.22
 129  0.053  0.292  0.136-  81 1.97  65 1.98  18 2.09  57 2.12  45 2.20  21 2.20
 130  0.553  0.292  0.136-  82 1.97  66 1.98  17 2.09  58 2.12  46 2.20  22 2.20
 131  0.053  0.792  0.136-  83 1.97  67 1.98  20 2.09  59 2.12  47 2.20  23 2.20
 132  0.553  0.792  0.136-  84 1.97  68 1.98  19 2.09  60 2.12  48 2.20  24 2.20
 133  0.447  0.208  0.864-  86 1.97  70 1.98  22 2.09  61 2.12  41 2.20  17 2.20
 134  0.947  0.208  0.864-  85 1.97  69 1.98  21 2.09  62 2.12  42 2.20  18 2.20
 135  0.447  0.708  0.864-  88 1.97  72 1.98  24 2.09  63 2.12  43 2.20  19 2.20
 136  0.947  0.708  0.864-  87 1.97  71 1.98  23 2.09  64 2.12  44 2.20  20 2.20
 137  0.447  0.292  0.364-  82 1.97  66 1.98  26 2.09  57 2.12  37 2.20  29 2.20
 138  0.947  0.292  0.364-  81 1.97  65 1.98  25 2.09  58 2.12  38 2.20  30 2.20
 139  0.447  0.792  0.364-  84 1.97  68 1.98  28 2.09  59 2.12  39 2.20  31 2.20
 140  0.947  0.792  0.364-  83 1.97  67 1.98  27 2.09  60 2.12  40 2.20  32 2.20
 141  0.053  0.208  0.636-  85 1.97  69 1.98  30 2.09  61 2.12  33 2.20  25 2.20
 142  0.553  0.208  0.636-  86 1.97  70 1.98  29 2.09  62 2.12  34 2.20  26 2.20
 143  0.053  0.708  0.636-  87 1.97  71 1.98  32 2.09  63 2.12  35 2.20  27 2.20
 144  0.553  0.708  0.636-  88 1.97  72 1.98  31 2.09  64 2.12  36 2.20  28 2.20
 145  0.303  0.042  0.136-  89 1.97  75 1.98   1 2.09  50 2.12  41 2.20   7 2.20
 146  0.803  0.042  0.136-  90 1.97  76 1.98   2 2.09  49 2.12  42 2.20   8 2.20
 147  0.303  0.542  0.136-  91 1.97  73 1.98   3 2.09  52 2.12  43 2.20   5 2.20
 148  0.803  0.542  0.136-  92 1.97  74 1.98   4 2.09  51 2.12  44 2.20   6 2.20
 149  0.197  0.458  0.864-  93 1.97  79 1.98   5 2.09  53 2.12  45 2.20   3 2.20
 150  0.697  0.458  0.864-  94 1.97  80 1.98   6 2.09  54 2.12  46 2.20   4 2.20
 151  0.197  0.958  0.864-  95 1.97  77 1.98   7 2.09  55 2.12  47 2.20   1 2.20
 152  0.697  0.958  0.864-  96 1.97  78 1.98   8 2.09  56 2.12  48 2.20   2 2.20
 153  0.197  0.042  0.364-  89 1.97  75 1.98   9 2.09  49 2.12  33 2.20  15 2.20
 154  0.697  0.042  0.364-  90 1.97  76 1.98  10 2.09  50 2.12  34 2.20  16 2.20
 155  0.197  0.542  0.364-  91 1.97  73 1.98  11 2.09  51 2.12  35 2.20  13 2.20
 156  0.697  0.542  0.364-  92 1.97  74 1.98  12 2.09  52 2.12  36 2.20  14 2.20
 157  0.303  0.458  0.636-  93 1.97  79 1.98  13 2.09  54 2.12  37 2.20  11 2.20
 158  0.803  0.458  0.636-  94 1.97  80 1.98  14 2.09  53 2.12  38 2.20  12 2.20
 159  0.303  0.958  0.636-  95 1.97  77 1.98  15 2.09  56 2.12  39 2.20   9 2.20
 160  0.803  0.958  0.636-  96 1.97  78 1.98  16 2.09  55 2.12  40 2.20  10 2.20
 161  0.069  0.453  0.134-  73 1.99  81 2.00  45 2.05  51 2.14   6 2.14   3 2.15
 162  0.569  0.453  0.134-  74 1.99  82 2.00  46 2.05  52 2.14   5 2.14   4 2.15
 163  0.069  0.953  0.134-  75 1.99  83 2.00  47 2.05  49 2.14   8 2.14   1 2.15
 164  0.569  0.953  0.134-  76 1.99  84 2.00  48 2.05  50 2.14   7 2.14   2 2.15
 165  0.431  0.047  0.866-  77 1.99  86 2.00  41 2.05  56 2.14   2 2.14   7 2.15
 166  0.931  0.047  0.866-  78 1.99  85 2.00  42 2.05  55 2.14   1 2.14   8 2.15
 167  0.431  0.547  0.866-  79 1.99  88 2.00  43 2.05  54 2.14   4 2.14   5 2.15
 168  0.931  0.547  0.866-  80 1.99  87 2.00  44 2.05  53 2.14   3 2.14   6 2.15
 169  0.431  0.453  0.366-  73 1.99  82 2.00  37 2.05  52 2.14  14 2.14  11 2.15
 170  0.931  0.453  0.366-  74 1.99  81 2.00  38 2.05  51 2.14  13 2.14  12 2.15
 171  0.431  0.953  0.366-  75 1.99  84 2.00  39 2.05  50 2.14  16 2.14   9 2.15
 172  0.931  0.953  0.366-  76 1.99  83 2.00  40 2.05  49 2.14  15 2.14  10 2.15
 173  0.069  0.047  0.634-  77 1.99  85 2.00  33 2.05  55 2.14  10 2.14  15 2.15
 174  0.569  0.047  0.634-  78 1.99  86 2.00  34 2.05  56 2.14   9 2.14  16 2.15
 175  0.069  0.547  0.634-  79 1.99  87 2.00  35 2.05  53 2.14  12 2.14  13 2.15
 176  0.569  0.547  0.634-  80 1.99  88 2.00  36 2.05  54 2.14  11 2.14  14 2.15
 177  0.319  0.203  0.134-  66 1.99  89 2.00  41 2.05  57 2.14  21 2.14  17 2.15
 178  0.819  0.203  0.134-  65 1.99  90 2.00  42 2.05  58 2.14  22 2.14  18 2.15
 179  0.319  0.703  0.134-  68 1.99  91 2.00  43 2.05  59 2.14  23 2.14  19 2.15
 180  0.819  0.703  0.134-  67 1.99  92 2.00  44 2.05  60 2.14  24 2.14  20 2.15
 181  0.181  0.297  0.866-  69 1.99  93 2.00  45 2.05  61 2.14  17 2.14  21 2.15
 182  0.681  0.297  0.866-  70 1.99  94 2.00  46 2.05  62 2.14  18 2.14  22 2.15
 183  0.181  0.797  0.866-  71 1.99  95 2.00  47 2.05  63 2.14  19 2.14  23 2.15
 184  0.681  0.797  0.866-  72 1.99  96 2.00  48 2.05  64 2.14  20 2.14  24 2.15
 185  0.181  0.203  0.366-  65 1.99  89 2.00  33 2.05  57 2.14  29 2.14  25 2.15
 186  0.681  0.203  0.366-  66 1.99  90 2.00  34 2.05  58 2.14  30 2.14  26 2.15
 187  0.181  0.703  0.366-  67 1.99  91 2.00  35 2.05  59 2.14  31 2.14  27 2.15
 188  0.681  0.703  0.366-  68 1.99  92 2.00  36 2.05  60 2.14  32 2.14  28 2.15
 189  0.319  0.297  0.634-  70 1.99  93 2.00  37 2.05  61 2.14  25 2.14  29 2.15
 190  0.819  0.297  0.634-  69 1.99  94 2.00  38 2.05  62 2.14  26 2.14  30 2.15
 191  0.319  0.797  0.634-  72 1.99  95 2.00  39 2.05  63 2.14  27 2.14  31 2.15
 192  0.819  0.797  0.634-  71 1.99  96 2.00  40 2.05  64 2.14  28 2.14  32 2.15
 
  LATTYP: Found a simple monoclinic cell.
 ALAT       =    12.8365708658
 B/A-ratio  =     1.3781856878
 C/A-ratio  =     1.5938094420
 COS(beta)  =    -0.9270485186
  
  Lattice vectors:
  
 A1 = (  -8.4648153474,   0.0000000000,  -9.6501011770)
 A2 = (   0.0000000000, -17.6911782477,   0.0000000000)
 A3 = (   6.7403352047,   0.0000000000,  19.3168455030)


Analysis of symmetry for initial positions (statically):
=====================================================================
 Subroutine PRICEL returns following result:
 
  LATTYP: Found a base centered monoclinic cell.
 ALAT       =     5.0946545413
 B/A-ratio  =     1.7362490532
 C/A-ratio  =     2.5196155621
 COS(beta)  =    -0.3285030526
  
  Lattice vectors:
  
 A1 = (   2.5473238725,   4.4227945619,  -0.0041607872)
 A2 = (   2.5473238725,  -4.4227945619,  -0.0041607872)
 A3 = (  -8.4648153474,   0.0000000000,  -9.6501011770)
 
   8 primitive cells build up your supercell.
 

 Routine SETGRP: Setting up the symmetry group for a 
 simple monoclinic supercell.


 Subroutine GETGRP returns: Found  4 space group operations
 (whereof  2 operations were pure point group operations)
 out of a pool of  4 trial point group operations.


The static configuration has the point symmetry S_2 .
 The point group associated with its full space group is C_2h.


Analysis of symmetry for dynamics (positions and initial velocities):
=====================================================================
 Subroutine PRICEL returns following result:
 
  LATTYP: Found a base centered monoclinic cell.
 ALAT       =     5.0946545413
 B/A-ratio  =     1.7362490532
 C/A-ratio  =     2.5196155621
 COS(beta)  =    -0.3285030526
  
  Lattice vectors:
  
 A1 = (   2.5473238725,   4.4227945619,  -0.0041607872)
 A2 = (   2.5473238725,  -4.4227945619,  -0.0041607872)
 A3 = (  -8.4648153474,   0.0000000000,  -9.6501011770)
 
   8 primitive cells build up your supercell.
 

 Routine SETGRP: Setting up the symmetry group for a 
 simple monoclinic supercell.


 Subroutine GETGRP returns: Found  4 space group operations
 (whereof  2 operations were pure point group operations)
 out of a pool of  4 trial point group operations.


The dynamic configuration has the point symmetry S_2 .
 The point group associated with its full space group is C_2h.


 irot  :   1
 --------------------------------------------------------------------
 isymop:   1   0   0
           0   1   0
           0   0   1

 gtrans:     0.0000000     0.0000000     0.0000000

 ptrans:     0.0000000     0.0000000     0.0000000
 rotmap:
 (   1->   1)  (   2->   2)  (   3->   3)  (   4->   4)  (   5->   5) 
 (   6->   6)  (   7->   7)  (   8->   8)  (   9->   9)  (  10->  10) 
 (  11->  11)  (  12->  12)  (  13->  13)  (  14->  14)  (  15->  15) 
 (  16->  16)  (  17->  17)  (  18->  18)  (  19->  19)  (  20->  20) 
 (  21->  21)  (  22->  22)  (  23->  23)  (  24->  24)  (  25->  25) 
 (  26->  26)  (  27->  27)  (  28->  28)  (  29->  29)  (  30->  30) 
 (  31->  31)  (  32->  32)  (  33->  33)  (  34->  34)  (  35->  35) 
 (  36->  36)  (  37->  37)  (  38->  38)  (  39->  39)  (  40->  40) 
 (  41->  41)  (  42->  42)  (  43->  43)  (  44->  44)  (  45->  45) 
 (  46->  46)  (  47->  47)  (  48->  48)  (  49->  49)  (  50->  50) 
 (  51->  51)  (  52->  52)  (  53->  53)  (  54->  54)  (  55->  55) 
 (  56->  56)  (  57->  57)  (  58->  58)  (  59->  59)  (  60->  60) 
 (  61->  61)  (  62->  62)  (  63->  63)  (  64->  64)  (  65->  65) 
 (  66->  66)  (  67->  67)  (  68->  68)  (  69->  69)  (  70->  70) 
 (  71->  71)  (  72->  72)  (  73->  73)  (  74->  74)  (  75->  75) 
 (  76->  76)  (  77->  77)  (  78->  78)  (  79->  79)  (  80->  80) 
 (  81->  81)  (  82->  82)  (  83->  83)  (  84->  84)  (  85->  85) 
 (  86->  86)  (  87->  87)  (  88->  88)  (  89->  89)  (  90->  90) 
 (  91->  91)  (  92->  92)  (  93->  93)  (  94->  94)  (  95->  95) 
 (  96->  96)  (  97->  97)  (  98->  98)  (  99->  99)  ( 100-> 100) 
 ( 101-> 101)  ( 102-> 102)  ( 103-> 103)  ( 104-> 104)  ( 105-> 105) 
 ( 106-> 106)  ( 107-> 107)  ( 108-> 108)  ( 109-> 109)  ( 110-> 110) 
 ( 111-> 111)  ( 112-> 112)  ( 113-> 113)  ( 114-> 114)  ( 115-> 115) 
 ( 116-> 116)  ( 117-> 117)  ( 118-> 118)  ( 119-> 119)  ( 120-> 120) 
 ( 121-> 121)  ( 122-> 122)  ( 123-> 123)  ( 124-> 124)  ( 125-> 125) 
 ( 126-> 126)  ( 127-> 127)  ( 128-> 128)  ( 129-> 129)  ( 130-> 130) 
 ( 131-> 131)  ( 132-> 132)  ( 133-> 133)  ( 134-> 134)  ( 135-> 135) 
 ( 136-> 136)  ( 137-> 137)  ( 138-> 138)  ( 139-> 139)  ( 140-> 140) 
 ( 141-> 141)  ( 142-> 142)  ( 143-> 143)  ( 144-> 144)  ( 145-> 145) 
 ( 146-> 146)  ( 147-> 147)  ( 148-> 148)  ( 149-> 149)  ( 150-> 150) 
 ( 151-> 151)  ( 152-> 152)  ( 153-> 153)  ( 154-> 154)  ( 155-> 155) 
 ( 156-> 156)  ( 157-> 157)  ( 158-> 158)  ( 159-> 159)  ( 160-> 160) 
 ( 161-> 161)  ( 162-> 162)  ( 163-> 163)  ( 164-> 164)  ( 165-> 165) 
 ( 166-> 166)  ( 167-> 167)  ( 168-> 168)  ( 169-> 169)  ( 170-> 170) 
 ( 171-> 171)  ( 172-> 172)  ( 173-> 173)  ( 174-> 174)  ( 175-> 175) 
 ( 176-> 176)  ( 177-> 177)  ( 178-> 178)  ( 179-> 179)  ( 180-> 180) 
 ( 181-> 181)  ( 182-> 182)  ( 183-> 183)  ( 184-> 184)  ( 185-> 185) 
 ( 186-> 186)  ( 187-> 187)  ( 188-> 188)  ( 189-> 189)  ( 190-> 190) 
 ( 191-> 191)  ( 192-> 192) 

 ptrans:     0.2500000     0.2500000     0.0000000
 rotmap:
 (   1->  17)  (   2->  18)  (   3->  19)  (   4->  20)  (   5->  24) 
 (   6->  23)  (   7->  22)  (   8->  21)  (   9->  26)  (  10->  25) 
 (  11->  28)  (  12->  27)  (  13->  31)  (  14->  32)  (  15->  29) 
 (  16->  30)  (  17->   4)  (  18->   3)  (  19->   2)  (  20->   1) 
 (  21->   5)  (  22->   6)  (  23->   7)  (  24->   8)  (  25->  11) 
 (  26->  12)  (  27->   9)  (  28->  10)  (  29->  14)  (  30->  13) 
 (  31->  16)  (  32->  15)  (  33->  37)  (  34->  38)  (  35->  39) 
 (  36->  40)  (  37->  36)  (  38->  35)  (  39->  34)  (  40->  33) 
 (  41->  46)  (  42->  45)  (  43->  48)  (  44->  47)  (  45->  43) 
 (  46->  44)  (  47->  41)  (  48->  42)  (  49->  57)  (  50->  58) 
 (  51->  59)  (  52->  60)  (  53->  63)  (  54->  64)  (  55->  61) 
 (  56->  62)  (  57->  52)  (  58->  51)  (  59->  50)  (  60->  49) 
 (  61->  54)  (  62->  53)  (  63->  56)  (  64->  55)  (  65->  73) 
 (  66->  74)  (  67->  75)  (  68->  76)  (  69->  79)  (  70->  80) 
 (  71->  77)  (  72->  78)  (  73->  68)  (  74->  67)  (  75->  66) 
 (  76->  65)  (  77->  70)  (  78->  69)  (  79->  72)  (  80->  71) 
 (  81->  91)  (  82->  92)  (  83->  89)  (  84->  90)  (  85->  93) 
 (  86->  94)  (  87->  95)  (  88->  96)  (  89->  82)  (  90->  81) 
 (  91->  84)  (  92->  83)  (  93->  88)  (  94->  87)  (  95->  86) 
 (  96->  85)  (  97-> 113)  (  98-> 114)  (  99-> 115)  ( 100-> 116) 
 ( 101-> 120)  ( 102-> 119)  ( 103-> 118)  ( 104-> 117)  ( 105-> 122) 
 ( 106-> 121)  ( 107-> 124)  ( 108-> 123)  ( 109-> 127)  ( 110-> 128) 
 ( 111-> 125)  ( 112-> 126)  ( 113-> 100)  ( 114->  99)  ( 115->  98) 
 ( 116->  97)  ( 117-> 101)  ( 118-> 102)  ( 119-> 103)  ( 120-> 104) 
 ( 121-> 107)  ( 122-> 108)  ( 123-> 105)  ( 124-> 106)  ( 125-> 110) 
 ( 126-> 109)  ( 127-> 112)  ( 128-> 111)  ( 129-> 147)  ( 130-> 148) 
 ( 131-> 145)  ( 132-> 146)  ( 133-> 150)  ( 134-> 149)  ( 135-> 152) 
 ( 136-> 151)  ( 137-> 156)  ( 138-> 155)  ( 139-> 154)  ( 140-> 153) 
 ( 141-> 157)  ( 142-> 158)  ( 143-> 159)  ( 144-> 160)  ( 145-> 130) 
 ( 146-> 129)  ( 147-> 132)  ( 148-> 131)  ( 149-> 135)  ( 150-> 136) 
 ( 151-> 133)  ( 152-> 134)  ( 153-> 137)  ( 154-> 138)  ( 155-> 139) 
 ( 156-> 140)  ( 157-> 144)  ( 158-> 143)  ( 159-> 142)  ( 160-> 141) 
 ( 161-> 179)  ( 162-> 180)  ( 163-> 177)  ( 164-> 178)  ( 165-> 182) 
 ( 166-> 181)  ( 167-> 184)  ( 168-> 183)  ( 169-> 188)  ( 170-> 187) 
 ( 171-> 186)  ( 172-> 185)  ( 173-> 189)  ( 174-> 190)  ( 175-> 191) 
 ( 176-> 192)  ( 177-> 162)  ( 178-> 161)  ( 179-> 164)  ( 180-> 163) 
 ( 181-> 167)  ( 182-> 168)  ( 183-> 165)  ( 184-> 166)  ( 185-> 169) 
 ( 186-> 170)  ( 187-> 171)  ( 188-> 172)  ( 189-> 176)  ( 190-> 175) 
 ( 191-> 174)  ( 192-> 173) 

 ptrans:     0.5000000     0.5000000     0.0000000
 rotmap:
 (   1->   4)  (   2->   3)  (   3->   2)  (   4->   1)  (   5->   8) 
 (   6->   7)  (   7->   6)  (   8->   5)  (   9->  12)  (  10->  11) 
 (  11->  10)  (  12->   9)  (  13->  16)  (  14->  15)  (  15->  14) 
 (  16->  13)  (  17->  20)  (  18->  19)  (  19->  18)  (  20->  17) 
 (  21->  24)  (  22->  23)  (  23->  22)  (  24->  21)  (  25->  28) 
 (  26->  27)  (  27->  26)  (  28->  25)  (  29->  32)  (  30->  31) 
 (  31->  30)  (  32->  29)  (  33->  36)  (  34->  35)  (  35->  34) 
 (  36->  33)  (  37->  40)  (  38->  39)  (  39->  38)  (  40->  37) 
 (  41->  44)  (  42->  43)  (  43->  42)  (  44->  41)  (  45->  48) 
 (  46->  47)  (  47->  46)  (  48->  45)  (  49->  52)  (  50->  51) 
 (  51->  50)  (  52->  49)  (  53->  56)  (  54->  55)  (  55->  54) 
 (  56->  53)  (  57->  60)  (  58->  59)  (  59->  58)  (  60->  57) 
 (  61->  64)  (  62->  63)  (  63->  62)  (  64->  61)  (  65->  68) 
 (  66->  67)  (  67->  66)  (  68->  65)  (  69->  72)  (  70->  71) 
 (  71->  70)  (  72->  69)  (  73->  76)  (  74->  75)  (  75->  74) 
 (  76->  73)  (  77->  80)  (  78->  79)  (  79->  78)  (  80->  77) 
 (  81->  84)  (  82->  83)  (  83->  82)  (  84->  81)  (  85->  88) 
 (  86->  87)  (  87->  86)  (  88->  85)  (  89->  92)  (  90->  91) 
 (  91->  90)  (  92->  89)  (  93->  96)  (  94->  95)  (  95->  94) 
 (  96->  93)  (  97-> 100)  (  98->  99)  (  99->  98)  ( 100->  97) 
 ( 101-> 104)  ( 102-> 103)  ( 103-> 102)  ( 104-> 101)  ( 105-> 108) 
 ( 106-> 107)  ( 107-> 106)  ( 108-> 105)  ( 109-> 112)  ( 110-> 111) 
 ( 111-> 110)  ( 112-> 109)  ( 113-> 116)  ( 114-> 115)  ( 115-> 114) 
 ( 116-> 113)  ( 117-> 120)  ( 118-> 119)  ( 119-> 118)  ( 120-> 117) 
 ( 121-> 124)  ( 122-> 123)  ( 123-> 122)  ( 124-> 121)  ( 125-> 128) 
 ( 126-> 127)  ( 127-> 126)  ( 128-> 125)  ( 129-> 132)  ( 130-> 131) 
 ( 131-> 130)  ( 132-> 129)  ( 133-> 136)  ( 134-> 135)  ( 135-> 134) 
 ( 136-> 133)  ( 137-> 140)  ( 138-> 139)  ( 139-> 138)  ( 140-> 137) 
 ( 141-> 144)  ( 142-> 143)  ( 143-> 142)  ( 144-> 141)  ( 145-> 148) 
 ( 146-> 147)  ( 147-> 146)  ( 148-> 145)  ( 149-> 152)  ( 150-> 151) 
 ( 151-> 150)  ( 152-> 149)  ( 153-> 156)  ( 154-> 155)  ( 155-> 154) 
 ( 156-> 153)  ( 157-> 160)  ( 158-> 159)  ( 159-> 158)  ( 160-> 157) 
 ( 161-> 164)  ( 162-> 163)  ( 163-> 162)  ( 164-> 161)  ( 165-> 168) 
 ( 166-> 167)  ( 167-> 166)  ( 168-> 165)  ( 169-> 172)  ( 170-> 171) 
 ( 171-> 170)  ( 172-> 169)  ( 173-> 176)  ( 174-> 175)  ( 175-> 174) 
 ( 176-> 173)  ( 177-> 180)  ( 178-> 179)  ( 179-> 178)  ( 180-> 177) 
 ( 181-> 184)  ( 182-> 183)  ( 183-> 182)  ( 184-> 181)  ( 185-> 188) 
 ( 186-> 187)  ( 187-> 186)  ( 188-> 185)  ( 189-> 192)  ( 190-> 191) 
 ( 191-> 190)  ( 192-> 189) 

 ptrans:     0.7500000     0.7500000     0.0000000
 rotmap:
 (   1->  20)  (   2->  19)  (   3->  18)  (   4->  17)  (   5->  21) 
 (   6->  22)  (   7->  23)  (   8->  24)  (   9->  27)  (  10->  28) 
 (  11->  25)  (  12->  26)  (  13->  30)  (  14->  29)  (  15->  32) 
 (  16->  31)  (  17->   1)  (  18->   2)  (  19->   3)  (  20->   4) 
 (  21->   8)  (  22->   7)  (  23->   6)  (  24->   5)  (  25->  10) 
 (  26->   9)  (  27->  12)  (  28->  11)  (  29->  15)  (  30->  16) 
 (  31->  13)  (  32->  14)  (  33->  40)  (  34->  39)  (  35->  38) 
 (  36->  37)  (  37->  33)  (  38->  34)  (  39->  35)  (  40->  36) 
 (  41->  47)  (  42->  48)  (  43->  45)  (  44->  46)  (  45->  42) 
 (  46->  41)  (  47->  44)  (  48->  43)  (  49->  60)  (  50->  59) 
 (  51->  58)  (  52->  57)  (  53->  62)  (  54->  61)  (  55->  64) 
 (  56->  63)  (  57->  49)  (  58->  50)  (  59->  51)  (  60->  52) 
 (  61->  55)  (  62->  56)  (  63->  53)  (  64->  54)  (  65->  76) 
 (  66->  75)  (  67->  74)  (  68->  73)  (  69->  78)  (  70->  77) 
 (  71->  80)  (  72->  79)  (  73->  65)  (  74->  66)  (  75->  67) 
 (  76->  68)  (  77->  71)  (  78->  72)  (  79->  69)  (  80->  70) 
 (  81->  90)  (  82->  89)  (  83->  92)  (  84->  91)  (  85->  96) 
 (  86->  95)  (  87->  94)  (  88->  93)  (  89->  83)  (  90->  84) 
 (  91->  81)  (  92->  82)  (  93->  85)  (  94->  86)  (  95->  87) 
 (  96->  88)  (  97-> 116)  (  98-> 115)  (  99-> 114)  ( 100-> 113) 
 ( 101-> 117)  ( 102-> 118)  ( 103-> 119)  ( 104-> 120)  ( 105-> 123) 
 ( 106-> 124)  ( 107-> 121)  ( 108-> 122)  ( 109-> 126)  ( 110-> 125) 
 ( 111-> 128)  ( 112-> 127)  ( 113->  97)  ( 114->  98)  ( 115->  99) 
 ( 116-> 100)  ( 117-> 104)  ( 118-> 103)  ( 119-> 102)  ( 120-> 101) 
 ( 121-> 106)  ( 122-> 105)  ( 123-> 108)  ( 124-> 107)  ( 125-> 111) 
 ( 126-> 112)  ( 127-> 109)  ( 128-> 110)  ( 129-> 146)  ( 130-> 145) 
 ( 131-> 148)  ( 132-> 147)  ( 133-> 151)  ( 134-> 152)  ( 135-> 149) 
 ( 136-> 150)  ( 137-> 153)  ( 138-> 154)  ( 139-> 155)  ( 140-> 156) 
 ( 141-> 160)  ( 142-> 159)  ( 143-> 158)  ( 144-> 157)  ( 145-> 131) 
 ( 146-> 132)  ( 147-> 129)  ( 148-> 130)  ( 149-> 134)  ( 150-> 133) 
 ( 151-> 136)  ( 152-> 135)  ( 153-> 140)  ( 154-> 139)  ( 155-> 138) 
 ( 156-> 137)  ( 157-> 141)  ( 158-> 142)  ( 159-> 143)  ( 160-> 144) 
 ( 161-> 178)  ( 162-> 177)  ( 163-> 180)  ( 164-> 179)  ( 165-> 183) 
 ( 166-> 184)  ( 167-> 181)  ( 168-> 182)  ( 169-> 185)  ( 170-> 186) 
 ( 171-> 187)  ( 172-> 188)  ( 173-> 192)  ( 174-> 191)  ( 175-> 190) 
 ( 176-> 189)  ( 177-> 163)  ( 178-> 164)  ( 179-> 161)  ( 180-> 162) 
 ( 181-> 166)  ( 182-> 165)  ( 183-> 168)  ( 184-> 167)  ( 185-> 172) 
 ( 186-> 171)  ( 187-> 170)  ( 188-> 169)  ( 189-> 173)  ( 190-> 174) 
 ( 191-> 175)  ( 192-> 176) 

 ptrans:     0.2500000     0.7500000     0.0000000
 rotmap:
 (   1->  19)  (   2->  20)  (   3->  17)  (   4->  18)  (   5->  22) 
 (   6->  21)  (   7->  24)  (   8->  23)  (   9->  28)  (  10->  27) 
 (  11->  26)  (  12->  25)  (  13->  29)  (  14->  30)  (  15->  31) 
 (  16->  32)  (  17->   2)  (  18->   1)  (  19->   4)  (  20->   3) 
 (  21->   7)  (  22->   8)  (  23->   5)  (  24->   6)  (  25->   9) 
 (  26->  10)  (  27->  11)  (  28->  12)  (  29->  16)  (  30->  15) 
 (  31->  14)  (  32->  13)  (  33->  39)  (  34->  40)  (  35->  37) 
 (  36->  38)  (  37->  34)  (  38->  33)  (  39->  36)  (  40->  35) 
 (  41->  48)  (  42->  47)  (  43->  46)  (  44->  45)  (  45->  41) 
 (  46->  42)  (  47->  43)  (  48->  44)  (  49->  59)  (  50->  60) 
 (  51->  57)  (  52->  58)  (  53->  61)  (  54->  62)  (  55->  63) 
 (  56->  64)  (  57->  50)  (  58->  49)  (  59->  52)  (  60->  51) 
 (  61->  56)  (  62->  55)  (  63->  54)  (  64->  53)  (  65->  75) 
 (  66->  76)  (  67->  73)  (  68->  74)  (  69->  77)  (  70->  78) 
 (  71->  79)  (  72->  80)  (  73->  66)  (  74->  65)  (  75->  68) 
 (  76->  67)  (  77->  72)  (  78->  71)  (  79->  70)  (  80->  69) 
 (  81->  89)  (  82->  90)  (  83->  91)  (  84->  92)  (  85->  95) 
 (  86->  96)  (  87->  93)  (  88->  94)  (  89->  84)  (  90->  83) 
 (  91->  82)  (  92->  81)  (  93->  86)  (  94->  85)  (  95->  88) 
 (  96->  87)  (  97-> 115)  (  98-> 116)  (  99-> 113)  ( 100-> 114) 
 ( 101-> 118)  ( 102-> 117)  ( 103-> 120)  ( 104-> 119)  ( 105-> 124) 
 ( 106-> 123)  ( 107-> 122)  ( 108-> 121)  ( 109-> 125)  ( 110-> 126) 
 ( 111-> 127)  ( 112-> 128)  ( 113->  98)  ( 114->  97)  ( 115-> 100) 
 ( 116->  99)  ( 117-> 103)  ( 118-> 104)  ( 119-> 101)  ( 120-> 102) 
 ( 121-> 105)  ( 122-> 106)  ( 123-> 107)  ( 124-> 108)  ( 125-> 112) 
 ( 126-> 111)  ( 127-> 110)  ( 128-> 109)  ( 129-> 145)  ( 130-> 146) 
 ( 131-> 147)  ( 132-> 148)  ( 133-> 152)  ( 134-> 151)  ( 135-> 150) 
 ( 136-> 149)  ( 137-> 154)  ( 138-> 153)  ( 139-> 156)  ( 140-> 155) 
 ( 141-> 159)  ( 142-> 160)  ( 143-> 157)  ( 144-> 158)  ( 145-> 132) 
 ( 146-> 131)  ( 147-> 130)  ( 148-> 129)  ( 149-> 133)  ( 150-> 134) 
 ( 151-> 135)  ( 152-> 136)  ( 153-> 139)  ( 154-> 140)  ( 155-> 137) 
 ( 156-> 138)  ( 157-> 142)  ( 158-> 141)  ( 159-> 144)  ( 160-> 143) 
 ( 161-> 177)  ( 162-> 178)  ( 163-> 179)  ( 164-> 180)  ( 165-> 184) 
 ( 166-> 183)  ( 167-> 182)  ( 168-> 181)  ( 169-> 186)  ( 170-> 185) 
 ( 171-> 188)  ( 172-> 187)  ( 173-> 191)  ( 174-> 192)  ( 175-> 189) 
 ( 176-> 190)  ( 177-> 164)  ( 178-> 163)  ( 179-> 162)  ( 180-> 161) 
 ( 181-> 165)  ( 182-> 166)  ( 183-> 167)  ( 184-> 168)  ( 185-> 171) 
 ( 186-> 172)  ( 187-> 169)  ( 188-> 170)  ( 189-> 174)  ( 190-> 173) 
 ( 191-> 176)  ( 192-> 175) 

 ptrans:     0.5000000     0.0000000     0.0000000
 rotmap:
 (   1->   2)  (   2->   1)  (   3->   4)  (   4->   3)  (   5->   6) 
 (   6->   5)  (   7->   8)  (   8->   7)  (   9->  10)  (  10->   9) 
 (  11->  12)  (  12->  11)  (  13->  14)  (  14->  13)  (  15->  16) 
 (  16->  15)  (  17->  18)  (  18->  17)  (  19->  20)  (  20->  19) 
 (  21->  22)  (  22->  21)  (  23->  24)  (  24->  23)  (  25->  26) 
 (  26->  25)  (  27->  28)  (  28->  27)  (  29->  30)  (  30->  29) 
 (  31->  32)  (  32->  31)  (  33->  34)  (  34->  33)  (  35->  36) 
 (  36->  35)  (  37->  38)  (  38->  37)  (  39->  40)  (  40->  39) 
 (  41->  42)  (  42->  41)  (  43->  44)  (  44->  43)  (  45->  46) 
 (  46->  45)  (  47->  48)  (  48->  47)  (  49->  50)  (  50->  49) 
 (  51->  52)  (  52->  51)  (  53->  54)  (  54->  53)  (  55->  56) 
 (  56->  55)  (  57->  58)  (  58->  57)  (  59->  60)  (  60->  59) 
 (  61->  62)  (  62->  61)  (  63->  64)  (  64->  63)  (  65->  66) 
 (  66->  65)  (  67->  68)  (  68->  67)  (  69->  70)  (  70->  69) 
 (  71->  72)  (  72->  71)  (  73->  74)  (  74->  73)  (  75->  76) 
 (  76->  75)  (  77->  78)  (  78->  77)  (  79->  80)  (  80->  79) 
 (  81->  82)  (  82->  81)  (  83->  84)  (  84->  83)  (  85->  86) 
 (  86->  85)  (  87->  88)  (  88->  87)  (  89->  90)  (  90->  89) 
 (  91->  92)  (  92->  91)  (  93->  94)  (  94->  93)  (  95->  96) 
 (  96->  95)  (  97->  98)  (  98->  97)  (  99-> 100)  ( 100->  99) 
 ( 101-> 102)  ( 102-> 101)  ( 103-> 104)  ( 104-> 103)  ( 105-> 106) 
 ( 106-> 105)  ( 107-> 108)  ( 108-> 107)  ( 109-> 110)  ( 110-> 109) 
 ( 111-> 112)  ( 112-> 111)  ( 113-> 114)  ( 114-> 113)  ( 115-> 116) 
 ( 116-> 115)  ( 117-> 118)  ( 118-> 117)  ( 119-> 120)  ( 120-> 119) 
 ( 121-> 122)  ( 122-> 121)  ( 123-> 124)  ( 124-> 123)  ( 125-> 126) 
 ( 126-> 125)  ( 127-> 128)  ( 128-> 127)  ( 129-> 130)  ( 130-> 129) 
 ( 131-> 132)  ( 132-> 131)  ( 133-> 134)  ( 134-> 133)  ( 135-> 136) 
 ( 136-> 135)  ( 137-> 138)  ( 138-> 137)  ( 139-> 140)  ( 140-> 139) 
 ( 141-> 142)  ( 142-> 141)  ( 143-> 144)  ( 144-> 143)  ( 145-> 146) 
 ( 146-> 145)  ( 147-> 148)  ( 148-> 147)  ( 149-> 150)  ( 150-> 149) 
 ( 151-> 152)  ( 152-> 151)  ( 153-> 154)  ( 154-> 153)  ( 155-> 156) 
 ( 156-> 155)  ( 157-> 158)  ( 158-> 157)  ( 159-> 160)  ( 160-> 159) 
 ( 161-> 162)  ( 162-> 161)  ( 163-> 164)  ( 164-> 163)  ( 165-> 166) 
 ( 166-> 165)  ( 167-> 168)  ( 168-> 167)  ( 169-> 170)  ( 170-> 169) 
 ( 171-> 172)  ( 172-> 171)  ( 173-> 174)  ( 174-> 173)  ( 175-> 176) 
 ( 176-> 175)  ( 177-> 178)  ( 178-> 177)  ( 179-> 180)  ( 180-> 179) 
 ( 181-> 182)  ( 182-> 181)  ( 183-> 184)  ( 184-> 183)  ( 185-> 186) 
 ( 186-> 185)  ( 187-> 188)  ( 188-> 187)  ( 189-> 190)  ( 190-> 189) 
 ( 191-> 192)  ( 192-> 191) 

 ptrans:     0.7500000     0.2500000     0.0000000
 rotmap:
 (   1->  18)  (   2->  17)  (   3->  20)  (   4->  19)  (   5->  23) 
 (   6->  24)  (   7->  21)  (   8->  22)  (   9->  25)  (  10->  26) 
 (  11->  27)  (  12->  28)  (  13->  32)  (  14->  31)  (  15->  30) 
 (  16->  29)  (  17->   3)  (  18->   4)  (  19->   1)  (  20->   2) 
 (  21->   6)  (  22->   5)  (  23->   8)  (  24->   7)  (  25->  12) 
 (  26->  11)  (  27->  10)  (  28->   9)  (  29->  13)  (  30->  14) 
 (  31->  15)  (  32->  16)  (  33->  38)  (  34->  37)  (  35->  40) 
 (  36->  39)  (  37->  35)  (  38->  36)  (  39->  33)  (  40->  34) 
 (  41->  45)  (  42->  46)  (  43->  47)  (  44->  48)  (  45->  44) 
 (  46->  43)  (  47->  42)  (  48->  41)  (  49->  58)  (  50->  57) 
 (  51->  60)  (  52->  59)  (  53->  64)  (  54->  63)  (  55->  62) 
 (  56->  61)  (  57->  51)  (  58->  52)  (  59->  49)  (  60->  50) 
 (  61->  53)  (  62->  54)  (  63->  55)  (  64->  56)  (  65->  74) 
 (  66->  73)  (  67->  76)  (  68->  75)  (  69->  80)  (  70->  79) 
 (  71->  78)  (  72->  77)  (  73->  67)  (  74->  68)  (  75->  65) 
 (  76->  66)  (  77->  69)  (  78->  70)  (  79->  71)  (  80->  72) 
 (  81->  92)  (  82->  91)  (  83->  90)  (  84->  89)  (  85->  94) 
 (  86->  93)  (  87->  96)  (  88->  95)  (  89->  81)  (  90->  82) 
 (  91->  83)  (  92->  84)  (  93->  87)  (  94->  88)  (  95->  85) 
 (  96->  86)  (  97-> 114)  (  98-> 113)  (  99-> 116)  ( 100-> 115) 
 ( 101-> 119)  ( 102-> 120)  ( 103-> 117)  ( 104-> 118)  ( 105-> 121) 
 ( 106-> 122)  ( 107-> 123)  ( 108-> 124)  ( 109-> 128)  ( 110-> 127) 
 ( 111-> 126)  ( 112-> 125)  ( 113->  99)  ( 114-> 100)  ( 115->  97) 
 ( 116->  98)  ( 117-> 102)  ( 118-> 101)  ( 119-> 104)  ( 120-> 103) 
 ( 121-> 108)  ( 122-> 107)  ( 123-> 106)  ( 124-> 105)  ( 125-> 109) 
 ( 126-> 110)  ( 127-> 111)  ( 128-> 112)  ( 129-> 148)  ( 130-> 147) 
 ( 131-> 146)  ( 132-> 145)  ( 133-> 149)  ( 134-> 150)  ( 135-> 151) 
 ( 136-> 152)  ( 137-> 155)  ( 138-> 156)  ( 139-> 153)  ( 140-> 154) 
 ( 141-> 158)  ( 142-> 157)  ( 143-> 160)  ( 144-> 159)  ( 145-> 129) 
 ( 146-> 130)  ( 147-> 131)  ( 148-> 132)  ( 149-> 136)  ( 150-> 135) 
 ( 151-> 134)  ( 152-> 133)  ( 153-> 138)  ( 154-> 137)  ( 155-> 140) 
 ( 156-> 139)  ( 157-> 143)  ( 158-> 144)  ( 159-> 141)  ( 160-> 142) 
 ( 161-> 180)  ( 162-> 179)  ( 163-> 178)  ( 164-> 177)  ( 165-> 181) 
 ( 166-> 182)  ( 167-> 183)  ( 168-> 184)  ( 169-> 187)  ( 170-> 188) 
 ( 171-> 185)  ( 172-> 186)  ( 173-> 190)  ( 174-> 189)  ( 175-> 192) 
 ( 176-> 191)  ( 177-> 161)  ( 178-> 162)  ( 179-> 163)  ( 180-> 164) 
 ( 181-> 168)  ( 182-> 167)  ( 183-> 166)  ( 184-> 165)  ( 185-> 170) 
 ( 186-> 169)  ( 187-> 172)  ( 188-> 171)  ( 189-> 175)  ( 190-> 176) 
 ( 191-> 173)  ( 192-> 174) 

 ptrans:     0.0000000     0.5000000     0.0000000
 rotmap:
 (   1->   3)  (   2->   4)  (   3->   1)  (   4->   2)  (   5->   7) 
 (   6->   8)  (   7->   5)  (   8->   6)  (   9->  11)  (  10->  12) 
 (  11->   9)  (  12->  10)  (  13->  15)  (  14->  16)  (  15->  13) 
 (  16->  14)  (  17->  19)  (  18->  20)  (  19->  17)  (  20->  18) 
 (  21->  23)  (  22->  24)  (  23->  21)  (  24->  22)  (  25->  27) 
 (  26->  28)  (  27->  25)  (  28->  26)  (  29->  31)  (  30->  32) 
 (  31->  29)  (  32->  30)  (  33->  35)  (  34->  36)  (  35->  33) 
 (  36->  34)  (  37->  39)  (  38->  40)  (  39->  37)  (  40->  38) 
 (  41->  43)  (  42->  44)  (  43->  41)  (  44->  42)  (  45->  47) 
 (  46->  48)  (  47->  45)  (  48->  46)  (  49->  51)  (  50->  52) 
 (  51->  49)  (  52->  50)  (  53->  55)  (  54->  56)  (  55->  53) 
 (  56->  54)  (  57->  59)  (  58->  60)  (  59->  57)  (  60->  58) 
 (  61->  63)  (  62->  64)  (  63->  61)  (  64->  62)  (  65->  67) 
 (  66->  68)  (  67->  65)  (  68->  66)  (  69->  71)  (  70->  72) 
 (  71->  69)  (  72->  70)  (  73->  75)  (  74->  76)  (  75->  73) 
 (  76->  74)  (  77->  79)  (  78->  80)  (  79->  77)  (  80->  78) 
 (  81->  83)  (  82->  84)  (  83->  81)  (  84->  82)  (  85->  87) 
 (  86->  88)  (  87->  85)  (  88->  86)  (  89->  91)  (  90->  92) 
 (  91->  89)  (  92->  90)  (  93->  95)  (  94->  96)  (  95->  93) 
 (  96->  94)  (  97->  99)  (  98-> 100)  (  99->  97)  ( 100->  98) 
 ( 101-> 103)  ( 102-> 104)  ( 103-> 101)  ( 104-> 102)  ( 105-> 107) 
 ( 106-> 108)  ( 107-> 105)  ( 108-> 106)  ( 109-> 111)  ( 110-> 112) 
 ( 111-> 109)  ( 112-> 110)  ( 113-> 115)  ( 114-> 116)  ( 115-> 113) 
 ( 116-> 114)  ( 117-> 119)  ( 118-> 120)  ( 119-> 117)  ( 120-> 118) 
 ( 121-> 123)  ( 122-> 124)  ( 123-> 121)  ( 124-> 122)  ( 125-> 127) 
 ( 126-> 128)  ( 127-> 125)  ( 128-> 126)  ( 129-> 131)  ( 130-> 132) 
 ( 131-> 129)  ( 132-> 130)  ( 133-> 135)  ( 134-> 136)  ( 135-> 133) 
 ( 136-> 134)  ( 137-> 139)  ( 138-> 140)  ( 139-> 137)  ( 140-> 138) 
 ( 141-> 143)  ( 142-> 144)  ( 143-> 141)  ( 144-> 142)  ( 145-> 147) 
 ( 146-> 148)  ( 147-> 145)  ( 148-> 146)  ( 149-> 151)  ( 150-> 152) 
 ( 151-> 149)  ( 152-> 150)  ( 153-> 155)  ( 154-> 156)  ( 155-> 153) 
 ( 156-> 154)  ( 157-> 159)  ( 158-> 160)  ( 159-> 157)  ( 160-> 158) 
 ( 161-> 163)  ( 162-> 164)  ( 163-> 161)  ( 164-> 162)  ( 165-> 167) 
 ( 166-> 168)  ( 167-> 165)  ( 168-> 166)  ( 169-> 171)  ( 170-> 172) 
 ( 171-> 169)  ( 172-> 170)  ( 173-> 175)  ( 174-> 176)  ( 175-> 173) 
 ( 176-> 174)  ( 177-> 179)  ( 178-> 180)  ( 179-> 177)  ( 180-> 178) 
 ( 181-> 183)  ( 182-> 184)  ( 183-> 181)  ( 184-> 182)  ( 185-> 187) 
 ( 186-> 188)  ( 187-> 185)  ( 188-> 186)  ( 189-> 191)  ( 190-> 192) 
 ( 191-> 189)  ( 192-> 190) 


 irot  :   2
 --------------------------------------------------------------------
 isymop:  -1   0   0
           0  -1   0
           0   0  -1

 gtrans:     0.0000000     0.0000000     0.0000000

 ptrans:     0.0000000     0.0000000     0.0000000
 rotmap:
 (   1->   8)  (   2->   7)  (   3->   6)  (   4->   5)  (   5->   4) 
 (   6->   3)  (   7->   2)  (   8->   1)  (   9->  16)  (  10->  15) 
 (  11->  14)  (  12->  13)  (  13->  12)  (  14->  11)  (  15->  10) 
 (  16->   9)  (  17->  24)  (  18->  23)  (  19->  22)  (  20->  21) 
 (  21->  20)  (  22->  19)  (  23->  18)  (  24->  17)  (  25->  32) 
 (  26->  31)  (  27->  30)  (  28->  29)  (  29->  28)  (  30->  27) 
 (  31->  26)  (  32->  25)  (  33->  40)  (  34->  39)  (  35->  38) 
 (  36->  37)  (  37->  36)  (  38->  35)  (  39->  34)  (  40->  33) 
 (  41->  48)  (  42->  47)  (  43->  46)  (  44->  45)  (  45->  44) 
 (  46->  43)  (  47->  42)  (  48->  41)  (  49->  55)  (  50->  56) 
 (  51->  53)  (  52->  54)  (  53->  51)  (  54->  52)  (  55->  49) 
 (  56->  50)  (  57->  64)  (  58->  63)  (  59->  62)  (  60->  61) 
 (  61->  60)  (  62->  59)  (  63->  58)  (  64->  57)  (  65->  71) 
 (  66->  72)  (  67->  69)  (  68->  70)  (  69->  67)  (  70->  68) 
 (  71->  65)  (  72->  66)  (  73->  80)  (  74->  79)  (  75->  78) 
 (  76->  77)  (  77->  76)  (  78->  75)  (  79->  74)  (  80->  73) 
 (  81->  87)  (  82->  88)  (  83->  85)  (  84->  86)  (  85->  83) 
 (  86->  84)  (  87->  81)  (  88->  82)  (  89->  96)  (  90->  95) 
 (  91->  94)  (  92->  93)  (  93->  92)  (  94->  91)  (  95->  90) 
 (  96->  89)  (  97-> 104)  (  98-> 103)  (  99-> 102)  ( 100-> 101) 
 ( 101-> 100)  ( 102->  99)  ( 103->  98)  ( 104->  97)  ( 105-> 112) 
 ( 106-> 111)  ( 107-> 110)  ( 108-> 109)  ( 109-> 108)  ( 110-> 107) 
 ( 111-> 106)  ( 112-> 105)  ( 113-> 120)  ( 114-> 119)  ( 115-> 118) 
 ( 116-> 117)  ( 117-> 116)  ( 118-> 115)  ( 119-> 114)  ( 120-> 113) 
 ( 121-> 128)  ( 122-> 127)  ( 123-> 126)  ( 124-> 125)  ( 125-> 124) 
 ( 126-> 123)  ( 127-> 122)  ( 128-> 121)  ( 129-> 136)  ( 130-> 135) 
 ( 131-> 134)  ( 132-> 133)  ( 133-> 132)  ( 134-> 131)  ( 135-> 130) 
 ( 136-> 129)  ( 137-> 144)  ( 138-> 143)  ( 139-> 142)  ( 140-> 141) 
 ( 141-> 140)  ( 142-> 139)  ( 143-> 138)  ( 144-> 137)  ( 145-> 152) 
 ( 146-> 151)  ( 147-> 150)  ( 148-> 149)  ( 149-> 148)  ( 150-> 147) 
 ( 151-> 146)  ( 152-> 145)  ( 153-> 160)  ( 154-> 159)  ( 155-> 158) 
 ( 156-> 157)  ( 157-> 156)  ( 158-> 155)  ( 159-> 154)  ( 160-> 153) 
 ( 161-> 168)  ( 162-> 167)  ( 163-> 166)  ( 164-> 165)  ( 165-> 164) 
 ( 166-> 163)  ( 167-> 162)  ( 168-> 161)  ( 169-> 176)  ( 170-> 175) 
 ( 171-> 174)  ( 172-> 173)  ( 173-> 172)  ( 174-> 171)  ( 175-> 170) 
 ( 176-> 169)  ( 177-> 184)  ( 178-> 183)  ( 179-> 182)  ( 180-> 181) 
 ( 181-> 180)  ( 182-> 179)  ( 183-> 178)  ( 184-> 177)  ( 185-> 192) 
 ( 186-> 191)  ( 187-> 190)  ( 188-> 189)  ( 189-> 188)  ( 190-> 187) 
 ( 191-> 186)  ( 192-> 185) 

 ptrans:     0.2500000     0.2500000     0.0000000
 rotmap:
 (   1->  21)  (   2->  22)  (   3->  23)  (   4->  24)  (   5->  20) 
 (   6->  19)  (   7->  18)  (   8->  17)  (   9->  30)  (  10->  29) 
 (  11->  32)  (  12->  31)  (  13->  27)  (  14->  28)  (  15->  25) 
 (  16->  26)  (  17->   8)  (  18->   7)  (  19->   6)  (  20->   5) 
 (  21->   1)  (  22->   2)  (  23->   3)  (  24->   4)  (  25->  15) 
 (  26->  16)  (  27->  13)  (  28->  14)  (  29->  10)  (  30->   9) 
 (  31->  12)  (  32->  11)  (  33->  33)  (  34->  34)  (  35->  35) 
 (  36->  36)  (  37->  40)  (  38->  39)  (  39->  38)  (  40->  37) 
 (  41->  42)  (  42->  41)  (  43->  44)  (  44->  43)  (  45->  47) 
 (  46->  48)  (  47->  45)  (  48->  46)  (  49->  61)  (  50->  62) 
 (  51->  63)  (  52->  64)  (  53->  59)  (  54->  60)  (  55->  57) 
 (  56->  58)  (  57->  55)  (  58->  56)  (  59->  53)  (  60->  54) 
 (  61->  49)  (  62->  50)  (  63->  51)  (  64->  52)  (  65->  77) 
 (  66->  78)  (  67->  79)  (  68->  80)  (  69->  75)  (  70->  76) 
 (  71->  73)  (  72->  74)  (  73->  71)  (  74->  72)  (  75->  69) 
 (  76->  70)  (  77->  65)  (  78->  66)  (  79->  67)  (  80->  68) 
 (  81->  95)  (  82->  96)  (  83->  93)  (  84->  94)  (  85->  89) 
 (  86->  90)  (  87->  91)  (  88->  92)  (  89->  85)  (  90->  86) 
 (  91->  87)  (  92->  88)  (  93->  83)  (  94->  84)  (  95->  81) 
 (  96->  82)  (  97-> 117)  (  98-> 118)  (  99-> 119)  ( 100-> 120) 
 ( 101-> 116)  ( 102-> 115)  ( 103-> 114)  ( 104-> 113)  ( 105-> 126) 
 ( 106-> 125)  ( 107-> 128)  ( 108-> 127)  ( 109-> 123)  ( 110-> 124) 
 ( 111-> 121)  ( 112-> 122)  ( 113-> 104)  ( 114-> 103)  ( 115-> 102) 
 ( 116-> 101)  ( 117->  97)  ( 118->  98)  ( 119->  99)  ( 120-> 100) 
 ( 121-> 111)  ( 122-> 112)  ( 123-> 109)  ( 124-> 110)  ( 125-> 106) 
 ( 126-> 105)  ( 127-> 108)  ( 128-> 107)  ( 129-> 151)  ( 130-> 152) 
 ( 131-> 149)  ( 132-> 150)  ( 133-> 146)  ( 134-> 145)  ( 135-> 148) 
 ( 136-> 147)  ( 137-> 160)  ( 138-> 159)  ( 139-> 158)  ( 140-> 157) 
 ( 141-> 153)  ( 142-> 154)  ( 143-> 155)  ( 144-> 156)  ( 145-> 134) 
 ( 146-> 133)  ( 147-> 136)  ( 148-> 135)  ( 149-> 131)  ( 150-> 132) 
 ( 151-> 129)  ( 152-> 130)  ( 153-> 141)  ( 154-> 142)  ( 155-> 143) 
 ( 156-> 144)  ( 157-> 140)  ( 158-> 139)  ( 159-> 138)  ( 160-> 137) 
 ( 161-> 183)  ( 162-> 184)  ( 163-> 181)  ( 164-> 182)  ( 165-> 178) 
 ( 166-> 177)  ( 167-> 180)  ( 168-> 179)  ( 169-> 192)  ( 170-> 191) 
 ( 171-> 190)  ( 172-> 189)  ( 173-> 185)  ( 174-> 186)  ( 175-> 187) 
 ( 176-> 188)  ( 177-> 166)  ( 178-> 165)  ( 179-> 168)  ( 180-> 167) 
 ( 181-> 163)  ( 182-> 164)  ( 183-> 161)  ( 184-> 162)  ( 185-> 173) 
 ( 186-> 174)  ( 187-> 175)  ( 188-> 176)  ( 189-> 172)  ( 190-> 171) 
 ( 191-> 170)  ( 192-> 169) 

 ptrans:     0.5000000     0.5000000     0.0000000
 rotmap:
 (   1->   5)  (   2->   6)  (   3->   7)  (   4->   8)  (   5->   1) 
 (   6->   2)  (   7->   3)  (   8->   4)  (   9->  13)  (  10->  14) 
 (  11->  15)  (  12->  16)  (  13->   9)  (  14->  10)  (  15->  11) 
 (  16->  12)  (  17->  21)  (  18->  22)  (  19->  23)  (  20->  24) 
 (  21->  17)  (  22->  18)  (  23->  19)  (  24->  20)  (  25->  29) 
 (  26->  30)  (  27->  31)  (  28->  32)  (  29->  25)  (  30->  26) 
 (  31->  27)  (  32->  28)  (  33->  37)  (  34->  38)  (  35->  39) 
 (  36->  40)  (  37->  33)  (  38->  34)  (  39->  35)  (  40->  36) 
 (  41->  45)  (  42->  46)  (  43->  47)  (  44->  48)  (  45->  41) 
 (  46->  42)  (  47->  43)  (  48->  44)  (  49->  54)  (  50->  53) 
 (  51->  56)  (  52->  55)  (  53->  50)  (  54->  49)  (  55->  52) 
 (  56->  51)  (  57->  61)  (  58->  62)  (  59->  63)  (  60->  64) 
 (  61->  57)  (  62->  58)  (  63->  59)  (  64->  60)  (  65->  70) 
 (  66->  69)  (  67->  72)  (  68->  71)  (  69->  66)  (  70->  65) 
 (  71->  68)  (  72->  67)  (  73->  77)  (  74->  78)  (  75->  79) 
 (  76->  80)  (  77->  73)  (  78->  74)  (  79->  75)  (  80->  76) 
 (  81->  86)  (  82->  85)  (  83->  88)  (  84->  87)  (  85->  82) 
 (  86->  81)  (  87->  84)  (  88->  83)  (  89->  93)  (  90->  94) 
 (  91->  95)  (  92->  96)  (  93->  89)  (  94->  90)  (  95->  91) 
 (  96->  92)  (  97-> 101)  (  98-> 102)  (  99-> 103)  ( 100-> 104) 
 ( 101->  97)  ( 102->  98)  ( 103->  99)  ( 104-> 100)  ( 105-> 109) 
 ( 106-> 110)  ( 107-> 111)  ( 108-> 112)  ( 109-> 105)  ( 110-> 106) 
 ( 111-> 107)  ( 112-> 108)  ( 113-> 117)  ( 114-> 118)  ( 115-> 119) 
 ( 116-> 120)  ( 117-> 113)  ( 118-> 114)  ( 119-> 115)  ( 120-> 116) 
 ( 121-> 125)  ( 122-> 126)  ( 123-> 127)  ( 124-> 128)  ( 125-> 121) 
 ( 126-> 122)  ( 127-> 123)  ( 128-> 124)  ( 129-> 133)  ( 130-> 134) 
 ( 131-> 135)  ( 132-> 136)  ( 133-> 129)  ( 134-> 130)  ( 135-> 131) 
 ( 136-> 132)  ( 137-> 141)  ( 138-> 142)  ( 139-> 143)  ( 140-> 144) 
 ( 141-> 137)  ( 142-> 138)  ( 143-> 139)  ( 144-> 140)  ( 145-> 149) 
 ( 146-> 150)  ( 147-> 151)  ( 148-> 152)  ( 149-> 145)  ( 150-> 146) 
 ( 151-> 147)  ( 152-> 148)  ( 153-> 157)  ( 154-> 158)  ( 155-> 159) 
 ( 156-> 160)  ( 157-> 153)  ( 158-> 154)  ( 159-> 155)  ( 160-> 156) 
 ( 161-> 165)  ( 162-> 166)  ( 163-> 167)  ( 164-> 168)  ( 165-> 161) 
 ( 166-> 162)  ( 167-> 163)  ( 168-> 164)  ( 169-> 173)  ( 170-> 174) 
 ( 171-> 175)  ( 172-> 176)  ( 173-> 169)  ( 174-> 170)  ( 175-> 171) 
 ( 176-> 172)  ( 177-> 181)  ( 178-> 182)  ( 179-> 183)  ( 180-> 184) 
 ( 181-> 177)  ( 182-> 178)  ( 183-> 179)  ( 184-> 180)  ( 185-> 189) 
 ( 186-> 190)  ( 187-> 191)  ( 188-> 192)  ( 189-> 185)  ( 190-> 186) 
 ( 191-> 187)  ( 192-> 188) 

 ptrans:     0.7500000     0.7500000     0.0000000
 rotmap:
 (   1->  24)  (   2->  23)  (   3->  22)  (   4->  21)  (   5->  17) 
 (   6->  18)  (   7->  19)  (   8->  20)  (   9->  31)  (  10->  32) 
 (  11->  29)  (  12->  30)  (  13->  26)  (  14->  25)  (  15->  28) 
 (  16->  27)  (  17->   5)  (  18->   6)  (  19->   7)  (  20->   8) 
 (  21->   4)  (  22->   3)  (  23->   2)  (  24->   1)  (  25->  14) 
 (  26->  13)  (  27->  16)  (  28->  15)  (  29->  11)  (  30->  12) 
 (  31->   9)  (  32->  10)  (  33->  36)  (  34->  35)  (  35->  34) 
 (  36->  33)  (  37->  37)  (  38->  38)  (  39->  39)  (  40->  40) 
 (  41->  43)  (  42->  44)  (  43->  41)  (  44->  42)  (  45->  46) 
 (  46->  45)  (  47->  48)  (  48->  47)  (  49->  64)  (  50->  63) 
 (  51->  62)  (  52->  61)  (  53->  58)  (  54->  57)  (  55->  60) 
 (  56->  59)  (  57->  54)  (  58->  53)  (  59->  56)  (  60->  55) 
 (  61->  52)  (  62->  51)  (  63->  50)  (  64->  49)  (  65->  80) 
 (  66->  79)  (  67->  78)  (  68->  77)  (  69->  74)  (  70->  73) 
 (  71->  76)  (  72->  75)  (  73->  70)  (  74->  69)  (  75->  72) 
 (  76->  71)  (  77->  68)  (  78->  67)  (  79->  66)  (  80->  65) 
 (  81->  94)  (  82->  93)  (  83->  96)  (  84->  95)  (  85->  92) 
 (  86->  91)  (  87->  90)  (  88->  89)  (  89->  88)  (  90->  87) 
 (  91->  86)  (  92->  85)  (  93->  82)  (  94->  81)  (  95->  84) 
 (  96->  83)  (  97-> 120)  (  98-> 119)  (  99-> 118)  ( 100-> 117) 
 ( 101-> 113)  ( 102-> 114)  ( 103-> 115)  ( 104-> 116)  ( 105-> 127) 
 ( 106-> 128)  ( 107-> 125)  ( 108-> 126)  ( 109-> 122)  ( 110-> 121) 
 ( 111-> 124)  ( 112-> 123)  ( 113-> 101)  ( 114-> 102)  ( 115-> 103) 
 ( 116-> 104)  ( 117-> 100)  ( 118->  99)  ( 119->  98)  ( 120->  97) 
 ( 121-> 110)  ( 122-> 109)  ( 123-> 112)  ( 124-> 111)  ( 125-> 107) 
 ( 126-> 108)  ( 127-> 105)  ( 128-> 106)  ( 129-> 150)  ( 130-> 149) 
 ( 131-> 152)  ( 132-> 151)  ( 133-> 147)  ( 134-> 148)  ( 135-> 145) 
 ( 136-> 146)  ( 137-> 157)  ( 138-> 158)  ( 139-> 159)  ( 140-> 160) 
 ( 141-> 156)  ( 142-> 155)  ( 143-> 154)  ( 144-> 153)  ( 145-> 135) 
 ( 146-> 136)  ( 147-> 133)  ( 148-> 134)  ( 149-> 130)  ( 150-> 129) 
 ( 151-> 132)  ( 152-> 131)  ( 153-> 144)  ( 154-> 143)  ( 155-> 142) 
 ( 156-> 141)  ( 157-> 137)  ( 158-> 138)  ( 159-> 139)  ( 160-> 140) 
 ( 161-> 182)  ( 162-> 181)  ( 163-> 184)  ( 164-> 183)  ( 165-> 179) 
 ( 166-> 180)  ( 167-> 177)  ( 168-> 178)  ( 169-> 189)  ( 170-> 190) 
 ( 171-> 191)  ( 172-> 192)  ( 173-> 188)  ( 174-> 187)  ( 175-> 186) 
 ( 176-> 185)  ( 177-> 167)  ( 178-> 168)  ( 179-> 165)  ( 180-> 166) 
 ( 181-> 162)  ( 182-> 161)  ( 183-> 164)  ( 184-> 163)  ( 185-> 176) 
 ( 186-> 175)  ( 187-> 174)  ( 188-> 173)  ( 189-> 169)  ( 190-> 170) 
 ( 191-> 171)  ( 192-> 172) 

 ptrans:     0.2500000     0.7500000     0.0000000
 rotmap:
 (   1->  23)  (   2->  24)  (   3->  21)  (   4->  22)  (   5->  18) 
 (   6->  17)  (   7->  20)  (   8->  19)  (   9->  32)  (  10->  31) 
 (  11->  30)  (  12->  29)  (  13->  25)  (  14->  26)  (  15->  27) 
 (  16->  28)  (  17->   6)  (  18->   5)  (  19->   8)  (  20->   7) 
 (  21->   3)  (  22->   4)  (  23->   1)  (  24->   2)  (  25->  13) 
 (  26->  14)  (  27->  15)  (  28->  16)  (  29->  12)  (  30->  11) 
 (  31->  10)  (  32->   9)  (  33->  35)  (  34->  36)  (  35->  33) 
 (  36->  34)  (  37->  38)  (  38->  37)  (  39->  40)  (  40->  39) 
 (  41->  44)  (  42->  43)  (  43->  42)  (  44->  41)  (  45->  45) 
 (  46->  46)  (  47->  47)  (  48->  48)  (  49->  63)  (  50->  64) 
 (  51->  61)  (  52->  62)  (  53->  57)  (  54->  58)  (  55->  59) 
 (  56->  60)  (  57->  53)  (  58->  54)  (  59->  55)  (  60->  56) 
 (  61->  51)  (  62->  52)  (  63->  49)  (  64->  50)  (  65->  79) 
 (  66->  80)  (  67->  77)  (  68->  78)  (  69->  73)  (  70->  74) 
 (  71->  75)  (  72->  76)  (  73->  69)  (  74->  70)  (  75->  71) 
 (  76->  72)  (  77->  67)  (  78->  68)  (  79->  65)  (  80->  66) 
 (  81->  93)  (  82->  94)  (  83->  95)  (  84->  96)  (  85->  91) 
 (  86->  92)  (  87->  89)  (  88->  90)  (  89->  87)  (  90->  88) 
 (  91->  85)  (  92->  86)  (  93->  81)  (  94->  82)  (  95->  83) 
 (  96->  84)  (  97-> 119)  (  98-> 120)  (  99-> 117)  ( 100-> 118) 
 ( 101-> 114)  ( 102-> 113)  ( 103-> 116)  ( 104-> 115)  ( 105-> 128) 
 ( 106-> 127)  ( 107-> 126)  ( 108-> 125)  ( 109-> 121)  ( 110-> 122) 
[...]
      1.25396      0.73246      7.24590         0.000000     -0.002141      0.000000
      6.34861      0.73246      7.23758         0.000000     -0.002141      0.000000
      1.25396      9.57804      7.24590         0.000000     -0.002141      0.000000
      6.34861      9.57804      7.23758         0.000000     -0.002141      0.000000
     -0.43112      6.63048      2.41669         0.000000      0.000736      0.000000
      4.66353      6.63048      2.40836         0.000000      0.000736      0.000000
     -0.43112     15.47606      2.41669         0.000000      0.000736      0.000000
      4.66353     15.47606      2.40836         0.000000      0.000736      0.000000
     -1.29336      2.21511      7.25006         0.000000     -0.000736      0.000000
      3.80129      2.21511      7.24174         0.000000     -0.000736      0.000000
     -1.29336     11.06070      7.25006         0.000000     -0.000736      0.000000
      3.80129     11.06070      7.24174         0.000000     -0.000736      0.000000
      2.11620      2.20768      2.41253         0.000000      0.000736      0.000000
      7.21085      2.20768      2.40420         0.000000      0.000736      0.000000
      2.11620     11.05327      2.41253         0.000000      0.000736      0.000000
      7.21085     11.05327      2.40420         0.000000      0.000736      0.000000
      1.25396      6.63791      7.24590         0.000000     -0.000736      0.000000
      6.34861      6.63791      7.23758         0.000000     -0.000736      0.000000
      1.25396     15.48350      7.24590         0.000000     -0.000736      0.000000
      6.34861     15.48350      7.23758         0.000000     -0.000736      0.000000
      0.47770      2.32287      1.31425        -0.000599      0.001449     -0.001292
      5.57235      2.32287      1.30592        -0.000599      0.001449     -0.001292
      0.47770     11.16846      1.31425        -0.000599      0.001449     -0.001292
      5.57235     11.16846      1.30592        -0.000599      0.001449     -0.001292
      2.89246      6.52272      8.34418         0.000599     -0.001449      0.001292
      7.98711      6.52272      8.33586         0.000599     -0.001449      0.001292
      2.89246     15.36830      8.34418         0.000599     -0.001449      0.001292
      7.98711     15.36830      8.33586         0.000599     -0.001449      0.001292
      3.75470      2.32287      3.51081         0.000599      0.001449      0.001292
      8.84935      2.32287      3.50248         0.000599      0.001449      0.001292
      3.75470     11.16846      3.51081         0.000599      0.001449      0.001292
      8.84935     11.16846      3.50248         0.000599      0.001449      0.001292
     -0.38454      6.52272      6.14762        -0.000599     -0.001449     -0.001292
      4.71011      6.52272      6.13930        -0.000599     -0.001449     -0.001292
     -0.38454     15.36830      6.14762        -0.000599     -0.001449     -0.001292
      4.71011     15.36830      6.13930        -0.000599     -0.001449     -0.001292
      3.02503      6.74567      1.31008        -0.000599      0.001449     -0.001292
      8.11967      6.74567      1.30176        -0.000599      0.001449     -0.001292
      3.02503     15.59126      1.31008        -0.000599      0.001449     -0.001292
      8.11967     15.59126      1.30176        -0.000599      0.001449     -0.001292
      0.34514      2.09992      8.34834         0.000599     -0.001449      0.001292
      5.43979      2.09992      8.34002         0.000599     -0.001449      0.001292
      0.34514     10.94551      8.34834         0.000599     -0.001449      0.001292
      5.43979     10.94551      8.34002         0.000599     -0.001449      0.001292
      1.20738      6.74567      3.51497         0.000599      0.001449      0.001292
      6.30203      6.74567      3.50664         0.000599      0.001449      0.001292
      1.20738     15.59126      3.51497         0.000599      0.001449      0.001292
      6.30203     15.59126      3.50664         0.000599      0.001449      0.001292
      2.16279      2.09992      6.14346        -0.000599     -0.001449     -0.001292
      7.25743      2.09992      6.13514        -0.000599     -0.001449     -0.001292
      2.16279     10.94551      6.14346        -0.000599     -0.001449     -0.001292
      7.25743     10.94551      6.13514        -0.000599     -0.001449     -0.001292
      0.30581      5.16549      1.31632        -0.002116      0.001699     -0.002286
      5.40046      5.16549      1.30800        -0.002116      0.001699     -0.002286
      0.30581     14.01108      1.31632        -0.002116      0.001699     -0.002286
      5.40046     14.01108      1.30800        -0.002116      0.001699     -0.002286
      3.06436      3.68009      8.34210         0.002116     -0.001699      0.002286
      8.15900      3.68009      8.33378         0.002116     -0.001699      0.002286
      3.06436     12.52568      8.34210         0.002116     -0.001699      0.002286
      8.15900     12.52568      8.33378         0.002116     -0.001699      0.002286
      3.92660      5.16549      3.50873         0.002116      0.001699      0.002286
      9.02124      5.16549      3.50041         0.002116      0.001699      0.002286
      3.92660     14.01108      3.50873         0.002116      0.001699      0.002286
      9.02124     14.01108      3.50041         0.002116      0.001699      0.002286
     -0.55643      3.68009      6.14969        -0.002116     -0.001699     -0.002286
      4.53822      3.68009      6.14137        -0.002116     -0.001699     -0.002286
     -0.55643     12.52568      6.14969        -0.002116     -0.001699     -0.002286
      4.53822     12.52568      6.14137        -0.002116     -0.001699     -0.002286
      2.85314      0.74270      1.31216        -0.002116      0.001699     -0.002286
      7.94778      0.74270      1.30384        -0.002116      0.001699     -0.002286
      2.85314      9.58829      1.31216        -0.002116      0.001699     -0.002286
      7.94778      9.58829      1.30384        -0.002116      0.001699     -0.002286
      0.51703      8.10289      8.34626         0.002116     -0.001699      0.002286
      5.61168      8.10289      8.33794         0.002116     -0.001699      0.002286
      0.51703     16.94848      8.34626         0.002116     -0.001699      0.002286
      5.61168     16.94848      8.33794         0.002116     -0.001699      0.002286
      1.37927      0.74270      3.51289         0.002116      0.001699      0.002286
      6.47392      0.74270      3.50457         0.002116      0.001699      0.002286
      1.37927      9.58829      3.51289         0.002116      0.001699      0.002286
      6.47392      9.58829      3.50457         0.002116      0.001699      0.002286
      1.99090      8.10289      6.14553        -0.002116     -0.001699     -0.002286
      7.08554      8.10289      6.13721        -0.002116     -0.001699     -0.002286
      1.99090     16.94848      6.14553        -0.002116     -0.001699     -0.002286
      7.08554     16.94848      6.13721        -0.002116     -0.001699     -0.002286
      0.47531      8.01335      1.29163        -0.000983      0.000911     -0.000269
      5.56995      8.01335      1.28331        -0.000983      0.000911     -0.000269
      0.47531     16.85894      1.29163        -0.000983      0.000911     -0.000269
      5.56995     16.85894      1.28331        -0.000983      0.000911     -0.000269
      2.89486      0.83224      8.36679         0.000983     -0.000911      0.000269
      7.98951      0.83224      8.35847         0.000983     -0.000911      0.000269
      2.89486      9.67783      8.36679         0.000983     -0.000911      0.000269
      7.98951      9.67783      8.35847         0.000983     -0.000911      0.000269
      3.75710      8.01335      3.53342         0.000983      0.000911      0.000269
      8.85175      8.01335      3.52510         0.000983      0.000911      0.000269
      3.75710     16.85894      3.53342         0.000983      0.000911      0.000269
      8.85175     16.85894      3.52510         0.000983      0.000911      0.000269
     -0.38693      0.83224      6.12500        -0.000983     -0.000911     -0.000269
      4.70771      0.83224      6.11668        -0.000983     -0.000911     -0.000269
     -0.38693      9.67783      6.12500        -0.000983     -0.000911     -0.000269
      4.70771      9.67783      6.11668        -0.000983     -0.000911     -0.000269
      3.02263      3.59056      1.28747        -0.000983      0.000911     -0.000269
      8.11728      3.59056      1.27915        -0.000983      0.000911     -0.000269
      3.02263     12.43615      1.28747        -0.000983      0.000911     -0.000269
      8.11728     12.43615      1.27915        -0.000983      0.000911     -0.000269
      0.34754      5.25503      8.37095         0.000983     -0.000911      0.000269
      5.44219      5.25503      8.36263         0.000983     -0.000911      0.000269
      0.34754     14.10062      8.37095         0.000983     -0.000911      0.000269
      5.44219     14.10062      8.36263         0.000983     -0.000911      0.000269
      1.20978      3.59056      3.53758         0.000983      0.000911      0.000269
      6.30443      3.59056      3.52926         0.000983      0.000911      0.000269
      1.20978     12.43615      3.53758         0.000983      0.000911      0.000269
      6.30443     12.43615      3.52926         0.000983      0.000911      0.000269
      2.16039      5.25503      6.12084        -0.000983     -0.000911     -0.000269
      7.25504      5.25503      6.11252        -0.000983     -0.000911     -0.000269
      2.16039     14.10062      6.12084        -0.000983     -0.000911     -0.000269
      7.25504     14.10062      6.11252        -0.000983     -0.000911     -0.000269
 -----------------------------------------------------------------------------------
    total drift:                                0.000494     -0.000079      0.001217


--------------------------------------------------------------------------------------------------------



  FREE ENERGIE OF THE ION-ELECTRON SYSTEM (eV)
  ---------------------------------------------------
  free  energy   TOTEN  =     -1347.67746213 eV

  energy  without entropy=    -1347.67746213  energy(sigma->0) =    -1347.67746213
 


--------------------------------------------------------------------------------------------------------


    POTLOK:  cpu time    1.69: real time    1.76


--------------------------------------------------------------------------------------------------------




--------------------------------------------------------------------------------------------------------


  
 reached required accuracy - stopping structural energy minimisation
     LOOP+:  cpu time 3579.31: real time 3590.83
    4ORBIT:  cpu time    0.00: real time    0.03
 


 total charge     
 
# of ion     s       p       d       tot
----------------------------------------
  1        0.081   0.175   0.000   0.256
  2        0.081   0.175   0.000   0.256
  3        0.081   0.175   0.000   0.256
  4        0.081   0.175   0.000   0.256
  5        0.081   0.175   0.000   0.256
  6        0.081   0.175   0.000   0.256
  7        0.081   0.175   0.000   0.256
  8        0.081   0.175   0.000   0.256
  9        0.081   0.175   0.000   0.256
 10        0.081   0.175   0.000   0.256
 11        0.081   0.175   0.000   0.256
 12        0.081   0.175   0.000   0.256
 13        0.081   0.175   0.000   0.256
 14        0.081   0.175   0.000   0.256
 15        0.081   0.175   0.000   0.256
 16        0.081   0.175   0.000   0.256
 17        0.081   0.175   0.000   0.256
 18        0.081   0.175   0.000   0.256
 19        0.081   0.175   0.000   0.256
 20        0.081   0.175   0.000   0.256
 21        0.081   0.175   0.000   0.256
 22        0.081   0.175   0.000   0.256
 23        0.081   0.175   0.000   0.256
 24        0.081   0.175   0.000   0.256
 25        0.081   0.175   0.000   0.256
 26        0.081   0.175   0.000   0.256
 27        0.081   0.175   0.000   0.256
 28        0.081   0.175   0.000   0.256
 29        0.081   0.175   0.000   0.256
 30        0.081   0.175   0.000   0.256
 31        0.081   0.175   0.000   0.256
 32        0.081   0.175   0.000   0.256
 33        0.083   0.178   0.000   0.261
 34        0.083   0.178   0.000   0.261
 35        0.083   0.178   0.000   0.261
 36        0.083   0.178   0.000   0.261
 37        0.083   0.178   0.000   0.261
 38        0.083   0.178   0.000   0.261
 39        0.083   0.178   0.000   0.261
 40        0.083   0.178   0.000   0.261
 41        0.083   0.178   0.000   0.261
 42        0.083   0.178   0.000   0.261
 43        0.083   0.178   0.000   0.261
 44        0.083   0.178   0.000   0.261
 45        0.083   0.178   0.000   0.261
 46        0.083   0.178   0.000   0.261
 47        0.083   0.178   0.000   0.261
 48        0.083   0.178   0.000   0.261
 49        0.088   0.197   0.000   0.285
 50        0.088   0.197   0.000   0.285
 51        0.088   0.197   0.000   0.285
 52        0.088   0.197   0.000   0.285
 53        0.088   0.197   0.000   0.285
 54        0.088   0.197   0.000   0.285
 55        0.088   0.197   0.000   0.285
 56        0.088   0.197   0.000   0.285
 57        0.088   0.197   0.000   0.285
 58        0.088   0.197   0.000   0.285
 59        0.088   0.197   0.000   0.285
 60        0.088   0.197   0.000   0.285
 61        0.088   0.197   0.000   0.285
 62        0.088   0.197   0.000   0.285
 63        0.088   0.197   0.000   0.285
 64        0.088   0.197   0.000   0.285
 65        0.559   1.087   2.641   4.287
 66        0.559   1.087   2.641   4.287
 67        0.559   1.087   2.641   4.287
 68        0.559   1.087   2.641   4.287
 69        0.559   1.087   2.641   4.287
 70        0.559   1.087   2.641   4.287
 71        0.559   1.087   2.641   4.287
 72        0.559   1.087   2.641   4.287
 73        0.559   1.087   2.641   4.287
 74        0.559   1.087   2.641   4.287
 75        0.559   1.087   2.641   4.287
 76        0.559   1.087   2.641   4.287
 77        0.559   1.087   2.641   4.287
 78        0.559   1.087   2.641   4.287
 79        0.559   1.087   2.641   4.287
 80        0.559   1.087   2.641   4.287
 81        0.559   1.086   2.641   4.286
 82        0.559   1.086   2.641   4.286
 83        0.559   1.086   2.641   4.286
 84        0.559   1.086   2.641   4.286
 85        0.559   1.086   2.641   4.286
 86        0.559   1.086   2.641   4.286
 87        0.559   1.086   2.641   4.286
 88        0.559   1.086   2.641   4.286
 89        0.559   1.086   2.641   4.286
 90        0.559   1.086   2.641   4.286
 91        0.559   1.086   2.641   4.286
 92        0.559   1.086   2.641   4.286
 93        0.559   1.086   2.641   4.286
 94        0.559   1.086   2.641   4.286
 95        0.559   1.086   2.641   4.286
 96        0.559   1.086   2.641   4.286
 97        1.590   3.486   0.000   5.076
 98        1.590   3.486   0.000   5.076
 99        1.590   3.486   0.000   5.076
100        1.590   3.486   0.000   5.076
101        1.590   3.486   0.000   5.076
102        1.590   3.486   0.000   5.076
103        1.590   3.486   0.000   5.076
104        1.590   3.486   0.000   5.076
105        1.590   3.486   0.000   5.076
106        1.590   3.486   0.000   5.076
107        1.590   3.486   0.000   5.076
108        1.590   3.486   0.000   5.076
109        1.590   3.486   0.000   5.076
110        1.590   3.486   0.000   5.076
111        1.590   3.486   0.000   5.076
112        1.590   3.486   0.000   5.076
113        1.590   3.486   0.000   5.076
114        1.590   3.486   0.000   5.076
115        1.590   3.486   0.000   5.076
116        1.590   3.486   0.000   5.076
117        1.590   3.486   0.000   5.076
118        1.590   3.486   0.000   5.076
119        1.590   3.486   0.000   5.076
120        1.590   3.486   0.000   5.076
121        1.590   3.486   0.000   5.076
122        1.590   3.486   0.000   5.076
123        1.590   3.486   0.000   5.076
124        1.590   3.486   0.000   5.076
125        1.590   3.486   0.000   5.076
126        1.590   3.486   0.000   5.076
127        1.590   3.486   0.000   5.076
128        1.590   3.486   0.000   5.076
129        1.590   3.486   0.000   5.076
130        1.590   3.486   0.000   5.076
131        1.590   3.486   0.000   5.076
132        1.590   3.486   0.000   5.076
133        1.590   3.486   0.000   5.076
134        1.590   3.486   0.000   5.076
135        1.590   3.486   0.000   5.076
136        1.590   3.486   0.000   5.076
137        1.590   3.486   0.000   5.076
138        1.590   3.486   0.000   5.076
139        1.590   3.486   0.000   5.076
140        1.590   3.486   0.000   5.076
141        1.590   3.486   0.000   5.076
142        1.590   3.486   0.000   5.076
143        1.590   3.486   0.000   5.076
144        1.590   3.486   0.000   5.076
145        1.590   3.486   0.000   5.076
146        1.590   3.486   0.000   5.076
147        1.590   3.486   0.000   5.076
148        1.590   3.486   0.000   5.076
149        1.590   3.486   0.000   5.076
150        1.590   3.486   0.000   5.076
151        1.590   3.486   0.000   5.076
152        1.590   3.486   0.000   5.076
153        1.590   3.486   0.000   5.076
154        1.590   3.486   0.000   5.076
155        1.590   3.486   0.000   5.076
156        1.590   3.486   0.000   5.076
157        1.590   3.486   0.000   5.076
158        1.590   3.486   0.000   5.076
159        1.590   3.486   0.000   5.076
160        1.590   3.486   0.000   5.076
161        1.588   3.490   0.000   5.077
162        1.588   3.490   0.000   5.077
163        1.588   3.490   0.000   5.077
164        1.588   3.490   0.000   5.077
165        1.588   3.490   0.000   5.077
166        1.588   3.490   0.000   5.077
167        1.588   3.490   0.000   5.077
168        1.588   3.490   0.000   5.077
169        1.588   3.490   0.000   5.077
170        1.588   3.490   0.000   5.077
171        1.588   3.490   0.000   5.077
172        1.588   3.490   0.000   5.077
173        1.588   3.490   0.000   5.077
174        1.588   3.490   0.000   5.077
175        1.588   3.490   0.000   5.077
176        1.588   3.490   0.000   5.077
177        1.588   3.490   0.000   5.077
178        1.588   3.490   0.000   5.077
179        1.588   3.490   0.000   5.077
180        1.588   3.490   0.000   5.077
181        1.588   3.490   0.000   5.077
182        1.588   3.490   0.000   5.077
183        1.588   3.490   0.000   5.077
184        1.588   3.490   0.000   5.077
185        1.588   3.490   0.000   5.077
186        1.588   3.490   0.000   5.077
187        1.588   3.490   0.000   5.077
188        1.588   3.490   0.000   5.077
189        1.588   3.490   0.000   5.077
190        1.588   3.490   0.000   5.077
191        1.588   3.490   0.000   5.077
192        1.588   3.490   0.000   5.077
------------------------------------------------
tot      175.790 381.127  84.520 641.436
 

 total amount of memory used by VASP on root node   292309. kBytes
========================================================================

   base      :      30000. kBytes
   nonl-proj :     143084. kBytes
   fftplans  :      11585. kBytes
   grid      :      39540. kBytes
   one-center:       2073. kBytes
   wavefun   :      66027. kBytes
 
  
  
 General timing and accounting informations for this job:
 ========================================================
  
                  Total CPU time used (sec):     3632.706
                            User time (sec):     3609.529
                          System time (sec):       23.176
                         Elapsed time (sec):     3645.785
  
                   Maximum memory used (kb):      480148.
                   Average memory used (kb):           0.
  
                          Minor page faults:        28467
                          Major page faults:          233
                 Voluntary context switches:         2641
