    2    2   20    1
  0.9582957E+01  0.3003873E-09  0.3003873E-09  0.3003873E-09  0.5000000E-15
  1.000000000000000E-004
  CAR 
 unknown system                          
      8     29      8
 
  0.0000000E+00  0.0000000E+00  0.0000000E+00  0.1953125E-02
    1      -14.136419   1.000000
    2        2.997838   1.000000
    3        2.997838   1.000000
    4        2.997845   1.000000
    5        7.478967   0.000000
    6       18.652509   0.000000
    7       18.652509   0.000000
    8       18.652509   0.000000
 
  0.1250000E+00  0.0000000E+00  0.0000000E+00  0.1562500E-01
    1      -13.980456   1.000000
    2        2.052598   1.000000
    3        2.899332   1.000000
    4        2.899337   1.000000
    5        8.396498   0.000000
    6       16.981306   0.000000
    7       18.995823   0.000000
    8       18.995826   0.000000
 
  0.2500000E+00  0.0000000E+00  0.0000000E+00  0.1562500E-01
    1      -13.575873   1.000000
    2        0.386807   1.000000
    3        2.672104   1.000000
    4        2.672108   1.000000
    5        9.853637   0.000000
    6       15.409222   0.000000
    7       19.438122   0.000000
    8       19.438129   0.000000
 
  0.3750000E+00  0.0000000E+00  0.0000000E+00  0.1562500E-01
    1      -13.122134   1.000000
    2       -0.977379   1.000000
    3        2.458056   1.000000
    4        2.458059   1.000000
    5       10.613619   0.000000
    6       15.130579   0.000000
    7       19.223341   0.000000
    8       19.223348   0.000000
 
  0.5000000E+00  0.0000000E+00  0.0000000E+00  0.7812500E-02
    1      -12.915307   1.000000
    2       -1.507535   1.000000
    3        2.372820   1.000000
    4        2.372822   1.000000
    5       10.733277   0.000000
    6       15.314703   0.000000
    7       19.045687   0.000000
    8       19.045693   0.000000
 
  0.1250000E+00  0.1250000E+00  0.0000000E+00  0.1171875E-01
    1      -13.930569   1.000000
    2        1.973511   1.000000
    3        2.772856   1.000000
    4        2.772860   1.000000
    5        8.691549   0.000000
    6       16.504937   0.000000
    7       19.130617   0.000000
    8       19.130621   0.000000
 
  0.2500000E+00  0.1250000E+00  0.0000000E+00  0.4687500E-01
    1      -13.614282   1.000000
    2        0.771122   1.000000
    3        2.529451   1.000000
    4        2.533195   1.000000
    5        9.985062   0.000000
    6       15.162713   0.000000
    7       19.116784   0.000000
    8       19.599468   0.000000
 
  0.3750000E+00  0.1250000E+00  0.0000000E+00  0.4687500E-01
    1      -13.179098   1.000000
    2       -0.516996   1.000000
    3        2.175030   1.000000
    4        2.326989   1.000000
    5       11.079410   0.000000
    6       14.742634   0.000000
    7       18.121920   0.000000
    8       19.633941   0.000000
 
  0.5000000E+00  0.1250000E+00  0.0000000E+00  0.4687500E-01
    1      -12.883673   1.000000
    2       -1.246974   1.000000
    3        1.888814   1.000000
    4        2.263053   1.000000
    5       11.404370   0.000000
    6       15.123769   0.000000
    7       17.610958   0.000000
    8       19.426145   0.000000
 
 -0.3750000E+00  0.1250000E+00  0.0000000E+00  0.4687500E-01
    1      -12.949285   1.000000
    2       -1.081522   1.000000
    3        1.825137   1.000000
    4        2.372572   1.000000
    5       11.385467   0.000000
    6       15.065484   0.000000
    7       17.704592   0.000000
    8       19.496033   0.000000
 
 -0.2500000E+00  0.1250000E+00  0.0000000E+00  0.4687500E-01
    1      -13.323173   1.000000
    2       -0.116056   1.000000
    3        2.039359   1.000000
    4        2.602120   1.000000
    5       10.813455   0.000000
    6       14.919018   0.000000
    7       18.321172   0.000000
    8       19.990042   0.000000
 
 -0.1250000E+00  0.1250000E+00  0.0000000E+00  0.2343750E-01
    1      -13.743014   1.000000
    2        1.153815   1.000000
    3        2.489697   1.000000
    4        2.825200   1.000000
    5        9.472955   0.000000
    6       15.773269   0.000000
    7       18.949792   0.000000
    8       19.681542   0.000000
 
  0.2500000E+00  0.2500000E+00  0.0000000E+00  0.1171875E-01
    1      -13.420153   1.000000
    2        0.415514   1.000000
    3        2.282115   1.000000
    4        2.282117   1.000000
    5       10.807965   0.000000
    6       14.096255   0.000000
    7       18.199434   0.000000
    8       20.189418   0.000000
 
  0.3750000E+00  0.2500000E+00  0.0000000E+00  0.4687500E-01
    1      -13.085831   1.000000
    2       -0.301608   1.000000
    3        1.839167   1.000000
    4        2.071839   1.000000
    5       11.914776   0.000000
    6       13.568285   0.000000
    7       16.864894   0.000000
    8       20.493333   0.000000
 
  0.5000000E+00  0.2500000E+00  0.0000000E+00  0.4687500E-01
    1      -12.800425   1.000000
    2       -0.725024   1.000000
    3        1.137689   1.000000
    4        2.011837   1.000000
    5       12.516846   0.000000
    6       14.350469   0.000000
    7       16.030354   0.000000
    8       20.325701   0.000000
 
 -0.3750000E+00  0.2500000E+00  0.0000000E+00  0.4687500E-01
    1      -12.755404   1.000000
    2       -0.660843   1.000000
    3        0.686129   1.000000
    4        2.131151   1.000000
    5       12.756753   0.000000
    6       14.928241   0.000000
    7       15.827845   0.000000
    8       20.141309   0.000000
 
 -0.2500000E+00  0.2500000E+00  0.0000000E+00  0.2343750E-01
    1      -12.982496   1.000000
    2       -0.421120   1.000000
    3        1.058195   1.000000
    4        2.372324   1.000000
    5       12.242197   0.000000
    6       14.627221   0.000000
    7       16.720738   0.000000
    8       20.203160   0.000000
 
  0.3750000E+00  0.3750000E+00  0.0000000E+00  0.1171875E-01
    1      -12.890451   1.000000
    2       -0.634973   1.000000
    3        1.850111   1.000000
    4        1.850113   1.000000
    5       12.406679   0.000000
    6       12.592288   0.000000
    7       16.125413   0.000000
    8       21.175427   0.000000
 
  0.5000000E+00  0.3750000E+00  0.0000000E+00  0.4687500E-01
    1      -12.707630   1.000000
    2       -0.782685   1.000000
    3        1.321420   1.000000
    4        1.777666   1.000000
    5       12.514467   0.000000
    6       13.184440   0.000000
    7       15.710865   0.000000
    8       21.201054   0.000000
 
 -0.3750000E+00  0.3750000E+00  0.0000000E+00  0.2343750E-01
    1      -12.652146   1.000000
    2       -0.403496   1.000000
    3        0.358917   1.000000
    4        1.888940   1.000000
    5       12.959805   0.000000
    6       14.479514   0.000000
    7       15.296291   0.000000
    8       20.767817   0.000000
 
  0.5000000E+00  0.5000000E+00  0.0000000E+00  0.5859375E-02
    1      -12.666637   1.000000
    2       -0.981663   1.000000
    3        1.685042   1.000000
    4        1.685043   1.000000
    5       12.086229   0.000000
    6       12.690740   0.000000
    7       15.826859   0.000000
    8       21.582839   0.000000
 
  0.3750000E+00  0.2500000E+00  0.1250000E+00  0.4687500E-01
    1      -13.286457   1.000000
    2        0.041981   1.000000
    3        1.880852   1.000000
    4        2.405860   1.000000
    5       11.236039   0.000000
    6       14.377993   0.000000
    7       17.791574   0.000000
    8       20.244707   0.000000
 
  0.5000000E+00  0.2500000E+00  0.1250000E+00  0.9375000E-01
    1      -12.929331   1.000000
    2       -0.622483   1.000000
    3        1.321998   1.000000
    4        2.161449   1.000000
    5       12.275363   0.000000
    6       14.472531   0.000000
    7       16.636613   0.000000
    8       19.830387   0.000000
 
 -0.3750000E+00  0.2500000E+00  0.1250000E+00  0.4687500E-01
    1      -12.771138   1.000000
    2       -0.903172   1.000000
    3        1.120076   1.000000
    4        2.045172   1.000000
    5       12.489152   0.000000
    6       14.948284   0.000000
    7       16.219521   0.000000
    8       19.583755   0.000000
 
  0.5000000E+00  0.3750000E+00  0.1250000E+00  0.4687500E-01
    1      -12.829344   1.000000
    2       -0.565531   1.000000
    3        1.352354   1.000000
    4        1.789757   1.000000
    5       13.001599   0.000000
    6       13.306626   0.000000
    7       15.911620   0.000000
    8       20.131791   0.000000
 
 -0.3750000E+00  0.3750000E+00  0.1250000E+00  0.9375000E-01
    1      -12.671091   1.000000
    2       -0.418699   1.000000
    3        0.580222   1.000000
    4        1.660914   1.000000
    5       13.435742   0.000000
    6       14.467550   0.000000
    7       15.259445   0.000000
    8       19.265348   0.000000
 
 -0.2500000E+00  0.3750000E+00  0.1250000E+00  0.4687500E-01
    1      -12.714958   1.000000
    2       -0.301659   1.000000
    3        0.376060   1.000000
    4        1.851249   1.000000
    5       13.539567   0.000000
    6       14.550513   0.000000
    7       15.416705   0.000000
    8       19.325069   0.000000
 
 -0.3750000E+00  0.5000000E+00  0.1250000E+00  0.2343750E-01
    1      -12.641983   1.000000
    2       -0.687710   1.000000
    3        1.151830   1.000000
    4        1.474280   1.000000
    5       12.923334   0.000000
    6       13.563007   0.000000
    7       15.507580   0.000000
    8       19.963614   0.000000
 
 -0.2500000E+00  0.5000000E+00  0.2500000E+00  0.1171875E-01
    1      -12.617698   1.000000
    2        0.123053   1.000000
    3        0.123056   1.000000
    4        1.274724   1.000000
    5       14.472210   0.000000
    6       14.472222   0.000000
    7       14.854915   0.000000
    8       18.171527   0.000000
