unknown system                          
           1
     0.000000    2.124059    2.124059
     2.124059    0.000000    2.124059
     2.124059    2.124059    0.000000
   Mg   O 
   1   1
Direct configuration=     1
   0.00000000  0.00000000  0.00000000
   0.50000000  0.50000000  0.50000000
