   2   2   1   0
  0.5151000E+03  0.1000000E-08  0.1010000E-08  0.1020000E-08  0.5000000E-15
  1.000000000000000E-004
  CAR 
 unknown system                          
      7.04987850    -30.91222857  301     -8.38013627      1.00000000
    -30.912  0.0000E+00  0.0000E+00
    -30.786  0.0000E+00  0.0000E+00
    -30.659  0.0000E+00  0.0000E+00
    -30.533  0.0000E+00  0.0000E+00
    -30.406  0.0000E+00  0.0000E+00
    -30.280  0.0000E+00  0.0000E+00
    -30.153  0.0000E+00  0.0000E+00
    -30.026  0.0000E+00  0.0000E+00
    -29.900  0.0000E+00  0.0000E+00
    -29.773  0.1755E-16  0.2220E-17
    -29.647  0.1208E-10  0.1529E-11
    -29.520  0.3766E-06  0.4766E-07
    -29.394  0.5382E-03  0.6815E-04
    -29.267  0.3973E-01  0.5096E-02
    -29.141  0.1944E+00  0.2970E-01
    -29.014  0.7911E-01  0.3971E-01
    -28.888  0.2316E-02  0.4000E-01
    -28.761  0.3696E-05  0.4000E-01
    -28.635  0.2767E-09  0.4000E-01
    -28.508  0.9125E-15  0.4000E-01
    -28.381  0.0000E+00  0.4000E-01
    -28.255  0.0000E+00  0.4000E-01
    -28.128  0.0000E+00  0.4000E-01
    -28.002  0.0000E+00  0.4000E-01
    -27.875  0.0000E+00  0.4000E-01
    -27.749  0.0000E+00  0.4000E-01
    -27.622  0.0000E+00  0.4000E-01
    -27.496  0.0000E+00  0.4000E-01
    -27.369  0.0000E+00  0.4000E-01
    -27.243  0.0000E+00  0.4000E-01
    -27.116  0.0000E+00  0.4000E-01
    -26.989  0.0000E+00  0.4000E-01
    -26.863  0.0000E+00  0.4000E-01
    -26.736  0.0000E+00  0.4000E-01
    -26.610  0.0000E+00  0.4000E-01
    -26.483  0.0000E+00  0.4000E-01
    -26.357  0.0000E+00  0.4000E-01
    -26.230  0.0000E+00  0.4000E-01
    -26.104  0.0000E+00  0.4000E-01
    -25.977  0.0000E+00  0.4000E-01
    -25.851  0.0000E+00  0.4000E-01
    -25.724  0.0000E+00  0.4000E-01
    -25.598  0.0000E+00  0.4000E-01
    -25.471  0.0000E+00  0.4000E-01
    -25.344  0.0000E+00  0.4000E-01
    -25.218  0.0000E+00  0.4000E-01
    -25.091  0.0000E+00  0.4000E-01
    -24.965  0.0000E+00  0.4000E-01
    -24.838  0.0000E+00  0.4000E-01
    -24.712  0.0000E+00  0.4000E-01
    -24.585  0.0000E+00  0.4000E-01
    -24.459  0.0000E+00  0.4000E-01
    -24.332  0.0000E+00  0.4000E-01
    -24.206  0.0000E+00  0.4000E-01
    -24.079  0.0000E+00  0.4000E-01
    -23.953  0.0000E+00  0.4000E-01
    -23.826  0.0000E+00  0.4000E-01
    -23.699  0.0000E+00  0.4000E-01
    -23.573  0.0000E+00  0.4000E-01
    -23.446  0.0000E+00  0.4000E-01
    -23.320  0.0000E+00  0.4000E-01
    -23.193  0.0000E+00  0.4000E-01
    -23.067  0.0000E+00  0.4000E-01
    -22.940  0.0000E+00  0.4000E-01
    -22.814  0.0000E+00  0.4000E-01
    -22.687  0.0000E+00  0.4000E-01
    -22.561  0.0000E+00  0.4000E-01
    -22.434  0.0000E+00  0.4000E-01
    -22.307  0.0000E+00  0.4000E-01
    -22.181  0.0000E+00  0.4000E-01
    -22.054  0.0000E+00  0.4000E-01
    -21.928  0.0000E+00  0.4000E-01
    -21.801  0.0000E+00  0.4000E-01
    -21.675  0.0000E+00  0.4000E-01
    -21.548  0.0000E+00  0.4000E-01
    -21.422  0.0000E+00  0.4000E-01
    -21.295  0.0000E+00  0.4000E-01
    -21.169  0.0000E+00  0.4000E-01
    -21.042  0.0000E+00  0.4000E-01
    -20.916  0.0000E+00  0.4000E-01
    -20.789  0.0000E+00  0.4000E-01
    -20.662  0.0000E+00  0.4000E-01
    -20.536  0.0000E+00  0.4000E-01
    -20.409  0.0000E+00  0.4000E-01
    -20.283  0.0000E+00  0.4000E-01
    -20.156  0.0000E+00  0.4000E-01
    -20.030  0.0000E+00  0.4000E-01
    -19.903  0.0000E+00  0.4000E-01
    -19.777  0.0000E+00  0.4000E-01
    -19.650  0.0000E+00  0.4000E-01
    -19.524  0.0000E+00  0.4000E-01
    -19.397  0.0000E+00  0.4000E-01
    -19.271  0.0000E+00  0.4000E-01
    -19.144  0.0000E+00  0.4000E-01
    -19.017  0.0000E+00  0.4000E-01
    -18.891  0.0000E+00  0.4000E-01
    -18.764  0.0000E+00  0.4000E-01
    -18.638  0.0000E+00  0.4000E-01
    -18.511  0.0000E+00  0.4000E-01
    -18.385  0.0000E+00  0.4000E-01
    -18.258  0.0000E+00  0.4000E-01
    -18.132  0.0000E+00  0.4000E-01
    -18.005  0.0000E+00  0.4000E-01
    -17.879  0.0000E+00  0.4000E-01
    -17.752  0.0000E+00  0.4000E-01
    -17.625  0.0000E+00  0.4000E-01
    -17.499  0.0000E+00  0.4000E-01
    -17.372  0.0000E+00  0.4000E-01
    -17.246  0.0000E+00  0.4000E-01
    -17.119  0.0000E+00  0.4000E-01
    -16.993  0.0000E+00  0.4000E-01
    -16.866  0.0000E+00  0.4000E-01
    -16.740  0.0000E+00  0.4000E-01
    -16.613  0.0000E+00  0.4000E-01
    -16.487  0.0000E+00  0.4000E-01
    -16.360  0.0000E+00  0.4000E-01
    -16.234  0.0000E+00  0.4000E-01
    -16.107  0.0000E+00  0.4000E-01
    -15.980  0.0000E+00  0.4000E-01
    -15.854  0.0000E+00  0.4000E-01
    -15.727  0.0000E+00  0.4000E-01
    -15.601  0.0000E+00  0.4000E-01
    -15.474  0.0000E+00  0.4000E-01
    -15.348  0.0000E+00  0.4000E-01
    -15.221  0.0000E+00  0.4000E-01
    -15.095  0.0000E+00  0.4000E-01
    -14.968  0.0000E+00  0.4000E-01
    -14.842  0.0000E+00  0.4000E-01
    -14.715  0.0000E+00  0.4000E-01
    -14.589  0.0000E+00  0.4000E-01
    -14.462  0.1160E-13  0.4000E-01
    -14.335  0.1983E-08  0.4000E-01
    -14.209  0.1504E-04  0.4000E-01
    -14.082  0.5454E-02  0.4069E-01
    -13.956  0.1125E+00  0.5493E-01
    -13.829  0.1756E+00  0.7715E-01
    -13.703  0.2236E-01  0.7998E-01
    -13.576  0.1787E-03  0.8000E-01
    -13.450  0.7161E-07  0.8000E-01
    -13.323  0.1298E-11  0.8000E-01
    -13.197  0.0000E+00  0.8000E-01
    -13.070  0.0000E+00  0.8000E-01
    -12.943  0.0000E+00  0.8000E-01
    -12.817  0.0000E+00  0.8000E-01
    -12.690  0.0000E+00  0.8000E-01
    -12.564  0.0000E+00  0.8000E-01
    -12.437  0.0000E+00  0.8000E-01
    -12.311  0.0000E+00  0.8000E-01
    -12.184  0.1493E-12  0.8000E-01
    -12.058  0.1651E-07  0.8000E-01
    -11.931  0.8160E-04  0.8001E-01
    -11.805  0.1960E-01  0.8249E-01
    -11.678  0.2775E+00  0.1176E+00
    -11.552  0.3077E+00  0.1565E+00
    -11.425  0.2717E-01  0.1600E+00
    -11.298  0.1448E-03  0.1600E+00
    -11.172  0.3790E-07  0.1600E+00
    -11.045  0.4454E-12  0.1600E+00
    -10.919  0.0000E+00  0.1600E+00
    -10.792  0.0000E+00  0.1600E+00
    -10.666  0.0000E+00  0.1600E+00
    -10.539  0.0000E+00  0.1600E+00
    -10.413  0.0000E+00  0.1600E+00
    -10.286  0.0000E+00  0.1600E+00
    -10.160  0.0000E+00  0.1600E+00
    -10.033  0.0000E+00  0.1600E+00
     -9.907  0.0000E+00  0.1600E+00
     -9.780  0.0000E+00  0.1600E+00
     -9.653  0.0000E+00  0.1600E+00
     -9.527  0.0000E+00  0.1600E+00
     -9.400  0.1504E-13  0.1600E+00
     -9.274  0.2422E-08  0.1600E+00
     -9.147  0.1731E-04  0.1600E+00
     -9.021  0.5931E-02  0.1608E+00
     -8.894  0.1161E+00  0.1754E+00
     -8.768  0.1729E+00  0.1973E+00
     -8.641  0.2095E-01  0.2000E+00
     -8.515  0.1584E-03  0.2000E+00
     -8.388  0.5985E-07  0.2000E+00
     -8.262  0.1022E-11  0.2000E+00
     -8.135  0.0000E+00  0.2000E+00
     -8.008  0.0000E+00  0.2000E+00
     -7.882  0.0000E+00  0.2000E+00
     -7.755  0.0000E+00  0.2000E+00
     -7.629  0.0000E+00  0.2000E+00
     -7.502  0.0000E+00  0.2000E+00
     -7.376  0.0000E+00  0.2000E+00
     -7.249  0.0000E+00  0.2000E+00
     -7.123  0.0000E+00  0.2000E+00
     -6.996  0.0000E+00  0.2000E+00
     -6.870  0.0000E+00  0.2000E+00
     -6.743  0.0000E+00  0.2000E+00
     -6.616  0.0000E+00  0.2000E+00
     -6.490  0.0000E+00  0.2000E+00
     -6.363  0.0000E+00  0.2000E+00
     -6.237  0.0000E+00  0.2000E+00
     -6.110  0.0000E+00  0.2000E+00
     -5.984  0.0000E+00  0.2000E+00
     -5.857  0.0000E+00  0.2000E+00
     -5.731  0.0000E+00  0.2000E+00
     -5.604  0.0000E+00  0.2000E+00
     -5.478  0.0000E+00  0.2000E+00
     -5.351  0.0000E+00  0.2000E+00
     -5.225  0.0000E+00  0.2000E+00
     -5.098  0.0000E+00  0.2000E+00
     -4.971  0.0000E+00  0.2000E+00
     -4.845  0.0000E+00  0.2000E+00
     -4.718  0.0000E+00  0.2000E+00
     -4.592  0.0000E+00  0.2000E+00
     -4.465  0.0000E+00  0.2000E+00
     -4.339  0.0000E+00  0.2000E+00
     -4.212  0.0000E+00  0.2000E+00
     -4.086  0.0000E+00  0.2000E+00
     -3.959  0.0000E+00  0.2000E+00
     -3.833  0.0000E+00  0.2000E+00
     -3.706  0.0000E+00  0.2000E+00
     -3.580  0.0000E+00  0.2000E+00
     -3.453  0.0000E+00  0.2000E+00
     -3.326  0.0000E+00  0.2000E+00
     -3.200  0.0000E+00  0.2000E+00
     -3.073  0.0000E+00  0.2000E+00
     -2.947  0.0000E+00  0.2000E+00
     -2.820  0.0000E+00  0.2000E+00
     -2.694  0.0000E+00  0.2000E+00
     -2.567  0.0000E+00  0.2000E+00
     -2.441  0.2075E-11  0.2000E+00
     -2.314  0.1209E-06  0.2000E+00
     -2.188  0.3186E-03  0.2000E+00
     -2.061  0.4200E-01  0.2054E+00
     -1.934  0.3460E+00  0.2491E+00
     -1.808  0.2320E+00  0.2785E+00
     -1.681  0.1184E-01  0.2800E+00
     -1.555  0.3456E-04  0.2800E+00
     -1.428  0.4837E-08  0.2800E+00
     -1.302  0.3008E-13  0.2800E+00
     -1.175  0.0000E+00  0.2800E+00
     -1.049  0.0000E+00  0.2800E+00
     -0.922  0.0000E+00  0.2800E+00
     -0.796  0.0000E+00  0.2800E+00
     -0.669  0.5421E-11  0.2800E+00
     -0.543  0.2081E-06  0.2800E+00
     -0.416  0.3642E-03  0.2800E+00
     -0.289  0.3256E-01  0.2842E+00
     -0.163  0.1891E+00  0.3081E+00
     -0.036  0.9086E-01  0.3196E+00
      0.090  0.3201E-02  0.3200E+00
      0.217  0.6240E-05  0.3200E+00
      0.343  0.5744E-09  0.3200E+00
      0.470  0.2316E-14  0.3200E+00
      0.596  0.3261E-12  0.3200E+00
      0.723  0.2549E-07  0.3200E+00
      0.849  0.9179E-04  0.3200E+00
      0.976  0.1795E-01  0.3223E+00
      1.102  0.2831E+00  0.3581E+00
      1.229  0.6683E+00  0.4427E+00
      1.356  0.6219E+00  0.5214E+00
      1.482  0.2793E+00  0.5567E+00
      1.609  0.2589E-01  0.5600E+00
      1.735  0.2072E-03  0.5600E+00
      1.862  0.8814E-07  0.5600E+00
      1.988  0.1887E-11  0.5600E+00
      2.115  0.1743E-07  0.5600E+00
      2.241  0.8195E-04  0.5600E+00
      2.368  0.2110E-01  0.5627E+00
      2.494  0.3910E+00  0.6122E+00
      2.621  0.7762E+00  0.7104E+00
      2.748  0.8518E+00  0.8182E+00
      2.874  0.1113E+01  0.9590E+00
      3.001  0.3597E+00  0.1005E+01
      3.127  0.2070E+00  0.1031E+01
      3.254  0.7160E-01  0.1040E+01
      3.380  0.1848E-02  0.1040E+01
      3.507  0.2576E-05  0.1040E+01
      3.633  0.5741E-09  0.1040E+01
      3.760  0.4882E-05  0.1040E+01
      3.886  0.2827E-02  0.1040E+01
      4.013  0.1105E+00  0.1054E+01
      4.139  0.6852E+00  0.1141E+01
      4.266  0.1019E+01  0.1270E+01
      4.393  0.4794E+00  0.1331E+01
      4.519  0.2055E+00  0.1357E+01
      4.646  0.2641E-01  0.1360E+01
      4.772  0.7668E-03  0.1360E+01
      4.899  0.3922E-01  0.1365E+01
      5.025  0.1941E+00  0.1390E+01
      5.152  0.8219E-01  0.1400E+01
      5.278  0.8148E-01  0.1410E+01
      5.405  0.1944E+00  0.1435E+01
      5.531  0.3973E-01  0.1440E+01
      5.658  0.5382E-03  0.1440E+01
      5.784  0.3766E-06  0.1440E+01
      5.911  0.1208E-10  0.1440E+01
      6.038  0.0000E+00  0.1440E+01
      6.164  0.0000E+00  0.1440E+01
      6.291  0.0000E+00  0.1440E+01
      6.417  0.0000E+00  0.1440E+01
      6.544  0.0000E+00  0.1440E+01
      6.670  0.0000E+00  0.1440E+01
      6.797  0.0000E+00  0.1440E+01
      6.923  0.0000E+00  0.1440E+01
      7.050  0.0000E+00  0.1440E+01
      7.04987850    -30.91222857  301     -8.38013627      1.00000000
    -30.912  0.0000E+00  0.0000E+00  0.0000E+00  0.0000E+00  0.0000E+00  0.0000E+00  0.0000E+00  0.0000E+00  0.0000E+00
    -30.786  0.0000E+00  0.0000E+00  0.0000E+00  0.0000E+00  0.0000E+00  0.0000E+00  0.0000E+00  0.0000E+00  0.0000E+00
    -30.659  0.0000E+00  0.0000E+00  0.0000E+00  0.0000E+00  0.0000E+00  0.0000E+00  0.0000E+00  0.0000E+00  0.0000E+00
    -30.533  0.0000E+00  0.0000E+00  0.0000E+00  0.0000E+00  0.0000E+00  0.0000E+00  0.0000E+00  0.0000E+00  0.0000E+00
    -30.406  0.0000E+00  0.0000E+00  0.0000E+00  0.0000E+00  0.0000E+00  0.0000E+00  0.0000E+00  0.0000E+00  0.0000E+00
    -30.280  0.0000E+00  0.0000E+00  0.0000E+00  0.0000E+00  0.0000E+00  0.0000E+00  0.0000E+00  0.0000E+00  0.0000E+00
    -30.153  0.0000E+00  0.0000E+00  0.0000E+00  0.0000E+00  0.0000E+00  0.0000E+00  0.0000E+00  0.0000E+00  0.0000E+00
    -30.026  0.0000E+00  0.0000E+00  0.0000E+00  0.0000E+00  0.0000E+00  0.0000E+00  0.0000E+00  0.0000E+00  0.0000E+00
    -29.900  0.0000E+00  0.0000E+00  0.0000E+00  0.0000E+00  0.0000E+00  0.0000E+00  0.0000E+00  0.0000E+00  0.0000E+00
    -29.773  0.1409E-15  0.2648E-41  0.2512E-42  0.1124E-15  0.0000E+00  0.0000E+00  0.0000E+00  0.0000E+00  0.0000E+00
    -29.647  0.9703E-10  0.1823E-35  0.1730E-36  0.7736E-10  0.0000E+00  0.0000E+00  0.0000E+00  0.0000E+00  0.0000E+00
    -29.520  0.3025E-05  0.5683E-31  0.5392E-32  0.2412E-05  0.0000E+00  0.0000E+00  0.0000E+00  0.0000E+00  0.0000E+00
    -29.394  0.4323E-02  0.8122E-28  0.7706E-29  0.3446E-02  0.0000E+00  0.0000E+00  0.0000E+00  0.0000E+00  0.0000E+00
    -29.267  0.3191E+00  0.5996E-26  0.5688E-27  0.2544E+00  0.0000E+00  0.0000E+00  0.0000E+00  0.0000E+00  0.0000E+00
    -29.141  0.1561E+01  0.2934E-25  0.2783E-26  0.1245E+01  0.0000E+00  0.0000E+00  0.0000E+00  0.0000E+00  0.0000E+00
    -29.014  0.6354E+00  0.1194E-25  0.1133E-26  0.5066E+00  0.0000E+00  0.0000E+00  0.0000E+00  0.0000E+00  0.0000E+00
    -28.888  0.1860E-01  0.3495E-27  0.3316E-28  0.1483E-01  0.0000E+00  0.0000E+00  0.0000E+00  0.0000E+00  0.0000E+00
    -28.761  0.2968E-04  0.5577E-30  0.5291E-31  0.2367E-04  0.0000E+00  0.0000E+00  0.0000E+00  0.0000E+00  0.0000E+00
    -28.635  0.2222E-08  0.4175E-34  0.3962E-35  0.1772E-08  0.0000E+00  0.0000E+00  0.0000E+00  0.0000E+00  0.0000E+00
    -28.508  0.7329E-14  0.1377E-39  0.1306E-40  0.5843E-14  0.0000E+00  0.0000E+00  0.0000E+00  0.0000E+00  0.0000E+00
    -28.381  0.0000E+00  0.0000E+00  0.0000E+00  0.0000E+00  0.0000E+00  0.0000E+00  0.0000E+00  0.0000E+00  0.0000E+00
    -28.255  0.0000E+00  0.0000E+00  0.0000E+00  0.0000E+00  0.0000E+00  0.0000E+00  0.0000E+00  0.0000E+00  0.0000E+00
    -28.128  0.0000E+00  0.0000E+00  0.0000E+00  0.0000E+00  0.0000E+00  0.0000E+00  0.0000E+00  0.0000E+00  0.0000E+00
    -28.002  0.0000E+00  0.0000E+00  0.0000E+00  0.0000E+00  0.0000E+00  0.0000E+00  0.0000E+00  0.0000E+00  0.0000E+00
    -27.875  0.0000E+00  0.0000E+00  0.0000E+00  0.0000E+00  0.0000E+00  0.0000E+00  0.0000E+00  0.0000E+00  0.0000E+00
    -27.749  0.0000E+00  0.0000E+00  0.0000E+00  0.0000E+00  0.0000E+00  0.0000E+00  0.0000E+00  0.0000E+00  0.0000E+00
    -27.622  0.0000E+00  0.0000E+00  0.0000E+00  0.0000E+00  0.0000E+00  0.0000E+00  0.0000E+00  0.0000E+00  0.0000E+00
    -27.496  0.0000E+00  0.0000E+00  0.0000E+00  0.0000E+00  0.0000E+00  0.0000E+00  0.0000E+00  0.0000E+00  0.0000E+00
    -27.369  0.0000E+00  0.0000E+00  0.0000E+00  0.0000E+00  0.0000E+00  0.0000E+00  0.0000E+00  0.0000E+00  0.0000E+00
    -27.243  0.0000E+00  0.0000E+00  0.0000E+00  0.0000E+00  0.0000E+00  0.0000E+00  0.0000E+00  0.0000E+00  0.0000E+00
    -27.116  0.0000E+00  0.0000E+00  0.0000E+00  0.0000E+00  0.0000E+00  0.0000E+00  0.0000E+00  0.0000E+00  0.0000E+00
    -26.989  0.0000E+00  0.0000E+00  0.0000E+00  0.0000E+00  0.0000E+00  0.0000E+00  0.0000E+00  0.0000E+00  0.0000E+00
    -26.863  0.0000E+00  0.0000E+00  0.0000E+00  0.0000E+00  0.0000E+00  0.0000E+00  0.0000E+00  0.0000E+00  0.0000E+00
    -26.736  0.0000E+00  0.0000E+00  0.0000E+00  0.0000E+00  0.0000E+00  0.0000E+00  0.0000E+00  0.0000E+00  0.0000E+00
    -26.610  0.0000E+00  0.0000E+00  0.0000E+00  0.0000E+00  0.0000E+00  0.0000E+00  0.0000E+00  0.0000E+00  0.0000E+00
    -26.483  0.0000E+00  0.0000E+00  0.0000E+00  0.0000E+00  0.0000E+00  0.0000E+00  0.0000E+00  0.0000E+00  0.0000E+00
    -26.357  0.0000E+00  0.0000E+00  0.0000E+00  0.0000E+00  0.0000E+00  0.0000E+00  0.0000E+00  0.0000E+00  0.0000E+00
    -26.230  0.0000E+00  0.0000E+00  0.0000E+00  0.0000E+00  0.0000E+00  0.0000E+00  0.0000E+00  0.0000E+00  0.0000E+00
    -26.104  0.0000E+00  0.0000E+00  0.0000E+00  0.0000E+00  0.0000E+00  0.0000E+00  0.0000E+00  0.0000E+00  0.0000E+00
    -25.977  0.0000E+00  0.0000E+00  0.0000E+00  0.0000E+00  0.0000E+00  0.0000E+00  0.0000E+00  0.0000E+00  0.0000E+00
    -25.851  0.0000E+00  0.0000E+00  0.0000E+00  0.0000E+00  0.0000E+00  0.0000E+00  0.0000E+00  0.0000E+00  0.0000E+00
    -25.724  0.0000E+00  0.0000E+00  0.0000E+00  0.0000E+00  0.0000E+00  0.0000E+00  0.0000E+00  0.0000E+00  0.0000E+00
    -25.598  0.0000E+00  0.0000E+00  0.0000E+00  0.0000E+00  0.0000E+00  0.0000E+00  0.0000E+00  0.0000E+00  0.0000E+00
    -25.471  0.0000E+00  0.0000E+00  0.0000E+00  0.0000E+00  0.0000E+00  0.0000E+00  0.0000E+00  0.0000E+00  0.0000E+00
    -25.344  0.0000E+00  0.0000E+00  0.0000E+00  0.0000E+00  0.0000E+00  0.0000E+00  0.0000E+00  0.0000E+00  0.0000E+00
    -25.218  0.0000E+00  0.0000E+00  0.0000E+00  0.0000E+00  0.0000E+00  0.0000E+00  0.0000E+00  0.0000E+00  0.0000E+00
    -25.091  0.0000E+00  0.0000E+00  0.0000E+00  0.0000E+00  0.0000E+00  0.0000E+00  0.0000E+00  0.0000E+00  0.0000E+00
    -24.965  0.0000E+00  0.0000E+00  0.0000E+00  0.0000E+00  0.0000E+00  0.0000E+00  0.0000E+00  0.0000E+00  0.0000E+00
    -24.838  0.0000E+00  0.0000E+00  0.0000E+00  0.0000E+00  0.0000E+00  0.0000E+00  0.0000E+00  0.0000E+00  0.0000E+00
    -24.712  0.0000E+00  0.0000E+00  0.0000E+00  0.0000E+00  0.0000E+00  0.0000E+00  0.0000E+00  0.0000E+00  0.0000E+00
    -24.585  0.0000E+00  0.0000E+00  0.0000E+00  0.0000E+00  0.0000E+00  0.0000E+00  0.0000E+00  0.0000E+00  0.0000E+00
    -24.459  0.0000E+00  0.0000E+00  0.0000E+00  0.0000E+00  0.0000E+00  0.0000E+00  0.0000E+00  0.0000E+00  0.0000E+00
    -24.332  0.0000E+00  0.0000E+00  0.0000E+00  0.0000E+00  0.0000E+00  0.0000E+00  0.0000E+00  0.0000E+00  0.0000E+00
    -24.206  0.0000E+00  0.0000E+00  0.0000E+00  0.0000E+00  0.0000E+00  0.0000E+00  0.0000E+00  0.0000E+00  0.0000E+00
    -24.079  0.0000E+00  0.0000E+00  0.0000E+00  0.0000E+00  0.0000E+00  0.0000E+00  0.0000E+00  0.0000E+00  0.0000E+00
    -23.953  0.0000E+00  0.0000E+00  0.0000E+00  0.0000E+00  0.0000E+00  0.0000E+00  0.0000E+00  0.0000E+00  0.0000E+00
    -23.826  0.0000E+00  0.0000E+00  0.0000E+00  0.0000E+00  0.0000E+00  0.0000E+00  0.0000E+00  0.0000E+00  0.0000E+00
    -23.699  0.0000E+00  0.0000E+00  0.0000E+00  0.0000E+00  0.0000E+00  0.0000E+00  0.0000E+00  0.0000E+00  0.0000E+00
    -23.573  0.0000E+00  0.0000E+00  0.0000E+00  0.0000E+00  0.0000E+00  0.0000E+00  0.0000E+00  0.0000E+00  0.0000E+00
    -23.446  0.0000E+00  0.0000E+00  0.0000E+00  0.0000E+00  0.0000E+00  0.0000E+00  0.0000E+00  0.0000E+00  0.0000E+00
    -23.320  0.0000E+00  0.0000E+00  0.0000E+00  0.0000E+00  0.0000E+00  0.0000E+00  0.0000E+00  0.0000E+00  0.0000E+00
    -23.193  0.0000E+00  0.0000E+00  0.0000E+00  0.0000E+00  0.0000E+00  0.0000E+00  0.0000E+00  0.0000E+00  0.0000E+00
    -23.067  0.0000E+00  0.0000E+00  0.0000E+00  0.0000E+00  0.0000E+00  0.0000E+00  0.0000E+00  0.0000E+00  0.0000E+00
    -22.940  0.0000E+00  0.0000E+00  0.0000E+00  0.0000E+00  0.0000E+00  0.0000E+00  0.0000E+00  0.0000E+00  0.0000E+00
    -22.814  0.0000E+00  0.0000E+00  0.0000E+00  0.0000E+00  0.0000E+00  0.0000E+00  0.0000E+00  0.0000E+00  0.0000E+00
    -22.687  0.0000E+00  0.0000E+00  0.0000E+00  0.0000E+00  0.0000E+00  0.0000E+00  0.0000E+00  0.0000E+00  0.0000E+00
    -22.561  0.0000E+00  0.0000E+00  0.0000E+00  0.0000E+00  0.0000E+00  0.0000E+00  0.0000E+00  0.0000E+00  0.0000E+00
    -22.434  0.0000E+00  0.0000E+00  0.0000E+00  0.0000E+00  0.0000E+00  0.0000E+00  0.0000E+00  0.0000E+00  0.0000E+00
    -22.307  0.0000E+00  0.0000E+00  0.0000E+00  0.0000E+00  0.0000E+00  0.0000E+00  0.0000E+00  0.0000E+00  0.0000E+00
    -22.181  0.0000E+00  0.0000E+00  0.0000E+00  0.0000E+00  0.0000E+00  0.0000E+00  0.0000E+00  0.0000E+00  0.0000E+00
    -22.054  0.0000E+00  0.0000E+00  0.0000E+00  0.0000E+00  0.0000E+00  0.0000E+00  0.0000E+00  0.0000E+00  0.0000E+00
    -21.928  0.0000E+00  0.0000E+00  0.0000E+00  0.0000E+00  0.0000E+00  0.0000E+00  0.0000E+00  0.0000E+00  0.0000E+00
    -21.801  0.0000E+00  0.0000E+00  0.0000E+00  0.0000E+00  0.0000E+00  0.0000E+00  0.0000E+00  0.0000E+00  0.0000E+00
    -21.675  0.0000E+00  0.0000E+00  0.0000E+00  0.0000E+00  0.0000E+00  0.0000E+00  0.0000E+00  0.0000E+00  0.0000E+00
    -21.548  0.0000E+00  0.0000E+00  0.0000E+00  0.0000E+00  0.0000E+00  0.0000E+00  0.0000E+00  0.0000E+00  0.0000E+00
    -21.422  0.0000E+00  0.0000E+00  0.0000E+00  0.0000E+00  0.0000E+00  0.0000E+00  0.0000E+00  0.0000E+00  0.0000E+00
    -21.295  0.0000E+00  0.0000E+00  0.0000E+00  0.0000E+00  0.0000E+00  0.0000E+00  0.0000E+00  0.0000E+00  0.0000E+00
    -21.169  0.0000E+00  0.0000E+00  0.0000E+00  0.0000E+00  0.0000E+00  0.0000E+00  0.0000E+00  0.0000E+00  0.0000E+00
    -21.042  0.0000E+00  0.0000E+00  0.0000E+00  0.0000E+00  0.0000E+00  0.0000E+00  0.0000E+00  0.0000E+00  0.0000E+00
    -20.916  0.0000E+00  0.0000E+00  0.0000E+00  0.0000E+00  0.0000E+00  0.0000E+00  0.0000E+00  0.0000E+00  0.0000E+00
    -20.789  0.0000E+00  0.0000E+00  0.0000E+00  0.0000E+00  0.0000E+00  0.0000E+00  0.0000E+00  0.0000E+00  0.0000E+00
    -20.662  0.0000E+00  0.0000E+00  0.0000E+00  0.0000E+00  0.0000E+00  0.0000E+00  0.0000E+00  0.0000E+00  0.0000E+00
    -20.536  0.0000E+00  0.0000E+00  0.0000E+00  0.0000E+00  0.0000E+00  0.0000E+00  0.0000E+00  0.0000E+00  0.0000E+00
    -20.409  0.0000E+00  0.0000E+00  0.0000E+00  0.0000E+00  0.0000E+00  0.0000E+00  0.0000E+00  0.0000E+00  0.0000E+00
    -20.283  0.0000E+00  0.0000E+00  0.0000E+00  0.0000E+00  0.0000E+00  0.0000E+00  0.0000E+00  0.0000E+00  0.0000E+00
    -20.156  0.0000E+00  0.0000E+00  0.0000E+00  0.0000E+00  0.0000E+00  0.0000E+00  0.0000E+00  0.0000E+00  0.0000E+00
    -20.030  0.0000E+00  0.0000E+00  0.0000E+00  0.0000E+00  0.0000E+00  0.0000E+00  0.0000E+00  0.0000E+00  0.0000E+00
    -19.903  0.0000E+00  0.0000E+00  0.0000E+00  0.0000E+00  0.0000E+00  0.0000E+00  0.0000E+00  0.0000E+00  0.0000E+00
    -19.777  0.0000E+00  0.0000E+00  0.0000E+00  0.0000E+00  0.0000E+00  0.0000E+00  0.0000E+00  0.0000E+00  0.0000E+00
    -19.650  0.0000E+00  0.0000E+00  0.0000E+00  0.0000E+00  0.0000E+00  0.0000E+00  0.0000E+00  0.0000E+00  0.0000E+00
    -19.524  0.0000E+00  0.0000E+00  0.0000E+00  0.0000E+00  0.0000E+00  0.0000E+00  0.0000E+00  0.0000E+00  0.0000E+00
    -19.397  0.0000E+00  0.0000E+00  0.0000E+00  0.0000E+00  0.0000E+00  0.0000E+00  0.0000E+00  0.0000E+00  0.0000E+00
    -19.271  0.0000E+00  0.0000E+00  0.0000E+00  0.0000E+00  0.0000E+00  0.0000E+00  0.0000E+00  0.0000E+00  0.0000E+00
    -19.144  0.0000E+00  0.0000E+00  0.0000E+00  0.0000E+00  0.0000E+00  0.0000E+00  0.0000E+00  0.0000E+00  0.0000E+00
    -19.017  0.0000E+00  0.0000E+00  0.0000E+00  0.0000E+00  0.0000E+00  0.0000E+00  0.0000E+00  0.0000E+00  0.0000E+00
    -18.891  0.0000E+00  0.0000E+00  0.0000E+00  0.0000E+00  0.0000E+00  0.0000E+00  0.0000E+00  0.0000E+00  0.0000E+00
    -18.764  0.0000E+00  0.0000E+00  0.0000E+00  0.0000E+00  0.0000E+00  0.0000E+00  0.0000E+00  0.0000E+00  0.0000E+00
    -18.638  0.0000E+00  0.0000E+00  0.0000E+00  0.0000E+00  0.0000E+00  0.0000E+00  0.0000E+00  0.0000E+00  0.0000E+00
    -18.511  0.0000E+00  0.0000E+00  0.0000E+00  0.0000E+00  0.0000E+00  0.0000E+00  0.0000E+00  0.0000E+00  0.0000E+00
    -18.385  0.0000E+00  0.0000E+00  0.0000E+00  0.0000E+00  0.0000E+00  0.0000E+00  0.0000E+00  0.0000E+00  0.0000E+00
    -18.258  0.0000E+00  0.0000E+00  0.0000E+00  0.0000E+00  0.0000E+00  0.0000E+00  0.0000E+00  0.0000E+00  0.0000E+00
    -18.132  0.0000E+00  0.0000E+00  0.0000E+00  0.0000E+00  0.0000E+00  0.0000E+00  0.0000E+00  0.0000E+00  0.0000E+00
    -18.005  0.0000E+00  0.0000E+00  0.0000E+00  0.0000E+00  0.0000E+00  0.0000E+00  0.0000E+00  0.0000E+00  0.0000E+00
    -17.879  0.0000E+00  0.0000E+00  0.0000E+00  0.0000E+00  0.0000E+00  0.0000E+00  0.0000E+00  0.0000E+00  0.0000E+00
    -17.752  0.0000E+00  0.0000E+00  0.0000E+00  0.0000E+00  0.0000E+00  0.0000E+00  0.0000E+00  0.0000E+00  0.0000E+00
    -17.625  0.0000E+00  0.0000E+00  0.0000E+00  0.0000E+00  0.0000E+00  0.0000E+00  0.0000E+00  0.0000E+00  0.0000E+00
    -17.499  0.0000E+00  0.0000E+00  0.0000E+00  0.0000E+00  0.0000E+00  0.0000E+00  0.0000E+00  0.0000E+00  0.0000E+00
    -17.372  0.0000E+00  0.0000E+00  0.0000E+00  0.0000E+00  0.0000E+00  0.0000E+00  0.0000E+00  0.0000E+00  0.0000E+00
    -17.246  0.0000E+00  0.0000E+00  0.0000E+00  0.0000E+00  0.0000E+00  0.0000E+00  0.0000E+00  0.0000E+00  0.0000E+00
    -17.119  0.0000E+00  0.0000E+00  0.0000E+00  0.0000E+00  0.0000E+00  0.0000E+00  0.0000E+00  0.0000E+00  0.0000E+00
    -16.993  0.0000E+00  0.0000E+00  0.0000E+00  0.0000E+00  0.0000E+00  0.0000E+00  0.0000E+00  0.0000E+00  0.0000E+00
    -16.866  0.0000E+00  0.0000E+00  0.0000E+00  0.0000E+00  0.0000E+00  0.0000E+00  0.0000E+00  0.0000E+00  0.0000E+00
    -16.740  0.0000E+00  0.0000E+00  0.0000E+00  0.0000E+00  0.0000E+00  0.0000E+00  0.0000E+00  0.0000E+00  0.0000E+00
    -16.613  0.0000E+00  0.0000E+00  0.0000E+00  0.0000E+00  0.0000E+00  0.0000E+00  0.0000E+00  0.0000E+00  0.0000E+00
    -16.487  0.0000E+00  0.0000E+00  0.0000E+00  0.0000E+00  0.0000E+00  0.0000E+00  0.0000E+00  0.0000E+00  0.0000E+00
    -16.360  0.0000E+00  0.0000E+00  0.0000E+00  0.0000E+00  0.0000E+00  0.0000E+00  0.0000E+00  0.0000E+00  0.0000E+00
    -16.234  0.0000E+00  0.0000E+00  0.0000E+00  0.0000E+00  0.0000E+00  0.0000E+00  0.0000E+00  0.0000E+00  0.0000E+00
    -16.107  0.0000E+00  0.0000E+00  0.0000E+00  0.0000E+00  0.0000E+00  0.0000E+00  0.0000E+00  0.0000E+00  0.0000E+00
    -15.980  0.0000E+00  0.0000E+00  0.0000E+00  0.0000E+00  0.0000E+00  0.0000E+00  0.0000E+00  0.0000E+00  0.0000E+00
    -15.854  0.0000E+00  0.0000E+00  0.0000E+00  0.0000E+00  0.0000E+00  0.0000E+00  0.0000E+00  0.0000E+00  0.0000E+00
    -15.727  0.0000E+00  0.0000E+00  0.0000E+00  0.0000E+00  0.0000E+00  0.0000E+00  0.0000E+00  0.0000E+00  0.0000E+00
    -15.601  0.0000E+00  0.0000E+00  0.0000E+00  0.0000E+00  0.0000E+00  0.0000E+00  0.0000E+00  0.0000E+00  0.0000E+00
    -15.474  0.0000E+00  0.0000E+00  0.0000E+00  0.0000E+00  0.0000E+00  0.0000E+00  0.0000E+00  0.0000E+00  0.0000E+00
    -15.348  0.0000E+00  0.0000E+00  0.0000E+00  0.0000E+00  0.0000E+00  0.0000E+00  0.0000E+00  0.0000E+00  0.0000E+00
    -15.221  0.0000E+00  0.0000E+00  0.0000E+00  0.0000E+00  0.0000E+00  0.0000E+00  0.0000E+00  0.0000E+00  0.0000E+00
    -15.095  0.0000E+00  0.0000E+00  0.0000E+00  0.0000E+00  0.0000E+00  0.0000E+00  0.0000E+00  0.0000E+00  0.0000E+00
    -14.968  0.0000E+00  0.0000E+00  0.0000E+00  0.0000E+00  0.0000E+00  0.0000E+00  0.0000E+00  0.0000E+00  0.0000E+00
    -14.842  0.0000E+00  0.0000E+00  0.0000E+00  0.0000E+00  0.0000E+00  0.0000E+00  0.0000E+00  0.0000E+00  0.0000E+00
    -14.715  0.0000E+00  0.0000E+00  0.0000E+00  0.0000E+00  0.0000E+00  0.0000E+00  0.0000E+00  0.0000E+00  0.0000E+00
    -14.589  0.0000E+00  0.0000E+00  0.0000E+00  0.0000E+00  0.0000E+00  0.0000E+00  0.0000E+00  0.0000E+00  0.0000E+00
    -14.462  0.1066E-12  0.1149E-37  0.5913E-38  0.1079E-13  0.0000E+00  0.0000E+00  0.0000E+00  0.0000E+00  0.0000E+00
    -14.335  0.1822E-07  0.1964E-32  0.1011E-32  0.1845E-08  0.0000E+00  0.0000E+00  0.0000E+00  0.0000E+00  0.0000E+00
    -14.209  0.1382E-03  0.1489E-28  0.7668E-29  0.1399E-04  0.0000E+00  0.0000E+00  0.0000E+00  0.0000E+00  0.0000E+00
    -14.082  0.5011E-01  0.5400E-26  0.2780E-26  0.5073E-02  0.0000E+00  0.0000E+00  0.0000E+00  0.0000E+00  0.0000E+00
    -13.956  0.1034E+01  0.1114E-24  0.5735E-25  0.1047E+00  0.0000E+00  0.0000E+00  0.0000E+00  0.0000E+00  0.0000E+00
    -13.829  0.1614E+01  0.1739E-24  0.8952E-25  0.1634E+00  0.0000E+00  0.0000E+00  0.0000E+00  0.0000E+00  0.0000E+00
    -13.703  0.2055E+00  0.2214E-25  0.1140E-25  0.2080E-01  0.0000E+00  0.0000E+00  0.0000E+00  0.0000E+00  0.0000E+00
    -13.576  0.1642E-02  0.1770E-27  0.9112E-28  0.1663E-03  0.0000E+00  0.0000E+00  0.0000E+00  0.0000E+00  0.0000E+00
    -13.450  0.6580E-06  0.7091E-31  0.3650E-31  0.6661E-07  0.0000E+00  0.0000E+00  0.0000E+00  0.0000E+00  0.0000E+00
    -13.323  0.1193E-10  0.1286E-35  0.6619E-36  0.1208E-11  0.0000E+00  0.0000E+00  0.0000E+00  0.0000E+00  0.0000E+00
    -13.197  0.0000E+00  0.0000E+00  0.0000E+00  0.0000E+00  0.0000E+00  0.0000E+00  0.0000E+00  0.0000E+00  0.0000E+00
    -13.070  0.0000E+00  0.0000E+00  0.0000E+00  0.0000E+00  0.0000E+00  0.0000E+00  0.0000E+00  0.0000E+00  0.0000E+00
    -12.943  0.0000E+00  0.0000E+00  0.0000E+00  0.0000E+00  0.0000E+00  0.0000E+00  0.0000E+00  0.0000E+00  0.0000E+00
    -12.817  0.0000E+00  0.0000E+00  0.0000E+00  0.0000E+00  0.0000E+00  0.0000E+00  0.0000E+00  0.0000E+00  0.0000E+00
    -12.690  0.0000E+00  0.0000E+00  0.0000E+00  0.0000E+00  0.0000E+00  0.0000E+00  0.0000E+00  0.0000E+00  0.0000E+00
    -12.564  0.0000E+00  0.0000E+00  0.0000E+00  0.0000E+00  0.0000E+00  0.0000E+00  0.0000E+00  0.0000E+00  0.0000E+00
    -12.437  0.0000E+00  0.0000E+00  0.0000E+00  0.0000E+00  0.0000E+00  0.0000E+00  0.0000E+00  0.0000E+00  0.0000E+00
    -12.311  0.0000E+00  0.0000E+00  0.0000E+00  0.0000E+00  0.0000E+00  0.0000E+00  0.0000E+00  0.0000E+00  0.0000E+00
    -12.184  0.2556E-36  0.6099E-12  0.5660E-12  0.2999E-37  0.0000E+00  0.0000E+00  0.0000E+00  0.0000E+00  0.0000E+00
    -12.058  0.2818E-31  0.6689E-07  0.6318E-07  0.3328E-32  0.0000E+00  0.0000E+00  0.0000E+00  0.0000E+00  0.0000E+00
    -11.931  0.1389E-27  0.3278E-03  0.3150E-03  0.1650E-28  0.0000E+00  0.0000E+00  0.0000E+00  0.0000E+00  0.0000E+00
    -11.805  0.3326E-25  0.7807E-01  0.7630E-01  0.3976E-26  0.0000E+00  0.0000E+00  0.0000E+00  0.0000E+00  0.0000E+00
    -11.678  0.4698E-24  0.1097E+01  0.1089E+01  0.5647E-25  0.0000E+00  0.0000E+00  0.0000E+00  0.0000E+00  0.0000E+00
    -11.552  0.5196E-24  0.1208E+01  0.1216E+01  0.6276E-25  0.0000E+00  0.0000E+00  0.0000E+00  0.0000E+00  0.0000E+00
    -11.425  0.4578E-25  0.1059E+00  0.1082E+00  0.5559E-26  0.0000E+00  0.0000E+00  0.0000E+00  0.0000E+00  0.0000E+00
    -11.298  0.2432E-27  0.5595E-03  0.5810E-03  0.2971E-28  0.0000E+00  0.0000E+00  0.0000E+00  0.0000E+00  0.0000E+00
    -11.172  0.6348E-31  0.1452E-06  0.1534E-06  0.7803E-32  0.0000E+00  0.0000E+00  0.0000E+00  0.0000E+00  0.0000E+00