       N       E                     dE             d eps       ncg     rms          rms(c)
DAV:   1     0.672036449588E+02    0.67204E+02   -0.17728E+03    72   0.914E+01
DAV:   2    -0.154191585489E+02   -0.82623E+02   -0.81642E+02   144   0.266E+01
DAV:   3    -0.158759801826E+02   -0.45682E+00   -0.45682E+00    72   0.493E+00
DAV:   4    -0.158774817104E+02   -0.15015E-02   -0.15015E-02   144   0.279E-01
DAV:   5    -0.158774817278E+02   -0.17437E-07   -0.17433E-07    72   0.110E-03    0.660E+00
DAV:   6    -0.153620944481E+02    0.51539E+00   -0.21636E+00   108   0.254E+00    0.366E+00
DAV:   7    -0.152491346091E+02    0.11296E+00   -0.47776E-01   108   0.110E+00    0.182E+00
DAV:   8    -0.152218200558E+02    0.27315E-01   -0.13446E-01   108   0.706E-01    0.377E-01
DAV:   9    -0.152218515828E+02   -0.31527E-04   -0.68122E-03    72   0.173E-01    0.469E-02
DAV:  10    -0.152224251376E+02   -0.57355E-03   -0.12888E-04    72   0.212E-02    0.313E-02
DAV:  11    -0.152239998483E+02   -0.15747E-02   -0.43978E-04    72   0.272E-02    0.134E-02
DAV:  12    -0.152248764876E+02   -0.87664E-03   -0.79038E-05   108   0.105E-02    0.861E-03
DAV:  13    -0.152255312988E+02   -0.65481E-03   -0.65199E-05   108   0.103E-02    0.473E-03
DAV:  14    -0.152258911971E+02   -0.35990E-03   -0.33669E-05    72   0.669E-03    0.187E-03
DAV:  15    -0.152259662290E+02   -0.75032E-04   -0.32714E-06   108   0.277E-03    0.139E-03
DAV:  16    -0.152260082456E+02   -0.42017E-04   -0.17001E-06    72   0.191E-03    0.633E-04
DAV:  17    -0.152260179208E+02   -0.96752E-05   -0.19486E-07    72   0.719E-04    0.197E-04
DAV:  18    -0.152260207185E+02   -0.27977E-05   -0.31203E-08    72   0.305E-04    0.911E-05
DAV:  19    -0.152260222331E+02   -0.15147E-05   -0.15550E-08    72   0.242E-04    0.216E-05
DAV:  20    -0.152260223930E+02   -0.15989E-06   -0.74330E-10    72   0.587E-05
   1 F= -.15226022E+02 E0= -.15226022E+02  d E =-.152260E+02
