 vasp.5.4.4.18Apr17-6-g9f103f2a35 (build Apr 25 2017 10:54:42) gamma-only       
  
 executed on             LinuxIFC date 2019.05.30  17:17:58
 running on   36 total cores
 distrk:  each k-point on   36 cores,    1 groups
 distr:  one band on NCORES_PER_BAND=   1 cores,   36 groups


--------------------------------------------------------------------------------------------------------


 INCAR:
 POTCAR:    PAW_PBE C 08Apr2002                   
 POTCAR:    PAW_PBE O 08Apr2002                   

 ----------------------------------------------------------------------------- 
|                                                                             |
|           W    W    AA    RRRRR   N    N  II  N    N   GGGG   !!!           |
|           W    W   A  A   R    R  NN   N  II  NN   N  G    G  !!!           |
|           W    W  A    A  R    R  N N  N  II  N N  N  G       !!!           |
|           W WW W  AAAAAA  RRRRR   N  N N  II  N  N N  G  GGG   !            |
|           WW  WW  A    A  R   R   N   NN  II  N   NN  G    G                |
|           W    W  A    A  R    R  N    N  II  N    N   GGGG   !!!           |
|                                                                             |
|      For optimal performance we recommend to set                            |
|        NCORE= 4 - approx SQRT( number of cores)                             |
|      NCORE specifies how many cores store one orbital (NPAR=cpu/NCORE).     |
|      This setting can  greatly improve the performance of VASP for DFT.     |
|      The default,   NCORE=1            might be grossly inefficient         |
|      on modern multi-core architectures or massively parallel machines.     |
|      Do your own testing !!!!                                               |
|      Unfortunately you need to use the default for GW and RPA calculations. |
|      (for HF NCORE is supported but not extensively tested yet)             |
|                                                                             |
 ----------------------------------------------------------------------------- 

 POTCAR:    PAW_PBE C 08Apr2002                   
   VRHFIN =C: s2p2                                                              
   LEXCH  = PE                                                                  
   EATOM  =   147.1560 eV,   10.8157 Ry                                         
                                                                                
   TITEL  = PAW_PBE C 08Apr2002                                                 
   LULTRA =        F    use ultrasoft PP ?                                      
   IUNSCR =        1    unscreen: 0-lin 1-nonlin 2-no                           
   RPACOR =    1.200    partial core radius                                     
   POMASS =   12.011; ZVAL   =    4.000    mass and valenz                      
   RCORE  =    1.500    outmost cutoff radius                                   
   RWIGS  =    1.630; RWIGS  =    0.863    wigner-seitz radius (au A)           
   ENMAX  =  400.000; ENMIN  =  300.000 eV                                      
   ICORE  =        2    local potential                                         
   LCOR   =        T    correct aug charges                                     
   LPAW   =        T    paw PP                                                  
   EAUG   =  644.873                                                            
   DEXC   =    0.000                                                            
   RMAX   =    1.529    core radius for proj-oper                               
   RAUG   =    1.300    factor for augmentation sphere                          
   RDEP   =    1.501    radius for radial grids                                 
   RDEPT  =    1.300    core radius for aug-charge                              
                                                                                
   Atomic configuration                                                         
    4 entries                                                                   
     n  l   j            E        occ.                                          
     1  0  0.50      -273.3789   2.0000                                         
     2  0  0.50       -13.7508   2.0000                                         
     2  1  0.50        -5.2854   2.0000                                         
     3  2  1.50        -5.4423   0.0000                                         
   Description                                                                  
     l       E           TYP  RCUT    TYP  RCUT                                 
     0    -13.7508458     23  1.200                                             
     0     -8.2022199     23  1.200                                             
     1     -5.2854383     23  1.500                                             
     1     34.0145650     23  1.500                                             
     2     -5.4423304      7  1.500                                             
  local pseudopotential read in
  partial core-charges read in
  partial kinetic energy density read in
  atomic valenz-charges read in
  non local Contribution for L=           0  read in
    real space projection operators read in
  non local Contribution for L=           0  read in
    real space projection operators read in
  non local Contribution for L=           1  read in
    real space projection operators read in
  non local Contribution for L=           1  read in
    real space projection operators read in
    PAW grid and wavefunctions read in
 
   number of l-projection  operators is LMAX  =           4
   number of lm-projection operators is LMMAX =           8
 
 POTCAR:    PAW_PBE O 08Apr2002                   
   VRHFIN =O: s2p4                                                              
   LEXCH  = PE                                                                  
   EATOM  =   432.3788 eV,   31.7789 Ry                                         
                                                                                
   TITEL  = PAW_PBE O 08Apr2002                                                 
   LULTRA =        F    use ultrasoft PP ?                                      
   IUNSCR =        1    unscreen: 0-lin 1-nonlin 2-no                           
   RPACOR =    1.200    partial core radius                                     
   POMASS =   16.000; ZVAL   =    6.000    mass and valenz                      
   RCORE  =    1.520    outmost cutoff radius                                   
   RWIGS  =    1.550; RWIGS  =    0.820    wigner-seitz radius (au A)           
   ENMAX  =  400.000; ENMIN  =  300.000 eV                                      
   ICORE  =        2    local potential                                         
   LCOR   =        T    correct aug charges                                     
   LPAW   =        T    paw PP                                                  
   EAUG   =  605.392                                                            
   DEXC   =    0.000                                                            
   RMAX   =    1.553    core radius for proj-oper                               
   RAUG   =    1.300    factor for augmentation sphere                          
   RDEP   =    1.550    radius for radial grids                                 
   RDEPT  =    1.329    core radius for aug-charge                              
                                                                                
   Atomic configuration                                                         
    4 entries                                                                   
     n  l   j            E        occ.                                          
     1  0  0.50      -514.6923   2.0000                                         
     2  0  0.50       -23.9615   2.0000                                         
     2  1  0.50        -9.0305   4.0000                                         
     3  2  1.50        -9.5241   0.0000                                         
   Description                                                                  
     l       E           TYP  RCUT    TYP  RCUT                                 
     0    -23.9615318     23  1.200                                             
     0     -9.5240782     23  1.200                                             
     1     -9.0304911     23  1.520                                             
     1      8.1634956     23  1.520                                             
     2     -9.5240782      7  1.500                                             
  local pseudopotential read in
  partial core-charges read in
  partial kinetic energy density read in
  kinetic energy density of atom read in
  atomic valenz-charges read in
  non local Contribution for L=           0  read in
    real space projection operators read in
  non local Contribution for L=           0  read in
    real space projection operators read in
  non local Contribution for L=           1  read in
    real space projection operators read in
  non local Contribution for L=           1  read in
    real space projection operators read in
    PAW grid and wavefunctions read in
 
   number of l-projection  operators is LMAX  =           4
   number of lm-projection operators is LMMAX =           8
 

 ----------------------------------------------------------------------------- 
|                                                                             |
|  ADVICE TO THIS USER RUNNING 'VASP/VAMP'   (HEAR YOUR MASTER'S VOICE ...):  |
|                                                                             |
|      You have a (more or less) 'small supercell' and for smaller cells      |
|      it is recommended  to use the reciprocal-space projection scheme!      |
|      The real space optimization is not  efficient for small cells and it   |
|      is also less accurate ...                                              |
|      Therefore set LREAL=.FALSE. in the  INCAR file                         |
|                                                                             |
 ----------------------------------------------------------------------------- 

 Optimization of the real space projectors (new method)

 maximal supplied QI-value         = 25.13
 optimisation between [QCUT,QGAM] = [  9.05, 18.35] = [ 22.92, 94.26] Ry 
 Optimized for a Real-space Cutoff    1.44 Angstroem

   l    n(q)    QCUT    max X(q) W(low)/X(q) W(high)/X(q)  e(spline) 
   0      8     9.048   115.676    0.32E-03    0.29E-03    0.35E-06
   0      8     9.048    87.132    0.32E-03    0.29E-03    0.35E-06
   1      7     9.048     4.429    0.19E-03    0.19E-03    0.36E-06
   1      7     9.048     2.711    0.82E-04    0.27E-03    0.37E-06
 Optimization of the real space projectors (new method)

 maximal supplied QI-value         = 24.76
 optimisation between [QCUT,QGAM] = [  9.16, 18.32] = [ 23.49, 93.97] Ry 
 Optimized for a Real-space Cutoff    1.40 Angstroem

   l    n(q)    QCUT    max X(q) W(low)/X(q) W(high)/X(q)  e(spline) 
   0      8     9.160    20.381    0.39E-03    0.13E-03    0.35E-06
   0      8     9.160    15.268    0.44E-03    0.16E-03    0.36E-06
   1      7     9.160     5.851    0.44E-03    0.25E-04    0.32E-06
   1      7     9.160     5.382    0.37E-03    0.20E-04    0.28E-06

 ----------------------------------------------------------------------------- 
|                                                                             |
|  ADVICE TO THIS USER RUNNING 'VASP/VAMP'   (HEAR YOUR MASTER'S VOICE ...):  |
|                                                                             |
|      You enforced a specific xc-type in the INCAR file,                     |
|      a different type was found on the POTCAR file                          |
|          I HOPE YOU KNOW, WHAT YOU ARE  DOING                               |
|                                                                             |
 ----------------------------------------------------------------------------- 

  PAW_PBE C 08Apr2002                   :
 energy of atom  1       EATOM= -147.1560
 kinetic energy error for atom=    0.1500 (will be added to EATOM!!)
  PAW_PBE O 08Apr2002                   :
 energy of atom  2       EATOM= -432.3788
 kinetic energy error for atom=    0.6826 (will be added to EATOM!!)
 
 
 POSCAR: CO                                      
  positions in direct lattice
  velocities in cartesian coordinates
 exchange correlation table for  LEXCH =       14
   RHO(1)=    0.500       N(1)  =     2000
   RHO(2)=  100.500       N(2)  =     4000
 


--------------------------------------------------------------------------------------------------------


 ion  position               nearest neighbor table
   1  0.943  0.000  0.000-   2 1.14
   2  0.057  0.000  0.000-   1 1.14
 
  LATTYP: Found a simple orthorhombic cell.
 ALAT       =    10.0000000000
 B/A-ratio  =     1.0100000000
 C/A-ratio  =     1.0200000000
  
  Lattice vectors:
  
 A1 = (  10.0000000000,   0.0000000000,   0.0000000000)
 A2 = (   0.0000000000,  10.1000000000,   0.0000000000)
 A3 = (   0.0000000000,   0.0000000000,  10.2000000000)


Analysis of symmetry for initial positions (statically):
=====================================================================
 Subroutine PRICEL returns:
 Original cell was already a primitive cell.
 

 Routine SETGRP: Setting up the symmetry group for a 
 simple orthorhombic supercell.


 Subroutine GETGRP returns: Found  4 space group operations
 (whereof  4 operations were pure point group operations)
 out of a pool of  8 trial point group operations.


The static configuration has the point symmetry C_2v.


Analysis of symmetry for dynamics (positions and initial velocities):
=====================================================================
 Subroutine PRICEL returns:
 Original cell was already a primitive cell.
 

 Routine SETGRP: Setting up the symmetry group for a 
 simple orthorhombic supercell.


 Subroutine GETGRP returns: Found  4 space group operations
 (whereof  4 operations were pure point group operations)
 out of a pool of  8 trial point group operations.


The dynamic configuration has the point symmetry C_2v.


 Subroutine INISYM returns: Found  4 space group operations
 (whereof  4 operations are pure point group operations),
 and found     1 'primitive' translations

 
 
 KPOINTS: mode: primitive_uniform, kpt density: 3,

Automatic generation of k-mesh.
Space group operators:
 irot       det(A)        alpha          n_x          n_y          n_z        tau_x        tau_y        tau_z
    1     1.000000     0.000001     1.000000     0.000000     0.000000     0.000000     0.000000     0.000000
    2    -1.000000   180.000000     0.000000     0.000000     1.000000     0.000000     0.000000     0.000000
    3    -1.000000   180.000000     0.000000     1.000000     0.000000     0.000000     0.000000     0.000000
    4     1.000000   180.000000     1.000000     0.000000     0.000000     0.000000     0.000000     0.000000
 
 Subroutine IBZKPT returns following result:
 ===========================================
 
 Found      1 irreducible k-points:
 
 Following reciprocal coordinates:
            Coordinates               Weight
  0.000000  0.000000  0.000000      1.000000
 
 Following cartesian coordinates:
            Coordinates               Weight
  0.000000  0.000000  0.000000      1.000000
 


--------------------------------------------------------------------------------------------------------




 Dimension of arrays:
   k-points           NKPTS =      1   k-points in BZ     NKDIM =      1   number of bands    NBANDS=     36
   number of dos      NEDOS =    301   number of ions     NIONS =      2
   non local maximal  LDIM  =      4   non local SUM 2l+1 LMDIM =      8
   total plane-waves  NPLWV = 110592
   max r-space proj   IRMAX =   1402   max aug-charges    IRDMAX=   1592
   dimension x,y,z NGX =    48 NGY =   48 NGZ =   48
   dimension x,y,z NGXF=    96 NGYF=   96 NGZF=   96
   support grid    NGXF=    96 NGYF=   96 NGZF=   96
   ions per type =               1   1
   NGX,Y,Z   is equivalent  to a cutoff of   7.98,  7.90,  7.82 a.u.
   NGXF,Y,Z  is equivalent  to a cutoff of  15.96, 15.80, 15.65 a.u.

 SYSTEM =  unknown system                          
 POSCAR =  CO                                      

 Startparameter for this run:
   NWRITE =      2    write-flag & timer
   PREC   = n         normal or accurate (medium, high low for compatibility)
   ISTART =      0    job   : 0-new  1-cont  2-samecut
   ICHARG =      2    charge: 1-file 2-atom 10-const
   ISPIN  =      1    spin polarized calculation?
   LNONCOLLINEAR =      F non collinear calculations
   LSORBIT =      F    spin-orbit coupling
   INIWAV =      1    electr: 0-lowe 1-rand  2-diag
   LASPH  =      T    aspherical Exc in radial PAW
   METAGGA=      F    non-selfconsistent MetaGGA calc.

 Electronic Relaxation 1
   ENCUT  =  325.0 eV  23.89 Ry    4.89 a.u.  14.70 14.85 14.99*2*pi/ulx,y,z
   ENINI  =  325.0     initial cutoff
   ENAUG  =  644.9 eV  augmentation charge cutoff
   NELM   =    100;   NELMIN=  2; NELMDL=  0     # of ELM steps 
   EDIFF  = 0.1E-05   stopping-criterion for ELM
   LREAL  =      T    real-space projection
   NLSPLINE    = F    spline interpolate recip. space projectors
   LCOMPAT=      F    compatible to vasp.4.4
   GGA_COMPAT  = T    GGA compatible to vasp.4.4-vasp.4.6
   LMAXPAW     = -100 max onsite density
   LMAXMIX     =    2 max onsite mixed and CHGCAR
   VOSKOWN=      0    Vosko Wilk Nusair interpolation
   ROPT   =   -0.00050  -0.00050
 Ionic relaxation
   EDIFFG = -.1E-01   stopping-criterion for IOM
   NSW    =     50    number of steps for IOM
   NBLOCK =      1;   KBLOCK =     50    inner block; outer block 
   IBRION =      2    ionic relax: 0-MD 1-quasi-New 2-CG
   NFREE  =      1    steps in history (QN), initial steepest desc. (CG)
   ISIF   =      2    stress and relaxation
   IWAVPR =     11    prediction:  0-non 1-charg 2-wave 3-comb
   ISYM   =      2    0-nonsym 1-usesym 2-fastsym
   LCORR  =      T    Harris-Foulkes like correction to forces

   POTIM  = 0.5000    time-step for ionic-motion
   TEIN   =    0.0    initial temperature
   TEBEG  =    0.0;   TEEND  =   0.0 temperature during run
   SMASS  =  -3.00    Nose mass-parameter (am)
   estimated Nose-frequenzy (Omega)   =  0.10E-29 period in steps =****** mass=  -0.229E-26a.u.
   SCALEE = 1.0000    scale energy and forces
   NPACO  =    256;   APACO  = 16.0  distance and # of slots for P.C.
   PSTRESS=    0.0 pullay stress

  Mass of Ions in am
   POMASS =  12.01 16.00
  Ionic Valenz
   ZVAL   =   4.00  6.00
  Atomic Wigner-Seitz radii
   RWIGS  =  -1.00 -1.00
  virtual crystal weights 
   VCA    =   1.00  1.00
   NELECT =      10.0000    total number of electrons
   NUPDOWN=      -1.0000    fix difference up-down

 DOS related values:
   EMIN   =  10.00;   EMAX   =-10.00  energy-range for DOS
   EFERMI =   0.00
   ISMEAR =     0;   SIGMA  =   0.10  broadening in eV -4-tet -1-fermi 0-gaus

 Electronic relaxation 2 (details)
   IALGO  =     38    algorithm
   LDIAG  =      T    sub-space diagonalisation (order eigenvalues)
   LSUBROT=      F    optimize rotation matrix (better conditioning)
   TURBO    =      0    0=normal 1=particle mesh
   IRESTART =      0    0=no restart 2=restart with 2 vectors
   NREBOOT  =      0    no. of reboots
   NMIN     =      0    reboot dimension
   EREF     =   0.00    reference energy to select bands
   IMIX   =      4    mixing-type and parameters
     AMIX     =   0.40;   BMIX     =  1.00
     AMIX_MAG =   1.60;   BMIX_MAG =  1.00
     AMIN     =   0.10
     WC   =   100.;   INIMIX=   1;  MIXPRE=   1;  MAXMIX= -45

 Intra band minimization:
   WEIMIN = 0.0010     energy-eigenvalue tresh-hold
   EBREAK =  0.69E-08  absolut break condition
   DEPER  =   0.30     relativ break condition  

   TIME   =   0.40     timestep for ELM

  volume/ion in A,a.u.               =     515.10      3476.07
  Fermi-wavevector in a.u.,A,eV,Ry     =   0.349222  0.659933  1.659308  0.121956
  Thomas-Fermi vector in A             =   1.260098
 
 Write flags
   LWAVE        =      F    write WAVECAR
   LDOWNSAMPLE  =      F    k-point downsampling of WAVECAR
   LCHARG       =      F    write CHGCAR
   LVTOT        =      F    write LOCPOT, total local potential
   LVHAR        =      F    write LOCPOT, Hartree potential only
   LELF         =      F    write electronic localiz. function (ELF)
   LORBIT       =     12    0 simple, 1 ext, 2 COOP (PROOUT), +10 PAW based schemes


 Dipole corrections
   LMONO  =      F    monopole corrections only (constant potential shift)
   LDIPOL =      F    correct potential (dipole corrections)
   IDIPOL =      0    1-x, 2-y, 3-z, 4-all directions 
   EPSILON=  1.0000000 bulk dielectric constant

 Exchange correlation treatment:
   GGA     =    PS    GGA type
   LEXCH   =    14    internal setting for exchange type
   VOSKOWN=      0    Vosko Wilk Nusair interpolation
   LHFCALC =     F    Hartree Fock is set to
   LHFONE  =     F    Hartree Fock one center treatment
   AEXX    =    0.0000 exact exchange contribution

 Linear response parameters
   LEPSILON=     F    determine dielectric tensor
   LRPA    =     F    only Hartree local field effects (RPA)
   LNABLA  =     F    use nabla operator in PAW spheres
   LVEL    =     F    velocity operator in full k-point grid
   LINTERFAST=   F  fast interpolation
   KINTER  =     0    interpolate to denser k-point grid
   CSHIFT  =0.1000    complex shift for real part using Kramers Kronig
   OMEGAMAX=  -1.0    maximum frequency
   DEG_THRESHOLD= 0.2000000E-02 threshold for treating states as degnerate
   RTIME   =   -0.100 relaxation time in fs
  (WPLASMAI=    0.000 imaginary part of plasma frequency in eV, 0.658/RTIME)
   DFIELD  = 0.0000000 0.0000000 0.0000000 field for delta impulse in time
 
 Orbital magnetization related:
   ORBITALMAG=     F  switch on orbital magnetization
   LCHIMAG   =     F  perturbation theory with respect to B field
   DQ        =  0.001000  dq finite difference perturbation B field
   LLRAUG    =     F  two centre corrections for induced B field



--------------------------------------------------------------------------------------------------------


 conjugate gradient relaxation of ions
 charge density and potential will be updated during run
 non-spin polarized calculation
 Variant of blocked Davidson
 Davidson routine will perform the subspace rotation
 perform sub-space diagonalisation
    after iterative eigenvector-optimisation
 modified Broyden-mixing scheme, WC =      100.0
 initial mixing is a Kerker type mixing with AMIX =  0.4000 and BMIX =      1.0000
 Hartree-type preconditioning will be used
 using additional bands           31
 real space projection scheme for non local part
 use partial core corrections
 calculate Harris-corrections to forces 
   (improved forces if not selfconsistent)
 use gradient corrections 
 use of overlap-Matrix (Vanderbilt PP)
 Gauss-broadening in eV      SIGMA  =   0.10


--------------------------------------------------------------------------------------------------------


  energy-cutoff  :      325.00
  volume of cell :     1030.20
      direct lattice vectors                 reciprocal lattice vectors
    10.000000000  0.000000000  0.000000000     0.100000000  0.000000000  0.000000000
     0.000000000 10.100000000  0.000000000     0.000000000  0.099009901  0.000000000
     0.000000000  0.000000000 10.200000000     0.000000000  0.000000000  0.098039216

  length of vectors
    10.000000000 10.100000000 10.200000000     0.100000000  0.099009901  0.098039216


 
 k-points in units of 2pi/SCALE and weight: mode: primitive_uniform, kpt density: 3,
   0.00000000  0.00000000  0.00000000       1.000
 
 k-points in reciprocal lattice and weights: mode: primitive_uniform, kpt density: 3,
   0.00000000  0.00000000  0.00000000       1.000
 
 position of ions in fractional coordinates (direct lattice) 
   0.94290482  0.00000000  0.00000000
   0.05709518  0.00000000  0.00000000
 
 position of ions in cartesian coordinates  (Angst):
   9.42904824  0.00000000  0.00000000
   0.57095176  0.00000000  0.00000000
 


--------------------------------------------------------------------------------------------------------


 use serial FFT for orbitals x direction half grid
 k-point  1 :   0.0000 0.0000 0.0000  plane waves:    6843

 maximum and minimum number of plane-waves per node :      6843     6843

 maximum number of plane-waves:      6843
 maximum index in each direction: 
   IXMAX=   14   IYMAX=   14   IZMAX=   14
   IXMIN=    0   IYMIN=  -14   IZMIN=  -14


 serial   3D FFT for wavefunctions
 parallel 3D FFT for charge:
    minimum data exchange during FFTs selected (reduces bandwidth)


 total amount of memory used by VASP MPI-rank0    37716. kBytes
=======================================================================

   base      :      30000. kBytes
   nonlr-proj:        178. kBytes
   fftplans  :       1394. kBytes
   grid      :       6031. kBytes
   one-center:          3. kBytes
   wavefun   :        110. kBytes
 
     INWAV:  cpu time    0.0000: real time    0.0003
 Broyden mixing: mesh for mixing (old mesh)
   NGX = 29   NGY = 29   NGZ = 29
  (NGX  = 96   NGY  = 96   NGZ  = 96)
  gives a total of  24389 points

 initial charge density was supplied:
 charge density of overlapping atoms calculated
 number of electron      10.0000000 magnetization 
 keeping initial charge density in first step


--------------------------------------------------------------------------------------------------------


 Maximum index for non-local projection operator         1310
 Maximum index for augmentation-charges           57 (set IRDMAX)


--------------------------------------------------------------------------------------------------------


 First call to EWALD:  gamma=   0.175
 Maximum number of real-space cells 3x 3x 3
 Maximum number of reciprocal cells 3x 3x 3

    FEWALD:  cpu time    0.0000: real time    0.0011


--------------------------------------- Iteration      1(   1)  ---------------------------------------


    POTLOK:  cpu time    0.0200: real time    0.0224
    SETDIJ:  cpu time    0.0400: real time    0.0382
     EDDAV:  cpu time    0.0240: real time    0.0250
       DOS:  cpu time    0.0000: real time    0.0004
    --------------------------------------------
      LOOP:  cpu time    0.0840: real time    0.0859

 eigenvalue-minimisations  :    72
 total energy-change (2. order) : 0.6720364E+02  (-0.1772810E+03)
 number of electron      10.0000000 magnetization 
 augmentation part       10.0000000 magnetization 

 Free energy of the ion-electron system (eV)
  ---------------------------------------------------
  alpha Z        PSCENC =         0.42414827
  Ewald energy   TEWEN  =       101.37707024
  -Hartree energ DENC   =      -562.72151261
  -exchange      EXHF   =         0.00000000
  -V(xc)+E(xc)   XCENC  =        39.58139600
  PAW double counting   =       454.70645472     -456.32910606
  entropy T*S    EENTRO =        -0.03874213
  eigenvalues    EBANDS =       -85.84791462
  atomic energy  EATOM  =       576.05185114
  Solvation  Ediel_sol  =         0.00000000
  ---------------------------------------------------
  free energy    TOTEN  =        67.20364496 eV

  energy without entropy =       67.24238708  energy(sigma->0) =       67.22301602


--------------------------------------------------------------------------------------------------------




--------------------------------------- Iteration      1(   2)  ---------------------------------------


     EDDAV:  cpu time    0.0480: real time    0.0535
       DOS:  cpu time    0.0000: real time    0.0002
    --------------------------------------------
      LOOP:  cpu time    0.0480: real time    0.0537

 eigenvalue-minimisations  :   144
 total energy-change (2. order) :-0.8262280E+02  (-0.8164162E+02)
 number of electron      10.0000000 magnetization 
 augmentation part       10.0000000 magnetization 

 Free energy of the ion-electron system (eV)
  ---------------------------------------------------
  alpha Z        PSCENC =         0.42414827
  Ewald energy   TEWEN  =       101.37707024
  -Hartree energ DENC   =      -562.72151261
  -exchange      EXHF   =         0.00000000
  -V(xc)+E(xc)   XCENC  =        39.58139600
  PAW double counting   =       454.70645472     -456.32910606
  entropy T*S    EENTRO =        -0.00000000
  eigenvalues    EBANDS =      -168.50946026
  atomic energy  EATOM  =       576.05185114
  Solvation  Ediel_sol  =         0.00000000
  ---------------------------------------------------
  free energy    TOTEN  =       -15.41915855 eV

  energy without entropy =      -15.41915855  energy(sigma->0) =      -15.41915855


--------------------------------------------------------------------------------------------------------




--------------------------------------- Iteration      1(   3)  ---------------------------------------


     EDDAV:  cpu time    0.0240: real time    0.0236
       DOS:  cpu time    0.0000: real time    0.0001
    --------------------------------------------
      LOOP:  cpu time    0.0240: real time    0.0238

 eigenvalue-minimisations  :    72
 total energy-change (2. order) :-0.4568216E+00  (-0.4568216E+00)
 number of electron      10.0000000 magnetization 
 augmentation part       10.0000000 magnetization 

 Free energy of the ion-electron system (eV)
  ---------------------------------------------------
  alpha Z        PSCENC =         0.42414827
  Ewald energy   TEWEN  =       101.37707024
  -Hartree energ DENC   =      -562.72151261
  -exchange      EXHF   =         0.00000000
  -V(xc)+E(xc)   XCENC  =        39.58139600
  PAW double counting   =       454.70645472     -456.32910606
  entropy T*S    EENTRO =        -0.00000000
  eigenvalues    EBANDS =      -168.96628189
  atomic energy  EATOM  =       576.05185114
  Solvation  Ediel_sol  =         0.00000000
  ---------------------------------------------------
  free energy    TOTEN  =       -15.87598018 eV

  energy without entropy =      -15.87598018  energy(sigma->0) =      -15.87598018


--------------------------------------------------------------------------------------------------------




--------------------------------------- Iteration      1(   4)  ---------------------------------------


     EDDAV:  cpu time    0.0440: real time    0.0459
       DOS:  cpu time    0.0000: real time    0.0002
    --------------------------------------------
      LOOP:  cpu time    0.0440: real time    0.0461

 eigenvalue-minimisations  :   144
 total energy-change (2. order) :-0.1501528E-02  (-0.1501528E-02)
 number of electron      10.0000000 magnetization 
 augmentation part       10.0000000 magnetization 

 Free energy of the ion-electron system (eV)
  ---------------------------------------------------
  alpha Z        PSCENC =         0.42414827
  Ewald energy   TEWEN  =       101.37707024
  -Hartree energ DENC   =      -562.72151261
  -exchange      EXHF   =         0.00000000
  -V(xc)+E(xc)   XCENC  =        39.58139600
  PAW double counting   =       454.70645472     -456.32910606
  entropy T*S    EENTRO =        -0.00000000
  eigenvalues    EBANDS =      -168.96778342
  atomic energy  EATOM  =       576.05185114
  Solvation  Ediel_sol  =         0.00000000
  ---------------------------------------------------
  free energy    TOTEN  =       -15.87748171 eV

  energy without entropy =      -15.87748171  energy(sigma->0) =      -15.87748171


--------------------------------------------------------------------------------------------------------




--------------------------------------- Iteration      1(   5)  ---------------------------------------


     EDDAV:  cpu time    0.0240: real time    0.0234
       DOS:  cpu time    0.0000: real time    0.0002
    CHARGE:  cpu time    0.0240: real time    0.0234
    MIXING:  cpu time    0.0000: real time    0.0006
    --------------------------------------------
      LOOP:  cpu time    0.0480: real time    0.0476

 eigenvalue-minimisations  :    72
 total energy-change (2. order) :-0.1743661E-07  (-0.1743315E-07)
 number of electron       9.9999999 magnetization 
 augmentation part        0.6876507 magnetization 

 Broyden mixing:
  rms(total) = 0.65956E+00    rms(broyden)= 0.65733E+00
  rms(prec ) = 0.76321E+00
  weight for this iteration     100.00

 Free energy of the ion-electron system (eV)
  ---------------------------------------------------
  alpha Z        PSCENC =         0.42414827
  Ewald energy   TEWEN  =       101.37707024
  -Hartree energ DENC   =      -562.72151261
  -exchange      EXHF   =         0.00000000
  -V(xc)+E(xc)   XCENC  =        39.58139600
  PAW double counting   =       454.70645472     -456.32910606
  entropy T*S    EENTRO =        -0.00000000
  eigenvalues    EBANDS =      -168.96778344
  atomic energy  EATOM  =       576.05185114
  Solvation  Ediel_sol  =         0.00000000
  ---------------------------------------------------
  free energy    TOTEN  =       -15.87748173 eV

  energy without entropy =      -15.87748173  energy(sigma->0) =      -15.87748173


--------------------------------------------------------------------------------------------------------




--------------------------------------- Iteration      1(   6)  ---------------------------------------


    POTLOK:  cpu time    0.0200: real time    0.0174
    SETDIJ:  cpu time    0.0360: real time    0.0384
     EDDAV:  cpu time    0.0720: real time    0.0863
       DOS:  cpu time    0.0000: real time    0.0002
    CHARGE:  cpu time    0.0240: real time    0.0247
    MIXING:  cpu time    0.0000: real time    0.0013
    --------------------------------------------
      LOOP:  cpu time    0.1520: real time    0.1683

 eigenvalue-minimisations  :   108
 total energy-change (2. order) : 0.5153873E+00  (-0.2163644E+00)
 number of electron      10.0000005 magnetization 
 augmentation part        0.6291487 magnetization 

 Broyden mixing:
  rms(total) = 0.36611E+00    rms(broyden)= 0.36569E+00
  rms(prec ) = 0.40978E+00
  weight for this iteration     100.00

 eigenvalues of (default mixing * dielectric matrix)
  average eigenvalue GAMMA=   1.2821
  1.2821

 Free energy of the ion-electron system (eV)
  ---------------------------------------------------
  alpha Z        PSCENC =         0.42414827
  Ewald energy   TEWEN  =       101.37707024
  -Hartree energ DENC   =      -574.52928935
  -exchange      EXHF   =         0.00000000
  -V(xc)+E(xc)   XCENC  =        40.27436158
  PAW double counting   =       616.00527516     -617.67671727
  entropy T*S    EENTRO =        -0.00000000
  eigenvalues    EBANDS =      -157.28879424
  atomic energy  EATOM  =       576.05185114
  Solvation  Ediel_sol  =         0.00000000
  ---------------------------------------------------
  free energy    TOTEN  =       -15.36209445 eV

  energy without entropy =      -15.36209445  energy(sigma->0) =      -15.36209445


--------------------------------------------------------------------------------------------------------




--------------------------------------- Iteration      1(   7)  ---------------------------------------


    POTLOK:  cpu time    0.0200: real time    0.0209
    SETDIJ:  cpu time    0.0400: real time    0.0390
     EDDAV:  cpu time    0.0440: real time    0.0470
       DOS:  cpu time    0.0000: real time    0.0001
    CHARGE:  cpu time    0.0240: real time    0.0238
    MIXING:  cpu time    0.0000: real time    0.0007
    --------------------------------------------
      LOOP:  cpu time    0.1280: real time    0.1316

 eigenvalue-minimisations  :   108
 total energy-change (2. order) : 0.1129598E+00  (-0.4777649E-01)
 number of electron      10.0000002 magnetization 
 augmentation part        0.6459547 magnetization 

 Broyden mixing:
  rms(total) = 0.18203E+00    rms(broyden)= 0.18199E+00
  rms(prec ) = 0.20524E+00
  weight for this iteration     100.00

 eigenvalues of (default mixing * dielectric matrix)
  average eigenvalue GAMMA=   1.5178
  0.7577  2.2778

 Free energy of the ion-electron system (eV)
  ---------------------------------------------------
  alpha Z        PSCENC =         0.42414827
  Ewald energy   TEWEN  =       101.37707024
  -Hartree energ DENC   =      -577.05129075
  -exchange      EXHF   =         0.00000000
  -V(xc)+E(xc)   XCENC  =        40.43643597
  PAW double counting   =       740.70203271     -742.30750269
  entropy T*S    EENTRO =        -0.00000000
  eigenvalues    EBANDS =      -154.88187951
  atomic energy  EATOM  =       576.05185114
  Solvation  Ediel_sol  =         0.00000000
  ---------------------------------------------------
  free energy    TOTEN  =       -15.24913461 eV

  energy without entropy =      -15.24913461  energy(sigma->0) =      -15.24913461


--------------------------------------------------------------------------------------------------------




--------------------------------------- Iteration      1(   8)  ---------------------------------------


    POTLOK:  cpu time    0.0160: real time    0.0171
    SETDIJ:  cpu time    0.0400: real time    0.0381
     EDDAV:  cpu time    0.0360: real time    0.0387
       DOS:  cpu time    0.0000: real time    0.0002
    CHARGE:  cpu time    0.0240: real time    0.0224
    MIXING:  cpu time    0.0000: real time    0.0007
    --------------------------------------------
      LOOP:  cpu time    0.1160: real time    0.1171

 eigenvalue-minimisations  :   108
 total energy-change (2. order) : 0.2731455E-01  (-0.1344567E-01)
 number of electron      10.0000003 magnetization 
 augmentation part        0.6332203 magnetization 

 Broyden mixing:
  rms(total) = 0.37717E-01    rms(broyden)= 0.37656E-01
  rms(prec ) = 0.44534E-01
  weight for this iteration     100.00

 eigenvalues of (default mixing * dielectric matrix)
  average eigenvalue GAMMA=   1.6519
  2.4446  1.7794  0.7317

 Free energy of the ion-electron system (eV)
  ---------------------------------------------------
  alpha Z        PSCENC =         0.42414827
  Ewald energy   TEWEN  =       101.37707024
  -Hartree energ DENC   =      -581.36542915
  -exchange      EXHF   =         0.00000000
  -V(xc)+E(xc)   XCENC  =        40.70058505
  PAW double counting   =       877.55190748     -879.12132045
  entropy T*S    EENTRO =        -0.00000000
  eigenvalues    EBANDS =      -150.84063265
  atomic energy  EATOM  =       576.05185114
  Solvation  Ediel_sol  =         0.00000000
  ---------------------------------------------------
  free energy    TOTEN  =       -15.22182006 eV

  energy without entropy =      -15.22182006  energy(sigma->0) =      -15.22182006


--------------------------------------------------------------------------------------------------------




--------------------------------------- Iteration      1(   9)  ---------------------------------------


    POTLOK:  cpu time    0.0160: real time    0.0172
    SETDIJ:  cpu time    0.0360: real time    0.0380
     EDDAV:  cpu time    0.0280: real time    0.0281
       DOS:  cpu time    0.0000: real time    0.0001
    CHARGE:  cpu time    0.0240: real time    0.0232
    MIXING:  cpu time    0.0000: real time    0.0007
    --------------------------------------------
      LOOP:  cpu time    0.1040: real time    0.1074

 eigenvalue-minimisations  :    72
 total energy-change (2. order) :-0.3152698E-04  (-0.6812195E-03)
 number of electron      10.0000003 magnetization 
 augmentation part        0.6341012 magnetization 

 Broyden mixing:
  rms(total) = 0.46925E-02    rms(broyden)= 0.46749E-02
  rms(prec ) = 0.10571E-01
  weight for this iteration     100.00

 eigenvalues of (default mixing * dielectric matrix)
  average eigenvalue GAMMA=   1.4864
  0.7324  1.0619  2.3871  1.7641

 Free energy of the ion-electron system (eV)
  ---------------------------------------------------
  alpha Z        PSCENC =         0.42414827
  Ewald energy   TEWEN  =       101.37707024
  -Hartree energ DENC   =      -580.93773059
  -exchange      EXHF   =         0.00000000
  -V(xc)+E(xc)   XCENC  =        40.67231621
  PAW double counting   =       900.23702945     -901.77461012
  entropy T*S    EENTRO =        -0.00000000
  eigenvalues    EBANDS =      -151.27192620
  atomic energy  EATOM  =       576.05185114
  Solvation  Ediel_sol  =         0.00000000
  ---------------------------------------------------
  free energy    TOTEN  =       -15.22185158 eV

  energy without entropy =      -15.22185158  energy(sigma->0) =      -15.22185158


--------------------------------------------------------------------------------------------------------




--------------------------------------- Iteration      1(  10)  ---------------------------------------


    POTLOK:  cpu time    0.0200: real time    0.0178
    SETDIJ:  cpu time    0.0360: real time    0.0379
     EDDAV:  cpu time    0.0280: real time    0.0260
       DOS:  cpu time    0.0000: real time    0.0002
    CHARGE:  cpu time    0.0200: real time    0.0246
    MIXING:  cpu time    0.0000: real time    0.0007
    --------------------------------------------
      LOOP:  cpu time    0.1080: real time    0.1073

 eigenvalue-minimisations  :    72
 total energy-change (2. order) :-0.5735548E-03  (-0.1288781E-04)
 number of electron      10.0000003 magnetization 
 augmentation part        0.6341906 magnetization 

 Broyden mixing:
  rms(total) = 0.31266E-02    rms(broyden)= 0.31261E-02
  rms(prec ) = 0.82776E-02
  weight for this iteration     100.00

 eigenvalues of (default mixing * dielectric matrix)
  average eigenvalue GAMMA=   1.7463
  2.7931  2.4767  0.7323  1.0625  1.6671

 Free energy of the ion-electron system (eV)
  ---------------------------------------------------
  alpha Z        PSCENC =         0.42414827
  Ewald energy   TEWEN  =       101.37707024
  -Hartree energ DENC   =      -581.09268992
  -exchange      EXHF   =         0.00000000
  -V(xc)+E(xc)   XCENC  =        40.67866221
  PAW double counting   =       899.41314008     -900.94920883
  entropy T*S    EENTRO =        -0.00000000
  eigenvalues    EBANDS =      -151.12539834
  atomic energy  EATOM  =       576.05185114
  Solvation  Ediel_sol  =         0.00000000
  ---------------------------------------------------
  free energy    TOTEN  =       -15.22242514 eV

  energy without entropy =      -15.22242514  energy(sigma->0) =      -15.22242514


--------------------------------------------------------------------------------------------------------




--------------------------------------- Iteration      1(  11)  ---------------------------------------


    POTLOK:  cpu time    0.0160: real time    0.0160
    SETDIJ:  cpu time    0.0400: real time    0.0380
     EDDAV:  cpu time    0.0240: real time    0.0244
       DOS:  cpu time    0.0000: real time    0.0002
    CHARGE:  cpu time    0.0200: real time    0.0205
    MIXING:  cpu time    0.0000: real time    0.0008
    --------------------------------------------
      LOOP:  cpu time    0.0960: real time    0.0999

 eigenvalue-minimisations  :    72
 total energy-change (2. order) :-0.1574711E-02  (-0.4397812E-04)
 number of electron      10.0000003 magnetization 
 augmentation part        0.6340563 magnetization 

 Broyden mixing:
  rms(total) = 0.13422E-02    rms(broyden)= 0.13418E-02
  rms(prec ) = 0.36848E-02
  weight for this iteration     100.00

 eigenvalues of (default mixing * dielectric matrix)
  average eigenvalue GAMMA=   1.7792
  3.3376  2.4065  0.7323  1.0464  1.5762  1.5762

 Free energy of the ion-electron system (eV)
  ---------------------------------------------------
  alpha Z        PSCENC =         0.42414827
  Ewald energy   TEWEN  =       101.37707024
  -Hartree energ DENC   =      -581.46649512
  -exchange      EXHF   =         0.00000000
  -V(xc)+E(xc)   XCENC  =        40.69223442
  PAW double counting   =       898.14693681     -899.67847023
  entropy T*S    EENTRO =        -0.00000000
  eigenvalues    EBANDS =      -150.77127539
  atomic energy  EATOM  =       576.05185114
  Solvation  Ediel_sol  =         0.00000000
  ---------------------------------------------------
  free energy    TOTEN  =       -15.22399985 eV

  energy without entropy =      -15.22399985  energy(sigma->0) =      -15.22399985


--------------------------------------------------------------------------------------------------------




--------------------------------------- Iteration      1(  12)  ---------------------------------------


    POTLOK:  cpu time    0.0160: real time    0.0159
    SETDIJ:  cpu time    0.0400: real time    0.0380
     EDDAV:  cpu time    0.0360: real time    0.0358
       DOS:  cpu time    0.0000: real time    0.0002
    CHARGE:  cpu time    0.0200: real time    0.0206
    MIXING:  cpu time    0.0000: real time    0.0008
    --------------------------------------------
      LOOP:  cpu time    0.1120: real time    0.1113

 eigenvalue-minimisations  :   108
 total energy-change (2. order) :-0.8766392E-03  (-0.7903767E-05)
 number of electron      10.0000003 magnetization 
 augmentation part        0.6340728 magnetization 

 Broyden mixing:
  rms(total) = 0.86075E-03    rms(broyden)= 0.86068E-03
  rms(prec ) = 0.22251E-02
  weight for this iteration     100.00

 eigenvalues of (default mixing * dielectric matrix)
  average eigenvalue GAMMA=   2.0569
  4.8488  2.6679  2.3951  1.6855  0.7324  1.0067  1.0616

 Free energy of the ion-electron system (eV)
  ---------------------------------------------------
  alpha Z        PSCENC =         0.42414827
  Ewald energy   TEWEN  =       101.37707024
  -Hartree energ DENC   =      -581.53376508
  -exchange      EXHF   =         0.00000000
  -V(xc)+E(xc)   XCENC  =        40.69258675
  PAW double counting   =       898.31585726     -899.84798488
  entropy T*S    EENTRO =        -0.00000000
  eigenvalues    EBANDS =      -150.70464020
  atomic energy  EATOM  =       576.05185114
  Solvation  Ediel_sol  =         0.00000000
  ---------------------------------------------------
  free energy    TOTEN  =       -15.22487649 eV

  energy without entropy =      -15.22487649  energy(sigma->0) =      -15.22487649


--------------------------------------------------------------------------------------------------------




--------------------------------------- Iteration      1(  13)  ---------------------------------------


    POTLOK:  cpu time    0.0160: real time    0.0157
    SETDIJ:  cpu time    0.0400: real time    0.0380
     EDDAV:  cpu time    0.0360: real time    0.0371
       DOS:  cpu time    0.0000: real time    0.0002
    CHARGE:  cpu time    0.0200: real time    0.0207
    MIXING:  cpu time    0.0000: real time    0.0008
    --------------------------------------------
      LOOP:  cpu time    0.1120: real time    0.1125

 eigenvalue-minimisations  :   108
 total energy-change (2. order) :-0.6548112E-03  (-0.6519935E-05)
 number of electron      10.0000003 magnetization 
 augmentation part        0.6340312 magnetization 

 Broyden mixing:
  rms(total) = 0.47322E-03    rms(broyden)= 0.47315E-03
  rms(prec ) = 0.10468E-02
  weight for this iteration     100.00

 eigenvalues of (default mixing * dielectric matrix)
  average eigenvalue GAMMA=   2.2943
  5.9886  3.2146  2.4131  2.2505  1.7039  0.7324  1.0610  0.9900

 Free energy of the ion-electron system (eV)
  ---------------------------------------------------
  alpha Z        PSCENC =         0.42414827
  Ewald energy   TEWEN  =       101.37707024
  -Hartree energ DENC   =      -581.56302185
  -exchange      EXHF   =         0.00000000
  -V(xc)+E(xc)   XCENC  =        40.69144414
  PAW double counting   =       897.91852303     -899.45241777
  entropy T*S    EENTRO =        -0.00000000
  eigenvalues    EBANDS =      -150.67312851
  atomic energy  EATOM  =       576.05185114
  Solvation  Ediel_sol  =         0.00000000
  ---------------------------------------------------
  free energy    TOTEN  =       -15.22553130 eV

  energy without entropy =      -15.22553130  energy(sigma->0) =      -15.22553130


--------------------------------------------------------------------------------------------------------




--------------------------------------- Iteration      1(  14)  ---------------------------------------


    POTLOK:  cpu time    0.0160: real time    0.0155
    SETDIJ:  cpu time    0.0400: real time    0.0380
     EDDAV:  cpu time    0.0240: real time    0.0245
       DOS:  cpu time    0.0000: real time    0.0001
    CHARGE:  cpu time    0.0200: real time    0.0213
    MIXING:  cpu time    0.0000: real time    0.0009
    --------------------------------------------
      LOOP:  cpu time    0.1000: real time    0.1002

 eigenvalue-minimisations  :    72
 total energy-change (2. order) :-0.3598983E-03  (-0.3366894E-05)
 number of electron      10.0000003 magnetization 
 augmentation part        0.6340337 magnetization 

 Broyden mixing:
  rms(total) = 0.18735E-03    rms(broyden)= 0.18727E-03
  rms(prec ) = 0.41186E-03
  weight for this iteration     100.00

 eigenvalues of (default mixing * dielectric matrix)
  average eigenvalue GAMMA=   2.4002
  7.1296  3.8051  2.5382  2.4185  1.6538  0.7324  1.2762  0.9929  1.0552

 Free energy of the ion-electron system (eV)
  ---------------------------------------------------
  alpha Z        PSCENC =         0.42414827
  Ewald energy   TEWEN  =       101.37707024
  -Hartree energ DENC   =      -581.56620948
  -exchange      EXHF   =         0.00000000
  -V(xc)+E(xc)   XCENC  =        40.69076311
  PAW double counting   =       898.14506157     -899.67823720
  entropy T*S    EENTRO =        -0.00000000
  eigenvalues    EBANDS =      -150.67033885
  atomic energy  EATOM  =       576.05185114
  Solvation  Ediel_sol  =         0.00000000
  ---------------------------------------------------
  free energy    TOTEN  =       -15.22589120 eV

  energy without entropy =      -15.22589120  energy(sigma->0) =      -15.22589120


--------------------------------------------------------------------------------------------------------




--------------------------------------- Iteration      1(  15)  ---------------------------------------


    POTLOK:  cpu time    0.0160: real time    0.0156
    SETDIJ:  cpu time    0.0400: real time    0.0389
     EDDAV:  cpu time    0.0600: real time    0.0620
       DOS:  cpu time    0.0000: real time    0.0002
    CHARGE:  cpu time    0.0240: real time    0.0263
    MIXING:  cpu time    0.0000: real time    0.0010
    --------------------------------------------
      LOOP:  cpu time    0.1400: real time    0.1439

 eigenvalue-minimisations  :   108
 total energy-change (2. order) :-0.7503191E-04  (-0.3271364E-06)
 number of electron      10.0000003 magnetization 
 augmentation part        0.6340384 magnetization 

 Broyden mixing:
  rms(total) = 0.13854E-03    rms(broyden)= 0.13848E-03
  rms(prec ) = 0.24883E-03
  weight for this iteration     100.00

 eigenvalues of (default mixing * dielectric matrix)
  average eigenvalue GAMMA=   2.5517
  8.0749  4.2248  2.9531  2.4399  2.3329  1.6658  0.7324  1.0006  1.0006  1.0918

 Free energy of the ion-electron system (eV)
  ---------------------------------------------------
  alpha Z        PSCENC =         0.42414827
  Ewald energy   TEWEN  =       101.37707024
  -Hartree energ DENC   =      -581.55710205
  -exchange      EXHF   =         0.00000000
  -V(xc)+E(xc)   XCENC  =        40.69020200
  PAW double counting   =       898.16719148     -899.70007666
  entropy T*S    EENTRO =        -0.00000000
  eigenvalues    EBANDS =      -150.67925066
  atomic energy  EATOM  =       576.05185114
  Solvation  Ediel_sol  =         0.00000000
  ---------------------------------------------------
  free energy    TOTEN  =       -15.22596623 eV

  energy without entropy =      -15.22596623  energy(sigma->0) =      -15.22596623


--------------------------------------------------------------------------------------------------------




--------------------------------------- Iteration      1(  16)  ---------------------------------------


    POTLOK:  cpu time    0.0200: real time    0.0198
    SETDIJ:  cpu time    0.0400: real time    0.0380
     EDDAV:  cpu time    0.0240: real time    0.0252
       DOS:  cpu time    0.0000: real time    0.0010
    CHARGE:  cpu time    0.0200: real time    0.0213
    MIXING:  cpu time    0.0040: real time    0.0010
    --------------------------------------------
      LOOP:  cpu time    0.1080: real time    0.1063

 eigenvalue-minimisations  :    72
 total energy-change (2. order) :-0.4201658E-04  (-0.1700066E-06)
 number of electron      10.0000003 magnetization 
 augmentation part        0.6340316 magnetization 

 Broyden mixing:
  rms(total) = 0.63283E-04    rms(broyden)= 0.63265E-04
  rms(prec ) = 0.94817E-04
  weight for this iteration     100.00

 eigenvalues of (default mixing * dielectric matrix)
  average eigenvalue GAMMA=   2.5866
  8.4883  4.5943  3.2059  2.3969  2.3969  1.9338  1.6670  0.7324  1.0775  0.9904
  0.9695

 Free energy of the ion-electron system (eV)
  ---------------------------------------------------
  alpha Z        PSCENC =         0.42414827
  Ewald energy   TEWEN  =       101.37707024
  -Hartree energ DENC   =      -581.55998102
  -exchange      EXHF   =         0.00000000
  -V(xc)+E(xc)   XCENC  =        40.69047208
  PAW double counting   =       898.09700636     -899.63005698
  entropy T*S    EENTRO =        -0.00000000
  eigenvalues    EBANDS =      -150.67651834
  atomic energy  EATOM  =       576.05185114
  Solvation  Ediel_sol  =         0.00000000
  ---------------------------------------------------
  free energy    TOTEN  =       -15.22600825 eV

  energy without entropy =      -15.22600825  energy(sigma->0) =      -15.22600825


--------------------------------------------------------------------------------------------------------




--------------------------------------- Iteration      1(  17)  ---------------------------------------


    POTLOK:  cpu time    0.0160: real time    0.0176
    SETDIJ:  cpu time    0.0360: real time    0.0380
     EDDAV:  cpu time    0.0280: real time    0.0259
       DOS:  cpu time    0.0000: real time    0.0002
    CHARGE:  cpu time    0.0240: real time    0.0252
    MIXING:  cpu time    0.0040: real time    0.0011
    --------------------------------------------
      LOOP:  cpu time    0.1080: real time    0.1080

 eigenvalue-minimisations  :    72
 total energy-change (2. order) :-0.9675206E-05  (-0.1948585E-07)
 number of electron      10.0000003 magnetization 
 augmentation part        0.6340360 magnetization 

 Broyden mixing:
  rms(total) = 0.19731E-04    rms(broyden)= 0.19711E-04
  rms(prec ) = 0.31832E-04
  weight for this iteration     100.00

 eigenvalues of (default mixing * dielectric matrix)
  average eigenvalue GAMMA=   2.5804
  8.7047  5.1474  3.4858  2.6481  2.4107  2.0708  1.6740  0.7324  0.9651  1.0639
  1.0310  1.0310

 Free energy of the ion-electron system (eV)
  ---------------------------------------------------
  alpha Z        PSCENC =         0.42414827
  Ewald energy   TEWEN  =       101.37707024
  -Hartree energ DENC   =      -581.55787334
  -exchange      EXHF   =         0.00000000
  -V(xc)+E(xc)   XCENC  =        40.69032659
  PAW double counting   =       898.11317893     -899.64622084
  entropy T*S    EENTRO =        -0.00000000
  eigenvalues    EBANDS =      -150.67849892
  atomic energy  EATOM  =       576.05185114
  Solvation  Ediel_sol  =         0.00000000
  ---------------------------------------------------
  free energy    TOTEN  =       -15.22601792 eV

  energy without entropy =      -15.22601792  energy(sigma->0) =      -15.22601792


--------------------------------------------------------------------------------------------------------




--------------------------------------- Iteration      1(  18)  ---------------------------------------


    POTLOK:  cpu time    0.0160: real time    0.0195
    SETDIJ:  cpu time    0.0400: real time    0.0390
     EDDAV:  cpu time    0.0280: real time    0.0279
       DOS:  cpu time    0.0000: real time    0.0002
    CHARGE:  cpu time    0.0200: real time    0.0212
    MIXING:  cpu time    0.0000: real time    0.0011
    --------------------------------------------
      LOOP:  cpu time    0.1040: real time    0.1088

 eigenvalue-minimisations  :    72
 total energy-change (2. order) :-0.2797676E-05  (-0.3120324E-08)
 number of electron      10.0000003 magnetization 
 augmentation part        0.6340345 magnetization 

 Broyden mixing:
  rms(total) = 0.91063E-05    rms(broyden)= 0.91007E-05
  rms(prec ) = 0.14997E-04
  weight for this iteration     100.00

 eigenvalues of (default mixing * dielectric matrix)
  average eigenvalue GAMMA=   2.6357
  8.9115  5.4502  3.8671  2.7676  2.4351  2.4351  1.9486  1.6732  0.7324  1.0734
  0.9996  0.9855  0.9855

 Free energy of the ion-electron system (eV)
  ---------------------------------------------------
  alpha Z        PSCENC =         0.42414827
  Ewald energy   TEWEN  =       101.37707024
  -Hartree energ DENC   =      -581.55840326
  -exchange      EXHF   =         0.00000000
  -V(xc)+E(xc)   XCENC  =        40.69035357
  PAW double counting   =       898.11095490     -899.64402157
  entropy T*S    EENTRO =        -0.00000000
  eigenvalues    EBANDS =      -150.67797402
  atomic energy  EATOM  =       576.05185114
  Solvation  Ediel_sol  =         0.00000000
  ---------------------------------------------------
  free energy    TOTEN  =       -15.22602072 eV

  energy without entropy =      -15.22602072  energy(sigma->0) =      -15.22602072


--------------------------------------------------------------------------------------------------------




--------------------------------------- Iteration      1(  19)  ---------------------------------------


    POTLOK:  cpu time    0.0200: real time    0.0169
    SETDIJ:  cpu time    0.0360: real time    0.0380
     EDDAV:  cpu time    0.0240: real time    0.0251
       DOS:  cpu time    0.0000: real time    0.0002
    CHARGE:  cpu time    0.0280: real time    0.0257
    MIXING:  cpu time    0.0000: real time    0.0011
    --------------------------------------------
      LOOP:  cpu time    0.1080: real time    0.1071

 eigenvalue-minimisations  :    72
 total energy-change (2. order) :-0.1514661E-05  (-0.1555048E-08)
 number of electron      10.0000003 magnetization 
 augmentation part        0.6340343 magnetization 

 Broyden mixing:
  rms(total) = 0.21648E-05    rms(broyden)= 0.21633E-05
  rms(prec ) = 0.49959E-05
  weight for this iteration     100.00

 eigenvalues of (default mixing * dielectric matrix)
  average eigenvalue GAMMA=   2.5903
  8.9085  5.6313  3.9963  3.0720  2.5427  2.3959  2.0112  1.6775  0.7324  1.2661
  1.0813  0.9776  0.9776  0.9934

 Free energy of the ion-electron system (eV)
  ---------------------------------------------------
  alpha Z        PSCENC =         0.42414827
  Ewald energy   TEWEN  =       101.37707024
  -Hartree energ DENC   =      -581.55849776
  -exchange      EXHF   =         0.00000000
  -V(xc)+E(xc)   XCENC  =        40.69035921
  PAW double counting   =       898.11427047     -899.64732834
  entropy T*S    EENTRO =        -0.00000000
  eigenvalues    EBANDS =      -150.67789547
  atomic energy  EATOM  =       576.05185114
  Solvation  Ediel_sol  =         0.00000000
  ---------------------------------------------------
  free energy    TOTEN  =       -15.22602223 eV

  energy without entropy =      -15.22602223  energy(sigma->0) =      -15.22602223


--------------------------------------------------------------------------------------------------------




--------------------------------------- Iteration      1(  20)  ---------------------------------------


    POTLOK:  cpu time    0.0200: real time    0.0184
    SETDIJ:  cpu time    0.0360: real time    0.0380
     EDDAV:  cpu time    0.0240: real time    0.0243
       DOS:  cpu time    0.0000: real time    0.0002
    --------------------------------------------
      LOOP:  cpu time    0.0800: real time    0.0810

 eigenvalue-minimisations  :    72
 total energy-change (2. order) :-0.1598901E-06  (-0.7432988E-10)
 number of electron      10.0000003 magnetization 
 augmentation part        0.6340343 magnetization 

 Free energy of the ion-electron system (eV)
  ---------------------------------------------------
  alpha Z        PSCENC =         0.42414827
  Ewald energy   TEWEN  =       101.37707024
  -Hartree energ DENC   =      -581.55845606
  -exchange      EXHF   =         0.00000000
  -V(xc)+E(xc)   XCENC  =        40.69035762
  PAW double counting   =       898.11519121     -899.64824726
  entropy T*S    EENTRO =        -0.00000000
  eigenvalues    EBANDS =      -150.67793756
  atomic energy  EATOM  =       576.05185114
  Solvation  Ediel_sol  =         0.00000000
  ---------------------------------------------------
  free energy    TOTEN  =       -15.22602239 eV

  energy without entropy =      -15.22602239  energy(sigma->0) =      -15.22602239


--------------------------------------------------------------------------------------------------------




 average (electrostatic) potential at core
  the test charge radii are     0.6991  0.7215
  (the norm of the test charge is              1.0000)
       1 -61.7958       2 -83.6338
 
 
 
 E-fermi :  -8.3801     XC(G=0):  -0.6472     alpha+bet : -0.1700


 k-point     1 :       0.0000    0.0000    0.0000
  band No.  band energies     occupation 
      1     -29.1867      2.00000
      2     -13.9329      2.00000
      3     -11.6732      2.00000
      4     -11.6724      2.00000
      5      -8.8738      2.00000
      6      -1.9563      0.00000
      7      -1.9538      0.00000
      8      -0.2005      0.00000
      9       1.0934      0.00000
     10       1.1513      0.00000
     11       1.1772      0.00000
     12       1.2715      0.00000
     13       1.2958      0.00000
     14       1.3812      0.00000
     15       2.4924      0.00000
     16       2.5144      0.00000
     17       2.5492      0.00000
     18       2.5583      0.00000
     19       2.7242      0.00000
     20       2.7254      0.00000
     21       2.7438      0.00000
     22       2.7732      0.00000
     23       2.8194      0.00000
     24       2.8425      0.00000
     25       2.8440      0.00000
     26       3.0754      0.00000
     27       4.0545      0.00000
     28       4.1530      0.00000
     29       4.1533      0.00000
     30       4.1568      0.00000
     31       4.1730      0.00000
     32       4.2651      0.00000
     33       4.2664      0.00000
     34       4.4216      0.00000
     35       4.9798      0.00000
     36       5.3243      0.00000


--------------------------------------------------------------------------------------------------------


 soft charge-density along one line, spin component           1
         0         1         2         3         4         5         6         7         8         9
 total charge-density along one line
 
 pseudopotential strength for first ion, spin component:           1
 10.413  13.853  -0.000   0.000   0.036   0.000  -0.000  -0.108
 13.853  18.429  -0.000   0.000   0.047   0.000  -0.000  -0.143
 -0.000  -0.000  -4.576   0.000  -0.000   8.946   0.000   0.000
  0.000   0.000   0.000  -4.576  -0.000   0.000   8.946   0.000
  0.036   0.047  -0.000  -0.000  -4.621   0.000   0.000   9.024
  0.000   0.000   8.946   0.000   0.000 -19.635  -0.000  -0.000
 -0.000  -0.000   0.000   8.946   0.000  -0.000 -19.635  -0.000
 -0.108  -0.143   0.000   0.000   9.024  -0.000  -0.000 -19.770
 total augmentation occupancy for first ion, spin component:           1
  7.079  -3.248   0.000   0.000   2.242   0.000   0.000   0.397
 -3.248   1.929   0.000   0.000  -1.718   0.000   0.000  -0.252
  0.000   0.000   0.868   0.000   0.000   0.079   0.000   0.000
  0.000   0.000   0.000   0.870   0.000   0.000   0.079   0.000
  2.242  -1.718   0.000   0.000   2.357   0.000   0.000   0.260
  0.000   0.000   0.079   0.000   0.000   0.007   0.000   0.000
  0.000   0.000   0.000   0.079   0.000   0.000   0.007   0.000
  0.397  -0.252   0.000   0.000   0.260   0.000   0.000   0.034


------------------------ aborting loop because EDIFF is reached ----------------------------------------


 


 total charge     
 
# of ion       s       p       d       tot
------------------------------------------
    1        1.027   1.447   0.000   2.474
    2        1.704   3.592   0.000   5.296
--------------------------------------------------
tot          2.731   5.039   0.000   7.770
 
    CHARGE:  cpu time    0.0200: real time    0.0225
    FORLOC:  cpu time    0.0000: real time    0.0007
    FORNL :  cpu time    0.0080: real time    0.0067
    STRESS:  cpu time    0.0160: real time    0.0184
    FORCOR:  cpu time    0.0160: real time    0.0137
    FORHAR:  cpu time    0.0040: real time    0.0038
    MIXING:  cpu time    0.0000: real time    0.0011
    OFIELD:  cpu time    0.0000: real time    0.0000

  FORCE on cell =-STRESS in cart. coord.  units (eV):
  Direction    XX          YY          ZZ          XY          YZ          ZX
  --------------------------------------------------------------------------------------
  Alpha Z     0.42415     0.42415     0.42415
  Ewald     239.09150   -67.85366   -69.86081     0.00000    -0.00000     0.00000
  Hartree   268.02918   157.73865   155.79065    -0.00000    -0.00000    -0.00000
  E(xc)     -42.36700   -42.81577   -42.81547    -0.00000    -0.00000     0.00000
  Local    -618.73496  -228.25749  -224.30910     0.00000     0.00000     0.00000
  n-local   -31.30024   -19.64620   -19.64482    -0.00000     0.00000     0.00000
  augment     5.73415     6.16232     6.16361    -0.00000     0.00000    -0.00000
  Kinetic   175.13485   190.55730   190.55448     0.00000    -0.00000    -0.00000
  Fock        0.00000     0.00000     0.00000     0.00000     0.00000     0.00000
  -------------------------------------------------------------------------------------
  Total      -3.98837    -3.69070    -3.69732     0.00000     0.00000     0.00000
  in kB      -6.20276    -5.73982    -5.75010     0.00000     0.00000     0.00000
  external pressure =       -5.90 kB  Pullay stress =        0.00 kB


 VOLUME and BASIS-vectors are now :
 -----------------------------------------------------------------------------
  energy-cutoff  :      325.00
  volume of cell :     1030.20
      direct lattice vectors                 reciprocal lattice vectors
    10.000000000  0.000000000  0.000000000     0.100000000  0.000000000  0.000000000
     0.000000000 10.100000000  0.000000000     0.000000000  0.099009901  0.000000000
     0.000000000  0.000000000 10.200000000     0.000000000  0.000000000  0.098039216

  length of vectors
    10.000000000 10.100000000 10.200000000     0.100000000  0.099009901  0.098039216


 FORCES acting on ions
    electron-ion (+dipol)            ewald-force                    non-local-force                 convergence-correction
 -----------------------------------------------------------------------------------------------
   0.235E+03 0.501E-15 -.130E-05   -.263E+03 -.680E-17 -.136E-16   0.279E+02 0.000E+00 0.000E+00   -.202E-04 0.244E-13 -.278E-13
   -.203E+03 0.364E-14 0.158E-05   0.263E+03 0.241E-16 0.100E-17   -.600E+02 0.000E+00 0.000E+00   0.220E-04 0.659E-13 -.592E-13
 -----------------------------------------------------------------------------------------------
   0.321E+02 0.414E-14 0.280E-06   0.000E+00 0.173E-16 -.125E-16   -.321E+02 0.000E+00 0.000E+00   0.179E-05 0.902E-13 -.870E-13
 
 
 POSITION                                       TOTAL-FORCE (eV/Angst)
 -----------------------------------------------------------------------------------
      9.42905      0.00000      0.00000         0.000919      0.000000      0.000000
      0.57095      0.00000      0.00000        -0.000919      0.000000      0.000000
 -----------------------------------------------------------------------------------
    total drift:                                0.012327      0.000000      0.000000


--------------------------------------------------------------------------------------------------------



  FREE ENERGIE OF THE ION-ELECTRON SYSTEM (eV)
  ---------------------------------------------------
  free  energy   TOTEN  =       -15.22602239 eV

  energy  without entropy=      -15.22602239  energy(sigma->0) =      -15.22602239
 


--------------------------------------------------------------------------------------------------------


    POTLOK:  cpu time    0.0560: real time    0.0546


--------------------------------------------------------------------------------------------------------




--------------------------------------------------------------------------------------------------------


  
 reached required accuracy - stopping structural energy minimisation
     LOOP+:  cpu time    2.0880: real time    2.1352
    4ORBIT:  cpu time    0.0000: real time    0.0000
 


 total charge     
 
# of ion       s       p       d       tot
------------------------------------------
    1        1.027   1.447   0.000   2.474
    2        1.704   3.592   0.000   5.296
--------------------------------------------------
tot          2.731   5.039   0.000   7.770
 

 total amount of memory used by VASP MPI-rank0    37716. kBytes
=======================================================================

   base      :      30000. kBytes
   nonlr-proj:        178. kBytes
   fftplans  :       1394. kBytes
   grid      :       6031. kBytes
   one-center:          3. kBytes
   wavefun   :        110. kBytes
 
  
  
 General timing and accounting informations for this job:
 ========================================================
  
                  Total CPU time used (sec):        2.760
                            User time (sec):        2.448
                          System time (sec):        0.312
                         Elapsed time (sec):        3.062
  
                   Maximum memory used (kb):       68736.
                   Average memory used (kb):           0.
  
                          Minor page faults:        73219
                          Major page faults:            8
                 Voluntary context switches:         2272
