PROCAR lm decomposed + phase
# of k-points:    1         # of bands:   36         # of ions:    2

 k-point     1 :    0.00000000 0.00000000 0.00000000     weight = 1.00000000

band     1 # energy  -29.18667825 # occ.  2.00000000
 
ion      s     py     pz     px    dxy    dyz    dz2    dxz  x2-y2    tot
    1  0.161  0.000  0.000  0.128  0.000  0.000  0.000  0.000  0.000  0.289
    2  0.678  0.000  0.000  0.101  0.000  0.000  0.000  0.000  0.000  0.778
tot    0.838  0.000  0.000  0.229  0.000  0.000  0.000  0.000  0.000  1.067
ion          s             py             pz             px             dxy            dyz            dz2            dxz          dx2-y2  
    1 -0.398  0.000   0.000  0.000   0.000  0.000  -0.309  0.000   0.000  0.000   0.000  0.000   0.000  0.000   0.000  0.000   0.000  0.000   0.254
    2 -0.806  0.000   0.000  0.000  -0.000  0.000   0.298  0.000   0.000  0.000   0.000  0.000   0.000  0.000   0.000  0.000   0.000  0.000   0.738
charge 0.807          0.000          0.000          0.184          0.000          0.000          0.000          0.000          0.000          0.992       
 
band     2 # energy  -13.93294893 # occ.  2.00000000
 
ion      s     py     pz     px    dxy    dyz    dz2    dxz  x2-y2    tot
    1  0.184  0.000  0.000  0.019  0.000  0.000  0.000  0.000  0.000  0.202
    2  0.173  0.000  0.000  0.455  0.000  0.000  0.000  0.000  0.000  0.629
tot    0.357  0.000  0.000  0.474  0.000  0.000  0.000  0.000  0.000  0.831
ion          s             py             pz             px             dxy            dyz            dz2            dxz          dx2-y2  
    1 -0.428  0.000   0.000  0.000  -0.000  0.000  -0.125  0.000   0.000  0.000   0.000  0.000   0.000  0.000   0.000  0.000   0.000  0.000   0.199
    2  0.416  0.000   0.000  0.000  -0.000  0.000   0.649  0.000   0.000  0.000   0.000  0.000   0.000  0.000   0.000  0.000   0.000  0.000   0.594
charge 0.356          0.000          0.000          0.437          0.000          0.000          0.000          0.000          0.000          0.793       
 
band     3 # energy  -11.67315277 # occ.  2.00000000
 
ion      s     py     pz     px    dxy    dyz    dz2    dxz  x2-y2    tot
    1  0.000  0.158  0.000  0.000  0.000  0.000  0.000  0.000  0.000  0.158
    2  0.000  0.552  0.000  0.000  0.000  0.000  0.000  0.000  0.000  0.552
tot    0.000  0.710  0.000  0.000  0.000  0.000  0.000  0.000  0.000  0.710
ion          s             py             pz             px             dxy            dyz            dz2            dxz          dx2-y2  
    1 -0.000  0.000  -0.359  0.000  -0.000  0.000  -0.000  0.000   0.000  0.000   0.000  0.000   0.000  0.000   0.000  0.000   0.000  0.000   0.129
    2  0.000  0.000  -0.721  0.000  -0.000  0.000   0.000  0.000   0.000  0.000   0.000  0.000   0.000  0.000   0.000  0.000   0.000  0.000   0.519
charge 0.000          0.648          0.000          0.000          0.000          0.000          0.000          0.000          0.000          0.648       
 
band     4 # energy  -11.67243665 # occ.  2.00000000
 
ion      s     py     pz     px    dxy    dyz    dz2    dxz  x2-y2    tot
    1  0.000  0.000  0.158  0.000  0.000  0.000  0.000  0.000  0.000  0.158
    2  0.000  0.000  0.552  0.000  0.000  0.000  0.000  0.000  0.000  0.552
tot    0.000  0.000  0.710  0.000  0.000  0.000  0.000  0.000  0.000  0.710
ion          s             py             pz             px             dxy            dyz            dz2            dxz          dx2-y2  
    1  0.000  0.000   0.000  0.000  -0.359  0.000   0.000  0.000   0.000  0.000   0.000  0.000   0.000  0.000   0.000  0.000   0.000  0.000   0.129
    2 -0.000  0.000   0.000  0.000  -0.721  0.000  -0.000  0.000   0.000  0.000   0.000  0.000   0.000  0.000   0.000  0.000   0.000  0.000   0.519
charge 0.000          0.000          0.648          0.000          0.000          0.000          0.000          0.000          0.000          0.648       
 
band     5 # energy   -8.87375219 # occ.  2.00000000
 
ion      s     py     pz     px    dxy    dyz    dz2    dxz  x2-y2    tot
    1  0.169  0.000  0.000  0.262  0.000  0.000  0.000  0.000  0.000  0.431
    2  0.001  0.000  0.000  0.136  0.000  0.000  0.000  0.000  0.000  0.137
tot    0.170  0.000  0.000  0.397  0.000  0.000  0.000  0.000  0.000  0.567
ion          s             py             pz             px             dxy            dyz            dz2            dxz          dx2-y2  
    1 -0.411  0.000   0.000  0.000  -0.000  0.000   0.467  0.000   0.000  0.000   0.000  0.000   0.000  0.000   0.000  0.000   0.000  0.000   0.387
    2  0.031  0.000  -0.000  0.000   0.000  0.000  -0.361  0.000   0.000  0.000   0.000  0.000   0.000  0.000   0.000  0.000   0.000  0.000   0.131
charge 0.170          0.000          0.000          0.348          0.000          0.000          0.000          0.000          0.000          0.518       
 
band     6 # energy   -1.95625154 # occ.  0.00000000
 
ion      s     py     pz     px    dxy    dyz    dz2    dxz  x2-y2    tot
    1  0.000  0.000  0.312  0.000  0.000  0.000  0.000  0.000  0.000  0.312
    2  0.000  0.000  0.206  0.000  0.000  0.000  0.000  0.000  0.000  0.206
tot    0.000  0.000  0.518  0.000  0.000  0.000  0.000  0.000  0.000  0.518
ion          s             py             pz             px             dxy            dyz            dz2            dxz          dx2-y2  
    1  0.000  0.000  -0.000  0.000  -0.521  0.000  -0.000  0.000   0.000  0.000   0.000  0.000   0.000  0.000   0.000  0.000   0.000  0.000   0.271
    2 -0.000  0.000   0.000  0.000   0.451  0.000  -0.000  0.000   0.000  0.000   0.000  0.000   0.000  0.000   0.000  0.000   0.000  0.000   0.203
charge 0.000          0.000          0.474          0.000          0.000          0.000          0.000          0.000          0.000          0.474       
 
band     7 # energy   -1.95378556 # occ.  0.00000000
 
ion      s     py     pz     px    dxy    dyz    dz2    dxz  x2-y2    tot
    1  0.000  0.312  0.000  0.000  0.000  0.000  0.000  0.000  0.000  0.312
    2  0.000  0.206  0.000  0.000  0.000  0.000  0.000  0.000  0.000  0.206
tot    0.000  0.518  0.000  0.000  0.000  0.000  0.000  0.000  0.000  0.518
ion          s             py             pz             px             dxy            dyz            dz2            dxz          dx2-y2  
    1 -0.000  0.000  -0.521  0.000   0.000  0.000   0.000  0.000   0.000  0.000   0.000  0.000   0.000  0.000   0.000  0.000   0.000  0.000   0.271
    2 -0.000  0.000   0.451  0.000  -0.000  0.000   0.000  0.000   0.000  0.000   0.000  0.000   0.000  0.000   0.000  0.000   0.000  0.000   0.203
charge 0.000          0.474          0.000          0.000          0.000          0.000          0.000          0.000          0.000          0.474       
 
band     8 # energy   -0.20049669 # occ.  0.00000000
 
ion      s     py     pz     px    dxy    dyz    dz2    dxz  x2-y2    tot
    1  0.005  0.000  0.000  0.005  0.000  0.000  0.000  0.000  0.000  0.010
    2  0.002  0.000  0.000  0.002  0.000  0.000  0.000  0.000  0.000  0.005
tot    0.007  0.000  0.000  0.007  0.000  0.000  0.000  0.000  0.000  0.014
ion          s             py             pz             px             dxy            dyz            dz2            dxz          dx2-y2  
    1 -0.069  0.000  -0.000  0.000  -0.000  0.000   0.065  0.000   0.000  0.000   0.000  0.000   0.000  0.000   0.000  0.000   0.000  0.000   0.009
    2 -0.048  0.000  -0.000  0.000   0.000  0.000  -0.047  0.000   0.000  0.000   0.000  0.000   0.000  0.000   0.000  0.000   0.000  0.000   0.005
charge 0.007          0.000          0.000          0.006          0.000          0.000          0.000          0.000          0.000          0.014       
 
band     9 # energy    1.09344885 # occ.  0.00000000
 
ion      s     py     pz     px    dxy    dyz    dz2    dxz  x2-y2    tot
    1  0.000  0.000  0.000  0.000  0.000  0.000  0.000  0.000  0.000  0.001
    2  0.010  0.000  0.000  0.001  0.000  0.000  0.000  0.000  0.000  0.011
tot    0.010  0.000  0.000  0.001  0.000  0.000  0.000  0.000  0.000  0.011
ion          s             py             pz             px             dxy            dyz            dz2            dxz          dx2-y2  
    1  0.018  0.000  -0.000  0.000  -0.000  0.000   0.017  0.000   0.000  0.000   0.000  0.000   0.000  0.000   0.000  0.000   0.000  0.000   0.001
    2 -0.097  0.000  -0.000  0.000   0.000  0.000  -0.022  0.000   0.000  0.000   0.000  0.000   0.000  0.000   0.000  0.000   0.000  0.000   0.010
charge 0.010          0.000          0.000          0.001          0.000          0.000          0.000          0.000          0.000          0.011       
 
band    10 # energy    1.15130794 # occ.  0.00000000
 
ion      s     py     pz     px    dxy    dyz    dz2    dxz  x2-y2    tot
    1  0.000  0.000  0.021  0.000  0.000  0.000  0.000  0.000  0.000  0.021
    2  0.000  0.000  0.000  0.000  0.000  0.000  0.000  0.000  0.000  0.000
tot    0.000  0.000  0.021  0.000  0.000  0.000  0.000  0.000  0.000  0.021
ion          s             py             pz             px             dxy            dyz            dz2            dxz          dx2-y2  
    1  0.000  0.000  -0.000  0.000  -0.137  0.000   0.000  0.000   0.000  0.000   0.000  0.000   0.000  0.000   0.000  0.000   0.000  0.000   0.019
    2 -0.000  0.000  -0.000  0.000  -0.011  0.000   0.000  0.000   0.000  0.000   0.000  0.000   0.000  0.000   0.000  0.000   0.000  0.000   0.000
charge 0.000          0.000          0.019          0.000          0.000          0.000          0.000          0.000          0.000          0.019       
 
band    11 # energy    1.17724877 # occ.  0.00000000
 
ion      s     py     pz     px    dxy    dyz    dz2    dxz  x2-y2    tot
    1  0.000  0.021  0.000  0.000  0.000  0.000  0.000  0.000  0.000  0.021
    2  0.000  0.000  0.000  0.000  0.000  0.000  0.000  0.000  0.000  0.000
tot    0.000  0.021  0.000  0.000  0.000  0.000  0.000  0.000  0.000  0.021
ion          s             py             pz             px             dxy            dyz            dz2            dxz          dx2-y2  
    1  0.000  0.000  -0.137  0.000   0.000  0.000   0.000  0.000   0.000  0.000   0.000  0.000   0.000  0.000   0.000  0.000   0.000  0.000   0.019
    2 -0.000  0.000  -0.011  0.000   0.000  0.000   0.000  0.000   0.000  0.000   0.000  0.000   0.000  0.000   0.000  0.000   0.000  0.000   0.000
charge 0.000          0.019          0.000          0.000          0.000          0.000          0.000          0.000          0.000          0.019       
 
band    12 # energy    1.27150860 # occ.  0.00000000
 
ion      s     py     pz     px    dxy    dyz    dz2    dxz  x2-y2    tot
    1  0.000  0.000  0.000  0.000  0.000  0.000  0.000  0.000  0.000  0.000
    2  0.000  0.000  0.000  0.000  0.000  0.000  0.000  0.000  0.000  0.000
tot    0.000  0.000  0.000  0.000  0.000  0.000  0.000  0.000  0.000  0.000
ion          s             py             pz             px             dxy            dyz            dz2            dxz          dx2-y2  
    1  0.010  0.000   0.000  0.000   0.000  0.000  -0.009  0.000   0.000  0.000   0.000  0.000   0.000  0.000   0.000  0.000   0.000  0.000   0.000
    2  0.003  0.000   0.000  0.000  -0.000  0.000   0.007  0.000   0.000  0.000   0.000  0.000   0.000  0.000   0.000  0.000   0.000  0.000   0.000
charge 0.000          0.000          0.000          0.000          0.000          0.000          0.000          0.000          0.000          0.000       
 
band    13 # energy    1.29581079 # occ.  0.00000000
 
ion      s     py     pz     px    dxy    dyz    dz2    dxz  x2-y2    tot
    1  0.003  0.000  0.000  0.000  0.000  0.000  0.000  0.000  0.000  0.003
    2  0.000  0.000  0.000  0.000  0.000  0.000  0.000  0.000  0.000  0.001
tot    0.003  0.000  0.000  0.001  0.000  0.000  0.000  0.000  0.000  0.004
ion          s             py             pz             px             dxy            dyz            dz2            dxz          dx2-y2  
    1  0.055  0.000  -0.000  0.000  -0.000  0.000  -0.018  0.000   0.000  0.000   0.000  0.000   0.000  0.000   0.000  0.000   0.000  0.000   0.003
    2 -0.012  0.000  -0.000  0.000  -0.000  0.000  -0.022  0.000   0.000  0.000   0.000  0.000   0.000  0.000   0.000  0.000   0.000  0.000   0.001
charge 0.003          0.000          0.000          0.001          0.000          0.000          0.000          0.000          0.000          0.004       
 
band    14 # energy    1.38123992 # occ.  0.00000000
 
ion      s     py     pz     px    dxy    dyz    dz2    dxz  x2-y2    tot
    1  0.009  0.000  0.000  0.007  0.000  0.000  0.000  0.000  0.000  0.016
    2  0.001  0.000  0.000  0.002  0.000  0.000  0.000  0.000  0.000  0.004
tot    0.010  0.000  0.000  0.009  0.000  0.000  0.000  0.000  0.000  0.020
ion          s             py             pz             px             dxy            dyz            dz2            dxz          dx2-y2  
    1  0.094  0.000  -0.000  0.000  -0.000  0.000  -0.077  0.000   0.000  0.000   0.000  0.000   0.000  0.000   0.000  0.000   0.000  0.000   0.015
    2  0.036  0.000  -0.000  0.000   0.000  0.000   0.050  0.000   0.000  0.000   0.000  0.000   0.000  0.000   0.000  0.000   0.000  0.000   0.004
charge 0.010          0.000          0.000          0.008          0.000          0.000          0.000          0.000          0.000          0.019       
 
band    15 # energy    2.49236815 # occ.  0.00000000
 
ion      s     py     pz     px    dxy    dyz    dz2    dxz  x2-y2    tot
    1  0.000  0.000  0.000  0.000  0.000  0.000  0.000  0.000  0.000  0.000
    2  0.000  0.000  0.000  0.000  0.000  0.000  0.000  0.000  0.000  0.000
tot    0.000  0.000  0.000  0.000  0.000  0.000  0.000  0.000  0.000  0.000
ion          s             py             pz             px             dxy            dyz            dz2            dxz          dx2-y2  
    1  0.000  0.000  -0.000  0.000   0.000  0.000   0.000  0.000   0.000  0.000   0.000  0.000   0.000  0.000   0.000  0.000   0.000  0.000   0.000
    2 -0.000  0.000  -0.000  0.000   0.000  0.000   0.000  0.000   0.000  0.000   0.000  0.000   0.000  0.000   0.000  0.000   0.000  0.000   0.000
charge 0.000          0.000          0.000          0.000          0.000          0.000          0.000          0.000          0.000          0.000       
 
band    16 # energy    2.51439465 # occ.  0.00000000
 
ion      s     py     pz     px    dxy    dyz    dz2    dxz  x2-y2    tot
    1  0.002  0.000  0.000  0.000  0.000  0.000  0.000  0.000  0.000  0.002
    2  0.009  0.000  0.000  0.000  0.000  0.000  0.000  0.000  0.000  0.009
tot    0.011  0.000  0.000  0.000  0.000  0.000  0.000  0.000  0.000  0.011
ion          s             py             pz             px             dxy            dyz            dz2            dxz          dx2-y2  
    1  0.046  0.000   0.000  0.000   0.000  0.000   0.002  0.000   0.000  0.000   0.000  0.000   0.000  0.000   0.000  0.000   0.000  0.000   0.002
    2 -0.091  0.000   0.000  0.000  -0.000  0.000   0.004  0.000   0.000  0.000   0.000  0.000   0.000  0.000   0.000  0.000   0.000  0.000   0.008
charge 0.010          0.000          0.000          0.000          0.000          0.000          0.000          0.000          0.000          0.010       
 
band    17 # energy    2.54922403 # occ.  0.00000000
 
ion      s     py     pz     px    dxy    dyz    dz2    dxz  x2-y2    tot
    1  0.000  0.000  0.007  0.000  0.000  0.000  0.000  0.000  0.000  0.007
    2  0.000  0.000  0.005  0.000  0.000  0.000  0.000  0.000  0.000  0.005
tot    0.000  0.000  0.012  0.000  0.000  0.000  0.000  0.000  0.000  0.012
ion          s             py             pz             px             dxy            dyz            dz2            dxz          dx2-y2  
    1  0.000  0.000  -0.000  0.000  -0.079  0.000   0.000  0.000   0.000  0.000   0.000  0.000   0.000  0.000   0.000  0.000   0.000  0.000   0.006
    2 -0.000  0.000  -0.000  0.000  -0.074  0.000   0.000  0.000   0.000  0.000   0.000  0.000   0.000  0.000   0.000  0.000   0.000  0.000   0.005
charge 0.000          0.000          0.012          0.000          0.000          0.000          0.000          0.000          0.000          0.012       
 
band    18 # energy    2.55834240 # occ.  0.00000000
 
ion      s     py     pz     px    dxy    dyz    dz2    dxz  x2-y2    tot
    1  0.000  0.008  0.000  0.000  0.000  0.000  0.000  0.000  0.000  0.008
    2  0.000  0.005  0.000  0.000  0.000  0.000  0.000  0.000  0.000  0.005
tot    0.000  0.013  0.000  0.000  0.000  0.000  0.000  0.000  0.000  0.013
ion          s             py             pz             px             dxy            dyz            dz2            dxz          dx2-y2  
    1  0.000  0.000  -0.085  0.000   0.000  0.000   0.000  0.000   0.000  0.000   0.000  0.000   0.000  0.000   0.000  0.000   0.000  0.000   0.007
    2 -0.000  0.000  -0.071  0.000   0.000  0.000   0.000  0.000   0.000  0.000   0.000  0.000   0.000  0.000   0.000  0.000   0.000  0.000   0.005
charge 0.000          0.012          0.000          0.000          0.000          0.000          0.000          0.000          0.000          0.012       
 
band    19 # energy    2.72415729 # occ.  0.00000000
 
ion      s     py     pz     px    dxy    dyz    dz2    dxz  x2-y2    tot
    1  0.000  0.000  0.020  0.000  0.000  0.000  0.000  0.000  0.000  0.020
    2  0.000  0.000  0.006  0.000  0.000  0.000  0.000  0.000  0.000  0.006
tot    0.000  0.000  0.026  0.000  0.000  0.000  0.000  0.000  0.000  0.026
ion          s             py             pz             px             dxy            dyz            dz2            dxz          dx2-y2  
    1  0.000  0.000  -0.000  0.000  -0.133  0.000   0.000  0.000   0.000  0.000   0.000  0.000   0.000  0.000   0.000  0.000   0.000  0.000   0.018
    2 -0.000  0.000   0.000  0.000   0.077  0.000   0.000  0.000   0.000  0.000   0.000  0.000   0.000  0.000   0.000  0.000   0.000  0.000   0.006
charge 0.000          0.000          0.024          0.000          0.000          0.000          0.000          0.000          0.000          0.024       
 
band    20 # energy    2.72540501 # occ.  0.00000000
 
ion      s     py     pz     px    dxy    dyz    dz2    dxz  x2-y2    tot
    1  0.002  0.000  0.000  0.000  0.000  0.000  0.000  0.000  0.000  0.002
    2  0.001  0.000  0.000  0.001  0.000  0.000  0.000  0.000  0.000  0.002
tot    0.002  0.000  0.000  0.001  0.000  0.000  0.000  0.000  0.000  0.004
ion          s             py             pz             px             dxy            dyz            dz2            dxz          dx2-y2  
    1 -0.043  0.000  -0.000  0.000   0.000  0.000   0.002  0.000   0.000  0.000   0.000  0.000   0.000  0.000   0.000  0.000   0.000  0.000   0.002
    2  0.022  0.000   0.000  0.000   0.000  0.000   0.034  0.000   0.000  0.000   0.000  0.000   0.000  0.000   0.000  0.000   0.000  0.000   0.002
charge 0.002          0.000          0.000          0.001          0.000          0.000          0.000          0.000          0.000          0.003       
 
band    21 # energy    2.74381051 # occ.  0.00000000
 
ion      s     py     pz     px    dxy    dyz    dz2    dxz  x2-y2    tot
    1  0.000  0.018  0.000  0.000  0.000  0.000  0.000  0.000  0.000  0.018
    2  0.000  0.006  0.000  0.000  0.000  0.000  0.000  0.000  0.000  0.006
tot    0.000  0.024  0.000  0.000  0.000  0.000  0.000  0.000  0.000  0.024
ion          s             py             pz             px             dxy            dyz            dz2            dxz          dx2-y2  
    1 -0.000  0.000   0.126  0.000  -0.000  0.000  -0.000  0.000   0.000  0.000   0.000  0.000   0.000  0.000   0.000  0.000   0.000  0.000   0.016
    2  0.000  0.000  -0.080  0.000   0.000  0.000   0.000  0.000   0.000  0.000   0.000  0.000   0.000  0.000   0.000  0.000   0.000  0.000   0.006
charge 0.000          0.022          0.000          0.000          0.000          0.000          0.000          0.000          0.000          0.022       
 
band    22 # energy    2.77322955 # occ.  0.00000000
 
ion      s     py     pz     px    dxy    dyz    dz2    dxz  x2-y2    tot
    1  0.000  0.000  0.000  0.000  0.000  0.000  0.000  0.000  0.000  0.000
    2  0.000  0.000  0.000  0.000  0.000  0.000  0.000  0.000  0.000  0.000
tot    0.000  0.000  0.000  0.000  0.000  0.000  0.000  0.000  0.000  0.000
ion          s             py             pz             px             dxy            dyz            dz2            dxz          dx2-y2  
    1  0.008  0.000   0.000  0.000  -0.000  0.000   0.001  0.000   0.000  0.000   0.000  0.000   0.000  0.000   0.000  0.000   0.000  0.000   0.000
    2 -0.004  0.000  -0.000  0.000   0.000  0.000  -0.010  0.000   0.000  0.000   0.000  0.000   0.000  0.000   0.000  0.000   0.000  0.000   0.000
charge 0.000          0.000          0.000          0.000          0.000          0.000          0.000          0.000          0.000          0.000       
 
band    23 # energy    2.81942954 # occ.  0.00000000
 
ion      s     py     pz     px    dxy    dyz    dz2    dxz  x2-y2    tot
    1  0.000  0.000  0.002  0.000  0.000  0.000  0.000  0.000  0.000  0.002
    2  0.000  0.000  0.000  0.000  0.000  0.000  0.000  0.000  0.000  0.000
tot    0.000  0.000  0.003  0.000  0.000  0.000  0.000  0.000  0.000  0.003
ion          s             py             pz             px             dxy            dyz            dz2            dxz          dx2-y2  
    1  0.000  0.000  -0.000  0.000  -0.046  0.000   0.000  0.000   0.000  0.000   0.000  0.000   0.000  0.000   0.000  0.000   0.000  0.000   0.002
    2 -0.000  0.000   0.000  0.000   0.022  0.000   0.000  0.000   0.000  0.000   0.000  0.000   0.000  0.000   0.000  0.000   0.000  0.000   0.000
charge 0.000          0.000          0.003          0.000          0.000          0.000          0.000          0.000          0.000          0.003       
 
band    24 # energy    2.84248222 # occ.  0.00000000
 
ion      s     py     pz     px    dxy    dyz    dz2    dxz  x2-y2    tot
    1  0.000  0.004  0.000  0.000  0.000  0.000  0.000  0.000  0.000  0.004
    2  0.000  0.001  0.000  0.000  0.000  0.000  0.000  0.000  0.000  0.001
tot    0.000  0.004  0.000  0.000  0.000  0.000  0.000  0.000  0.000  0.004
ion          s             py             pz             px             dxy            dyz            dz2            dxz          dx2-y2  
    1  0.000  0.000  -0.057  0.000   0.000  0.000   0.000  0.000   0.000  0.000   0.000  0.000   0.000  0.000   0.000  0.000   0.000  0.000   0.003
    2 -0.000  0.000   0.025  0.000  -0.000  0.000   0.000  0.000   0.000  0.000   0.000  0.000   0.000  0.000   0.000  0.000   0.000  0.000   0.001
charge 0.000          0.004          0.000          0.000          0.000          0.000          0.000          0.000          0.000          0.004       
 
band    25 # energy    2.84396667 # occ.  0.00000000
 
ion      s     py     pz     px    dxy    dyz    dz2    dxz  x2-y2    tot
    1  0.000  0.000  0.000  0.000  0.000  0.000  0.000  0.000  0.000  0.000
    2  0.000  0.000  0.000  0.000  0.000  0.000  0.000  0.000  0.000  0.000
tot    0.000  0.000  0.000  0.000  0.000  0.000  0.000  0.000  0.000  0.000
ion          s             py             pz             px             dxy            dyz            dz2            dxz          dx2-y2  
    1  0.002  0.000   0.000  0.000   0.000  0.000   0.001  0.000   0.000  0.000   0.000  0.000   0.000  0.000   0.000  0.000   0.000  0.000   0.000
    2 -0.006  0.000  -0.000  0.000  -0.000  0.000  -0.002  0.000   0.000  0.000   0.000  0.000   0.000  0.000   0.000  0.000   0.000  0.000   0.000
charge 0.000          0.000          0.000          0.000          0.000          0.000          0.000          0.000          0.000          0.000       
 
band    26 # energy    3.07541943 # occ.  0.00000000
 
ion      s     py     pz     px    dxy    dyz    dz2    dxz  x2-y2    tot
    1  0.013  0.000  0.000  0.007  0.000  0.000  0.000  0.000  0.000  0.020
    2  0.003  0.000  0.000  0.001  0.000  0.000  0.000  0.000  0.000  0.004
tot    0.016  0.000  0.000  0.009  0.000  0.000  0.000  0.000  0.000  0.024
ion          s             py             pz             px             dxy            dyz            dz2            dxz          dx2-y2  
    1 -0.112  0.000  -0.000  0.000  -0.000  0.000   0.081  0.000   0.000  0.000   0.000  0.000   0.000  0.000   0.000  0.000   0.000  0.000   0.019
    2 -0.051  0.000  -0.000  0.000  -0.000  0.000  -0.034  0.000   0.000  0.000   0.000  0.000   0.000  0.000   0.000  0.000   0.000  0.000   0.004
charge 0.015          0.000          0.000          0.008          0.000          0.000          0.000          0.000          0.000          0.023       
 
band    27 # energy    4.05450695 # occ.  0.00000000
 
ion      s     py     pz     px    dxy    dyz    dz2    dxz  x2-y2    tot
    1  0.000  0.000  0.000  0.000  0.000  0.000  0.000  0.000  0.000  0.000
    2  0.000  0.000  0.000  0.000  0.000  0.000  0.000  0.000  0.000  0.000
tot    0.000  0.000  0.000  0.000  0.000  0.000  0.000  0.000  0.000  0.000
ion          s             py             pz             px             dxy            dyz            dz2            dxz          dx2-y2  
    1 -0.000  0.000  -0.000  0.000   0.000  0.000  -0.000  0.000   0.000  0.000   0.000  0.000   0.000  0.000   0.000  0.000   0.000  0.000   0.000
    2 -0.000  0.000   0.000  0.000  -0.000  0.000  -0.000  0.000   0.000  0.000   0.000  0.000   0.000  0.000   0.000  0.000   0.000  0.000   0.000
charge 0.000          0.000          0.000          0.000          0.000          0.000          0.000          0.000          0.000          0.000       
 
band    28 # energy    4.15301220 # occ.  0.00000000
 
ion      s     py     pz     px    dxy    dyz    dz2    dxz  x2-y2    tot
    1  0.000  0.000  0.000  0.000  0.000  0.000  0.000  0.000  0.000  0.000
    2  0.000  0.000  0.000  0.000  0.000  0.000  0.000  0.000  0.000  0.000
tot    0.000  0.000  0.000  0.000  0.000  0.000  0.000  0.000  0.000  0.000
ion          s             py             pz             px             dxy            dyz            dz2            dxz          dx2-y2  
    1 -0.000  0.000  -0.000  0.000   0.000  0.000  -0.000  0.000   0.000  0.000   0.000  0.000   0.000  0.000   0.000  0.000   0.000  0.000   0.000
    2  0.000  0.000   0.000  0.000  -0.000  0.000  -0.000  0.000   0.000  0.000   0.000  0.000   0.000  0.000   0.000  0.000   0.000  0.000   0.000
charge 0.000          0.000          0.000          0.000          0.000          0.000          0.000          0.000          0.000          0.000       
 
band    29 # energy    4.15325650 # occ.  0.00000000
 
ion      s     py     pz     px    dxy    dyz    dz2    dxz  x2-y2    tot
    1  0.000  0.000  0.000  0.000  0.000  0.000  0.000  0.000  0.000  0.000
    2  0.000  0.007  0.000  0.000  0.000  0.000  0.000  0.000  0.000  0.007
tot    0.000  0.008  0.000  0.000  0.000  0.000  0.000  0.000  0.000  0.008
ion          s             py             pz             px             dxy            dyz            dz2            dxz          dx2-y2  
    1 -0.000  0.000   0.017  0.000   0.000  0.000  -0.000  0.000   0.000  0.000   0.000  0.000   0.000  0.000   0.000  0.000   0.000  0.000   0.000
    2  0.000  0.000  -0.086  0.000  -0.000  0.000  -0.000  0.000   0.000  0.000   0.000  0.000   0.000  0.000   0.000  0.000   0.000  0.000   0.007
charge 0.000          0.008          0.000          0.000          0.000          0.000          0.000          0.000          0.000          0.008       
 
band    30 # energy    4.15684448 # occ.  0.00000000
 
ion      s     py     pz     px    dxy    dyz    dz2    dxz  x2-y2    tot
    1  0.000  0.000  0.000  0.000  0.000  0.000  0.000  0.000  0.000  0.000
    2  0.000  0.000  0.007  0.000  0.000  0.000  0.000  0.000  0.000  0.007
tot    0.000  0.000  0.008  0.000  0.000  0.000  0.000  0.000  0.000  0.008
ion          s             py             pz             px             dxy            dyz            dz2            dxz          dx2-y2  
    1  0.000  0.000   0.000  0.000  -0.019  0.000  -0.000  0.000   0.000  0.000   0.000  0.000   0.000  0.000   0.000  0.000   0.000  0.000   0.000
    2 -0.000  0.000  -0.000  0.000   0.086  0.000  -0.000  0.000   0.000  0.000   0.000  0.000   0.000  0.000   0.000  0.000   0.000  0.000   0.007
charge 0.000          0.000          0.008          0.000          0.000          0.000          0.000          0.000          0.000          0.008       
 
band    31 # energy    4.17296701 # occ.  0.00000000
 
ion      s     py     pz     px    dxy    dyz    dz2    dxz  x2-y2    tot
    1  0.001  0.000  0.000  0.000  0.000  0.000  0.000  0.000  0.000  0.001
    2  0.005  0.000  0.000  0.000  0.000  0.000  0.000  0.000  0.000  0.005
tot    0.006  0.000  0.000  0.000  0.000  0.000  0.000  0.000  0.000  0.006
ion          s             py             pz             px             dxy            dyz            dz2            dxz          dx2-y2  
    1  0.035  0.000  -0.000  0.000  -0.000  0.000   0.008  0.000   0.000  0.000   0.000  0.000   0.000  0.000   0.000  0.000   0.000  0.000   0.001
    2 -0.065  0.000  -0.000  0.000   0.000  0.000   0.016  0.000   0.000  0.000   0.000  0.000   0.000  0.000   0.000  0.000   0.000  0.000   0.004
charge 0.005          0.000          0.000          0.000          0.000          0.000          0.000          0.000          0.000          0.006       
 
band    32 # energy    4.26513962 # occ.  0.00000000
 
ion      s     py     pz     px    dxy    dyz    dz2    dxz  x2-y2    tot
    1  0.000  0.014  0.000  0.000  0.000  0.000  0.000  0.000  0.000  0.014
    2  0.000  0.001  0.000  0.000  0.000  0.000  0.000  0.000  0.000  0.001
tot    0.000  0.015  0.000  0.000  0.000  0.000  0.000  0.000  0.000  0.015