<?xml version="1.0" encoding="ISO-8859-1"?>
<modeling>
 <generator>
  <i name="program" type="string">vasp </i>
  <i name="version" type="string">5.4.4.18Apr17-6-g9f103f2a35  </i>
  <i name="subversion" type="string">(build Apr 25 2017 10:54:42) gamma-only         parallel </i>
  <i name="platform" type="string">LinuxIFC </i>
  <i name="date" type="string">2019 05 30 </i>
  <i name="time" type="string">17:17:58 </i>
 </generator>
 <incar>
  <i type="string" name="PREC">n</i>
  <i type="string" name="ALGO">  Normal</i>
  <i type="int" name="NELM">   100</i>
  <i type="int" name="NELMIN">     2</i>
  <i type="int" name="IBRION">     2</i>
  <i name="EDIFF">      0.00000100</i>
  <i name="EDIFFG">     -0.01000000</i>
  <i type="int" name="NSW">    50</i>
  <i type="int" name="ISIF">     2</i>
  <i name="ENCUT">    325.00000000</i>
  <i type="string" name="LREAL">  Auto</i>
  <i type="int" name="ISMEAR">     0</i>
  <i name="SIGMA">      0.10000000</i>
  <i type="logical" name="LWAVE"> F  </i>
  <i type="logical" name="LCHARG"> F  </i>
  <i type="int" name="LORBIT">    12</i>
  <i type="logical" name="LASPH"> T  </i>
  <v type="int" name="KPOINT_BSE">    -1     0     0     0</v>
  <i type="int" name="NELM">   100</i>
  <i type="string" name="GGA">  Ps</i>
  <i type="logical" name="LASPH"> T  </i>
 </incar>
 <structure name="primitive_cell" >
  <crystal>
   <varray name="basis" >
    <v>      10.00000000       0.00000000       0.00000000 </v>
    <v>       0.00000000      10.10000000       0.00000000 </v>
    <v>       0.00000000       0.00000000      10.20000000 </v>
   </varray>
   <i name="volume">   1030.20000000 </i>
   <varray name="rec_basis" >
    <v>       0.10000000       0.00000000       0.00000000 </v>
    <v>       0.00000000       0.09900990       0.00000000 </v>
    <v>       0.00000000       0.00000000       0.09803922 </v>
   </varray>
  </crystal>
  <varray name="positions" >
   <v>      -0.05709518       0.00000000       0.00000000 </v>
   <v>       0.05709518       0.00000000       0.00000000 </v>
  </varray>
 </structure>
 <varray name="primitive_index" >
  <v type="int" >        1 </v>
  <v type="int" >        2 </v>
 </varray>
 <kpoints>
  <generation param="Gamma">
   <v type="int" name="divisions">       1        1        1 </v>
   <v name="usershift">      0.00000000       0.00000000       0.00000000 </v>
   <v name="genvec1">      1.00000000       0.00000000       0.00000000 </v>
   <v name="genvec2">      0.00000000       1.00000000       0.00000000 </v>
   <v name="genvec3">      0.00000000       0.00000000       1.00000000 </v>
   <v name="shift">      0.00000000       0.00000000       0.00000000 </v>
  </generation>
  <varray name="kpointlist" >
   <v>       0.00000000       0.00000000       0.00000000 </v>
  </varray>
  <varray name="weights" >
   <v>       1.00000000 </v>
  </varray>
 </kpoints>
 <parameters>
  <separator name="general" >
   <i type="string" name="SYSTEM">unknown system</i>
   <i type="logical" name="LCOMPAT"> F  </i>
  </separator>
  <separator name="electronic" >
   <i type="string" name="PREC">n</i>
   <i name="ENMAX">    325.00000000</i>
   <i name="ENAUG">    644.87300000</i>
   <i name="EDIFF">      0.00000100</i>
   <i type="int" name="IALGO">    38</i>
   <i type="int" name="IWAVPR">    11</i>
   <i type="int" name="NBANDS">    36</i>
   <i name="NELECT">     10.00000000</i>
   <i type="int" name="TURBO">     0</i>
   <i type="int" name="IRESTART">     0</i>
   <i type="int" name="NREBOOT">     0</i>
   <i type="int" name="NMIN">     0</i>
   <i name="EREF">      0.00000000</i>
   <separator name="electronic smearing" >
    <i type="int" name="ISMEAR">     0</i>
    <i name="SIGMA">      0.10000000</i>
    <i name="KSPACING">      0.50000000</i>
    <i type="logical" name="KGAMMA"> T  </i>
   </separator>
   <separator name="electronic projectors" >
    <i type="logical" name="LREAL"> T  </i>
    <v name="ROPT">     -0.00050000     -0.00050000</v>
    <i type="int" name="LMAXPAW">  -100</i>
    <i type="int" name="LMAXMIX">     2</i>
    <i type="logical" name="NLSPLINE"> F  </i>
   </separator>
   <separator name="electronic startup" >
    <i type="int" name="ISTART">     0</i>
    <i type="int" name="ICHARG">     2</i>
    <i type="int" name="INIWAV">     1</i>
   </separator>
   <separator name="electronic spin" >
    <i type="int" name="ISPIN">     1</i>
    <i type="logical" name="LNONCOLLINEAR"> F  </i>
    <v name="MAGMOM">      1.00000000      1.00000000</v>
    <i name="NUPDOWN">     -1.00000000</i>
    <i type="logical" name="LSORBIT"> F  </i>
    <v name="SAXIS">      0.00000000      0.00000000      1.00000000</v>
    <i type="logical" name="LSPIRAL"> F  </i>
    <v name="QSPIRAL">      0.00000000      0.00000000      0.00000000</v>
    <i type="logical" name="LZEROZ"> F  </i>
   </separator>
   <separator name="electronic exchange-correlation" >
    <i type="logical" name="LASPH"> T  </i>
    <i type="logical" name="LMETAGGA"> F  </i>
   </separator>
   <separator name="electronic convergence" >
    <i type="int" name="NELM">   100</i>
    <i type="int" name="NELMDL">     0</i>
    <i type="int" name="NELMIN">     2</i>
    <i name="ENINI">    325.00000000</i>
    <separator name="electronic convergence detail" >
     <i type="logical" name="LDIAG"> T  </i>
     <i type="logical" name="LSUBROT"> F  </i>
     <i name="WEIMIN">      0.00100000</i>
     <i name="EBREAK">      0.00000001</i>
     <i name="DEPER">      0.30000000</i>
     <i type="int" name="NRMM">     4</i>
     <i name="TIME">      0.40000000</i>
    </separator>
   </separator>
   <separator name="electronic mixer" >
    <i name="AMIX">      0.40000000</i>
    <i name="BMIX">      1.00000000</i>
    <i name="AMIN">      0.10000000</i>
    <i name="AMIX_MAG">      1.60000000</i>
    <i name="BMIX_MAG">      1.00000000</i>
    <separator name="electronic mixer details" >
     <i type="int" name="IMIX">     4</i>
     <i type="logical" name="MIXFIRST"> F  </i>
     <i type="int" name="MAXMIX">   -45</i>
     <i name="WC">    100.00000000</i>
     <i type="int" name="INIMIX">     1</i>
     <i type="int" name="MIXPRE">     1</i>
     <i type="int" name="MREMOVE">     5</i>
    </separator>
   </separator>
   <separator name="electronic dipolcorrection" >
    <i type="logical" name="LDIPOL"> F  </i>
    <i type="logical" name="LMONO"> F  </i>
    <i type="int" name="IDIPOL">     0</i>
    <i name="EPSILON">      1.00000000</i>
    <v name="DIPOL">   -100.00000000   -100.00000000   -100.00000000</v>
    <i name="EFIELD">      0.00000000</i>
   </separator>
  </separator>
  <separator name="grids" >
   <i type="int" name="NGX">    48</i>
   <i type="int" name="NGY">    48</i>
   <i type="int" name="NGZ">    48</i>
   <i type="int" name="NGXF">    96</i>
   <i type="int" name="NGYF">    96</i>
   <i type="int" name="NGZF">    96</i>
   <i type="logical" name="ADDGRID"> F  </i>
  </separator>
  <separator name="ionic" >
   <i type="int" name="NSW">    50</i>
   <i type="int" name="IBRION">     2</i>
   <i type="int" name="MDALGO">     0</i>
   <i type="int" name="ISIF">     2</i>
   <i name="PSTRESS">      0.00000000</i>
   <i name="EDIFFG">     -0.01000000</i>
   <i type="int" name="NFREE">     1</i>
   <i name="POTIM">      0.50000000</i>
   <i name="SMASS">     -3.00000000</i>
   <i name="SCALEE">      1.00000000</i>
  </separator>
  <separator name="ionic md" >
   <i name="TEBEG">      0.00010000</i>
   <i name="TEEND">      0.00010000</i>
   <i type="int" name="NBLOCK">     1</i>
   <i type="int" name="KBLOCK">    50</i>
   <i type="int" name="NPACO">   256</i>
   <i name="APACO">     16.00000000</i>
  </separator>
  <separator name="symmetry" >
   <i type="int" name="ISYM">     2</i>
   <i name="SYMPREC">      0.00001000</i>
  </separator>
  <separator name="dos" >
   <i type="int" name="LORBIT">    12</i>
   <v name="RWIGS">     -1.00000000     -1.00000000</v>
   <i type="int" name="NEDOS">   301</i>
   <i name="EMIN">     10.00000000</i>
   <i name="EMAX">    -10.00000000</i>
   <i name="EFERMI">      0.00000000</i>
  </separator>
  <separator name="writing" >
   <i type="int" name="NWRITE">     2</i>
   <i type="logical" name="LWAVE"> F  </i>
   <i type="logical" name="LDOWNSAMPLE"> F  </i>
   <i type="logical" name="LCHARG"> F  </i>
   <i type="logical" name="LPARD"> F  </i>
   <i type="logical" name="LVTOT"> F  </i>
   <i type="logical" name="LVHAR"> F  </i>
   <i type="logical" name="LELF"> F  </i>
   <i type="logical" name="LOPTICS"> F  </i>
   <v name="STM">      0.00000000      0.00000000      0.00000000      0.00000000      0.00000000      0.00000000      0.00000000</v>
  </separator>
  <separator name="performance" >
   <i type="int" name="NPAR">    36</i>
   <i type="int" name="NSIM">     4</i>
   <i type="int" name="NBLK">    -1</i>
   <i type="logical" name="LPLANE"> T  </i>
   <i type="logical" name="LSCALAPACK"> T  </i>
   <i type="logical" name="LSCAAWARE"> F  </i>
   <i type="logical" name="LSCALU"> F  </i>
   <i type="logical" name="LASYNC"> F  </i>
   <i type="logical" name="LORBITALREAL"> F  </i>
  </separator>
  <separator name="miscellaneous" >
   <i type="int" name="IDIOT">     3</i>
   <i type="int" name="ISPECIAL">     0</i>
   <i type="logical" name="LMUSIC"> F  </i>
   <v name="POMASS">     12.01100000     16.00000000</v>
   <v name="DARWINR">      0.00000000      0.00000000</v>
   <v name="DARWINV">      1.00000000      1.00000000</v>
   <i type="logical" name="LCORR"> T  </i>
  </separator>
  <i type="logical" name="GGA_COMPAT"> T  </i>
  <i type="logical" name="LBERRY"> F  </i>
  <i type="int" name="ICORELEVEL">     0</i>
  <i type="logical" name="LDAU"> F  </i>
  <i type="int" name="I_CONSTRAINED_M">     0</i>
  <separator name="electronic exchange-correlation" >
   <i type="string" name="GGA">PS</i>
   <i type="int" name="VOSKOWN">     0</i>
   <i type="logical" name="LHFCALC"> F  </i>
   <i type="string" name="PRECFOCK"></i>
   <i type="logical" name="LSYMGRAD"> F  </i>
   <i type="logical" name="LHFONE"> F  </i>
   <i type="logical" name="LRHFCALC"> F  </i>
   <i type="logical" name="LTHOMAS"> F  </i>
   <i type="logical" name="LMODELHF"> F  </i>
   <i name="ENCUT4O">     -1.00000000</i>
   <i type="int" name="EXXOEP">     0</i>
   <i type="int" name="FOURORBIT">     0</i>
   <i name="AEXX">      0.00000000</i>
   <i name="HFALPHA">      0.00000000</i>
   <i name="MCALPHA">      0.00000000</i>
   <i name="ALDAX">      1.00000000</i>
   <i name="AGGAX">      1.00000000</i>
   <i name="ALDAC">      1.00000000</i>
   <i name="AGGAC">      1.00000000</i>
   <i type="int" name="NKREDX">     1</i>
   <i type="int" name="NKREDY">     1</i>
   <i type="int" name="NKREDZ">     1</i>
   <i type="logical" name="SHIFTRED"> F  </i>
   <i type="logical" name="ODDONLY"> F  </i>
   <i type="logical" name="EVENONLY"> F  </i>
   <i type="int" name="LMAXFOCK">     0</i>
   <i type="int" name="NMAXFOCKAE">     0</i>
   <i type="logical" name="LFOCKAEDFT"> F  </i>
   <i name="HFSCREEN">      0.00000000</i>
   <i name="HFSCREENC">      0.00000000</i>
   <i type="int" name="NBANDSGWLOW">     0</i>
  </separator>
  <separator name="vdW DFT" >
   <i type="logical" name="LUSE_VDW"> F  </i>
   <i name="Zab_VDW">     -0.84910000</i>
   <i name="PARAM1">      0.12340000</i>
   <i name="PARAM2">      1.00000000</i>
   <i name="PARAM3">      0.00000000</i>
  </separator>
  <separator name="model GW" >
   <i type="int" name="MODEL_GW">     0</i>
   <i name="MODEL_EPS0">    309.06000000</i>
   <i name="MODEL_ALPHA">      1.00000000</i>
  </separator>
  <separator name="linear response parameters" >
   <i type="logical" name="LEPSILON"> F  </i>
   <i type="logical" name="LRPA"> F  </i>
   <i type="logical" name="LNABLA"> F  </i>
   <i type="logical" name="LVEL"> F  </i>
   <i type="int" name="KINTER">     0</i>
   <i name="CSHIFT">      0.10000000</i>
   <i name="OMEGAMAX">     -1.00000000</i>
   <i name="DEG_THRESHOLD">      0.00200000</i>
   <i name="RTIME">     -0.10000000</i>
   <i name="WPLASMAI">      0.00000000</i>
   <v name="DFIELD">      0.00000000      0.00000000      0.00000000</v>
   <v name="WPLASMA">      0.00000000      0.00000000      0.00000000      0.00000000      0.00000000      0.00000000      0.00000000      0.00000000      0.00000000</v>
  </separator>
  <separator name="orbital magnetization" >
   <i type="logical" name="NUCIND"> F  </i>
   <v name="MAGPOS">      0.00000000      0.00000000      0.00000000</v>
   <i type="logical" name="LNICSALL"> T  </i>
   <i type="logical" name="ORBITALMAG"> F  </i>
   <i type="logical" name="LMAGBLOCH"> F  </i>
   <i type="logical" name="LCHIMAG"> F  </i>
   <i type="logical" name="LGAUGE"> T  </i>
   <i type="int" name="MAGATOM">     0</i>
   <v name="MAGDIPOL">      0.00000000      0.00000000      0.00000000</v>
   <v name="AVECCONST">      0.00000000      0.00000000      0.00000000</v>
  </separator>
  <separator name="response functions" >
   <i type="logical" name="LADDER"> F  </i>
   <i type="logical" name="LRPAFORCE"> F  </i>
   <i type="logical" name="LFXC"> F  </i>
   <i type="logical" name="LHARTREE"> T  </i>
   <i type="int" name="IBSE">     0</i>
   <v type="int" name="KPOINT">    -1     0     0     0</v>
   <i type="logical" name="LTCTE"> F  </i>
   <i type="logical" name="LTETE"> F  </i>
   <i type="logical" name="LTRIPLET"> F  </i>
   <i type="logical" name="LFXCEPS"> F  </i>
   <i type="logical" name="LFXHEG"> F  </i>
   <i type="int" name="NATURALO">     2</i>
   <i type="logical" name="L2ORDER"> F  </i>
   <i type="logical" name="LMP2LT"> F  </i>
   <i type="logical" name="LUSEW"> F  </i>
   <i name="ENCUTGW">     -2.00000000</i>
   <i name="ENCUTGWSOFT">     -2.00000000</i>
   <i name="ENCUTLF">     -1.00000000</i>
   <i type="int" name="LMAXMP2">    -1</i>
   <i name="SCISSOR">      0.00000000</i>
   <i type="int" name="NOMEGA">     0</i>
   <i type="int" name="NOMEGAR">     0</i>
   <i type="int" name="NBANDSGW">    -1</i>
   <i type="int" name="NBANDSO">    -1</i>
   <i type="int" name="NBANDSV">    -1</i>
   <i type="int" name="NELM">   100</i>
   <i type="int" name="NELMHF">     1</i>
   <i type="int" name="DIM">     3</i>
   <i type="int" name="ANTIRES">     0</i>
   <i name="OMEGAMAX">    -30.00000000</i>
   <i name="OMEGAMIN">    -30.00000000</i>
   <i name="OMEGATL">   -200.00000000</i>
   <i type="int" name="OMEGAGRID">   140</i>
   <i name="CSHIFT">     -0.10000000</i>
   <i type="logical" name="SELFENERGY"> F  </i>
   <i type="logical" name="LSPECTRAL"> F  </i>
   <i type="logical" name="LSPECTRALGW"> F  </i>
   <i type="logical" name="LSINGLES"> F  </i>
   <i type="logical" name="LFERMIGW"> F  </i>
   <i type="logical" name="ODDONLYGW"> F  </i>
   <i type="logical" name="EVENONLYGW"> F  </i>
   <i type="int" name="NKREDLFX">     1</i>
   <i type="int" name="NKREDLFY">     1</i>
   <i type="int" name="NKREDLFZ">     1</i>
   <i type="int" name="MAXMEM">  2800</i>
   <i type="int" name="TELESCOPE">     0</i>
   <i type="int" name="TAUPAR">     1</i>
   <i type="int" name="OMEGAPAR">    -1</i>
   <i name="LAMBDA">      1.00000000</i>
  </separator>
  <separator name="External order field" >
   <i name="OFIELD_KAPPA">      0.00000000</i>
   <v name="OFIELD_K">      0.00000000      0.00000000      0.00000000</v>
   <i name="OFIELD_Q6_NEAR">      0.00000000</i>
   <i name="OFIELD_Q6_FAR">      0.00000000</i>
   <i name="OFIELD_A">      0.00000000</i>
  </separator>
 </parameters>
 <atominfo>
  <atoms>       2 </atoms>
  <types>       2 </types>
  <array name="atoms" >
   <dimension dim="1">ion</dimension>
   <field type="string">element</field>
   <field type="int">atomtype</field>
   <set>
    <rc><c>C </c><c>   1</c></rc>
    <rc><c>O </c><c>   2</c></rc>
   </set>
  </array>
  <array name="atomtypes" >
   <dimension dim="1">type</dimension>
   <field type="int">atomspertype</field>
   <field type="string">element</field>
   <field>mass</field>
   <field>valence</field>
   <field type="string">pseudopotential</field>
   <set>
    <rc><c>   1</c><c>C </c><c>     12.01100000</c><c>      4.00000000</c><c>  PAW_PBE C 08Apr2002                   </c></rc>
    <rc><c>   1</c><c>O </c><c>     16.00000000</c><c>      6.00000000</c><c>  PAW_PBE O 08Apr2002                   </c></rc>
   </set>
  </array>
 </atominfo>
 <structure name="initialpos" >
  <crystal>
   <varray name="basis" >
    <v>      10.00000000       0.00000000       0.00000000 </v>
    <v>       0.00000000      10.10000000       0.00000000 </v>
    <v>       0.00000000       0.00000000      10.20000000 </v>
   </varray>
   <i name="volume">   1030.20000000 </i>
   <varray name="rec_basis" >
    <v>       0.10000000       0.00000000       0.00000000 </v>
    <v>       0.00000000       0.09900990       0.00000000 </v>
    <v>       0.00000000       0.00000000       0.09803922 </v>
   </varray>
  </crystal>
  <varray name="positions" >
   <v>       0.94290482       0.00000000       0.00000000 </v>
   <v>       0.05709518       0.00000000       0.00000000 </v>
  </varray>
 </structure>
 <calculation>
  <scstep>
   <time name="dav">    0.02    0.02</time>
   <time name="total">    0.08    0.09</time>
   <energy>
    <i name="alphaZ">      0.42414827 </i>
    <i name="ewald">    101.37707024 </i>
    <i name="hartreedc">   -562.72151261 </i>
    <i name="XCdc">     39.58139600 </i>
    <i name="pawpsdc">    454.70645472 </i>
    <i name="pawaedc">   -456.32910606 </i>
    <i name="eentropy">     -0.03874213 </i>
    <i name="bandstr">    -85.84791462 </i>
    <i name="atom">    576.05185114 </i>
    <i name="e_fr_energy">     67.20364496 </i>
    <i name="e_wo_entrp">     67.24238708 </i>
    <i name="e_0_energy">     67.22301602 </i>
   </energy>
  </scstep>
  <scstep>
   <time name="dav">    0.05    0.05</time>
   <time name="total">    0.05    0.05</time>
   <energy>
    <i name="e_fr_energy">    -15.41915855 </i>
    <i name="e_wo_entrp">    -15.41915855 </i>
    <i name="e_0_energy">    -15.41915855 </i>
   </energy>
  </scstep>
  <scstep>
   <time name="dav">    0.02    0.02</time>
   <time name="total">    0.02    0.02</time>
   <energy>
    <i name="e_fr_energy">    -15.87598018 </i>
    <i name="e_wo_entrp">    -15.87598018 </i>
    <i name="e_0_energy">    -15.87598018 </i>
   </energy>
  </scstep>
  <scstep>
   <time name="dav">    0.04    0.05</time>
   <time name="total">    0.04    0.05</time>
   <energy>
    <i name="e_fr_energy">    -15.87748171 </i>
    <i name="e_wo_entrp">    -15.87748171 </i>
    <i name="e_0_energy">    -15.87748171 </i>
   </energy>
  </scstep>
  <scstep>
   <time name="dav">    0.02    0.02</time>
   <time name="total">    0.05    0.05</time>
   <energy>
    <i name="e_fr_energy">    -15.87748173 </i>
    <i name="e_wo_entrp">    -15.87748173 </i>
    <i name="e_0_energy">    -15.87748173 </i>
   </energy>
  </scstep>
  <scstep>
   <time name="dav">    0.07    0.09</time>
   <time name="total">    0.15    0.17</time>
   <energy>
    <i name="e_fr_energy">    -15.36209445 </i>
    <i name="e_wo_entrp">    -15.36209445 </i>
    <i name="e_0_energy">    -15.36209445 </i>
   </energy>
  </scstep>
  <scstep>
   <time name="dav">    0.04    0.05</time>
   <time name="total">    0.13    0.13</time>
   <energy>
    <i name="e_fr_energy">    -15.24913461 </i>
    <i name="e_wo_entrp">    -15.24913461 </i>
    <i name="e_0_energy">    -15.24913461 </i>
   </energy>
  </scstep>
  <scstep>
   <time name="dav">    0.04    0.04</time>
   <time name="total">    0.12    0.12</time>
   <energy>
    <i name="e_fr_energy">    -15.22182006 </i>
    <i name="e_wo_entrp">    -15.22182006 </i>
    <i name="e_0_energy">    -15.22182006 </i>
   </energy>
  </scstep>
  <scstep>
   <time name="dav">    0.03    0.03</time>
   <time name="total">    0.10    0.11</time>
   <energy>
    <i name="e_fr_energy">    -15.22185158 </i>
    <i name="e_wo_entrp">    -15.22185158 </i>
    <i name="e_0_energy">    -15.22185158 </i>
   </energy>
  </scstep>
  <scstep>
   <time name="dav">    0.03    0.03</time>
   <time name="total">    0.11    0.11</time>
   <energy>
    <i name="e_fr_energy">    -15.22242514 </i>
    <i name="e_wo_entrp">    -15.22242514 </i>
    <i name="e_0_energy">    -15.22242514 </i>
   </energy>
  </scstep>
  <scstep>
   <time name="dav">    0.02    0.02</time>
   <time name="total">    0.10    0.10</time>
   <energy>
    <i name="e_fr_energy">    -15.22399985 </i>
    <i name="e_wo_entrp">    -15.22399985 </i>
    <i name="e_0_energy">    -15.22399985 </i>
   </energy>
  </scstep>
  <scstep>
   <time name="dav">    0.04    0.04</time>
   <time name="total">    0.11    0.11</time>
   <energy>
    <i name="e_fr_energy">    -15.22487649 </i>
    <i name="e_wo_entrp">    -15.22487649 </i>
    <i name="e_0_energy">    -15.22487649 </i>
   </energy>
  </scstep>
  <scstep>
   <time name="dav">    0.04    0.04</time>
   <time name="total">    0.11    0.11</time>
   <energy>
    <i name="e_fr_energy">    -15.22553130 </i>
    <i name="e_wo_entrp">    -15.22553130 </i>
    <i name="e_0_energy">    -15.22553130 </i>
   </energy>
  </scstep>
  <scstep>
   <time name="dav">    0.02    0.02</time>
   <time name="total">    0.10    0.10</time>
   <energy>
    <i name="e_fr_energy">    -15.22589120 </i>
    <i name="e_wo_entrp">    -15.22589120 </i>
    <i name="e_0_energy">    -15.22589120 </i>
   </energy>
  </scstep>
  <scstep>
   <time name="dav">    0.06    0.06</time>
   <time name="total">    0.14    0.14</time>
   <energy>
    <i name="e_fr_energy">    -15.22596623 </i>
    <i name="e_wo_entrp">    -15.22596623 </i>
    <i name="e_0_energy">    -15.22596623 </i>
   </energy>
  </scstep>
  <scstep>
   <time name="dav">    0.02    0.03</time>
   <time name="total">    0.11    0.11</time>
   <energy>
    <i name="e_fr_energy">    -15.22600825 </i>
    <i name="e_wo_entrp">    -15.22600825 </i>
    <i name="e_0_energy">    -15.22600825 </i>
   </energy>
  </scstep>
  <scstep>
   <time name="dav">    0.03    0.03</time>
   <time name="total">    0.11    0.11</time>
   <energy>
    <i name="e_fr_energy">    -15.22601792 </i>
    <i name="e_wo_entrp">    -15.22601792 </i>
    <i name="e_0_energy">    -15.22601792 </i>
   </energy>
  </scstep>
  <scstep>
   <time name="dav">    0.03    0.03</time>
   <time name="total">    0.10    0.11</time>
   <energy>
    <i name="e_fr_energy">    -15.22602072 </i>
    <i name="e_wo_entrp">    -15.22602072 </i>
    <i name="e_0_energy">    -15.22602072 </i>
   </energy>
  </scstep>
  <scstep>
   <time name="dav">    0.02    0.03</time>
   <time name="total">    0.11    0.11</time>
   <energy>
    <i name="e_fr_energy">    -15.22602223 </i>
    <i name="e_wo_entrp">    -15.22602223 </i>
    <i name="e_0_energy">    -15.22602223 </i>
   </energy>
  </scstep>
  <scstep>
   <time name="dav">    0.02    0.02</time>
   <time name="total">    0.08    0.08</time>
   <energy>
    <i name="alphaZ">      0.42414827 </i>
    <i name="ewald">    101.37707024 </i>
    <i name="hartreedc">   -581.55845606 </i>
    <i name="XCdc">     40.69035762 </i>
    <i name="pawpsdc">    898.11519121 </i>
    <i name="pawaedc">   -899.64824726 </i>
    <i name="eentropy">     -0.00000000 </i>
    <i name="bandstr">   -150.67793756 </i>
    <i name="atom">    576.05185114 </i>
    <i name="e_fr_energy">    -15.22602239 </i>
    <i name="e_wo_entrp">    -15.22602239 </i>
    <i name="e_0_energy">    -15.22602239 </i>
   </energy>
  </scstep>
  <structure>
   <crystal>
    <varray name="basis" >
     <v>      10.00000000       0.00000000       0.00000000 </v>
     <v>       0.00000000      10.10000000       0.00000000 </v>
     <v>       0.00000000       0.00000000      10.20000000 </v>
    </varray>
    <i name="volume">   1030.20000000 </i>
    <varray name="rec_basis" >
     <v>       0.10000000       0.00000000       0.00000000 </v>
     <v>       0.00000000       0.09900990       0.00000000 </v>
     <v>       0.00000000       0.00000000       0.09803922 </v>
    </varray>
   </crystal>
   <varray name="positions" >
    <v>       0.94290482       0.00000000       0.00000000 </v>
    <v>       0.05709518       0.00000000       0.00000000 </v>
   </varray>
  </structure>
  <varray name="forces" >
   <v>       0.00091934       0.00000000       0.00000000 </v>
   <v>      -0.00091934       0.00000000       0.00000000 </v>
  </varray>
  <varray name="stress" >
   <v>      -6.20275916       0.00000000       0.00000000 </v>
   <v>       0.00000000      -5.73981530       0.00000000 </v>
   <v>       0.00000000       0.00000000      -5.75010181 </v>
  </varray>
  <energy>
   <i name="e_fr_energy">    -15.22602239 </i>
   <i name="e_wo_entrp">    -15.22602239 </i>
   <i name="e_0_energy">     -0.00000000 </i>
  </energy>
  <time name="totalsc">    2.09    2.14</time>
  <eigenvalues>
   <array>
    <dimension dim="1">band</dimension>
    <dimension dim="2">kpoint</dimension>
    <dimension dim="3">spin</dimension>
    <field>eigene</field>
    <field>occ</field>
    <set>
     <set comment="spin 1">
      <set comment="kpoint 1">
       <r>  -29.1867    1.0000 </r>
       <r>  -13.9329    1.0000 </r>
       <r>  -11.6732    1.0000 </r>
       <r>  -11.6724    1.0000 </r>
       <r>   -8.8738    1.0000 </r>
       <r>   -1.9563    0.0000 </r>
       <r>   -1.9538    0.0000 </r>
       <r>   -0.2005    0.0000 </r>
       <r>    1.0934    0.0000 </r>
       <r>    1.1513    0.0000 </r>
       <r>    1.1772    0.0000 </r>
       <r>    1.2715    0.0000 </r>
       <r>    1.2958    0.0000 </r>
       <r>    1.3812    0.0000 </r>
       <r>    2.4924    0.0000 </r>
       <r>    2.5144    0.0000 </r>
       <r>    2.5492    0.0000 </r>
       <r>    2.5583    0.0000 </r>
       <r>    2.7242    0.0000 </r>
       <r>    2.7254    0.0000 </r>
       <r>    2.7438    0.0000 </r>
       <r>    2.7732    0.0000 </r>
       <r>    2.8194    0.0000 </r>
       <r>    2.8425    0.0000 </r>
       <r>    2.8440    0.0000 </r>
       <r>    3.0754    0.0000 </r>
       <r>    4.0545    0.0000 </r>
       <r>    4.1530    0.0000 </r>
       <r>    4.1533    0.0000 </r>
       <r>    4.1568    0.0000 </r>
       <r>    4.1730    0.0000 </r>
       <r>    4.2651    0.0000 </r>
       <r>    4.2664    0.0000 </r>
       <r>    4.4216    0.0000 </r>
       <r>    4.9798    0.0000 </r>
       <r>    5.3243    0.0000 </r>
      </set>
     </set>
    </set>
   </array>
  </eigenvalues>
  <separator name="orbital magnetization" >
   <v name="MAGDIPOLOUT">      0.00000000      0.00000000      0.00000000</v>
  </separator>
  <dos>
   <i name="efermi">     -8.38013627 </i>
   <total>
    <array>
     <dimension dim="1">gridpoints</dimension>
     <dimension dim="2">spin</dimension>
     <field>energy</field>
     <field>total</field>
     <field>integrated</field>
     <set>
      <set comment="spin 1">
       <r>   -30.9122     0.0000     0.0000 </r>
       <r>   -30.7857     0.0000     0.0000 </r>
       <r>   -30.6591     0.0000     0.0000 </r>
       <r>   -30.5326     0.0000     0.0000 </r>
       <r>   -30.4061     0.0000     0.0000 </r>
       <r>   -30.2795     0.0000     0.0000 </r>
       <r>   -30.1530     0.0000     0.0000 </r>
       <r>   -30.0264     0.0000     0.0000 </r>
       <r>   -29.8999     0.0000     0.0000 </r>
       <r>   -29.7734     0.0000     0.0000 </r>
       <r>   -29.6468     0.0000     0.0000 </r>
       <r>   -29.5203     0.0000     0.0000 </r>
       <r>   -29.3937     0.0269     0.0034 </r>
       <r>   -29.2672     1.9865     0.2548 </r>
       <r>   -29.1407     9.7203     1.4848 </r>
       <r>   -29.0141     3.9555     1.9853 </r>
       <r>   -28.8876     0.1158     2.0000 </r>
       <r>   -28.7610     0.0002     2.0000 </r>
       <r>   -28.6345     0.0000     2.0000 </r>
       <r>   -28.5080     0.0000     2.0000 </r>
       <r>   -28.3814     0.0000     2.0000 </r>
       <r>   -28.2549     0.0000     2.0000 </r>
       <r>   -28.1283     0.0000     2.0000 </r>
       <r>   -28.0018     0.0000     2.0000 </r>
       <r>   -27.8753     0.0000     2.0000 </r>
       <r>   -27.7487     0.0000     2.0000 </r>
       <r>   -27.6222     0.0000     2.0000 </r>
       <r>   -27.4956     0.0000     2.0000 </r>
       <r>   -27.3691     0.0000     2.0000 </r>
       <r>   -27.2426     0.0000     2.0000 </r>
       <r>   -27.1160     0.0000     2.0000 </r>
       <r>   -26.9895     0.0000     2.0000 </r>
       <r>   -26.8629     0.0000     2.0000 </r>
       <r>   -26.7364     0.0000     2.0000 </r>
       <r>   -26.6099     0.0000     2.0000 </r>
       <r>   -26.4833     0.0000     2.0000 </r>
       <r>   -26.3568     0.0000     2.0000 </r>
       <r>   -26.2302     0.0000     2.0000 </r>
       <r>   -26.1037     0.0000     2.0000 </r>
       <r>   -25.9772     0.0000     2.0000 </r>
       <r>   -25.8506     0.0000     2.0000 </r>
       <r>   -25.7241     0.0000     2.0000 </r>
       <r>   -25.5975     0.0000     2.0000 </r>
       <r>   -25.4710     0.0000     2.0000 </r>
       <r>   -25.3445     0.0000     2.0000 </r>
       <r>   -25.2179     0.0000     2.0000 </r>
       <r>   -25.0914     0.0000     2.0000 </r>
       <r>   -24.9648     0.0000     2.0000 </r>
       <r>   -24.8383     0.0000     2.0000 </r>
       <r>   -24.7118     0.0000     2.0000 </r>
       <r>   -24.5852     0.0000     2.0000 </r>
       <r>   -24.4587     0.0000     2.0000 </r>
       <r>   -24.3321     0.0000     2.0000 </r>
       <r>   -24.2056     0.0000     2.0000 </r>
       <r>   -24.0790     0.0000     2.0000 </r>
       <r>   -23.9525     0.0000     2.0000 </r>
       <r>   -23.8260     0.0000     2.0000 </r>
       <r>   -23.6994     0.0000     2.0000 </r>
       <r>   -23.5729     0.0000     2.0000 </r>
       <r>   -23.4463     0.0000     2.0000 </r>
       <r>   -23.3198     0.0000     2.0000 </r>
       <r>   -23.1933     0.0000     2.0000 </r>
       <r>   -23.0667     0.0000     2.0000 </r>
       <r>   -22.9402     0.0000     2.0000 </r>
       <r>   -22.8136     0.0000     2.0000 </r>
       <r>   -22.6871     0.0000     2.0000 </r>
       <r>   -22.5606     0.0000     2.0000 </r>
       <r>   -22.4340     0.0000     2.0000 </r>
       <r>   -22.3075     0.0000     2.0000 </r>
       <r>   -22.1809     0.0000     2.0000 </r>
       <r>   -22.0544     0.0000     2.0000 </r>
       <r>   -21.9279     0.0000     2.0000 </r>
       <r>   -21.8013     0.0000     2.0000 </r>
       <r>   -21.6748     0.0000     2.0000 </r>
       <r>   -21.5482     0.0000     2.0000 </r>
       <r>   -21.4217     0.0000     2.0000 </r>
       <r>   -21.2952     0.0000     2.0000 </r>
       <r>   -21.1686     0.0000     2.0000 </r>
       <r>   -21.0421     0.0000     2.0000 </r>
       <r>   -20.9155     0.0000     2.0000 </r>
       <r>   -20.7890     0.0000     2.0000 </r>
       <r>   -20.6625     0.0000     2.0000 </r>
       <r>   -20.5359     0.0000     2.0000 </r>
       <r>   -20.4094     0.0000     2.0000 </r>
       <r>   -20.2828     0.0000     2.0000 </r>
       <r>   -20.1563     0.0000     2.0000 </r>
       <r>   -20.0298     0.0000     2.0000 </r>
       <r>   -19.9032     0.0000     2.0000 </r>
       <r>   -19.7767     0.0000     2.0000 </r>
       <r>   -19.6501     0.0000     2.0000 </r>
       <r>   -19.5236     0.0000     2.0000 </r>
       <r>   -19.3971     0.0000     2.0000 </r>
       <r>   -19.2705     0.0000     2.0000 </r>
       <r>   -19.1440     0.0000     2.0000 </r>
       <r>   -19.0174     0.0000     2.0000 </r>
       <r>   -18.8909     0.0000     2.0000 </r>
       <r>   -18.7644     0.0000     2.0000 </r>
       <r>   -18.6378     0.0000     2.0000 </r>
       <r>   -18.5113     0.0000     2.0000 </r>
       <r>   -18.3847     0.0000     2.0000 </r>
       <r>   -18.2582     0.0000     2.0000 </r>
       <r>   -18.1317     0.0000     2.0000 </r>
       <r>   -18.0051     0.0000     2.0000 </r>
       <r>   -17.8786     0.0000     2.0000 </r>
       <r>   -17.7520     0.0000     2.0000 </r>
       <r>   -17.6255     0.0000     2.0000 </r>
       <r>   -17.4990     0.0000     2.0000 </r>
       <r>   -17.3724     0.0000     2.0000 </r>
       <r>   -17.2459     0.0000     2.0000 </r>
       <r>   -17.1193     0.0000     2.0000 </r>
       <r>   -16.9928     0.0000     2.0000 </r>
       <r>   -16.8662     0.0000     2.0000 </r>
       <r>   -16.7397     0.0000     2.0000 </r>
       <r>   -16.6132     0.0000     2.0000 </r>
       <r>   -16.4866     0.0000     2.0000 </r>
       <r>   -16.3601     0.0000     2.0000 </r>
       <r>   -16.2335     0.0000     2.0000 </r>
       <r>   -16.1070     0.0000     2.0000 </r>
       <r>   -15.9805     0.0000     2.0000 </r>
       <r>   -15.8539     0.0000     2.0000 </r>
       <r>   -15.7274     0.0000     2.0000 </r>
       <r>   -15.6008     0.0000     2.0000 </r>
       <r>   -15.4743     0.0000     2.0000 </r>
       <r>   -15.3478     0.0000     2.0000 </r>
       <r>   -15.2212     0.0000     2.0000 </r>
       <r>   -15.0947     0.0000     2.0000 </r>
       <r>   -14.9681     0.0000     2.0000 </r>
       <r>   -14.8416     0.0000     2.0000 </r>
       <r>   -14.7151     0.0000     2.0000 </r>
       <r>   -14.5885     0.0000     2.0000 </r>
       <r>   -14.4620     0.0000     2.0000 </r>
       <r>   -14.3354     0.0000     2.0000 </r>
       <r>   -14.2089     0.0008     2.0001 </r>
       <r>   -14.0824     0.2727     2.0346 </r>
       <r>   -13.9558     5.6247     2.7463 </r>
       <r>   -13.8293     8.7800     3.8574 </r>
       <r>   -13.7027     1.1182     3.9989 </r>
       <r>   -13.5762     0.0089     4.0000 </r>
       <r>   -13.4497     0.0000     4.0000 </r>
       <r>   -13.3231     0.0000     4.0000 </r>
       <r>   -13.1966     0.0000     4.0000 </r>
       <r>   -13.0700     0.0000     4.0000 </r>
       <r>   -12.9435     0.0000     4.0000 </r>
       <r>   -12.8170     0.0000     4.0000 </r>
       <r>   -12.6904     0.0000     4.0000 </r>
       <r>   -12.5639     0.0000     4.0000 </r>
       <r>   -12.4373     0.0000     4.0000 </r>
       <r>   -12.3108     0.0000     4.0000 </r>
       <r>   -12.1843     0.0000     4.0000 </r>
       <r>   -12.0577     0.0000     4.0000 </r>
       <r>   -11.9312     0.0041     4.0005 </r>
       <r>   -11.8046     0.9799     4.1245 </r>
       <r>   -11.6781    13.8770     5.8805 </r>
       <r>   -11.5516    15.3836     7.8272 </r>
       <r>   -11.4250     1.3587     7.9991 </r>
       <r>   -11.2985     0.0072     8.0000 </r>
       <r>   -11.1719     0.0000     8.0000 </r>
       <r>   -11.0454     0.0000     8.0000 </r>
       <r>   -10.9189     0.0000     8.0000 </r>
       <r>   -10.7923     0.0000     8.0000 </r>
       <r>   -10.6658     0.0000     8.0000 </r>
       <r>   -10.5392     0.0000     8.0000 </r>
       <r>   -10.4127     0.0000     8.0000 </r>
       <r>   -10.2862     0.0000     8.0000 </r>
       <r>   -10.1596     0.0000     8.0000 </r>
       <r>   -10.0331     0.0000     8.0000 </r>
       <r>    -9.9065     0.0000     8.0000 </r>
       <r>    -9.7800     0.0000     8.0000 </r>
       <r>    -9.6534     0.0000     8.0000 </r>
       <r>    -9.5269     0.0000     8.0000 </r>
       <r>    -9.4004     0.0000     8.0000 </r>
       <r>    -9.2738     0.0000     8.0000 </r>
       <r>    -9.1473     0.0009     8.0001 </r>
       <r>    -9.0207     0.2965     8.0376 </r>
       <r>    -8.8942     5.8064     8.7724 </r>
       <r>    -8.7677     8.6461     9.8665 </r>
       <r>    -8.6411     1.0474     9.9990 </r>
       <r>    -8.5146     0.0079    10.0000 </r>
       <r>    -8.3880     0.0000    10.0000 </r>
       <r>    -8.2615     0.0000    10.0000 </r>
       <r>    -8.1350     0.0000    10.0000 </r>
       <r>    -8.0084     0.0000    10.0000 </r>
       <r>    -7.8819     0.0000    10.0000 </r>
       <r>    -7.7553     0.0000    10.0000 </r>
       <r>    -7.6288     0.0000    10.0000 </r>
       <r>    -7.5023     0.0000    10.0000 </r>
       <r>    -7.3757     0.0000    10.0000 </r>
       <r>    -7.2492     0.0000    10.0000 </r>
       <r>    -7.1226     0.0000    10.0000 </r>
       <r>    -6.9961     0.0000    10.0000 </r>
       <r>    -6.8696     0.0000    10.0000 </r>
       <r>    -6.7430     0.0000    10.0000 </r>
       <r>    -6.6165     0.0000    10.0000 </r>
       <r>    -6.4899     0.0000    10.0000 </r>
       <r>    -6.3634     0.0000    10.0000 </r>
       <r>    -6.2369     0.0000    10.0000 </r>
       <r>    -6.1103     0.0000    10.0000 </r>
       <r>    -5.9838     0.0000    10.0000 </r>
       <r>    -5.8572     0.0000    10.0000 </r>
       <r>    -5.7307     0.0000    10.0000 </r>
       <r>    -5.6042     0.0000    10.0000 </r>
       <r>    -5.4776     0.0000    10.0000 </r>
       <r>    -5.3511     0.0000    10.0000 </r>
       <r>    -5.2245     0.0000    10.0000 </r>
       <r>    -5.0980     0.0000    10.0000 </r>
       <r>    -4.9715     0.0000    10.0000 </r>
       <r>    -4.8449     0.0000    10.0000 </r>
       <r>    -4.7184     0.0000    10.0000 </r>
       <r>    -4.5918     0.0000    10.0000 </r>
       <r>    -4.4653     0.0000    10.0000 </r>
       <r>    -4.3388     0.0000    10.0000 </r>
       <r>    -4.2122     0.0000    10.0000 </r>
       <r>    -4.0857     0.0000    10.0000 </r>
       <r>    -3.9591     0.0000    10.0000 </r>
       <r>    -3.8326     0.0000    10.0000 </r>
       <r>    -3.7061     0.0000    10.0000 </r>
       <r>    -3.5795     0.0000    10.0000 </r>
       <r>    -3.4530     0.0000    10.0000 </r>
       <r>    -3.3264     0.0000    10.0000 </r>
       <r>    -3.1999     0.0000    10.0000 </r>
       <r>    -3.0734     0.0000    10.0000 </r>
       <r>    -2.9468     0.0000    10.0000 </r>
       <r>    -2.8203     0.0000    10.0000 </r>
       <r>    -2.6937     0.0000    10.0000 </r>
       <r>    -2.5672     0.0000    10.0000 </r>
       <r>    -2.4406     0.0000    10.0000 </r>
       <r>    -2.3141     0.0000    10.0000 </r>
       <r>    -2.1876     0.0159    10.0020 </r>
       <r>    -2.0610     2.1001    10.2678 </r>
       <r>    -1.9345    17.2995    12.4569 </r>
       <r>    -1.8079    11.6012    13.9249 </r>
       <r>    -1.6814     0.5920    13.9998 </r>
       <r>    -1.5549     0.0017    14.0000 </r>
       <r>    -1.4283     0.0000    14.0000 </r>
       <r>    -1.3018     0.0000    14.0000 </r>
       <r>    -1.1752     0.0000    14.0000 </r>
       <r>    -1.0487     0.0000    14.0000 </r>
       <r>    -0.9222     0.0000    14.0000 </r>
       <r>    -0.7956     0.0000    14.0000 </r>
       <r>    -0.6691     0.0000    14.0000 </r>
       <r>    -0.5425     0.0000    14.0000 </r>
       <r>    -0.4160     0.0182    14.0023 </r>
       <r>    -0.2895     1.6282    14.2083 </r>
       <r>    -0.1629     9.4556    15.4049 </r>
       <r>    -0.0364     4.5429    15.9797 </r>
       <r>     0.0902     0.1600    16.0000 </r>
       <r>     0.2167     0.0003    16.0000 </r>
       <r>     0.3432     0.0000    16.0000 </r>
       <r>     0.4698     0.0000    16.0000 </r>
       <r>     0.5963     0.0000    16.0000 </r>
       <r>     0.7229     0.0000    16.0000 </r>
       <r>     0.8494     0.0046    16.0006 </r>
       <r>     0.9759     0.8974    16.1141 </r>
       <r>     1.1025    14.1528    17.9050 </r>
       <r>     1.2290    33.4134    22.1332 </r>
       <r>     1.3556    31.0961    26.0681 </r>
       <r>     1.4821    13.9625    27.8349 </r>
       <r>     1.6086     1.2943    27.9987 </r>
       <r>     1.7352     0.0104    28.0000 </r>
       <r>     1.8617     0.0000    28.0000 </r>
       <r>     1.9883     0.0000    28.0000 </r>
       <r>     2.1148     0.0000    28.0000 </r>
       <r>     2.2413     0.0041    28.0005 </r>
       <r>     2.3679     1.0549    28.1340 </r>
       <r>     2.4944    19.5510    30.6080 </r>
       <r>     2.6210    38.8119    35.5193 </r>
       <r>     2.7475    42.5920    40.9089 </r>
       <r>     2.8740    55.6405    47.9496 </r>
       <r>     3.0006    17.9862    50.2256 </r>
       <r>     3.1271    10.3495    51.5352 </r>
       <r>     3.2537     3.5802    51.9883 </r>
       <r>     3.3802     0.0924    52.0000 </r>
       <r>     3.5067     0.0001    52.0000 </r>
       <r>     3.6333     0.0000    52.0000 </r>
       <r>     3.7598     0.0002    52.0000 </r>
       <r>     3.8864     0.1414    52.0179 </r>
       <r>     4.0129     5.5259    52.7172 </r>
       <r>     4.1395    34.2620    57.0527 </r>
       <r>     4.2660    50.9308    63.4975 </r>
       <r>     4.3925    23.9724    66.5310 </r>
       <r>     4.5191    10.2767    67.8314 </r>
       <r>     4.6456     1.3204    67.9985 </r>
       <r>     4.7722     0.0383    68.0033 </r>
       <r>     4.8987     1.9612    68.2515 </r>
       <r>     5.0252     9.7059    69.4797 </r>
       <r>     5.1518     4.1093    69.9997 </r>
       <r>     5.2783     4.0739    70.5152 </r>
       <r>     5.4049     9.7204    71.7452 </r>
       <r>     5.5314     1.9865    71.9966 </r>
       <r>     5.6579     0.0269    72.0000 </r>
       <r>     5.7845     0.0000    72.0000 </r>
       <r>     5.9110     0.0000    72.0000 </r>
       <r>     6.0376     0.0000    72.0000 </r>
       <r>     6.1641     0.0000    72.0000 </r>
       <r>     6.2906     0.0000    72.0000 </r>
       <r>     6.4172     0.0000    72.0000 </r>
       <r>     6.5437     0.0000    72.0000 </r>
       <r>     6.6703     0.0000    72.0000 </r>
       <r>     6.7968     0.0000    72.0000 </r>
       <r>     6.9233     0.0000    72.0000 </r>
       <r>     7.0499     0.0000    72.0000 </r>
      </set>
     </set>
    </array>
   </total>
   <partial>
    <array>
     <dimension dim="1">gridpoints</dimension>
     <dimension dim="2">spin</dimension>
     <dimension dim="3">ion</dimension>
     <field>energy</field>
     <field>    s</field>
     <field>   py</field>
     <field>   pz</field>
     <field>   px</field>
     <field>  dxy</field>
     <field>  dyz</field>
     <field>  dz2</field>
     <field>  dxz</field>
     <field>x2-y2</field>
     <set>
      <set comment="ion 1">
       <set comment="spin 1">
        <r>   -30.9122     0.0000     0.0000     0.0000     0.0000     0.0000     0.0000     0.0000     0.0000     0.0000 </r>
        <r>   -30.7857     0.0000     0.0000     0.0000     0.0000     0.0000     0.0000     0.0000     0.0000     0.0000 </r>
        <r>   -30.6591     0.0000     0.0000     0.0000     0.0000     0.0000     0.0000     0.0000     0.0000     0.0000 </r>
        <r>   -30.5326     0.0000     0.0000     0.0000     0.0000     0.0000     0.0000     0.0000     0.0000     0.0000 </r>
        <r>   -30.4061     0.0000     0.0000     0.0000     0.0000     0.0000     0.0000     0.0000     0.0000     0.0000 </r>
        <r>   -30.2795     0.0000     0.0000     0.0000     0.0000     0.0000     0.0000     0.0000     0.0000     0.0000 </r>
        <r>   -30.1530     0.0000     0.0000     0.0000     0.0000     0.0000     0.0000     0.0000     0.0000     0.0000 </r>
        <r>   -30.0264     0.0000     0.0000     0.0000     0.0000     0.0000     0.0000     0.0000     0.0000     0.0000 </r>
        <r>   -29.8999     0.0000     0.0000     0.0000     0.0000     0.0000     0.0000     0.0000     0.0000     0.0000 </r>
        <r>   -29.7734     0.0000     0.0000     0.0000     0.0000     0.0000     0.0000     0.0000     0.0000     0.0000 </r>
        <r>   -29.6468     0.0000     0.0000     0.0000     0.0000     0.0000     0.0000     0.0000     0.0000     0.0000 </r>
        <r>   -29.5203     0.0000     0.0000     0.0000     0.0000     0.0000     0.0000     0.0000     0.0000     0.0000 </r>
        <r>   -29.3937     0.0043     0.0000     0.0000     0.0034     0.0000     0.0000     0.0000     0.0000     0.0000 </r>
        <r>   -29.2672     0.3191     0.0000     0.0000     0.2544     0.0000     0.0000     0.0000     0.0000     0.0000 </r>
        <r>   -29.1407     1.5615     0.0000     0.0000     1.2449     0.0000     0.0000     0.0000     0.0000     0.0000 </r>
        <r>   -29.0141     0.6354     0.0000     0.0000     0.5066     0.0000     0.0000     0.0000     0.0000     0.0000 </r>
        <r>   -28.8876     0.0186     0.0000     0.0000     0.0148     0.0000     0.0000     0.0000     0.0000     0.0000 </r>
        <r>   -28.7610     0.0000     0.0000     0.0000     0.0000     0.0000     0.0000     0.0000     0.0000     0.0000 </r>
        <r>   -28.6345     0.0000     0.0000     0.0000     0.0000     0.0000     0.0000     0.0000     0.0000     0.0000 </r>
        <r>   -28.5080     0.0000     0.0000     0.0000     0.0000     0.0000     0.0000     0.0000     0.0000     0.0000 </r>
        <r>   -28.3814     0.0000     0.0000     0.0000     0.0000     0.0000     0.0000     0.0000     0.0000     0.0000 </r>
        <r>   -28.2549     0.0000     0.0000     0.0000     0.0000     0.0000     0.0000     0.0000     0.0000     0.0000 </r>
        <r>   -28.1283     0.0000     0.0000     0.0000     0.0000     0.0000     0.0000     0.0000     0.0000     0.0000 </r>
        <r>   -28.0018     0.0000     0.0000     0.0000     0.0000     0.0000     0.0000     0.0000     0.0000     0.0000 </r>
        <r>   -27.8753     0.0000     0.0000     0.0000     0.0000     0.0000     0.0000     0.0000     0.0000     0.0000 </r>
        <r>   -27.7487     0.0000     0.0000     0.0000     0.0000     0.0000     0.0000     0.0000     0.0000     0.0000 </r>
        <r>   -27.6222     0.0000     0.0000     0.0000     0.0000     0.0000     0.0000     0.0000     0.0000     0.0000 </r>
        <r>   -27.4956     0.0000     0.0000     0.0000     0.0000     0.0000     0.0000     0.0000     0.0000     0.0000 </r>
        <r>   -27.3691     0.0000     0.0000     0.0000     0.0000     0.0000     0.0000     0.0000     0.0000     0.0000 </r>
        <r>   -27.2426     0.0000     0.0000     0.0000     0.0000     0.0000     0.0000     0.0000     0.0000     0.0000 </r>
        <r>   -27.1160     0.0000     0.0000     0.0000     0.0000     0.0000     0.0000     0.0000     0.0000     0.0000 </r>
        <r>   -26.9895     0.0000     0.0000     0.0000     0.0000     0.0000     0.0000     0.0000     0.0000     0.0000 </r>
        <r>   -26.8629     0.0000     0.0000     0.0000     0.0000     0.0000     0.0000     0.0000     0.0000     0.0000 </r>
        <r>   -26.7364     0.0000     0.0000     0.0000     0.0000     0.0000     0.0000     0.0000     0.0000     0.0000 </r>
        <r>   -26.6099     0.0000     0.0000     0.0000     0.0000     0.0000     0.0000     0.0000     0.0000     0.0000 </r>
        <r>   -26.4833     0.0000     0.0000     0.0000     0.0000     0.0000     0.0000     0.0000     0.0000     0.0000 </r>
        <r>   -26.3568     0.0000     0.0000     0.0000     0.0000     0.0000     0.0000     0.0000     0.0000     0.0000 </r>
        <r>   -26.2302     0.0000     0.0000     0.0000     0.0000     0.0000     0.0000     0.0000     0.0000     0.0000 </r>
        <r>   -26.1037     0.0000     0.0000     0.0000     0.0000     0.0000     0.0000     0.0000     0.0000     0.0000 </r>
        <r>   -25.9772     0.0000     0.0000     0.0000     0.0000     0.0000     0.0000     0.0000     0.0000     0.0000 </r>
        <r>   -25.8506     0.0000     0.0000     0.0000     0.0000     0.0000     0.0000     0.0000     0.0000     0.0000 </r>
        <r>   -25.7241     0.0000     0.0000     0.0000     0.0000     0.0000     0.0000     0.0000     0.0000     0.0000 </r>
        <r>   -25.5975     0.0000     0.0000     0.0000     0.0000     0.0000     0.0000     0.0000     0.0000     0.0000 </r>
        <r>   -25.4710     0.0000     0.0000     0.0000     0.0000     0.0000     0.0000     0.0000     0.0000     0.0000 </r>
        <r>   -25.3445     0.0000     0.0000     0.0000     0.0000     0.0000     0.0000     0.0000     0.0000     0.0000 </r>
        <r>   -25.2179     0.0000     0.0000     0.0000     0.0000     0.0000     0.0000     0.0000     0.0000     0.0000 </r>
        <r>   -25.0914     0.0000     0.0000     0.0000     0.0000     0.0000     0.0000     0.0000     0.0000     0.0000 </r>
        <r>   -24.9648     0.0000     0.0000     0.0000     0.0000     0.0000     0.0000     0.0000     0.0000     0.0000 </r>
        <r>   -24.8383     0.0000     0.0000     0.0000     0.0000     0.0000     0.0000     0.0000     0.0000     0.0000 </r>
        <r>   -24.7118     0.0000     0.0000     0.0000     0.0000     0.0000     0.0000     0.0000     0.0000     0.0000 </r>
        <r>   -24.5852     0.0000     0.0000     0.0000     0.0000     0.0000     0.0000     0.0000     0.0000     0.0000 </r>
        <r>   -24.4587     0.0000     0.0000     0.0000     0.0000     0.0000     0.0000     0.0000     0.0000     0.0000 </r>
        <r>   -24.3321     0.0000     0.0000     0.0000     0.0000     0.0000     0.0000     0.0000     0.0000     0.0000 </r>
        <r>   -24.2056     0.0000     0.0000     0.0000     0.0000     0.0000     0.0000     0.0000     0.0000     0.0000 </r>
        <r>   -24.0790     0.0000     0.0000     0.0000     0.0000     0.0000     0.0000     0.0000     0.0000     0.0000 </r>
        <r>   -23.9525     0.0000     0.0000     0.0000     0.0000     0.0000     0.0000     0.0000     0.0000     0.0000 </r>
        <r>   -23.8260     0.0000     0.0000     0.0000     0.0000     0.0000     0.0000     0.0000     0.0000     0.0000 </r>
        <r>   -23.6994     0.0000     0.0000     0.0000     0.0000     0.0000     0.0000     0.0000     0.0000     0.0000 </r>
        <r>   -23.5729     0.0000     0.0000     0.0000     0.0000     0.0000     0.0000     0.0000     0.0000     0.0000 </r>
        <r>   -23.4463     0.0000     0.0000     0.0000     0.0000     0.0000     0.0000     0.0000     0.0000     0.0000 </r>
        <r>   -23.3198     0.0000     0.0000     0.0000     0.0000     0.0000     0.0000     0.0000     0.0000     0.0000 </r>
        <r>   -23.1933     0.0000     0.0000     0.0000     0.0000     0.0000     0.0000     0.0000     0.0000     0.0000 </r>
        <r>   -23.0667     0.0000     0.0000     0.0000     0.0000     0.0000     0.0000     0.0000     0.0000     0.0000 </r>
        <r>   -22.9402     0.0000     0.0000     0.0000     0.0000     0.0000     0.0000     0.0000     0.0000     0.0000 </r>
        <r>   -22.8136     0.0000     0.0000     0.0000     0.0000     0.0000     0.0000     0.0000     0.0000     0.0000 </r>
        <r>   -22.6871     0.0000     0.0000     0.0000     0.0000     0.0000     0.0000     0.0000     0.0000     0.0000 </r>
        <r>   -22.5606     0.0000     0.0000     0.0000     0.0000     0.0000     0.0000     0.0000     0.0000     0.0000 </r>
        <r>   -22.4340     0.0000     0.0000     0.0000     0.0000     0.0000     0.0000     0.0000     0.0000     0.0000 </r>
        <r>   -22.3075     0.0000     0.0000     0.0000     0.0000     0.0000     0.0000     0.0000     0.0000     0.0000 </r>
        <r>   -22.1809     0.0000     0.0000     0.0000     0.0000     0.0000     0.0000     0.0000     0.0000     0.0000 </r>
        <r>   -22.0544     0.0000     0.0000     0.0000     0.0000     0.0000     0.0000     0.0000     0.0000     0.0000 </r>
        <r>   -21.9279     0.0000     0.0000     0.0000     0.0000     0.0000     0.0000     0.0000     0.0000     0.0000 </r>
        <r>   -21.8013     0.0000     0.0000     0.0000     0.0000     0.0000     0.0000     0.0000     0.0000     0.0000 </r>
        <r>   -21.6748     0.0000     0.0000     0.0000     0.0000     0.0000     0.0000     0.0000     0.0000     0.0000 </r>
        <r>   -21.5482     0.0000     0.0000     0.0000     0.0000     0.0000     0.0000     0.0000     0.0000     0.0000 </r>
        <r>   -21.4217     0.0000     0.0000     0.0000     0.0000     0.0000     0.0000     0.0000     0.0000     0.0000 </r>
        <r>   -21.2952     0.0000     0.0000     0.0000     0.0000     0.0000     0.0000     0.0000     0.0000     0.0000 </r>
        <r>   -21.1686     0.0000     0.0000     0.0000     0.0000     0.0000     0.0000     0.0000     0.0000     0.0000 </r>
        <r>   -21.0421     0.0000     0.0000     0.0000     0.0000     0.0000     0.0000     0.0000     0.0000     0.0000 </r>
        <r>   -20.9155     0.0000     0.0000     0.0000     0.0000     0.0000     0.0000     0.0000     0.0000     0.0000 </r>
        <r>   -20.7890     0.0000     0.0000     0.0000     0.0000     0.0000     0.0000     0.0000     0.0000     0.0000 </r>
        <r>   -20.6625     0.0000     0.0000     0.0000     0.0000     0.0000     0.0000     0.0000     0.0000     0.0000 </r>
        <r>   -20.5359     0.0000     0.0000     0.0000     0.0000     0.0000     0.0000     0.0000     0.0000     0.0000 </r>
        <r>   -20.4094     0.0000     0.0000     0.0000     0.0000     0.0000     0.0000     0.0000     0.0000     0.0000 </r>
        <r>   -20.2828     0.0000     0.0000     0.0000     0.0000     0.0000     0.0000     0.0000     0.0000     0.0000 </r>
        <r>   -20.1563     0.0000     0.0000     0.0000     0.0000     0.0000     0.0000     0.0000     0.0000     0.0000 </r>
        <r>   -20.0298     0.0000     0.0000     0.0000     0.0000     0.0000     0.0000     0.0000     0.0000     0.0000 </r>
        <r>   -19.9032     0.0000     0.0000     0.0000     0.0000     0.0000     0.0000     0.0000     0.0000     0.0000 </r>
        <r>   -19.7767     0.0000     0.0000     0.0000     0.0000     0.0000     0.0000     0.0000     0.0000     0.0000 </r>
        <r>   -19.6501     0.0000     0.0000     0.0000     0.0000     0.0000     0.0000     0.0000     0.0000     0.0000 </r>
        <r>   -19.5236     0.0000     0.0000     0.0000     0.0000     0.0000     0.0000     0.0000     0.0000     0.0000 </r>
        <r>   -19.3971     0.0000     0.0000     0.0000     0.0000     0.0000     0.0000     0.0000     0.0000     0.0000 </r>
        <r>   -19.2705     0.0000     0.0000     0.0000     0.0000     0.0000     0.0000     0.0000     0.0000     0.0000 </r>
        <r>   -19.1440     0.0000     0.0000     0.0000     0.0000     0.0000     0.0000     0.0000     0.0000     0.0000 </r>
        <r>   -19.0174     0.0000     0.0000     0.0000     0.0000     0.0000     0.0000     0.0000     0.0000     0.0000 </r>
        <r>   -18.8909     0.0000     0.0000     0.0000     0.0000     0.0000     0.0000     0.0000     0.0000     0.0000 </r>
        <r>   -18.7644     0.0000     0.0000     0.0000     0.0000     0.0000     0.0000     0.0000     0.0000     0.0000 </r>
        <r>   -18.6378     0.0000     0.0000     0.0000     0.0000     0.0000     0.0000     0.0000     0.0000     0.0000 </r>
        <r>   -18.5113     0.0000     0.0000     0.0000     0.0000     0.0000     0.0000     0.0000     0.0000     0.0000 </r>
        <r>   -18.3847     0.0000     0.0000     0.0000     0.0000     0.0000     0.0000     0.0000     0.0000     0.0000 </r>
        <r>   -18.2582     0.0000     0.0000     0.0000     0.0000     0.0000     0.0000     0.0000     0.0000     0.0000 </r>
        <r>   -18.1317     0.0000     0.0000     0.0000     0.0000     0.0000     0.0000     0.0000     0.0000     0.0000 </r>
        <r>   -18.0051     0.0000     0.0000     0.0000     0.0000     0.0000     0.0000     0.0000     0.0000     0.0000 </r>
        <r>   -17.8786     0.0000     0.0000     0.0000     0.0000     0.0000     0.0000     0.0000     0.0000     0.0000 </r>
        <r>   -17.7520     0.0000     0.0000     0.0000     0.0000     0.0000     0.0000     0.0000     0.0000     0.0000 </r>
        <r>   -17.6255     0.0000     0.0000     0.0000     0.0000     0.0000     0.0000     0.0000     0.0000     0.0000 </r>
        <r>   -17.4990     0.0000     0.0000     0.0000     0.0000     0.0000     0.0000     0.0000     0.0000     0.0000 </r>
        <r>   -17.3724     0.0000     0.0000     0.0000     0.0000     0.0000     0.0000     0.0000     0.0000     0.0000 </r>
        <r>   -17.2459     0.0000     0.0000     0.0000     0.0000     0.0000     0.0000     0.0000     0.0000     0.0000 </r>
        <r>   -17.1193     0.0000     0.0000     0.0000     0.0000     0.0000     0.0000     0.0000     0.0000     0.0000 </r>
        <r>   -16.9928     0.0000     0.0000     0.0000     0.0000     0.0000     0.0000     0.0000     0.0000     0.0000 </r>
        <r>   -16.8662     0.0000     0.0000     0.0000     0.0000     0.0000     0.0000     0.0000     0.0000     0.0000 </r>
        <r>   -16.7397     0.0000     0.0000     0.0000     0.0000     0.0000     0.0000     0.0000     0.0000     0.0000 </r>
        <r>   -16.6132     0.0000     0.0000     0.0000     0.0000     0.0000     0.0000     0.0000     0.0000     0.0000 </r>
        <r>   -16.4866     0.0000     0.0000     0.0000     0.0000     0.0000     0.0000     0.0000     0.0000     0.0000 </r>
        <r>   -16.3601     0.0000     0.0000     0.0000     0.0000     0.0000     0.0000     0.0000     0.0000     0.0000 </r>
        <r>   -16.2335     0.0000     0.0000     0.0000     0.0000     0.0000     0.0000     0.0000     0.0000     0.0000 </r>
        <r>   -16.1070     0.0000     0.0000     0.0000     0.0000     0.0000     0.0000     0.0000     0.0000     0.0000 </r>
        <r>   -15.9805     0.0000     0.0000     0.0000     0.0000     0.0000     0.0000     0.0000     0.0000     0.0000 </r>
        <r>   -15.8539     0.0000     0.0000     0.0000     0.0000     0.0000     0.0000     0.0000     0.0000     0.0000 </r>
        <r>   -15.7274     0.0000     0.0000     0.0000     0.0000     0.0000     0.0000     0.0000     0.0000     0.0000 </r>
        <r>   -15.6008     0.0000     0.0000     0.0000     0.0000     0.0000     0.0000     0.0000     0.0000     0.0000 </r>
        <r>   -15.4743     0.0000     0.0000     0.0000     0.0000     0.0000     0.0000     0.0000     0.0000     0.0000 </r>
        <r>   -15.3478     0.0000     0.0000     0.0000     0.0000     0.0000     0.0000     0.0000     0.0000     0.0000 </r>
        <r>   -15.2212     0.0000     0.0000     0.0000     0.0000     0.0000     0.0000     0.0000     0.0000     0.0000 </r>
        <r>   -15.0947     0.0000     0.0000     0.0000     0.0000     0.0000     0.0000     0.0000     0.0000     0.0000 </r>
        <r>   -14.9681     0.0000     0.0000     0.0000     0.0000     0.0000     0.0000     0.0000     0.0000     0.0000 </r>
        <r>   -14.8416     0.0000     0.0000     0.0000     0.0000     0.0000     0.0000     0.0000     0.0000     0.0000 </r>
        <r>   -14.7151     0.0000     0.0000     0.0000     0.0000     0.0000     0.0000     0.0000     0.0000     0.0000 </r>
        <r>   -14.5885     0.0000     0.0000     0.0000     0.0000     0.0000     0.0000     0.0000     0.0000     0.0000 </r>
        <r>   -14.4620     0.0000     0.0000     0.0000     0.0000     0.0000     0.0000     0.0000     0.0000     0.0000 </r>
        <r>   -14.3354     0.0000     0.0000     0.0000     0.0000     0.0000     0.0000     0.0000     0.0000     0.0000 </r>
        <r>   -14.2089     0.0001     0.0000     0.0000     0.0000     0.0000     0.0000     0.0000     0.0000     0.0000 </r>
        <r>   -14.0824     0.0501     0.0000     0.0000     0.0051     0.0000     0.0000     0.0000     0.0000     0.0000 </r>
        <r>   -13.9558     1.0337     0.0000     0.0000     0.1047     0.0000     0.0000     0.0000     0.0000     0.0000 </r>
        <r>   -13.8293     1.6136     0.0000     0.0000     0.1634     0.0000     0.0000     0.0000     0.0000     0.0000 </r>
        <r>   -13.7027     0.2055     0.0000     0.0000     0.0208     0.0000     0.0000     0.0000     0.0000     0.0000 </r>
        <r>   -13.5762     0.0016     0.0000     0.0000     0.0002     0.0000     0.0000     0.0000     0.0000     0.0000 </r>
        <r>   -13.4497     0.0000     0.0000     0.0000     0.0000     0.0000     0.0000     0.0000     0.0000     0.0000 </r>
        <r>   -13.3231     0.0000     0.0000     0.0000     0.0000     0.0000     0.0000     0.0000     0.0000     0.0000 </r>
        <r>   -13.1966     0.0000     0.0000     0.0000     0.0000     0.0000     0.0000     0.0000     0.0000     0.0000 </r>
        <r>   -13.0700     0.0000     0.0000     0.0000     0.0000     0.0000     0.0000     0.0000     0.0000     0.0000 </r>
        <r>   -12.9435     0.0000     0.0000     0.0000     0.0000     0.0000     0.0000     0.0000     0.0000     0.0000 </r>
        <r>   -12.8170     0.0000     0.0000     0.0000     0.0000     0.0000     0.0000     0.0000     0.0000     0.0000 </r>
        <r>   -12.6904     0.0000     0.0000     0.0000     0.0000     0.0000     0.0000     0.0000     0.0000     0.0000 </r>
        <r>   -12.5639     0.0000     0.0000     0.0000     0.0000     0.0000     0.0000     0.0000     0.0000     0.0000 </r>
        <r>   -12.4373     0.0000     0.0000     0.0000     0.0000     0.0000     0.0000     0.0000     0.0000     0.0000 </r>
        <r>   -12.3108     0.0000     0.0000     0.0000     0.0000     0.0000     0.0000     0.0000     0.0000     0.0000 </r>
        <r>   -12.1843     0.0000     0.0000     0.0000     0.0000     0.0000     0.0000     0.0000     0.0000     0.0000 </r>
        <r>   -12.0577     0.0000     0.0000     0.0000     0.0000     0.0000     0.0000     0.0000     0.0000     0.0000 </r>
        <r>   -11.9312     0.0000     0.0003     0.0003     0.0000     0.0000     0.0000     0.0000     0.0000     0.0000 </r>
        <r>   -11.8046     0.0000     0.0781     0.0763     0.0000     0.0000     0.0000     0.0000     0.0000     0.0000 </r>
        <r>   -11.6781     0.0000     1.0974     1.0889     0.0000     0.0000     0.0000     0.0000     0.0000     0.0000 </r>
        <r>   -11.5516     0.0000     1.2081     1.2155     0.0000     0.0000     0.0000     0.0000     0.0000     0.0000 </r>
        <r>   -11.4250     0.0000     0.1059     0.1082     0.0000     0.0000     0.0000     0.0000     0.0000     0.0000 </r>
        <r>   -11.2985     0.0000     0.0006     0.0006     0.0000     0.0000     0.0000     0.0000     0.0000     0.0000 </r>
        <r>   -11.1719     0.0000     0.0000     0.0000     0.0000     0.0000     0.0000     0.0000     0.0000     0.0000 </r>
        <r>   -11.0454     0.0000     0.0000     0.0000     0.0000     0.0000     0.0000     0.0000     0.0000     0.0000 </r>
        <r>   -10.9189     0.0000     0.0000     0.0000     0.0000     0.0000     0.0000     0.0000     0.0000     0.0000 </r>
        <r>   -10.7923     0.0000     0.0000     0.0000     0.0000     0.0000     0.0000     0.0000     0.0000     0.0000 </r>
        <r>   -10.6658     0.0000     0.0000     0.0000     0.0000     0.0000     0.0000     0.0000     0.0000     0.0000 </r>
        <r>   -10.5392     0.0000     0.0000     0.0000     0.0000     0.0000     0.0000     0.0000     0.0000     0.0000 </r>
        <r>   -10.4127     0.0000     0.0000     0.0000     0.0000     0.0000     0.0000     0.0000     0.0000     0.0000 </r>
        <r>   -10.2862     0.0000     0.0000     0.0000     0.0000     0.0000     0.0000     0.0000     0.0000     0.0000 </r>
        <r>   -10.1596     0.0000     0.0000     0.0000     0.0000     0.0000     0.0000     0.0000     0.0000     0.0000 </r>
        <r>   -10.0331     0.0000     0.0000     0.0000     0.0000     0.0000     0.0000     0.0000     0.0000     0.0000 </r>
        <r>    -9.9065     0.0000     0.0000     0.0000     0.0000     0.0000     0.0000     0.0000     0.0000     0.0000 </r>
        <r>    -9.7800     0.0000     0.0000     0.0000     0.0000     0.0000     0.0000     0.0000     0.0000     0.0000 </r>
        <r>    -9.6534     0.0000     0.0000     0.0000     0.0000     0.0000     0.0000     0.0000     0.0000     0.0000 </r>
        <r>    -9.5269     0.0000     0.0000     0.0000     0.0000     0.0000     0.0000     0.0000     0.0000     0.0000 </r>
        <r>    -9.4004     0.0000     0.0000     0.0000     0.0000     0.0000     0.0000     0.0000     0.0000     0.0000 </r>
        <r>    -9.2738     0.0000     0.0000     0.0000     0.0000     0.0000     0.0000     0.0000     0.0000     0.0000 </r>
        <r>    -9.1473     0.0001     0.0000     0.0000     0.0002     0.0000     0.0000     0.0000     0.0000     0.0000 </r>
        <r>    -9.0207     0.0501     0.0000     0.0000     0.0776     0.0000     0.0000     0.0000     0.0000     0.0000 </r>
        <r>    -8.8942     0.9808     0.0000     0.0000     1.5202     0.0000     0.0000     0.0000     0.0000     0.0000 </r>
        <r>    -8.7677     1.4605     0.0000     0.0000     2.2637     0.0000     0.0000     0.0000     0.0000     0.0000 </r>
        <r>    -8.6411     0.1769     0.0000     0.0000     0.2742     0.0000     0.0000     0.0000     0.0000     0.0000 </r>
        <r>    -8.5146     0.0013     0.0000     0.0000     0.0021     0.0000     0.0000     0.0000     0.0000     0.0000 </r>
        <r>    -8.3880     0.0000     0.0000     0.0000     0.0000     0.0000     0.0000     0.0000     0.0000     0.0000 </r>
        <r>    -8.2615     0.0000     0.0000     0.0000     0.0000     0.0000     0.0000     0.0000     0.0000     0.0000 </r>
        <r>    -8.1350     0.0000     0.0000     0.0000     0.0000     0.0000     0.0000     0.0000     0.0000     0.0000 </r>
        <r>    -8.0084     0.0000     0.0000     0.0000     0.0000     0.0000     0.0000     0.0000     0.0000     0.0000 </r>
        <r>    -7.8819     0.0000     0.0000     0.0000     0.0000     0.0000     0.0000     0.0000     0.0000     0.0000 </r>
        <r>    -7.7553     0.0000     0.0000     0.0000     0.0000     0.0000     0.0000     0.0000     0.0000     0.0000 </r>
        <r>    -7.6288     0.0000     0.0000     0.0000     0.0000     0.0000     0.0000     0.0000     0.0000     0.0000 </r>
        <r>    -7.5023     0.0000     0.0000     0.0000     0.0000     0.0000     0.0000     0.0000     0.0000     0.0000 </r>
        <r>    -7.3757     0.0000     0.0000     0.0000     0.0000     0.0000     0.0000     0.0000     0.0000     0.0000 </r>
        <r>    -7.2492     0.0000     0.0000     0.0000     0.0000     0.0000     0.0000     0.0000     0.0000     0.0000 </r>
        <r>    -7.1226     0.0000     0.0000     0.0000     0.0000     0.0000     0.0000     0.0000     0.0000     0.0000 </r>
        <r>    -6.9961     0.0000     0.0000     0.0000     0.0000     0.0000     0.0000     0.0000     0.0000     0.0000 </r>
        <r>    -6.8696     0.0000     0.0000     0.0000     0.0000     0.0000     0.0000     0.0000     0.0000     0.0000 </r>
        <r>    -6.7430     0.0000     0.0000     0.0000     0.0000     0.0000     0.0000     0.0000     0.0000     0.0000 </r>
        <r>    -6.6165     0.0000     0.0000     0.0000     0.0000     0.0000     0.0000     0.0000     0.0000     0.0000 </r>
        <r>    -6.4899     0.0000     0.0000     0.0000     0.0000     0.0000     0.0000     0.0000     0.0000     0.0000 </r>
        <r>    -6.3634     0.0000     0.0000     0.0000     0.0000     0.0000     0.0000     0.0000     0.0000     0.0000 </r>
        <r>    -6.2369     0.0000     0.0000     0.0000     0.0000     0.0000     0.0000     0.0000     0.0000     0.0000 </r>
        <r>    -6.1103     0.0000     0.0000     0.0000     0.0000     0.0000     0.0000     0.0000     0.0000     0.0000 </r>
        <r>    -5.9838     0.0000     0.0000     0.0000     0.0000     0.0000     0.0000     0.0000     0.0000     0.0000 </r>
        <r>    -5.8572     0.0000     0.0000     0.0000     0.0000     0.0000     0.0000     0.0000     0.0000     0.0000 </r>
        <r>    -5.7307     0.0000     0.0000     0.0000     0.0000     0.0000     0.0000     0.0000     0.0000     0.0000 </r>
        <r>    -5.6042     0.0000     0.0000     0.0000     0.0000     0.0000     0.0000     0.0000     0.0000     0.0000 </r>
        <r>    -5.4776     0.0000     0.0000     0.0000     0.0000     0.0000     0.0000     0.0000     0.0000     0.0000 </r>
        <r>    -5.3511     0.0000     0.0000     0.0000     0.0000     0.0000     0.0000     0.0000     0.0000     0.0000 </r>
        <r>    -5.2245     0.0000     0.0000     0.0000     0.0000     0.0000     0.0000     0.0000     0.0000     0.0000 </r>
        <r>    -5.0980     0.0000     0.0000     0.0000     0.0000     0.0000     0.0000     0.0000     0.0000     0.0000 </r>
        <r>    -4.9715     0.0000     0.0000     0.0000     0.0000     0.0000     0.0000     0.0000     0.0000     0.0000 </r>
        <r>    -4.8449     0.0000     0.0000     0.0000     0.0000     0.0000     0.0000     0.0000     0.0000     0.0000 </r>
        <r>    -4.7184     0.0000     0.0000     0.0000     0.0000     0.0000     0.0000     0.0000     0.0000     0.0000 </r>
        <r>    -4.5918     0.0000     0.0000     0.0000     0.0000     0.0000     0.0000     0.0000     0.0000     0.0000 </r>
        <r>    -4.4653     0.0000     0.0000     0.0000     0.0000     0.0000     0.0000     0.0000     0.0000     0.0000 </r>
        <r>    -4.3388     0.0000     0.0000     0.0000     0.0000     0.0000     0.0000     0.0000     0.0000     0.0000 </r>
        <r>    -4.2122     0.0000     0.0000     0.0000     0.0000     0.0000     0.0000     0.0000     0.0000     0.0000 </r>
        <r>    -4.0857     0.0000     0.0000     0.0000     0.0000     0.0000     0.0000     0.0000     0.0000     0.0000 </r>
        <r>    -3.9591     0.0000     0.0000     0.0000     0.0000     0.0000     0.0000     0.0000     0.0000     0.0000 </r>
        <r>    -3.8326     0.0000     0.0000     0.0000     0.0000     0.0000     0.0000     0.0000     0.0000     0.0000 </r>
        <r>    -3.7061     0.0000     0.0000     0.0000     0.0000     0.0000     0.0000     0.0000     0.0000     0.0000 </r>
        <r>    -3.5795     0.0000     0.0000     0.0000     0.0000     0.0000     0.0000     0.0000     0.0000     0.0000 </r>
        <r>    -3.4530     0.0000     0.0000     0.0000     0.0000     0.0000     0.0000     0.0000     0.0000     0.0000 </r>
        <r>    -3.3264     0.0000     0.0000     0.0000     0.0000     0.0000     0.0000     0.0000     0.0000     0.0000 </r>
        <r>    -3.1999     0.0000     0.0000     0.0000     0.0000     0.0000     0.0000     0.0000     0.0000     0.0000 </r>
        <r>    -3.0734     0.0000     0.0000     0.0000     0.0000     0.0000     0.0000     0.0000     0.0000     0.0000 </r>
        <r>    -2.9468     0.0000     0.0000     0.0000     0.0000     0.0000     0.0000     0.0000     0.0000     0.0000 </r>
        <r>    -2.8203     0.0000     0.0000     0.0000     0.0000     0.0000     0.0000     0.0000     0.0000     0.0000 </r>
        <r>    -2.6937     0.0000     0.0000     0.0000     0.0000     0.0000     0.0000     0.0000     0.0000     0.0000 </r>
        <r>    -2.5672     0.0000     0.0000     0.0000     0.0000     0.0000     0.0000     0.0000     0.0000     0.0000 </r>
        <r>    -2.4406     0.0000     0.0000     0.0000     0.0000     0.0000     0.0000     0.0000     0.0000     0.0000 </r>
        <r>    -2.3141     0.0000     0.0000     0.0000     0.0000     0.0000     0.0000     0.0000     0.0000     0.0000 </r>
        <r>    -2.1876     0.0000     0.0023     0.0026     0.0000     0.0000     0.0000     0.0000     0.0000     0.0000 </r>
        <r>    -2.0610     0.0000     0.3162     0.3383     0.0000     0.0000     0.0000     0.0000     0.0000     0.0000 </r>
        <r>    -1.9345     0.0000     2.6737     2.7176     0.0000     0.0000     0.0000     0.0000     0.0000     0.0000 </r>
        <r>    -1.8079     0.0000     1.8365     1.7789     0.0000     0.0000     0.0000     0.0000     0.0000     0.0000 </r>
        <r>    -1.6814     0.0000     0.0962     0.0883     0.0000     0.0000     0.0000     0.0000     0.0000     0.0000 </r>
        <r>    -1.5549     0.0000     0.0003     0.0003     0.0000     0.0000     0.0000     0.0000     0.0000     0.0000 </r>
        <r>    -1.4283     0.0000     0.0000     0.0000     0.0000     0.0000     0.0000     0.0000     0.0000     0.0000 </r>
        <r>    -1.3018     0.0000     0.0000     0.0000     0.0000     0.0000     0.0000     0.0000     0.0000     0.0000 </r>
        <r>    -1.1752     0.0000     0.0000     0.0000     0.0000     0.0000     0.0000     0.0000     0.0000     0.0000 </r>
        <r>    -1.0487     0.0000     0.0000     0.0000     0.0000     0.0000     0.0000     0.0000     0.0000     0.0000 </r>
        <r>    -0.9222     0.0000     0.0000     0.0000     0.0000     0.0000     0.0000     0.0000     0.0000     0.0000 </r>
        <r>    -0.7956     0.0000     0.0000     0.0000     0.0000     0.0000     0.0000     0.0000     0.0000     0.0000 </r>
        <r>    -0.6691     0.0000     0.0000     0.0000     0.0000     0.0000     0.0000     0.0000     0.0000     0.0000 </r>
        <r>    -0.5425     0.0000     0.0000     0.0000     0.0000     0.0000     0.0000     0.0000     0.0000     0.0000 </r>
        <r>    -0.4160     0.0001     0.0000     0.0000     0.0001     0.0000     0.0000     0.0000     0.0000     0.0000 </r>
        <r>    -0.2895     0.0079     0.0000     0.0000     0.0079     0.0000     0.0000     0.0000     0.0000     0.0000 </r>
        <r>    -0.1629     0.0460     0.0000     0.0000     0.0458     0.0000     0.0000     0.0000     0.0000     0.0000 </r>
        <r>    -0.0364     0.0221     0.0000     0.0000     0.0220     0.0000     0.0000     0.0000     0.0000     0.0000 </r>
        <r>     0.0902     0.0008     0.0000     0.0000     0.0008     0.0000     0.0000     0.0000     0.0000     0.0000 </r>
        <r>     0.2167     0.0000     0.0000     0.0000     0.0000     0.0000     0.0000     0.0000     0.0000     0.0000 </r>
        <r>     0.3432     0.0000     0.0000     0.0000     0.0000     0.0000     0.0000     0.0000     0.0000     0.0000 </r>
        <r>     0.4698     0.0000     0.0000     0.0000     0.0000     0.0000     0.0000     0.0000     0.0000     0.0000 </r>
        <r>     0.5963     0.0000     0.0000     0.0000     0.0000     0.0000     0.0000     0.0000     0.0000     0.0000 </r>
        <r>     0.7229     0.0000     0.0000     0.0000     0.0000     0.0000     0.0000     0.0000     0.0000     0.0000 </r>
        <r>     0.8494     0.0000     0.0000     0.0000     0.0000     0.0000     0.0000     0.0000     0.0000     0.0000 </r>
        <r>     0.9759     0.0003     0.0007     0.0022     0.0002     0.0000     0.0000     0.0000     0.0000     0.0000 </r>
        <r>     1.1025     0.0028     0.0480     0.0793     0.0026     0.0000     0.0000     0.0000     0.0000     0.0000 </r>
        <r>     1.2290     0.0131     0.2092     0.2061     0.0052     0.0000     0.0000     0.0000     0.0000     0.0000 </r>
        <r>     1.3556     0.0803     0.0760     0.0446     0.0414     0.0000     0.0000     0.0000     0.0000     0.0000 </r>
        <r>     1.4821     0.0898     0.0020     0.0006     0.0620     0.0000     0.0000     0.0000     0.0000     0.0000 </r>
        <r>     1.6086     0.0110     0.0000     0.0000     0.0082     0.0000     0.0000     0.0000     0.0000     0.0000 </r>
        <r>     1.7352     0.0001     0.0000     0.0000     0.0001     0.0000     0.0000     0.0000     0.0000     0.0000 </r>
        <r>     1.8617     0.0000     0.0000     0.0000     0.0000     0.0000     0.0000     0.0000     0.0000     0.0000 </r>
        <r>     1.9883     0.0000     0.0000     0.0000     0.0000     0.0000     0.0000     0.0000     0.0000     0.0000 </r>
        <r>     2.1148     0.0000     0.0000     0.0000     0.0000     0.0000     0.0000     0.0000     0.0000     0.0000 </r>
        <r>     2.2413     0.0000     0.0000     0.0000     0.0000     0.0000     0.0000     0.0000     0.0000     0.0000 </r>
        <r>     2.3679     0.0006     0.0004     0.0006     0.0000     0.0000     0.0000     0.0000     0.0000     0.0000 </r>
        <r>     2.4944     0.0124     0.0228     0.0239     0.0000     0.0000     0.0000     0.0000     0.0000     0.0000 </r>
        <r>     2.6210     0.0203     0.0913     0.0918     0.0000     0.0000     0.0000     0.0000     0.0000     0.0000 </r>
        <r>     2.7475     0.0187     0.1624     0.1969     0.0001     0.0000     0.0000     0.0000     0.0000     0.0000 </r>
        <r>     2.8740     0.0115     0.1588     0.1343     0.0003     0.0000     0.0000     0.0000     0.0000     0.0000 </r>
        <r>     3.0006     0.0293     0.0273     0.0133     0.0168     0.0000     0.0000     0.0000     0.0000     0.0000 </r>
        <r>     3.1271     0.1252     0.0008     0.0002     0.0733     0.0000     0.0000     0.0000     0.0000     0.0000 </r>
        <r>     3.2537     0.0455     0.0000     0.0000     0.0267     0.0000     0.0000     0.0000     0.0000     0.0000 </r>
        <r>     3.3802     0.0012     0.0000     0.0000     0.0007     0.0000     0.0000     0.0000     0.0000     0.0000 </r>
        <r>     3.5067     0.0000     0.0000     0.0000     0.0000     0.0000     0.0000     0.0000     0.0000     0.0000 </r>
        <r>     3.6333     0.0000     0.0000     0.0000     0.0000     0.0000     0.0000     0.0000     0.0000     0.0000 </r>
        <r>     3.7598     0.0000     0.0000     0.0000     0.0000     0.0000     0.0000     0.0000     0.0000     0.0000 </r>
        <r>     3.8864     0.0000     0.0000     0.0000     0.0000     0.0000     0.0000     0.0000     0.0000     0.0000 </r>
        <r>     4.0129     0.0002     0.0002     0.0002     0.0000     0.0000     0.0000     0.0000     0.0000     0.0000 </r>
        <r>     4.1395     0.0061     0.0106     0.0103     0.0004     0.0000     0.0000     0.0000     0.0000     0.0000 </r>
        <r>     4.2660     0.0132     0.1083     0.1048     0.0010     0.0000     0.0000     0.0000     0.0000     0.0000 </r>
        <r>     4.3925     0.0357     0.1042     0.1028     0.0074     0.0000     0.0000     0.0000     0.0000     0.0000 </r>
        <r>     4.5191     0.0595     0.0081     0.0082     0.0129     0.0000     0.0000     0.0000     0.0000     0.0000 </r>
        <r>     4.6456     0.0086     0.0000     0.0000     0.0019     0.0000     0.0000     0.0000     0.0000     0.0000 </r>
        <r>     4.7722     0.0001     0.0000     0.0000     0.0000     0.0000     0.0000     0.0000     0.0000     0.0000 </r>
        <r>     4.8987     0.0001     0.0000     0.0000     0.0001     0.0000     0.0000     0.0000     0.0000     0.0000 </r>
        <r>     5.0252     0.0004     0.0000     0.0000     0.0003     0.0000     0.0000     0.0000     0.0000     0.0000 </r>
        <r>     5.1518     0.0002     0.0000     0.0000     0.0003     0.0000     0.0000     0.0000     0.0000     0.0000 </r>
        <r>     5.2783     0.0017     0.0000     0.0000     0.0059     0.0000     0.0000     0.0000     0.0000     0.0000 </r>
        <r>     5.4049     0.0042     0.0000     0.0000     0.0144     0.0000     0.0000     0.0000     0.0000     0.0000 </r>
        <r>     5.5314     0.0009     0.0000     0.0000     0.0029     0.0000     0.0000     0.0000     0.0000     0.0000 </r>
        <r>     5.6579     0.0000     0.0000     0.0000     0.0000     0.0000     0.0000     0.0000     0.0000     0.0000 </r>
        <r>     5.7845     0.0000     0.0000     0.0000     0.0000     0.0000     0.0000     0.0000     0.0000     0.0000 </r>
        <r>     5.9110     0.0000     0.0000     0.0000     0.0000     0.0000     0.0000     0.0000     0.0000     0.0000 </r>
        <r>     6.0376     0.0000     0.0000     0.0000     0.0000     0.0000     0.0000     0.0000     0.0000     0.0000 </r>
        <r>     6.1641     0.0000     0.0000     0.0000     0.0000     0.0000     0.0000     0.0000     0.0000     0.0000 </r>
        <r>     6.2906     0.0000     0.0000     0.0000     0.0000     0.0000     0.0000     0.0000     0.0000     0.0000 </r>
        <r>     6.4172     0.0000     0.0000     0.0000     0.0000     0.0000     0.0000     0.0000     0.0000     0.0000 </r>
        <r>     6.5437     0.0000     0.0000     0.0000     0.0000     0.0000     0.0000     0.0000     0.0000     0.0000 </r>
[...]
        <r>    -1.6814     0.0000     0.0636     0.0584     0.0000     0.0000     0.0000     0.0000     0.0000     0.0000 </r>
        <r>    -1.5549     0.0000     0.0002     0.0002     0.0000     0.0000     0.0000     0.0000     0.0000     0.0000 </r>
        <r>    -1.4283     0.0000     0.0000     0.0000     0.0000     0.0000     0.0000     0.0000     0.0000     0.0000 </r>
        <r>    -1.3018     0.0000     0.0000     0.0000     0.0000     0.0000     0.0000     0.0000     0.0000     0.0000 </r>
        <r>    -1.1752     0.0000     0.0000     0.0000     0.0000     0.0000     0.0000     0.0000     0.0000     0.0000 </r>
        <r>    -1.0487     0.0000     0.0000     0.0000     0.0000     0.0000     0.0000     0.0000     0.0000     0.0000 </r>
        <r>    -0.9222     0.0000     0.0000     0.0000     0.0000     0.0000     0.0000     0.0000     0.0000     0.0000 </r>
        <r>    -0.7956     0.0000     0.0000     0.0000     0.0000     0.0000     0.0000     0.0000     0.0000     0.0000 </r>
        <r>    -0.6691     0.0000     0.0000     0.0000     0.0000     0.0000     0.0000     0.0000     0.0000     0.0000 </r>
        <r>    -0.5425     0.0000     0.0000     0.0000     0.0000     0.0000     0.0000     0.0000     0.0000     0.0000 </r>
        <r>    -0.4160     0.0000     0.0000     0.0000     0.0000     0.0000     0.0000     0.0000     0.0000     0.0000 </r>
        <r>    -0.2895     0.0040     0.0000     0.0000     0.0036     0.0000     0.0000     0.0000     0.0000     0.0000 </r>
        <r>    -0.1629     0.0230     0.0000     0.0000     0.0211     0.0000     0.0000     0.0000     0.0000     0.0000 </r>
        <r>    -0.0364     0.0110     0.0000     0.0000     0.0101     0.0000     0.0000     0.0000     0.0000     0.0000 </r>
        <r>     0.0902     0.0004     0.0000     0.0000     0.0004     0.0000     0.0000     0.0000     0.0000     0.0000 </r>
        <r>     0.2167     0.0000     0.0000     0.0000     0.0000     0.0000     0.0000     0.0000     0.0000     0.0000 </r>
        <r>     0.3432     0.0000     0.0000     0.0000     0.0000     0.0000     0.0000     0.0000     0.0000     0.0000 </r>
        <r>     0.4698     0.0000     0.0000     0.0000     0.0000     0.0000     0.0000     0.0000     0.0000     0.0000 </r>
        <r>     0.5963     0.0000     0.0000     0.0000     0.0000     0.0000     0.0000     0.0000     0.0000     0.0000 </r>
        <r>     0.7229     0.0000     0.0000     0.0000     0.0000     0.0000     0.0000     0.0000     0.0000     0.0000 </r>
        <r>     0.8494     0.0000     0.0000     0.0000     0.0000     0.0000     0.0000     0.0000     0.0000     0.0000 </r>
        <r>     0.9759     0.0076     0.0000     0.0000     0.0004     0.0000     0.0000     0.0000     0.0000     0.0000 </r>
        <r>     1.1025     0.0794     0.0003     0.0004     0.0042     0.0000     0.0000     0.0000     0.0000     0.0000 </r>
        <r>     1.2290     0.0674     0.0012     0.0011     0.0056     0.0000     0.0000     0.0000     0.0000     0.0000 </r>
        <r>     1.3556     0.0134     0.0004     0.0002     0.0190     0.0000     0.0000     0.0000     0.0000     0.0000 </r>
        <r>     1.4821     0.0128     0.0000     0.0000     0.0238     0.0000     0.0000     0.0000     0.0000     0.0000 </r>
        <r>     1.6086     0.0017     0.0000     0.0000     0.0030     0.0000     0.0000     0.0000     0.0000     0.0000 </r>
        <r>     1.7352     0.0000     0.0000     0.0000     0.0000     0.0000     0.0000     0.0000     0.0000     0.0000 </r>
        <r>     1.8617     0.0000     0.0000     0.0000     0.0000     0.0000     0.0000     0.0000     0.0000     0.0000 </r>
        <r>     1.9883     0.0000     0.0000     0.0000     0.0000     0.0000     0.0000     0.0000     0.0000     0.0000 </r>
        <r>     2.1148     0.0000     0.0000     0.0000     0.0000     0.0000     0.0000     0.0000     0.0000     0.0000 </r>
        <r>     2.2413     0.0000     0.0000     0.0000     0.0000     0.0000     0.0000     0.0000     0.0000     0.0000 </r>
        <r>     2.3679     0.0027     0.0003     0.0004     0.0000     0.0000     0.0000     0.0000     0.0000     0.0000 </r>
        <r>     2.4944     0.0515     0.0142     0.0186     0.0001     0.0000     0.0000     0.0000     0.0000     0.0000 </r>
        <r>     2.6210     0.0765     0.0538     0.0608     0.0014     0.0000     0.0000     0.0000     0.0000     0.0000 </r>
        <r>     2.7475     0.0138     0.0638     0.0662     0.0105     0.0000     0.0000     0.0000     0.0000     0.0000 </r>
        <r>     2.8740     0.0036     0.0510     0.0380     0.0074     0.0000     0.0000     0.0000     0.0000     0.0000 </r>
        <r>     3.0006     0.0067     0.0063     0.0033     0.0030     0.0000     0.0000     0.0000     0.0000     0.0000 </r>
        <r>     3.1271     0.0275     0.0001     0.0000     0.0112     0.0000     0.0000     0.0000     0.0000     0.0000 </r>
        <r>     3.2537     0.0100     0.0000     0.0000     0.0041     0.0000     0.0000     0.0000     0.0000     0.0000 </r>
        <r>     3.3802     0.0003     0.0000     0.0000     0.0001     0.0000     0.0000     0.0000     0.0000     0.0000 </r>
        <r>     3.5067     0.0000     0.0000     0.0000     0.0000     0.0000     0.0000     0.0000     0.0000     0.0000 </r>
        <r>     3.6333     0.0000     0.0000     0.0000     0.0000     0.0000     0.0000     0.0000     0.0000     0.0000 </r>
        <r>     3.7598     0.0000     0.0000     0.0000     0.0000     0.0000     0.0000     0.0000     0.0000     0.0000 </r>
        <r>     3.8864     0.0000     0.0000     0.0000     0.0000     0.0000     0.0000     0.0000     0.0000     0.0000 </r>
        <r>     4.0129     0.0009     0.0027     0.0024     0.0001     0.0000     0.0000     0.0000     0.0000     0.0000 </r>
        <r>     4.1395     0.0223     0.0466     0.0448     0.0013     0.0000     0.0000     0.0000     0.0000     0.0000 </r>
        <r>     4.2660     0.0429     0.0660     0.0674     0.0025     0.0000     0.0000     0.0000     0.0000     0.0000 </r>
        <r>     4.3925     0.0097     0.0119     0.0122     0.0013     0.0000     0.0000     0.0000     0.0000     0.0000 </r>
        <r>     4.5191     0.0052     0.0005     0.0005     0.0017     0.0000     0.0000     0.0000     0.0000     0.0000 </r>
        <r>     4.6456     0.0007     0.0000     0.0000     0.0002     0.0000     0.0000     0.0000     0.0000     0.0000 </r>
        <r>     4.7722     0.0000     0.0000     0.0000     0.0000     0.0000     0.0000     0.0000     0.0000     0.0000 </r>
        <r>     4.8987     0.0001     0.0000     0.0000     0.0000     0.0000     0.0000     0.0000     0.0000     0.0000 </r>
        <r>     5.0252     0.0003     0.0000     0.0000     0.0000     0.0000     0.0000     0.0000     0.0000     0.0000 </r>
        <r>     5.1518     0.0001     0.0000     0.0000     0.0014     0.0000     0.0000     0.0000     0.0000     0.0000 </r>
        <r>     5.2783     0.0003     0.0000     0.0000     0.0466     0.0000     0.0000     0.0000     0.0000     0.0000 </r>
        <r>     5.4049     0.0007     0.0000     0.0000     0.1145     0.0000     0.0000     0.0000     0.0000     0.0000 </r>
        <r>     5.5314     0.0001     0.0000     0.0000     0.0234     0.0000     0.0000     0.0000     0.0000     0.0000 </r>
        <r>     5.6579     0.0000     0.0000     0.0000     0.0003     0.0000     0.0000     0.0000     0.0000     0.0000 </r>
        <r>     5.7845     0.0000     0.0000     0.0000     0.0000     0.0000     0.0000     0.0000     0.0000     0.0000 </r>
        <r>     5.9110     0.0000     0.0000     0.0000     0.0000     0.0000     0.0000     0.0000     0.0000     0.0000 </r>
        <r>     6.0376     0.0000     0.0000     0.0000     0.0000     0.0000     0.0000     0.0000     0.0000     0.0000 </r>
        <r>     6.1641     0.0000     0.0000     0.0000     0.0000     0.0000     0.0000     0.0000     0.0000     0.0000 </r>
        <r>     6.2906     0.0000     0.0000     0.0000     0.0000     0.0000     0.0000     0.0000     0.0000     0.0000 </r>
        <r>     6.4172     0.0000     0.0000     0.0000     0.0000     0.0000     0.0000     0.0000     0.0000     0.0000 </r>
        <r>     6.5437     0.0000     0.0000     0.0000     0.0000     0.0000     0.0000     0.0000     0.0000     0.0000 </r>
        <r>     6.6703     0.0000     0.0000     0.0000     0.0000     0.0000     0.0000     0.0000     0.0000     0.0000 </r>
        <r>     6.7968     0.0000     0.0000     0.0000     0.0000     0.0000     0.0000     0.0000     0.0000     0.0000 </r>
        <r>     6.9233     0.0000     0.0000     0.0000     0.0000     0.0000     0.0000     0.0000     0.0000     0.0000 </r>
        <r>     7.0499     0.0000     0.0000     0.0000     0.0000     0.0000     0.0000     0.0000     0.0000     0.0000 </r>
       </set>
      </set>
     </set>
    </array>
   </partial>
  </dos>
  <projected>
   <eigenvalues>
    <array>
     <dimension dim="1">band</dimension>
     <dimension dim="2">kpoint</dimension>
     <dimension dim="3">spin</dimension>
     <field>eigene</field>
     <field>occ</field>
     <set>
      <set comment="spin 1">
       <set comment="kpoint 1">
        <r>  -29.1867    1.0000 </r>
        <r>  -13.9329    1.0000 </r>
        <r>  -11.6732    1.0000 </r>
        <r>  -11.6724    1.0000 </r>
        <r>   -8.8738    1.0000 </r>
        <r>   -1.9563    0.0000 </r>
        <r>   -1.9538    0.0000 </r>
        <r>   -0.2005    0.0000 </r>
        <r>    1.0934    0.0000 </r>
        <r>    1.1513    0.0000 </r>
        <r>    1.1772    0.0000 </r>
        <r>    1.2715    0.0000 </r>
        <r>    1.2958    0.0000 </r>
        <r>    1.3812    0.0000 </r>
        <r>    2.4924    0.0000 </r>
        <r>    2.5144    0.0000 </r>
        <r>    2.5492    0.0000 </r>
        <r>    2.5583    0.0000 </r>
        <r>    2.7242    0.0000 </r>
        <r>    2.7254    0.0000 </r>
        <r>    2.7438    0.0000 </r>
        <r>    2.7732    0.0000 </r>
        <r>    2.8194    0.0000 </r>
        <r>    2.8425    0.0000 </r>
        <r>    2.8440    0.0000 </r>
        <r>    3.0754    0.0000 </r>
        <r>    4.0545    0.0000 </r>
        <r>    4.1530    0.0000 </r>
        <r>    4.1533    0.0000 </r>
        <r>    4.1568    0.0000 </r>
        <r>    4.1730    0.0000 </r>
        <r>    4.2651    0.0000 </r>
        <r>    4.2664    0.0000 </r>
        <r>    4.4216    0.0000 </r>
        <r>    4.9798    0.0000 </r>
        <r>    5.3243    0.0000 </r>
       </set>
      </set>
     </set>
    </array>
   </eigenvalues>
   <array>
    <dimension dim="1">ion</dimension>
    <dimension dim="2">band</dimension>
    <dimension dim="3">kpoint</dimension>
    <dimension dim="4">spin</dimension>
    <field>    s</field>
    <field>   py</field>
    <field>   pz</field>
    <field>   px</field>
    <field>  dxy</field>
    <field>  dyz</field>
    <field>  dz2</field>
    <field>  dxz</field>
    <field>x2-y2</field>
    <set>
     <set comment="spin1">
      <set comment="kpoint 1">
       <set comment="band 1">
        <r>  0.1606  0.0000  0.0000  0.1281  0.0000  0.0000  0.0000  0.0000  0.0000 </r>
        <r>  0.6776  0.0000  0.0000  0.1007  0.0000  0.0000  0.0000  0.0000  0.0000 </r>
       </set>
       <set comment="band 2">
        <r>  0.1838  0.0000  0.0000  0.0186  0.0000  0.0000  0.0000  0.0000  0.0000 </r>
        <r>  0.1735  0.0000  0.0000  0.4554  0.0000  0.0000  0.0000  0.0000  0.0000 </r>
       </set>
       <set comment="band 3">
        <r>  0.0000  0.1576  0.0000  0.0000  0.0000  0.0000  0.0000  0.0000  0.0000 </r>
        <r>  0.0000  0.5522  0.0000  0.0000  0.0000  0.0000  0.0000  0.0000  0.0000 </r>
       </set>
       <set comment="band 4">
        <r>  0.0000  0.0000  0.1575  0.0000  0.0000  0.0000  0.0000  0.0000  0.0000 </r>
        <r>  0.0000  0.0000  0.5522  0.0000  0.0000  0.0000  0.0000  0.0000  0.0000 </r>
       </set>
       <set comment="band 5">
        <r>  0.1689  0.0000  0.0000  0.2618  0.0000  0.0000  0.0000  0.0000  0.0000 </r>
        <r>  0.0011  0.0000  0.0000  0.1355  0.0000  0.0000  0.0000  0.0000  0.0000 </r>
       </set>
       <set comment="band 6">
        <r>  0.0000  0.0000  0.3117  0.0000  0.0000  0.0000  0.0000  0.0000  0.0000 </r>
        <r>  0.0000  0.0000  0.2060  0.0000  0.0000  0.0000  0.0000  0.0000  0.0000 </r>
       </set>
       <set comment="band 7">
        <r>  0.0000  0.3116  0.0000  0.0000  0.0000  0.0000  0.0000  0.0000  0.0000 </r>
        <r>  0.0000  0.2060  0.0000  0.0000  0.0000  0.0000  0.0000  0.0000  0.0000 </r>
       </set>
       <set comment="band 8">
        <r>  0.0049  0.0000  0.0000  0.0048  0.0000  0.0000  0.0000  0.0000  0.0000 </r>
        <r>  0.0024  0.0000  0.0000  0.0022  0.0000  0.0000  0.0000  0.0000  0.0000 </r>
       </set>
       <set comment="band 9">
        <r>  0.0003  0.0000  0.0000  0.0003  0.0000  0.0000  0.0000  0.0000  0.0000 </r>
        <r>  0.0100  0.0000  0.0000  0.0005  0.0000  0.0000  0.0000  0.0000  0.0000 </r>
       </set>
       <set comment="band 10">
        <r>  0.0000  0.0000  0.0211  0.0000  0.0000  0.0000  0.0000  0.0000  0.0000 </r>
        <r>  0.0000  0.0000  0.0001  0.0000  0.0000  0.0000  0.0000  0.0000  0.0000 </r>
       </set>
       <set comment="band 11">
        <r>  0.0000  0.0213  0.0000  0.0000  0.0000  0.0000  0.0000  0.0000  0.0000 </r>
        <r>  0.0000  0.0001  0.0000  0.0000  0.0000  0.0000  0.0000  0.0000  0.0000 </r>
       </set>
       <set comment="band 12">
        <r>  0.0001  0.0000  0.0000  0.0001  0.0000  0.0000  0.0000  0.0000  0.0000 </r>
        <r>  0.0000  0.0000  0.0000  0.0001  0.0000  0.0000  0.0000  0.0000  0.0000 </r>
       </set>
       <set comment="band 13">
        <r>  0.0031  0.0000  0.0000  0.0004  0.0000  0.0000  0.0000  0.0000  0.0000 </r>
        <r>  0.0002  0.0000  0.0000  0.0005  0.0000  0.0000  0.0000  0.0000  0.0000 </r>
       </set>
       <set comment="band 14">
        <r>  0.0090  0.0000  0.0000  0.0068  0.0000  0.0000  0.0000  0.0000  0.0000 </r>
        <r>  0.0014  0.0000  0.0000  0.0025  0.0000  0.0000  0.0000  0.0000  0.0000 </r>
       </set>
       <set comment="band 15">
        <r>  0.0000  0.0000  0.0000  0.0000  0.0000  0.0000  0.0000  0.0000  0.0000 </r>
        <r>  0.0000  0.0000  0.0000  0.0000  0.0000  0.0000  0.0000  0.0000  0.0000 </r>
       </set>
       <set comment="band 16">
        <r>  0.0021  0.0000  0.0000  0.0000  0.0000  0.0000  0.0000  0.0000  0.0000 </r>
        <r>  0.0088  0.0000  0.0000  0.0000  0.0000  0.0000  0.0000  0.0000  0.0000 </r>
       </set>
       <set comment="band 17">
        <r>  0.0000  0.0000  0.0070  0.0000  0.0000  0.0000  0.0000  0.0000  0.0000 </r>
        <r>  0.0000  0.0000  0.0055  0.0000  0.0000  0.0000  0.0000  0.0000  0.0000 </r>
       </set>
       <set comment="band 18">
        <r>  0.0000  0.0080  0.0000  0.0000  0.0000  0.0000  0.0000  0.0000  0.0000 </r>
        <r>  0.0000  0.0050  0.0000  0.0000  0.0000  0.0000  0.0000  0.0000  0.0000 </r>
       </set>
       <set comment="band 19">
        <r>  0.0000  0.0000  0.0198  0.0000  0.0000  0.0000  0.0000  0.0000  0.0000 </r>
        <r>  0.0000  0.0000  0.0059  0.0000  0.0000  0.0000  0.0000  0.0000  0.0000 </r>
       </set>
       <set comment="band 20">
        <r>  0.0019  0.0000  0.0000  0.0000  0.0000  0.0000  0.0000  0.0000  0.0000 </r>
        <r>  0.0005  0.0000  0.0000  0.0011  0.0000  0.0000  0.0000  0.0000  0.0000 </r>
       </set>
       <set comment="band 21">
        <r>  0.0000  0.0177  0.0000  0.0000  0.0000  0.0000  0.0000  0.0000  0.0000 </r>
        <r>  0.0000  0.0064  0.0000  0.0000  0.0000  0.0000  0.0000  0.0000  0.0000 </r>
       </set>
       <set comment="band 22">
        <r>  0.0001  0.0000  0.0000  0.0000  0.0000  0.0000  0.0000  0.0000  0.0000 </r>
        <r>  0.0000  0.0000  0.0000  0.0001  0.0000  0.0000  0.0000  0.0000  0.0000 </r>
       </set>
       <set comment="band 23">
        <r>  0.0000  0.0000  0.0024  0.0000  0.0000  0.0000  0.0000  0.0000  0.0000 </r>
        <r>  0.0000  0.0000  0.0005  0.0000  0.0000  0.0000  0.0000  0.0000  0.0000 </r>
       </set>
       <set comment="band 24">
        <r>  0.0000  0.0037  0.0000  0.0000  0.0000  0.0000  0.0000  0.0000  0.0000 </r>
        <r>  0.0000  0.0006  0.0000  0.0000  0.0000  0.0000  0.0000  0.0000  0.0000 </r>
       </set>
       <set comment="band 25">
        <r>  0.0000  0.0000  0.0000  0.0000  0.0000  0.0000  0.0000  0.0000  0.0000 </r>
        <r>  0.0000  0.0000  0.0000  0.0000  0.0000  0.0000  0.0000  0.0000  0.0000 </r>
       </set>
       <set comment="band 26">
        <r>  0.0127  0.0000  0.0000  0.0074  0.0000  0.0000  0.0000  0.0000  0.0000 </r>
        <r>  0.0028  0.0000  0.0000  0.0011  0.0000  0.0000  0.0000  0.0000  0.0000 </r>
       </set>
       <set comment="band 27">
        <r>  0.0000  0.0000  0.0000  0.0000  0.0000  0.0000  0.0000  0.0000  0.0000 </r>
        <r>  0.0000  0.0000  0.0000  0.0000  0.0000  0.0000  0.0000  0.0000  0.0000 </r>
       </set>
       <set comment="band 28">
        <r>  0.0000  0.0000  0.0000  0.0000  0.0000  0.0000  0.0000  0.0000  0.0000 </r>
        <r>  0.0000  0.0000  0.0000  0.0000  0.0000  0.0000  0.0000  0.0000  0.0000 </r>
       </set>
       <set comment="band 29">
        <r>  0.0000  0.0003  0.0000  0.0000  0.0000  0.0000  0.0000  0.0000  0.0000 </r>
        <r>  0.0000  0.0073  0.0000  0.0000  0.0000  0.0000  0.0000  0.0000  0.0000 </r>
       </set>
       <set comment="band 30">
        <r>  0.0000  0.0000  0.0004  0.0000  0.0000  0.0000  0.0000  0.0000  0.0000 </r>
        <r>  0.0000  0.0000  0.0074  0.0000  0.0000  0.0000  0.0000  0.0000  0.0000 </r>
       </set>
       <set comment="band 31">
        <r>  0.0013  0.0000  0.0000  0.0001  0.0000  0.0000  0.0000  0.0000  0.0000 </r>
        <r>  0.0046  0.0000  0.0000  0.0003  0.0000  0.0000  0.0000  0.0000  0.0000 </r>
       </set>
       <set comment="band 32">
        <r>  0.0000  0.0143  0.0000  0.0000  0.0000  0.0000  0.0000  0.0000  0.0000 </r>
        <r>  0.0000  0.0008  0.0000  0.0000  0.0000  0.0000  0.0000  0.0000  0.0000 </r>
       </set>
       <set comment="band 33">
        <r>  0.0000  0.0000  0.0139  0.0000  0.0000  0.0000  0.0000  0.0000  0.0000 </r>
        <r>  0.0000  0.0000  0.0007  0.0000  0.0000  0.0000  0.0000  0.0000  0.0000 </r>
       </set>
       <set comment="band 34">
        <r>  0.0065  0.0000  0.0000  0.0014  0.0000  0.0000  0.0000  0.0000  0.0000 </r>
        <r>  0.0006  0.0000  0.0000  0.0002  0.0000  0.0000  0.0000  0.0000  0.0000 </r>
       </set>
       <set comment="band 35">
        <r>  0.0000  0.0000  0.0000  0.0000  0.0000  0.0000  0.0000  0.0000  0.0000 </r>
        <r>  0.0000  0.0000  0.0000  0.0000  0.0000  0.0000  0.0000  0.0000  0.0000 </r>
       </set>
       <set comment="band 36">
        <r>  0.0004  0.0000  0.0000  0.0015  0.0000  0.0000  0.0000  0.0000  0.0000 </r>
        <r>  0.0001  0.0000  0.0000  0.0118  0.0000  0.0000  0.0000  0.0000  0.0000 </r>
       </set>
      </set>
     </set>
    </set>
   </array>
  </projected>
 </calculation>
 <structure name="finalpos" >
  <crystal>
   <varray name="basis" >
    <v>      10.00000000       0.00000000       0.00000000 </v>
    <v>       0.00000000      10.10000000       0.00000000 </v>
    <v>       0.00000000       0.00000000      10.20000000 </v>
   </varray>
   <i name="volume">   1030.20000000 </i>
   <varray name="rec_basis" >
    <v>       0.10000000       0.00000000       0.00000000 </v>
    <v>       0.00000000       0.09900990       0.00000000 </v>
    <v>       0.00000000       0.00000000       0.09803922 </v>
   </varray>
  </crystal>
  <varray name="positions" >
   <v>       0.94290482       0.00000000       0.00000000 </v>
   <v>       0.05709518       0.00000000       0.00000000 </v>
  </varray>
 </structure>
</modeling>
