unknown system                          
           1
    10.000000    0.000000    0.000000
     0.000000   10.100000    0.000000
     0.000000    0.000000   10.200000
   C    O 
   1   1
Direct configuration=     1
   0.94290482  0.00000000  0.00000000
   0.05709518  0.00000000  0.00000000
