   15   15   20    2
  0.1021298E+02  0.6006014E-09  0.6006014E-09  0.6006014E-09  0.5000000E-15
  1.000000000000000E-004
  CAR 
 unknown system                          
     57      8     44
 
  0.0000000E+00  0.0000000E+00  0.0000000E+00  0.1250000E+00
    1      -14.348402    -14.322336   1.000000   1.000000
    2      -13.418380    -13.402006   1.000000   1.000000
    3      -13.150792    -13.105707   1.000000   1.000000
    4      -13.150726    -13.105644   1.000000   1.000000
    5      -13.150279    -13.105189   1.000000   1.000000
    6      -12.905795    -12.859107   1.000000   1.000000
    7      -12.905500    -12.858808   1.000000   1.000000
    8       -1.687572     -1.673580   1.000000   1.000000
    9       -1.685659     -1.671611   1.000000   1.000000
   10       -1.684749     -1.670667   1.000000   1.000000
   11       -1.601064     -1.593237   1.000000   1.000000
   12       -0.775105     -0.703531   1.000000   1.000000
   13       -0.773890     -0.702258   1.000000   1.000000
   14       -0.771658     -0.700198   1.000000   1.000000
   15        1.423053      1.466005   1.000000   1.000000
   16        1.423148      1.466635   1.000000   1.000000
   17        1.423510      1.467124   1.000000   1.000000
   18        1.451557      1.467892   1.000000   1.000000
   19        1.452344      1.469411   1.000000   1.000000
   20        1.454649      1.470450   1.000000   1.000000
   21        2.103586      2.158996   1.000000   1.000000
   22        2.104349      2.159753   1.000000   1.000000
   23        2.104487      2.160060   1.000000   1.000000
   24        2.204480      2.226832   1.000000   1.000000
   25        2.204710      2.227070   1.000000   1.000000
   26        2.507570      2.539367   1.000000   1.000000
   27        2.508386      2.540226   1.000000   1.000000
   28        2.509508      2.541303   1.000000   1.000000
   29        2.836665      4.008701   1.000000   1.000000
   30        8.445425      8.608433   0.000000   0.000000
   31       10.575261     10.606266   0.000000   0.000000
   32       10.575971     10.607391   0.000000   0.000000
   33       10.576743     10.608042   0.000000   0.000000
   34       10.896822     11.601451   0.000000   0.000000
   35       10.897580     11.601828   0.000000   0.000000
   36       10.900228     11.605512   0.000000   0.000000
   37       11.986001     12.071103   0.000000   0.000000
   38       11.986279     12.071614   0.000000   0.000000
   39       11.987012     12.072303   0.000000   0.000000
   40       12.249827     12.286202   0.000000   0.000000
   41       12.488476     12.555116   0.000000   0.000000
   42       12.489266     12.555196   0.000000   0.000000
   43       15.226256     15.230452   0.000000   0.000000
   44       15.359080     15.373415   0.000000   0.000000
 
  0.5000000E+00  0.0000000E+00  0.0000000E+00  0.1250000E+00
    1      -14.026228    -14.011383   1.000000   1.000000
    2      -13.625784    -13.582129   1.000000   1.000000
    3      -13.349217    -13.321352   1.000000   1.000000
    4      -13.040127    -12.994174   1.000000   1.000000
    5      -13.037765    -12.991993   1.000000   1.000000
    6      -13.036816    -12.990877   1.000000   1.000000
    7      -13.034918    -12.989151   1.000000   1.000000
    8       -1.187353     -1.147541   1.000000   1.000000
    9       -1.154721     -1.146071   1.000000   1.000000
   10       -1.153255     -1.052067   1.000000   1.000000
   11       -0.891987     -0.881441   1.000000   1.000000
   12       -0.259049     -0.183665   1.000000   1.000000
   13       -0.207005     -0.120924   1.000000   1.000000
   14       -0.206426     -0.120649   1.000000   1.000000
   15        0.328060      0.345177   1.000000   1.000000
   16        0.445802      0.494653   1.000000   1.000000
   17        0.899818      0.916764   1.000000   1.000000
   18        0.903812      0.920823   1.000000   1.000000
   19        0.935100      0.991906   1.000000   1.000000
   20        0.940087      0.996500   1.000000   1.000000
   21        1.558746      1.575124   1.000000   1.000000
   22        1.560826      1.577118   1.000000   1.000000
   23        1.725301      1.745753   1.000000   1.000000
   24        1.765459      1.843807   1.000000   1.000000
   25        2.184532      2.217508   1.000000   1.000000
   26        2.186624      2.219619   1.000000   1.000000
   27        2.334663      2.367642   1.000000   1.000000
   28        2.336284      2.369269   1.000000   1.000000
   29        4.580310      5.759509   1.000000   0.000000
   30        7.785525      8.193003   0.000000   0.000000
   31       10.014795     10.586449   0.000000   0.000000
   32       10.017666     10.589547   0.000000   0.000000
   33       10.604635     10.770274   0.000000   0.000000
   34       10.875606     10.988520   0.000000   0.000000
   35       12.461743     12.510279   0.000000   0.000000
   36       12.465892     12.513906   0.000000   0.000000
   37       12.472014     12.573819   0.000000   0.000000
   38       12.476143     12.578030   0.000000   0.000000
   39       13.493721     13.554546   0.000000   0.000000
   40       14.066376     14.143454   0.000000   0.000000
   41       14.173153     14.238712   0.000000   0.000000
   42       14.175013     14.240862   0.000000   0.000000
   43       14.667735     14.714435   0.000000   0.000000
   44       15.265367     15.393345   0.000000   0.000000
 
  0.0000000E+00  0.5000000E+00  0.0000000E+00  0.1250000E+00
    1      -14.025792    -14.010978   1.000000   1.000000
    2      -13.626930    -13.583283   1.000000   1.000000
    3      -13.348516    -13.320612   1.000000   1.000000
    4      -13.040318    -12.994484   1.000000   1.000000
    5      -13.038347    -12.992465   1.000000   1.000000
    6      -13.035760    -12.989949   1.000000   1.000000
    7      -13.035192    -12.989288   1.000000   1.000000
    8       -1.186154     -1.147428   1.000000   1.000000
    9       -1.154605     -1.144824   1.000000   1.000000
   10       -1.151978     -1.050775   1.000000   1.000000
   11       -0.893375     -0.882831   1.000000   1.000000
   12       -0.258794     -0.183462   1.000000   1.000000
   13       -0.209297     -0.123341   1.000000   1.000000
   14       -0.206092     -0.120271   1.000000   1.000000
   15        0.327279      0.344393   1.000000   1.000000
   16        0.445720      0.494685   1.000000   1.000000
   17        0.898861      0.916026   1.000000   1.000000
   18        0.902804      0.919714   1.000000   1.000000
   19        0.937187      0.993782   1.000000   1.000000
   20        0.939922      0.996442   1.000000   1.000000
   21        1.559732      1.575969   1.000000   1.000000
   22        1.561391      1.577821   1.000000   1.000000
   23        1.726460      1.746915   1.000000   1.000000
   24        1.764335      1.842664   1.000000   1.000000
   25        2.182055      2.215014   1.000000   1.000000
   26        2.186463      2.219466   1.000000   1.000000
   27        2.335150      2.368103   1.000000   1.000000
   28        2.338151      2.371195   1.000000   1.000000
   29        4.580440      5.759575   1.000000   0.000000
   30        7.786399      8.193771   0.000000   0.000000
   31       10.013875     10.585616   0.000000   0.000000
   32       10.017818     10.589742   0.000000   0.000000
   33       10.605200     10.770877   0.000000   0.000000
   34       10.874667     10.987543   0.000000   0.000000
   35       12.463262     12.511667   0.000000   0.000000
   36       12.464320     12.513450   0.000000   0.000000
   37       12.473183     12.574956   0.000000   0.000000
   38       12.475309     12.576312   0.000000   0.000000
   39       13.493507     13.554254   0.000000   0.000000
   40       14.066129     14.143258   0.000000   0.000000
   41       14.173777     14.239531   0.000000   0.000000
   42       14.174435     14.240035   0.000000   0.000000
   43       14.668047     14.714768   0.000000   0.000000
   44       15.262774     15.333181   0.000000   0.000000
 
  0.5000000E+00  0.5000000E+00  0.0000000E+00  0.1250000E+00
    1      -13.894929    -13.888670   1.000000   1.000000
    2      -13.643432    -13.600750   1.000000   1.000000
    3      -13.216387    -13.171673   1.000000   1.000000
    4      -13.215034    -13.170055   1.000000   1.000000
    5      -13.213499    -13.168680   1.000000   1.000000
    6      -13.144383    -13.105386   1.000000   1.000000
    7      -12.859801    -12.812898   1.000000   1.000000
    8       -1.213236     -1.011663   1.000000   1.000000
    9       -0.698433     -0.689126   1.000000   1.000000
   10       -0.695294     -0.685942   1.000000   1.000000
   11       -0.532022     -0.519531   1.000000   1.000000
   12       -0.150347     -0.078531   1.000000   1.000000
   13       -0.062982     -0.036545   1.000000   1.000000
   14       -0.062793     -0.036403   1.000000   1.000000
   15        0.072841      0.077588   1.000000   1.000000
   16        0.578846      0.670438   1.000000   1.000000
   17        0.584466      0.675567   1.000000   1.000000
   18        0.809093      0.848194   1.000000   1.000000
   19        0.810295      0.856302   1.000000   1.000000
   20        0.836427      0.857720   1.000000   1.000000
   21        0.920434      0.936072   1.000000   1.000000
   22        1.012329      1.055473   1.000000   1.000000
   23        1.806290      1.818294   1.000000   1.000000
   24        1.811828      1.823833   1.000000   1.000000
   25        2.065510      2.102793   1.000000   1.000000
   26        2.065867      2.103112   1.000000   1.000000
   27        2.103565      2.158850   1.000000   1.000000
   28        2.203170      2.225502   1.000000   1.000000
   29        5.058400      6.302736   0.666143   0.000000
   30        7.959742      8.432570   0.000000   0.000000
   31        9.314768      9.838572   0.000000   0.000000
   32        9.317430      9.841057   0.000000   0.000000
   33       11.167965     11.213875   0.000000   0.000000
   34       12.014009     12.104963   0.000000   0.000000
   35       12.063131     12.185393   0.000000   0.000000
   36       13.033798     13.124718   0.000000   0.000000
   37       13.036427     13.127195   0.000000   0.000000
   38       13.937476     13.970256   0.000000   0.000000
   39       13.977017     14.085139   0.000000   0.000000
   40       14.154930     14.161657   0.000000   0.000000
   41       14.157903     14.164653   0.000000   0.000000
   42       14.568137     14.576997   0.000000   0.000000
   43       14.636699     14.671061   0.000000   0.000000
   44       14.672045     14.777984   0.000000   0.000000
 
  0.0000000E+00  0.0000000E+00  0.5000000E+00  0.1250000E+00
    1      -14.025686    -14.010879   1.000000   1.000000
    2      -13.627202    -13.583560   1.000000   1.000000
    3      -13.348346    -13.320431   1.000000   1.000000
    4      -13.040820    -12.995000   1.000000   1.000000
    5      -13.037903    -12.992008   1.000000   1.000000
    6      -13.036373    -12.990566   1.000000   1.000000
    7      -13.034524    -12.988614   1.000000   1.000000
    8       -1.185921     -1.147194   1.000000   1.000000
    9       -1.154362     -1.144629   1.000000   1.000000
   10       -1.151810     -1.050555   1.000000   1.000000
   11       -0.893601     -0.883059   1.000000   1.000000
   12       -0.258530     -0.183297   1.000000   1.000000
   13       -0.209682     -0.123665   1.000000   1.000000
   14       -0.206446     -0.120622   1.000000   1.000000
   15        0.327038      0.344149   1.000000   1.000000
   16        0.445560      0.494574   1.000000   1.000000
   17        0.898055      0.915337   1.000000   1.000000
   18        0.902721      0.919654   1.000000   1.000000
   19        0.937225      0.993706   1.000000   1.000000
   20        0.940739      0.997225   1.000000   1.000000
   21        1.559569      1.575844   1.000000   1.000000
   22        1.561879      1.578289   1.000000   1.000000
   23        1.726936      1.747395   1.000000   1.000000
   24        1.763893      1.842215   1.000000   1.000000
   25        2.182130      2.215083   1.000000   1.000000
   26        2.186084      2.219080   1.000000   1.000000
   27        2.336120      2.369141   1.000000   1.000000
   28        2.337609      2.370595   1.000000   1.000000
   29        4.580506      5.759633   1.000000   0.000000
   30        7.786569      8.193881   0.000000   0.000000
   31       10.014231     10.585938   0.000000   0.000000
   32       10.017009     10.588978   0.000000   0.000000
   33       10.605442     10.771135   0.000000   0.000000
   34       10.874271     10.987115   0.000000   0.000000
   35       12.461890     12.511102   0.000000   0.000000
   36       12.465133     12.514018   0.000000   0.000000
   37       12.473373     12.574397   0.000000   0.000000
   38       12.476120     12.577391   0.000000   0.000000
   39       13.493973     13.554671   0.000000   0.000000
   40       14.066153     14.143309   0.000000   0.000000
   41       14.173596     14.239139   0.000000   0.000000
   42       14.174615     14.240409   0.000000   0.000000
   43       14.668090     14.714857   0.000000   0.000000
   44       15.264157     15.350508   0.000000   0.000000
 
  0.5000000E+00  0.0000000E+00  0.5000000E+00  0.1250000E+00
    1      -13.894939    -13.888679   1.000000   1.000000
    2      -13.643395    -13.600715   1.000000   1.000000
    3      -13.216558    -13.171850   1.000000   1.000000
    4      -13.215101    -13.170116   1.000000   1.000000
    5      -13.213237    -13.168415   1.000000   1.000000
    6      -13.144470    -13.105475   1.000000   1.000000
    7      -12.859766    -12.812864   1.000000   1.000000
    8       -1.213085     -1.011498   1.000000   1.000000
    9       -0.697983     -0.688664   1.000000   1.000000
   10       -0.695463     -0.686113   1.000000   1.000000
   11       -0.531985     -0.519498   1.000000   1.000000
   12       -0.150415     -0.078606   1.000000   1.000000
   13       -0.062846     -0.036416   1.000000   1.000000
   14       -0.062715     -0.036320   1.000000   1.000000
   15        0.072381      0.077115   1.000000   1.000000
   16        0.578965      0.670557   1.000000   1.000000
   17        0.583675      0.674758   1.000000   1.000000
   18        0.809266      0.848399   1.000000   1.000000
   19        0.810160      0.856142   1.000000   1.000000
   20        0.836194      0.857467   1.000000   1.000000
   21        0.920396      0.936052   1.000000   1.000000
   22        1.012289      1.055413   1.000000   1.000000
   23        1.807136      1.819147   1.000000   1.000000
   24        1.811615      1.823623   1.000000   1.000000
   25        2.065794      2.102994   1.000000   1.000000
   26        2.065861      2.103147   1.000000   1.000000
   27        2.103518      2.158869   1.000000   1.000000
   28        2.203183      2.225512   1.000000   1.000000
   29        5.058429      6.302746   0.665841   0.000000
   30        7.959209      8.432139   0.000000   0.000000
   31        9.315370      9.839081   0.000000   0.000000
   32        9.317493      9.841127   0.000000   0.000000
   33       11.167720     11.213641   0.000000   0.000000
   34       12.013857     12.105049   0.000000   0.000000
   35       12.063184     12.185205   0.000000   0.000000
   36       13.033999     13.124931   0.000000   0.000000
   37       13.036366     13.127136   0.000000   0.000000
   38       13.937622     13.971040   0.000000   0.000000
   39       13.977434     14.084873   0.000000   0.000000
   40       14.154785     14.161526   0.000000   0.000000
   41       14.157239     14.164046   0.000000   0.000000
   42       14.572597     14.576503   0.000000   0.000000
   43       14.635582     14.671058   0.000000   0.000000
   44       14.671794     14.796264   0.000000   0.000000
 
  0.0000000E+00  0.5000000E+00  0.5000000E+00  0.1250000E+00
    1      -13.894854    -13.888600   1.000000   1.000000
    2      -13.643689    -13.601013   1.000000   1.000000
    3      -13.215968    -13.171167   1.000000   1.000000
    4      -13.215062    -13.170074   1.000000   1.000000
    5      -13.213740    -13.169002   1.000000   1.000000
    6      -13.144137    -13.105139   1.000000   1.000000
    7      -12.860014    -12.813116   1.000000   1.000000
    8       -1.213889     -1.012373   1.000000   1.000000
    9       -0.697953     -0.688639   1.000000   1.000000
   10       -0.696989     -0.687666   1.000000   1.000000
   11       -0.532183     -0.519699   1.000000   1.000000
   12       -0.150041     -0.078221   1.000000   1.000000
   13       -0.063302     -0.036872   1.000000   1.000000
   14       -0.063102     -0.036678   1.000000   1.000000
   15        0.074410      0.079164   1.000000   1.000000
   16        0.582334      0.674005   1.000000   1.000000
   17        0.584079      0.675174   1.000000   1.000000
   18        0.809703      0.850080   1.000000   1.000000
   19        0.810036      0.856105   1.000000   1.000000
   20        0.836847      0.856847   1.000000   1.000000
   21        0.920675      0.936310   1.000000   1.000000
   22        1.012618      1.055823   1.000000   1.000000
   23        1.806925      1.818942   1.000000   1.000000
   24        1.808595      1.820596   1.000000   1.000000
   25        2.065376      2.102572   1.000000   1.000000
   26        2.065644      2.102835   1.000000   1.000000
   27        2.102595      2.157898   1.000000   1.000000
   28        2.203026      2.225351   1.000000   1.000000
   29        5.058217      6.302640   0.668016   0.000000
   30        7.962220      8.434601   0.000000   0.000000
   31        9.314376      9.838144   0.000000   0.000000
   32        9.314812      9.838833   0.000000   0.000000
   33       11.169090     11.214963   0.000000   0.000000
   34       12.014786     12.104761   0.000000   0.000000
   35       12.063078     12.186337   0.000000   0.000000
   36       13.034179     13.125061   0.000000   0.000000
   37       13.035306     13.126025   0.000000   0.000000
   38       13.938762     13.970617   0.000000   0.000000
   39       13.977028     14.085827   0.000000   0.000000
   40       14.156000     14.162779   0.000000   0.000000
   41       14.156979     14.163756   0.000000   0.000000
   42       14.567964     14.577198   0.000000   0.000000
   43       14.636256     14.669527   0.000000   0.000000
   44       14.668547     14.801161   0.000000   0.000000
 
  0.5000000E+00  0.5000000E+00  0.5000000E+00  0.1250000E+00
    1      -14.024590    -14.009866   1.000000   1.000000
    2      -13.630067    -13.586421   1.000000   1.000000
    3      -13.346538    -13.318544   1.000000   1.000000
    4      -13.041991    -12.996228   1.000000   1.000000
    5      -13.040157    -12.994379   1.000000   1.000000
    6      -13.034165    -12.988222   1.000000   1.000000
    7      -13.033327    -12.987373   1.000000   1.000000
    8       -1.182928     -1.145011   1.000000   1.000000
    9       -1.152177     -1.143666   1.000000   1.000000
   10       -1.150827     -1.047471   1.000000   1.000000
   11       -0.896945     -0.886403   1.000000   1.000000
   12       -0.257399     -0.182538   1.000000   1.000000
   13       -0.211487     -0.125296   1.000000   1.000000
   14       -0.209637     -0.123481   1.000000   1.000000
   15        0.324965      0.342097   1.000000   1.000000
   16        0.445466      0.494640   1.000000   1.000000
   17        0.896875      0.914209   1.000000   1.000000
   18        0.899042      0.916076   1.000000   1.000000
   19        0.940653      0.996641   1.000000   1.000000
   20        0.941109      0.997312   1.000000   1.000000
   21        1.562187      1.578417   1.000000   1.000000
   22        1.563437      1.579710   1.000000   1.000000
   23        1.729695      1.750132   1.000000   1.000000
   24        1.761554      1.840481   1.000000   1.000000
   25        2.180485      2.213540   1.000000   1.000000
   26        2.180915      2.214020   1.000000   1.000000
   27        2.339061      2.371933   1.000000   1.000000
   28        2.341105      2.374002   1.000000   1.000000
   29        4.580826      5.759154   1.000000   0.000000
   30        7.788164      8.196276   0.000000   0.000000
   31       10.014059     10.585924   0.000000   0.000000
   32       10.016198     10.588077   0.000000   0.000000
   33       10.606149     10.772354   0.000000   0.000000
   34       10.872237     10.985156   0.000000   0.000000
   35       12.462229     12.512918   0.000000   0.000000
   36       12.463352     12.513672   0.000000   0.000000
   37       12.474518     12.574100   0.000000   0.000000
   38       12.476365     12.575525   0.000000   0.000000
   39       13.492375     13.553069   0.000000   0.000000
   40       14.065551     14.142929   0.000000   0.000000
   41       14.174173     14.239794   0.000000   0.000000
   42       14.174969     14.240464   0.000000   0.000000
   43       14.668651     14.715536   0.000000   0.000000
   44       15.263572     15.344171   0.000000   0.000000
