   15   15   20    2
  0.1021298E+02  0.6006014E-09  0.6006014E-09  0.6006014E-09  0.5000000E-15
  1.000000000000000E-004
  CAR 
 unknown system                          
     57     16     44
 
  0.2500000E+00  0.2500000E+00  0.2500000E+00  0.6250000E-01
    1      -14.238770    -14.223044   1.000000   1.000000
    2      -13.477063    -13.462807   1.000000   1.000000
    3      -13.288850    -13.261718   1.000000   1.000000
    4      -13.136815    -13.106932   1.000000   1.000000
    5      -13.134642    -13.104752   1.000000   1.000000
    6      -12.963857    -12.933213   1.000000   1.000000
    7      -12.961607    -12.930957   1.000000   1.000000
    8       -1.474117     -1.465978   1.000000   1.000000
    9       -1.470255     -1.462188   1.000000   1.000000
   10       -1.422272     -1.406541   1.000000   1.000000
   11       -1.210562     -1.203375   1.000000   1.000000
   12       -0.898140     -0.822615   1.000000   1.000000
   13       -0.535255     -0.486324   1.000000   1.000000
   14       -0.531112     -0.482228   1.000000   1.000000
   15        0.982017      1.003385   1.000000   1.000000
   16        1.078127      1.101909   1.000000   1.000000
   17        1.085888      1.109735   1.000000   1.000000
   18        1.464429      1.481608   1.000000   1.000000
   19        1.466842      1.483827   1.000000   1.000000
   20        1.501241      1.530388   1.000000   1.000000
   21        1.521054      1.579411   1.000000   1.000000
   22        1.683193      1.707386   1.000000   1.000000
   23        1.688434      1.713087   1.000000   1.000000
   24        1.982615      2.019071   1.000000   1.000000
   25        2.153393      2.175651   1.000000   1.000000
   26        2.154158      2.176228   1.000000   1.000000
   27        2.411820      2.432743   1.000000   1.000000
   28        2.413491      2.434401   1.000000   1.000000
   29        3.855552      4.562536   1.000000   1.000000
   30        8.690058      8.883777   0.000000   0.000000
   31        9.748020      9.935630   0.000000   0.000000
   32       10.316559     10.643681   0.000000   0.000000
   33       10.325672     10.653638   0.000000   0.000000
   34       11.181143     11.288534   0.000000   0.000000
   35       11.432331     11.529109   0.000000   0.000000
   36       11.446462     11.543468   0.000000   0.000000
   37       12.405239     12.461755   0.000000   0.000000
   38       12.407185     12.463400   0.000000   0.000000
   39       12.748516     12.774726   0.000000   0.000000
   40       13.049777     13.180627   0.000000   0.000000
   41       13.403893     13.494395   0.000000   0.000000
   42       13.406615     13.496445   0.000000   0.000000
   43       14.999751     15.008268   0.000000   0.000000
   44       15.160748     15.170117   0.000000   0.000000
 
  0.2500000E+00  0.0000000E+00  0.0000000E+00  0.6250000E-01
    1      -14.239077    -14.223349   1.000000   1.000000
    2      -13.475236    -13.461091   1.000000   1.000000
    3      -13.290399    -13.263153   1.000000   1.000000
    4      -13.135934    -13.106053   1.000000   1.000000
    5      -13.135447    -13.105555   1.000000   1.000000
    6      -12.962968    -12.932331   1.000000   1.000000
    7      -12.962547    -12.931895   1.000000   1.000000
    8       -1.474835     -1.466763   1.000000   1.000000
    9       -1.473035     -1.464942   1.000000   1.000000
   10       -1.420367     -1.404349   1.000000   1.000000
   11       -1.210829     -1.203634   1.000000   1.000000
   12       -0.899945     -0.824646   1.000000   1.000000
   13       -0.531972     -0.483062   1.000000   1.000000
   14       -0.530089     -0.481304   1.000000   1.000000
   15        0.983016      1.004484   1.000000   1.000000
   16        1.082575      1.106439   1.000000   1.000000
   17        1.084243      1.108371   1.000000   1.000000
   18        1.462746      1.479813   1.000000   1.000000
   19        1.464609      1.481646   1.000000   1.000000
   20        1.500698      1.529307   1.000000   1.000000
   21        1.522534      1.580800   1.000000   1.000000
   22        1.684869      1.709279   1.000000   1.000000
   23        1.686154      1.710675   1.000000   1.000000
   24        1.982771      2.019348   1.000000   1.000000
   25        2.154700      2.176855   1.000000   1.000000
   26        2.155166      2.177347   1.000000   1.000000
   27        2.410664      2.431563   1.000000   1.000000
   28        2.411379      2.432307   1.000000   1.000000
   29        3.855181      4.562363   1.000000   1.000000
   30        8.688415      8.882425   0.000000   0.000000
   31        9.747418      9.934845   0.000000   0.000000
   32       10.320725     10.648128   0.000000   0.000000
   33       10.323488     10.650524   0.000000   0.000000
   34       11.182954     11.290020   0.000000   0.000000
   35       11.437962     11.535008   0.000000   0.000000
   36       11.439591     11.536695   0.000000   0.000000
   37       12.406450     12.463015   0.000000   0.000000
   38       12.407465     12.463980   0.000000   0.000000
   39       12.749696     12.775893   0.000000   0.000000
   40       13.047604     13.178307   0.000000   0.000000
   41       13.404739     13.495041   0.000000   0.000000
   42       13.405311     13.495455   0.000000   0.000000
   43       14.999752     15.008257   0.000000   0.000000
   44       15.164046     15.172614   0.000000   0.000000
 
  0.0000000E+00  0.0000000E+00 -0.2500000E+00  0.6250000E-01
    1      -14.238972    -14.223244   1.000000   1.000000
    2      -13.475847    -13.461666   1.000000   1.000000
    3      -13.289901    -13.262692   1.000000   1.000000
    4      -13.136483    -13.106600   1.000000   1.000000
    5      -13.134891    -13.105001   1.000000   1.000000
    6      -12.963582    -12.932940   1.000000   1.000000
    7      -12.961931    -12.931282   1.000000   1.000000
    8       -1.475060     -1.466962   1.000000   1.000000
    9       -1.471534     -1.463451   1.000000   1.000000
   10       -1.421030     -1.405105   1.000000   1.000000
   11       -1.210813     -1.203627   1.000000   1.000000
   12       -0.899292     -0.823894   1.000000   1.000000
   13       -0.533771     -0.484879   1.000000   1.000000
   14       -0.529784     -0.480981   1.000000   1.000000
   15        0.982585      1.004021   1.000000   1.000000
   16        1.080143      1.104042   1.000000   1.000000
   17        1.085778      1.109750   1.000000   1.000000
   18        1.463054      1.480100   1.000000   1.000000
   19        1.465815      1.482920   1.000000   1.000000
   20        1.500828      1.529609   1.000000   1.000000
   21        1.522027      1.580338   1.000000   1.000000
   22        1.683668      1.707992   1.000000   1.000000
   23        1.687562      1.712196   1.000000   1.000000
   24        1.982621      2.019074   1.000000   1.000000
   25        2.153844      2.176005   1.000000   1.000000
   26        2.155264      2.177441   1.000000   1.000000
   27        2.411023      2.431952   1.000000   1.000000
   28        2.412040      2.432948   1.000000   1.000000
   29        3.855348      4.562488   1.000000   1.000000
   30        8.689013      8.882888   0.000000   0.000000
   31        9.747767      9.935139   0.000000   0.000000
   32       10.318414     10.645513   0.000000   0.000000
   33       10.324703     10.652302   0.000000   0.000000
   34       11.182349     11.289475   0.000000   0.000000
   35       11.434077     11.530993   0.000000   0.000000
   36       11.443975     11.541125   0.000000   0.000000
   37       12.406102     12.462747   0.000000   0.000000
   38       12.407567     12.464000   0.000000   0.000000
   39       12.749419     12.775588   0.000000   0.000000
   40       13.048586     13.179337   0.000000   0.000000
   41       13.403928     13.494299   0.000000   0.000000
   42       13.406089     13.496122   0.000000   0.000000
   43       14.999748     15.008257   0.000000   0.000000
   44       15.163629     15.171868   0.000000   0.000000
 
  0.0000000E+00  0.2500000E+00  0.0000000E+00  0.6250000E-01
    1      -14.238989    -14.223262   1.000000   1.000000
    2      -13.475749    -13.461574   1.000000   1.000000
    3      -13.289985    -13.262770   1.000000   1.000000
    4      -13.136147    -13.106265   1.000000   1.000000
    5      -13.135223    -13.105333   1.000000   1.000000
    6      -12.963227    -12.932586   1.000000   1.000000
    7      -12.962286    -12.931637   1.000000   1.000000
    8       -1.474920     -1.466838   1.000000   1.000000
    9       -1.471952     -1.463855   1.000000   1.000000
   10       -1.420919     -1.404984   1.000000   1.000000
   11       -1.210749     -1.203559   1.000000   1.000000
   12       -0.899419     -0.824033   1.000000   1.000000
   13       -0.533457     -0.484576   1.000000   1.000000
   14       -0.529852     -0.481043   1.000000   1.000000
   15        0.982754      1.004200   1.000000   1.000000
   16        1.081458      1.105368   1.000000   1.000000
   17        1.084653      1.108641   1.000000   1.000000
   18        1.463130      1.480167   1.000000   1.000000
   19        1.465338      1.482449   1.000000   1.000000
   20        1.500804      1.529527   1.000000   1.000000
   21        1.522154      1.580472   1.000000   1.000000
   22        1.684621      1.708993   1.000000   1.000000
   23        1.686665      1.711231   1.000000   1.000000
   24        1.982651      2.019134   1.000000   1.000000
   25        2.153869      2.176015   1.000000   1.000000
   26        2.155277      2.177469   1.000000   1.000000
   27        2.410693      2.431604   1.000000   1.000000
   28        2.412177      2.433104   1.000000   1.000000
   29        3.855310      4.562459   1.000000   1.000000
   30        8.688939      8.882840   0.000000   0.000000
   31        9.747663      9.935063   0.000000   0.000000
   32       10.319074     10.646338   0.000000   0.000000
   33       10.324426     10.651815   0.000000   0.000000
   34       11.182502     11.289608   0.000000   0.000000
   35       11.435704     11.532736   0.000000   0.000000
   36       11.442181     11.539238   0.000000   0.000000
   37       12.406184     12.462749   0.000000   0.000000
   38       12.407329     12.463811   0.000000   0.000000
   39       12.749394     12.775591   0.000000   0.000000
   40       13.048337     13.179062   0.000000   0.000000
   41       13.404391     13.494638   0.000000   0.000000
   42       13.405697     13.495865   0.000000   0.000000
   43       14.999754     15.008256   0.000000   0.000000
   44       15.163231     15.171919   0.000000   0.000000
 
 -0.2500000E+00  0.2500000E+00  0.2500000E+00  0.6250000E-01
    1      -13.995873    -13.986655   1.000000   1.000000
    2      -13.573980    -13.549669   1.000000   1.000000
    3      -13.410231    -13.384468   1.000000   1.000000
    4      -13.179544    -13.149720   1.000000   1.000000
    5      -13.136836    -13.108657   1.000000   1.000000
    6      -13.053552    -13.023961   1.000000   1.000000
    7      -12.927705    -12.896974   1.000000   1.000000
    8       -1.137119     -1.040722   1.000000   1.000000
    9       -0.977737     -0.972637   1.000000   1.000000
   10       -0.924123     -0.900797   1.000000   1.000000
   11       -0.680408     -0.650415   1.000000   1.000000
   12       -0.528335     -0.508004   1.000000   1.000000
   13       -0.225621     -0.202071   1.000000   1.000000
   14       -0.053340     -0.005601   1.000000   1.000000
   15        0.316885      0.332359   1.000000   1.000000
   16        0.424929      0.449720   1.000000   1.000000
   17        0.451807      0.488538   1.000000   1.000000
   18        0.838611      0.867864   1.000000   1.000000
   19        1.073435      1.105681   1.000000   1.000000
   20        1.175003      1.200636   1.000000   1.000000
   21        1.417159      1.448017   1.000000   1.000000
   22        1.475918      1.490423   1.000000   1.000000
   23        1.680535      1.691701   1.000000   1.000000
   24        1.725622      1.746420   1.000000   1.000000
   25        1.896120      1.929336   1.000000   1.000000
   26        2.087312      2.106282   1.000000   1.000000
   27        2.119360      2.141005   1.000000   1.000000
   28        2.237391      2.257959   1.000000   1.000000
   29        4.899782      5.670041   0.667717   0.000000
   30        8.295693      8.601928   0.000000   0.000000
   31        9.232442      9.562278   0.000000   0.000000
   32        9.676794     10.031459   0.000000   0.000000
   33       10.827093     10.914356   0.000000   0.000000
   34       11.708582     11.795878   0.000000   0.000000
   35       12.377613     12.416503   0.000000   0.000000
   36       12.620807     12.677871   0.000000   0.000000
   37       12.733788     12.781508   0.000000   0.000000
   38       13.395477     13.461459   0.000000   0.000000
   39       13.471168     13.531377   0.000000   0.000000
   40       14.197803     14.221294   0.000000   0.000000
   41       14.240492     14.312266   0.000000   0.000000
   42       14.301552     14.352438   0.000000   0.000000
   43       14.582867     14.598657   0.000000   0.000000
   44       14.792193     14.811653   0.000000   0.000000
 
  0.2500000E+00 -0.2500000E+00  0.2500000E+00  0.6250000E-01
    1      -13.995631    -13.986428   1.000000   1.000000
    2      -13.574566    -13.550225   1.000000   1.000000
    3      -13.410157    -13.384391   1.000000   1.000000
    4      -13.179266    -13.149430   1.000000   1.000000
    5      -13.136397    -13.108281   1.000000   1.000000
    6      -13.054274    -13.024664   1.000000   1.000000
    7      -12.927429    -12.896684   1.000000   1.000000
    8       -1.136273     -1.040074   1.000000   1.000000
    9       -0.976336     -0.971213   1.000000   1.000000
   10       -0.923856     -0.900430   1.000000   1.000000
   11       -0.681565     -0.651410   1.000000   1.000000
   12       -0.527592     -0.507322   1.000000   1.000000
   13       -0.225560     -0.201986   1.000000   1.000000
   14       -0.055078     -0.007272   1.000000   1.000000
   15        0.315254      0.330708   1.000000   1.000000
   16        0.424111      0.448780   1.000000   1.000000
   17        0.451514      0.488251   1.000000   1.000000
   18        0.837981      0.867164   1.000000   1.000000
   19        1.074584      1.106925   1.000000   1.000000
   20        1.174359      1.199940   1.000000   1.000000
   21        1.415998      1.446812   1.000000   1.000000
   22        1.476766      1.491332   1.000000   1.000000
   23        1.682625      1.693777   1.000000   1.000000
   24        1.724876      1.745732   1.000000   1.000000
   25        1.896930      1.930111   1.000000   1.000000
   26        2.087246      2.106203   1.000000   1.000000
   27        2.119455      2.141161   1.000000   1.000000
   28        2.238186      2.258740   1.000000   1.000000
   29        4.899837      5.670029   0.667147   0.000000
   30        8.295906      8.602358   0.000000   0.000000
   31        9.231555      9.561285   0.000000   0.000000
   32        9.677801     10.032363   0.000000   0.000000
   33       10.826153     10.913365   0.000000   0.000000
   34       11.708525     11.795900   0.000000   0.000000
   35       12.377428     12.416740   0.000000   0.000000
   36       12.620953     12.677629   0.000000   0.000000
   37       12.734517     12.782245   0.000000   0.000000
   38       13.395828     13.461750   0.000000   0.000000
   39       13.470717     13.531052   0.000000   0.000000
   40       14.198480     14.222065   0.000000   0.000000
   41       14.240398     14.311830   0.000000   0.000000
   42       14.300329     14.351207   0.000000   0.000000
   43       14.582479     14.598318   0.000000   0.000000
   44       14.792234     14.811891   0.000000   0.000000
 
  0.2500000E+00  0.2500000E+00 -0.2500000E+00  0.6250000E-01
    1      -13.995576    -13.986376   1.000000   1.000000
    2      -13.574742    -13.550398   1.000000   1.000000
    3      -13.410112    -13.384343   1.000000   1.000000
    4      -13.179321    -13.149488   1.000000   1.000000
    5      -13.136140    -13.108030   1.000000   1.000000
    6      -13.054343    -13.024725   1.000000   1.000000
    7      -12.927485    -12.896743   1.000000   1.000000
    8       -1.136317     -1.040127   1.000000   1.000000
    9       -0.976123     -0.970993   1.000000   1.000000
   10       -0.923769     -0.900368   1.000000   1.000000
   11       -0.681650     -0.651461   1.000000   1.000000
   12       -0.527651     -0.507401   1.000000   1.000000
   13       -0.225748     -0.202177   1.000000   1.000000
   14       -0.055243     -0.007428   1.000000   1.000000
   15        0.315152      0.330605   1.000000   1.000000
   16        0.423967      0.448655   1.000000   1.000000
   17        0.451689      0.488415   1.000000   1.000000
   18        0.838331      0.867506   1.000000   1.000000
   19        1.074707      1.107061   1.000000   1.000000
   20        1.174634      1.200226   1.000000   1.000000
   21        1.415891      1.446714   1.000000   1.000000
   22        1.476534      1.491083   1.000000   1.000000
   23        1.682769      1.693927   1.000000   1.000000
   24        1.724840      1.745716   1.000000   1.000000
   25        1.896795      1.929959   1.000000   1.000000
   26        2.087202      2.106156   1.000000   1.000000
   27        2.119432      2.141136   1.000000   1.000000
   28        2.238138      2.258688   1.000000   1.000000
   29        4.899857      5.670050   0.666947   0.000000
   30        8.296234      8.602631   0.000000   0.000000
   31        9.231597      9.561323   0.000000   0.000000
   32        9.677244     10.031847   0.000000   0.000000
   33       10.826442     10.913668   0.000000   0.000000
   34       11.708209     11.795583   0.000000   0.000000
   35       12.377437     12.416699   0.000000   0.000000
   36       12.621009     12.677732   0.000000   0.000000
   37       12.734693     12.782409   0.000000   0.000000
   38       13.395921     13.461883   0.000000   0.000000
   39       13.470623     13.530932   0.000000   0.000000
   40       14.198408     14.222000   0.000000   0.000000
   41       14.240673     14.312156   0.000000   0.000000
   42       14.300484     14.351353   0.000000   0.000000
   43       14.582530     14.598374   0.000000   0.000000
   44       14.791886     14.811533   0.000000   0.000000
 
  0.2500000E+00  0.0000000E+00  0.5000000E+00  0.6250000E-01
    1      -13.995487    -13.986294   1.000000   1.000000
    2      -13.576047    -13.551632   1.000000   1.000000
    3      -13.407694    -13.382035   1.000000   1.000000
    4      -13.179255    -13.149422   1.000000   1.000000
    5      -13.139178    -13.110930   1.000000   1.000000
    6      -13.052638    -13.023111   1.000000   1.000000
    7      -12.927410    -12.896664   1.000000   1.000000
    8       -1.135528     -1.038634   1.000000   1.000000
    9       -0.978475     -0.973364   1.000000   1.000000
   10       -0.922688     -0.899915   1.000000   1.000000
   11       -0.681128     -0.651106   1.000000   1.000000
   12       -0.527029     -0.506571   1.000000   1.000000
   13       -0.226977     -0.203322   1.000000   1.000000
   14       -0.053045     -0.005394   1.000000   1.000000
   15        0.312422      0.327850   1.000000   1.000000
   16        0.424231      0.448713   1.000000   1.000000
   17        0.452703      0.489703   1.000000   1.000000
   18        0.835799      0.864781   1.000000   1.000000
   19        1.076212      1.108618   1.000000   1.000000
   20        1.173330      1.199147   1.000000   1.000000
   21        1.416595      1.447367   1.000000   1.000000
   22        1.480053      1.494580   1.000000   1.000000
   23        1.680428      1.691517   1.000000   1.000000
   24        1.725556      1.746352   1.000000   1.000000
   25        1.896923      1.930162   1.000000   1.000000
   26        2.088288      2.107274   1.000000   1.000000
   27        2.116270      2.137903   1.000000   1.000000
   28        2.239605      2.260189   1.000000   1.000000
   29        4.899904      5.670062   0.666455   0.000000
   30        8.296515      8.603101   0.000000   0.000000
   31        9.229129      9.558664   0.000000   0.000000
   32        9.679542     10.034154   0.000000   0.000000
   33       10.826253     10.913524   0.000000   0.000000
   34       11.708079     11.795287   0.000000   0.000000
   35       12.377656     12.417330   0.000000   0.000000
   36       12.623562     12.680044   0.000000   0.000000
   37       12.732108     12.779851   0.000000   0.000000
   38       13.396519     13.462341   0.000000   0.000000
   39       13.470081     13.530348   0.000000   0.000000
   40       14.199166     14.223006   0.000000   0.000000
   41       14.240084     14.311513   0.000000   0.000000
   42       14.300275     14.351090   0.000000   0.000000
   43       14.581171     14.597050   0.000000   0.000000
   44       14.793700     14.813179   0.000000   0.000000
 
 -0.2500000E+00  0.5000000E+00  0.5000000E+00  0.6250000E-01
    1      -13.994854    -13.985693   1.000000   1.000000
    2      -13.577992    -13.553543   1.000000   1.000000
    3      -13.407191    -13.381501   1.000000   1.000000
    4      -13.179571    -13.149748   1.000000   1.000000
    5      -13.136604    -13.108446   1.000000   1.000000
    6      -13.053810    -13.024203   1.000000   1.000000
    7      -12.927679    -12.896947   1.000000   1.000000
    8       -1.135019     -1.038224   1.000000   1.000000
    9       -0.976913     -0.971823   1.000000   1.000000
   10       -0.921897     -0.899235   1.000000   1.000000
   11       -0.683244     -0.652773   1.000000   1.000000
   12       -0.526414     -0.506285   1.000000   1.000000
   13       -0.228257     -0.204589   1.000000   1.000000
   14       -0.055033     -0.007198   1.000000   1.000000
   15        0.312101      0.327518   1.000000   1.000000
   16        0.423509      0.447992   1.000000   1.000000
   17        0.452550      0.489505   1.000000   1.000000
   18        0.838102      0.867083   1.000000   1.000000
   19        1.076844      1.109248   1.000000   1.000000
   20        1.176190      1.201838   1.000000   1.000000
   21        1.416255      1.447235   1.000000   1.000000
   22        1.477887      1.492375   1.000000   1.000000
   23        1.681939      1.693021   1.000000   1.000000
   24        1.725363      1.746294   1.000000   1.000000
   25        1.896157      1.929359   1.000000   1.000000
   26        2.087818      2.106753   1.000000   1.000000
   27        2.114166      2.135828   1.000000   1.000000
   28        2.241147      2.261680   1.000000   1.000000
   29        4.899971      5.669938   0.665766   0.000000
   30        8.299027      8.605691   0.000000   0.000000
   31        9.229418      9.558960   0.000000   0.000000
   32        9.676565     10.031284   0.000000   0.000000
   33       10.827581     10.915029   0.000000   0.000000
   34       11.706207     11.793438   0.000000   0.000000
   35       12.377116     12.416695   0.000000   0.000000
   36       12.623860     12.680361   0.000000   0.000000
   37       12.733887     12.781607   0.000000   0.000000
   38       13.395344     13.461328   0.000000   0.000000
   39       13.470108     13.530227   0.000000   0.000000
   40       14.198003     14.221632   0.000000   0.000000
   41       14.239971     14.311516   0.000000   0.000000
   42       14.300578     14.351327   0.000000   0.000000
   43       14.581525     14.597429   0.000000   0.000000
   44       14.792353     14.811803   0.000000   0.000000
 
  0.2500000E+00  0.5000000E+00  0.0000000E+00  0.6250000E-01
    1      -13.995535    -13.986340   1.000000   1.000000
    2      -13.575932    -13.551524   1.000000   1.000000
    3      -13.407711    -13.382052   1.000000   1.000000
    4      -13.179291    -13.149460   1.000000   1.000000
    5      -13.139284    -13.111023   1.000000   1.000000
    6      -13.052485    -13.022962   1.000000   1.000000
    7      -12.927470    -12.896728   1.000000   1.000000
    8       -1.135451     -1.038418   1.000000   1.000000
    9       -0.978847     -0.973751   1.000000   1.000000
   10       -0.922938     -0.900243   1.000000   1.000000
   11       -0.680999     -0.651027   1.000000   1.000000
   12       -0.527239     -0.506765   1.000000   1.000000
   13       -0.227212     -0.203598   1.000000   1.000000
   14       -0.052568     -0.004935   1.000000   1.000000
   15        0.313412      0.328864   1.000000   1.000000
   16        0.424632      0.449153   1.000000   1.000000
   17        0.452570      0.489528   1.000000   1.000000
   18        0.836061      0.865135   1.000000   1.000000
   19        1.075329      1.107652   1.000000   1.000000
   20        1.173600      1.199430   1.000000   1.000000
   21        1.417100      1.447894   1.000000   1.000000
   22        1.479339      1.493860   1.000000   1.000000
   23        1.680176      1.691268   1.000000   1.000000
   24        1.725879      1.746630   1.000000   1.000000
   25        1.896491      1.929767   1.000000   1.000000
   26        2.088427      2.107417   1.000000   1.000000
   27        2.115454      2.137019   1.000000   1.000000
   28        2.240295      2.260931   1.000000   1.000000
   29        4.899923      5.670094   0.666265   0.000000
   30        8.296023      8.602571   0.000000   0.000000
   31        9.229630      9.559217   0.000000   0.000000
   32        9.679693     10.034318   0.000000   0.000000
   33       10.826384     10.913655   0.000000   0.000000
   34       11.708130     11.795322   0.000000   0.000000
   35       12.377614     12.417108   0.000000   0.000000
   36       12.623363     12.680013   0.000000   0.000000
   37       12.731955     12.779715   0.000000   0.000000
   38       13.396036     13.461864   0.000000   0.000000
   39       13.469819     13.530062   0.000000   0.000000
   40       14.199643     14.223203   0.000000   0.000000
   41       14.240022     14.311796   0.000000   0.000000
   42       14.301229     14.351956   0.000000   0.000000
   43       14.581292     14.597161   0.000000   0.000000
   44       14.793768     14.813142   0.000000   0.000000
 
  0.0000000E+00  0.5000000E+00 -0.2500000E+00  0.6250000E-01
    1      -13.995550    -13.986351   1.000000   1.000000
    2      -13.575620    -13.551244   1.000000   1.000000
    3      -13.408465    -13.382765   1.000000   1.000000
    4      -13.179500    -13.149680   1.000000   1.000000
    5      -13.137898    -13.109662   1.000000   1.000000
    6      -13.052989    -13.023432   1.000000   1.000000
    7      -12.927686    -12.896955   1.000000   1.000000
    8       -1.136507     -1.039851   1.000000   1.000000
    9       -0.978322     -0.973227   1.000000   1.000000
   10       -0.922940     -0.899957   1.000000   1.000000
   11       -0.680995     -0.650897   1.000000   1.000000
   12       -0.527425     -0.507073   1.000000   1.000000
   13       -0.226578     -0.202920   1.000000   1.000000
   14       -0.053166     -0.005521   1.000000   1.000000
   15        0.313896      0.329320   1.000000   1.000000
   16        0.424527      0.449085   1.000000   1.000000
   17        0.452680      0.489678   1.000000   1.000000
   18        0.837445      0.866536   1.000000   1.000000
   19        1.075554      1.107910   1.000000   1.000000
   20        1.174800      1.200561   1.000000   1.000000
   21        1.416816      1.447616   1.000000   1.000000
   22        1.478393      1.492879   1.000000   1.000000
   23        1.679825      1.690937   1.000000   1.000000
   24        1.725680      1.746541   1.000000   1.000000
   25        1.896599      1.929796   1.000000   1.000000
   26        2.087731      2.106712   1.000000   1.000000
   27        2.117114      2.138788   1.000000   1.000000
   28        2.238146      2.258658   1.000000   1.000000
   29        4.899808      5.670011   0.667447   0.000000
   30        8.297314      8.603724   0.000000   0.000000
   31        9.230526      9.560015   0.000000   0.000000
   32        9.676974     10.031774   0.000000   0.000000
   33       10.827230     10.914558   0.000000   0.000000
   34       11.708059     11.795223   0.000000   0.000000
   35       12.377691     12.417095   0.000000   0.000000
   36       12.622735     12.679426   0.000000   0.000000
   37       12.732803     12.780550   0.000000   0.000000
   38       13.395823     13.461766   0.000000   0.000000
   39       13.470856     13.531044   0.000000   0.000000
   40       14.197965     14.221603   0.000000   0.000000
   41       14.239644     14.311255   0.000000   0.000000
   42       14.300316     14.351255   0.000000   0.000000
   43       14.582041     14.597823   0.000000   0.000000
   44       14.792716     14.812231   0.000000   0.000000
 
  0.5000000E+00  0.0000000E+00 -0.2500000E+00  0.6250000E-01
    1      -13.995829    -13.986618   1.000000   1.000000
    2      -13.574698    -13.550327   1.000000   1.000000
    3      -13.408703    -13.383020   1.000000   1.000000
    4      -13.179244    -13.149410   1.000000   1.000000
    5      -13.139288    -13.111033   1.000000   1.000000
    6      -13.052528    -13.023006   1.000000   1.000000
    7      -12.927420    -12.896675   1.000000   1.000000
    8       -1.136251     -1.039520   1.000000   1.000000
    9       -0.978743     -0.973636   1.000000   1.000000
   10       -0.923567     -0.900544   1.000000   1.000000
   11       -0.680203     -0.650338   1.000000   1.000000
   12       -0.527539     -0.507022   1.000000   1.000000
   13       -0.226027     -0.202380   1.000000   1.000000
   14       -0.052457     -0.004821   1.000000   1.000000
   15        0.314073      0.329531   1.000000   1.000000
   16        0.424705      0.449283   1.000000   1.000000