 vasp.5.4.1 05Feb16 (build Mar 31 2016 13:39:20) complex                        
  
 executed on           IFC91_ompi date 2018.04.28  12:46:12
 running on   16 total cores
 distrk:  each k-point on   16 cores,    1 groups
 distr:  one band on NCORES_PER_BAND=   4 cores,    4 groups


--------------------------------------------------------------------------------------------------------


 INCAR:
 POTCAR:    PAW_PBE Mg 13Apr2007                  
 POTCAR:    PAW_PBE O 08Apr2002                   
 POTCAR:    PAW_PBE Mg 13Apr2007                  
   VRHFIN =Mg: s2p0                                                             
   LEXCH  = PE                                                                  
   EATOM  =    23.0369 eV,    1.6932 Ry                                         
                                                                                
   TITEL  = PAW_PBE Mg 13Apr2007                                                
   LULTRA =        F    use ultrasoft PP ?                                      
   IUNSCR =        1    unscreen: 0-lin 1-nonlin 2-no                           
   RPACOR =    1.500    partial core radius                                     
   POMASS =   24.305; ZVAL   =    2.000    mass and valenz                      
   RCORE  =    2.000    outmost cutoff radius                                   
   RWIGS  =    2.880; RWIGS  =    1.524    wigner-seitz radius (au A)           
   ENMAX  =  126.143; ENMIN  =   94.607 eV                                      
   RCLOC  =    1.506    cutoff for local pot                                    
   LCOR   =        T    correct aug charges                                     
   LPAW   =        T    paw PP                                                  
   EAUG   =  454.734                                                            
   DEXC   =    0.000                                                            
   RMAX   =    2.045    core radius for proj-oper                               
   RAUG   =    1.300    factor for augmentation sphere                          
   RDEP   =    2.025    radius for radial grids                                 
   RDEPT  =    1.942    core radius for aug-charge                              
                                                                                
   Atomic configuration                                                         
    6 entries                                                                   
     n  l   j            E        occ.                                          
     1  0  0.50     -1259.6230   2.0000                                         
     2  0  0.50       -79.8442   2.0000                                         
     2  1  1.50       -46.6121   6.0000                                         
     3  0  0.50        -4.7055   2.0000                                         
     3  1  0.50        -1.3660   0.0000                                         
     3  2  1.50        -1.3606   0.0000                                         
   Description                                                                  
     l       E           TYP  RCUT    TYP  RCUT                                 
     0     -4.7054661     23  2.000                                             
     0     27.2116520     23  2.000                                             
     1      1.3605826     23  2.000                                             
     1     27.2116520     23  2.000                                             
     2     -1.3605826     23  2.000                                             
  local pseudopotential read in
  partial core-charges read in
  partial kinetic energy density read in
  atomic valenz-charges read in
  non local Contribution for L=           0  read in
    real space projection operators read in
  non local Contribution for L=           0  read in
    real space projection operators read in
  non local Contribution for L=           1  read in
    real space projection operators read in
  non local Contribution for L=           1  read in
    real space projection operators read in
  non local Contribution for L=           2  read in
    real space projection operators read in
    PAW grid and wavefunctions read in
 
   number of l-projection  operators is LMAX  =           5
   number of lm-projection operators is LMMAX =          13
 
 POTCAR:    PAW_PBE O 08Apr2002                   
   VRHFIN =O: s2p4                                                              
   LEXCH  = PE                                                                  
   EATOM  =   432.3788 eV,   31.7789 Ry                                         
                                                                                
   TITEL  = PAW_PBE O 08Apr2002                                                 
   LULTRA =        F    use ultrasoft PP ?                                      
   IUNSCR =        1    unscreen: 0-lin 1-nonlin 2-no                           
   RPACOR =    1.200    partial core radius                                     
   POMASS =   16.000; ZVAL   =    6.000    mass and valenz                      
   RCORE  =    1.520    outmost cutoff radius                                   
   RWIGS  =    1.550; RWIGS  =    0.820    wigner-seitz radius (au A)           
   ENMAX  =  400.000; ENMIN  =  300.000 eV                                      
   ICORE  =        2    local potential                                         
   LCOR   =        T    correct aug charges                                     
   LPAW   =        T    paw PP                                                  
   EAUG   =  605.392                                                            
   DEXC   =    0.000                                                            
   RMAX   =    1.553    core radius for proj-oper                               
   RAUG   =    1.300    factor for augmentation sphere                          
   RDEP   =    1.550    radius for radial grids                                 
   RDEPT  =    1.329    core radius for aug-charge                              
                                                                                
   Atomic configuration                                                         
    4 entries                                                                   
     n  l   j            E        occ.                                          
     1  0  0.50      -514.6923   2.0000                                         
     2  0  0.50       -23.9615   2.0000                                         
     2  1  0.50        -9.0305   4.0000                                         
     3  2  1.50        -9.5241   0.0000                                         
   Description                                                                  
     l       E           TYP  RCUT    TYP  RCUT                                 
     0    -23.9615318     23  1.200                                             
     0     -9.5240782     23  1.200                                             
     1     -9.0304911     23  1.520                                             
     1      8.1634956     23  1.520                                             
     2     -9.5240782      7  1.500                                             
  local pseudopotential read in
  partial core-charges read in
  partial kinetic energy density read in
  kinetic energy density of atom read in
  atomic valenz-charges read in
  non local Contribution for L=           0  read in
    real space projection operators read in
  non local Contribution for L=           0  read in
    real space projection operators read in
  non local Contribution for L=           1  read in
    real space projection operators read in
  non local Contribution for L=           1  read in
    real space projection operators read in
    PAW grid and wavefunctions read in
 
   number of l-projection  operators is LMAX  =           4
   number of lm-projection operators is LMMAX =           8
 
 Optimization of the real space projectors (new method)

 maximal supplied QI-value         = 18.90
 optimisation between [QCUT,QGAM] = [ 10.20, 20.41] = [ 29.16,116.64] Ry 
 Optimized for a Real-space Cutoff    1.30 Angstroem

   l    n(q)    QCUT    max X(q) W(low)/X(q) W(high)/X(q)  e(spline) 
   0      8    10.205    28.265    0.22E-03    0.17E-03    0.53E-07
   0      8    10.205    10.429    0.17E-03    0.15E-03    0.43E-07
   1      7    10.205    13.073    0.71E-04    0.41E-03    0.76E-07
   1      7    10.205     9.625    0.71E-04    0.33E-03    0.63E-07
   2      7    10.205     4.652    0.24E-03    0.41E-03    0.55E-07
 Optimization of the real space projectors (new method)

 maximal supplied QI-value         = 24.76
 optimisation between [QCUT,QGAM] = [ 10.15, 20.30] = [ 28.85,115.39] Ry 
 Optimized for a Real-space Cutoff    1.38 Angstroem

   l    n(q)    QCUT    max X(q) W(low)/X(q) W(high)/X(q)  e(spline) 
   0      8    10.150    20.381    0.22E-03    0.32E-03    0.29E-06
   0      8    10.150    15.268    0.23E-03    0.35E-03    0.30E-06
   1      8    10.150     5.964    0.46E-03    0.53E-03    0.21E-06
   1      8    10.150     5.382    0.38E-03    0.45E-03    0.19E-06
  PAW_PBE Mg 13Apr2007                  :
 energy of atom  1       EATOM=  -23.0369
 kinetic energy error for atom=    0.0001 (will be added to EATOM!!)
  PAW_PBE O 08Apr2002                   :
 energy of atom  2       EATOM= -432.3788
 kinetic energy error for atom=    0.1156 (will be added to EATOM!!)
 
 
 POSCAR: Mg8 O7                                  
  positions in direct lattice
  velocities in cartesian coordinates
 exchange correlation table for  LEXCH =        8
   RHO(1)=    0.500       N(1)  =     2000
   RHO(2)=  100.500       N(2)  =     4000
 


--------------------------------------------------------------------------------------------------------


 ion  position               nearest neighbor table
   1  0.001  0.000  0.998-  12 2.12  13 2.12   9 2.12  10 2.12  14 2.12  11 2.12   2 3.00   5 3.00
                             7 3.00   3 3.00   6 3.00   4 3.00   4 3.00   6 3.00   3 3.00   7 3.00
   2  0.992  0.992  0.507-  15 2.05  11 2.12  12 2.12  13 2.13  10 2.13   3 2.90   6 2.90   5 2.90
                             4 2.90   8 3.00   1 3.00   1 3.01   8 3.01   4 3.11   5 3.11   6 3.11
   3  0.992  0.509  0.989-  15 2.05  14 2.12   9 2.13  12 2.13  11 2.13   7 2.89   5 2.90   4 2.90
                             2 2.90   8 3.00   1 3.00   1 3.00   8 3.00   2 3.11   4 3.11   5 3.11
   4  0.993  0.509  0.506-  15 2.05  14 2.12   9 2.12  10 2.13  13 2.13   3 2.90   7 2.90   6 2.90
                             2 2.90   8 3.00   1 3.00   1 3.00   8 3.00   2 3.11   6 3.11   7 3.11
   5  0.510  0.991  0.990-  15 2.05  10 2.12  13 2.12   9 2.13  14 2.13   7 2.89   3 2.90   2 2.90
                             6 2.90   8 3.00   1 3.00   1 3.00   8 3.01   6 3.11   2 3.11   3 3.11
   6  0.510  0.991  0.507-  15 2.05  11 2.12  12 2.12   9 2.13  14 2.13   7 2.89   2 2.90   4 2.90
                             5 2.90   8 3.00   1 3.00   1 3.00   8 3.01   5 3.11   4 3.11   2 3.11
   7  0.510  0.509  0.989-  15 2.05  13 2.12  12 2.12  10 2.13  11 2.13   3 2.89   5 2.89   6 2.89
                             4 2.90   8 3.00   1 3.00   1 3.00   8 3.00   4 3.11   6 3.11   5 3.11
   8  0.501  0.500  0.498-  11 2.12  14 2.12  13 2.12   9 2.12  10 2.12  12 2.12   2 3.00   6 3.00
                             5 3.00   3 3.00   4 3.00   7 3.00   4 3.00   7 3.00   3 3.00   5 3.01
   9  0.251  0.250  0.748-   4 2.12   1 2.12   8 2.12   3 2.13   6 2.13   5 2.13
  10  0.251  0.751  0.248-   5 2.12   1 2.12   8 2.12   7 2.13   4 2.13   2 2.13
  11  0.251  0.751  0.747-   6 2.12   8 2.12   2 2.12   1 2.12   3 2.13   7 2.13
  12  0.751  0.250  0.248-   1 2.12   7 2.12   2 2.12   8 2.12   6 2.12   3 2.13
  13  0.750  0.250  0.749-   7 2.12   8 2.12   1 2.12   5 2.12   2 2.13   4 2.13
  14  0.752  0.749  0.248-   4 2.12   3 2.12   8 2.12   1 2.12   6 2.13   5 2.13
  15  0.751  0.750  0.748-   3 2.05   7 2.05   6 2.05   5 2.05   2 2.05   4 2.05
 
  LATTYP: Found a face centered cubic cell.
 ALAT       =     8.4937860000
  
  Lattice vectors:
  
 A1 = (   0.0000000000,   4.2468930000,   4.2468930000)
 A2 = (   4.2468930000,   0.0000000000,   4.2468930000)
 A3 = (   4.2468930000,   4.2468930000,   0.0000000000)


Analysis of symmetry for initial positions (statically):
=====================================================================
 Subroutine PRICEL returns:
 Original cell was already a primitive cell.
 

 Routine SETGRP: Setting up the symmetry group for a 
 face centered cubic supercell.


 Subroutine GETGRP returns: Found  1 space group operations
 (whereof  1 operations were pure point group operations)
 out of a pool of 48 trial point group operations.


The static configuration has the point symmetry C_1 .


Analysis of symmetry for dynamics (positions and initial velocities):
=====================================================================
 Subroutine PRICEL returns:
 Original cell was already a primitive cell.
 

 Routine SETGRP: Setting up the symmetry group for a 
 face centered cubic supercell.


 Subroutine GETGRP returns: Found  1 space group operations
 (whereof  1 operations were pure point group operations)
 out of a pool of 48 trial point group operations.


The dynamic configuration has the point symmetry C_1 .


Analysis of structural, dynamic, and magnetic symmetry:
=====================================================================
 Subroutine PRICEL returns:
 Original cell was already a primitive cell.
 

 Routine SETGRP: Setting up the symmetry group for a 
 face centered cubic supercell.


 Subroutine GETGRP returns: Found  1 space group operations
 (whereof  1 operations were pure point group operations)
 out of a pool of 48 trial point group operations.


The magnetic configuration has the point symmetry C_1 .


 Subroutine INISYM returns: Found  1 space group operations
 (whereof  1 operations are pure point group operations),
 and found     1 'primitive' translations

 
 
 KPOINTS: k-point mesh                            

Automatic generation of k-mesh.
Space group operators:
 irot       det(A)        alpha          n_x          n_y          n_z        tau_x        tau_y        tau_z
    1     1.000000     0.000000     1.000000     0.000000     0.000000     0.000000     0.000000     0.000000
 
 Subroutine IBZKPT returns following result:
 ===========================================
 
 Found      8 irreducible k-points:
 
 Following reciprocal coordinates:
            Coordinates               Weight
  0.000000  0.000000  0.000000      1.000000
  0.500000  0.000000  0.000000      1.000000
  0.000000  0.500000  0.000000      1.000000
  0.500000  0.500000  0.000000      1.000000
  0.000000  0.000000  0.500000      1.000000
  0.500000  0.000000  0.500000      1.000000
  0.000000  0.500000  0.500000      1.000000
  0.500000  0.500000  0.500000      1.000000
 
 Following cartesian coordinates:
            Coordinates               Weight
  0.000000  0.000000  0.000000      1.000000
 -0.058867  0.058867  0.058867      1.000000
  0.058867 -0.058867  0.058867      1.000000
  0.000000  0.000000  0.117733      1.000000
  0.058867  0.058867 -0.058867      1.000000
  0.000000  0.117733  0.000000      1.000000
  0.117733  0.000000  0.000000      1.000000
  0.058867  0.058867  0.058867      1.000000
 


--------------------------------------------------------------------------------------------------------




 Dimension of arrays:
   k-points           NKPTS =      8   k-points in BZ     NKDIM =      8   number of bands    NBANDS=     44
   number of dos      NEDOS =    301   number of ions     NIONS =     15
   non local maximal  LDIM  =      5   non local SUM 2l+1 LMDIM =     13
   total plane-waves  NPLWV =  27000
   max r-space proj   IRMAX =   1992   max aug-charges    IRDMAX=   7686
   dimension x,y,z NGX =    30 NGY =   30 NGZ =   30
   dimension x,y,z NGXF=    60 NGYF=   60 NGZF=   60
   support grid    NGXF=    60 NGYF=   60 NGZF=   60
   ions per type =               8   7
 NGX,Y,Z   is equivalent  to a cutoff of   8.30,  8.30,  8.30 a.u.
 NGXF,Y,Z  is equivalent  to a cutoff of  16.61, 16.61, 16.61 a.u.


 I would recommend the setting:
   dimension x,y,z NGX =    29 NGY =   29 NGZ =   29
 SYSTEM =  unknown system                          
 POSCAR =  Mg8 O7                                  

 Startparameter for this run:
   NWRITE =      2    write-flag & timer
   PREC   = n         normal or accurate (medium, high low for compatibility)
   ISTART =      0    job   : 0-new  1-cont  2-samecut
   ICHARG =      2    charge: 1-file 2-atom 10-const
   ISPIN  =      2    spin polarized calculation?
   LNONCOLLINEAR =      F non collinear calculations
   LSORBIT =      F    spin-orbit coupling
   INIWAV =      1    electr: 0-lowe 1-rand  2-diag
   LASPH  =      T    aspherical Exc in radial PAW
   METAGGA=      F    non-selfconsistent MetaGGA calc.

 Electronic Relaxation 1
   ENCUT  =  400.0 eV  29.40 Ry    5.42 a.u.   9.79  9.79  9.79*2*pi/ulx,y,z
   ENINI  =  400.0     initial cutoff
   ENAUG  =  605.4 eV  augmentation charge cutoff
   NELM   =    100;   NELMIN=  4; NELMDL=  0     # of ELM steps 
   EDIFF  = 0.1E-05   stopping-criterion for ELM
   LREAL  =      T    real-space projection
   NLSPLINE    = F    spline interpolate recip. space projectors
   LCOMPAT=      F    compatible to vasp.4.4
   GGA_COMPAT  = T    GGA compatible to vasp.4.4-vasp.4.6
   LMAXPAW     = -100 max onsite density
   LMAXMIX     =    2 max onsite mixed and CHGCAR
   VOSKOWN=      0    Vosko Wilk Nusair interpolation
   ROPT   =   -0.00050  -0.00050
 Ionic relaxation
   EDIFFG = -.5E-01   stopping-criterion for IOM
   NSW    =     20    number of steps for IOM
   NBLOCK =      1;   KBLOCK =     20    inner block; outer block 
   IBRION =      2    ionic relax: 0-MD 1-quasi-New 2-CG
   NFREE  =      1    steps in history (QN), initial steepest desc. (CG)
   ISIF   =      2    stress and relaxation
   IWAVPR =     11    prediction:  0-non 1-charg 2-wave 3-comb
   ISYM   =      2    0-nonsym 1-usesym 2-fastsym
   LCORR  =      T    Harris-Foulkes like correction to forces

   POTIM  = 0.5000    time-step for ionic-motion
   TEIN   =    0.0    initial temperature
   TEBEG  =    0.0;   TEEND  =   0.0 temperature during run
   SMASS  =  -3.00    Nose mass-parameter (am)
   estimated Nose-frequenzy (Omega)   =  0.10E-29 period in steps =****** mass=  -0.824E-27a.u.
   SCALEE = 1.0000    scale energy and forces
   NPACO  =    256;   APACO  = 16.0  distance and # of slots for P.C.
   PSTRESS=    0.0 pullay stress

  Mass of Ions in am
   POMASS =  24.30 16.00
  Ionic Valenz
   ZVAL   =   2.00  6.00
  Atomic Wigner-Seitz radii
   RWIGS  =  -1.00 -1.00
  virtual crystal weights 
   VCA    =   1.00  1.00
   NELECT =      57.0000    total number of electrons
   NUPDOWN=      -1.0000    fix difference up-down

 DOS related values:
   EMIN   =  10.00;   EMAX   =-10.00  energy-range for DOS
   EFERMI =   0.00
   ISMEAR =     0;   SIGMA  =   0.05  broadening in eV -4-tet -1-fermi 0-gaus

 Electronic relaxation 2 (details)
   IALGO  =     38    algorithm
   LDIAG  =      T    sub-space diagonalisation (order eigenvalues)
   LSUBROT=      F    optimize rotation matrix (better conditioning)
   TURBO    =      0    0=normal 1=particle mesh
   IRESTART =      0    0=no restart 2=restart with 2 vectors
   NREBOOT  =      0    no. of reboots
   NMIN     =      0    reboot dimension
   EREF     =   0.00    reference energy to select bands
   IMIX   =      4    mixing-type and parameters
     AMIX     =   0.40;   BMIX     =  1.00
     AMIX_MAG =   1.60;   BMIX_MAG =  1.00
     AMIN     =   0.10
     WC   =   100.;   INIMIX=   1;  MIXPRE=   1;  MAXMIX= -45

 Intra band minimization:
   WEIMIN = 0.0010     energy-eigenvalue tresh-hold
   EBREAK =  0.57E-08  absolut break condition
   DEPER  =   0.30     relativ break condition  

   TIME   =   0.40     timestep for ELM

  volume/ion in A,a.u.               =      10.21        68.92
  Fermi-wavevector in a.u.,A,eV,Ry     =   1.177475  2.225106 18.863771  1.386448
  Thomas-Fermi vector in A             =   2.313821
 
 Write flags
   LWAVE  =      F    write WAVECAR
   LCHARG =      F    write CHGCAR
   LVTOT  =      F    write LOCPOT, total local potential
   LVHAR  =      F    write LOCPOT, Hartree potential only
   LELF   =      F    write electronic localiz. function (ELF)
   LORBIT =     12    0 simple, 1 ext, 2 COOP (PROOUT)


 Dipole corrections
   LMONO  =      F    monopole corrections only (constant potential shift)
   LDIPOL =      F    correct potential (dipole corrections)
   IDIPOL =      0    1-x, 2-y, 3-z, 4-all directions 
   EPSILON=  1.0000000 bulk dielectric constant

 Exchange correlation treatment:
   GGA     =    --    GGA type
   LEXCH   =     8    internal setting for exchange type
   VOSKOWN=      0    Vosko Wilk Nusair interpolation
   LHFCALC =     F    Hartree Fock is set to
   LHFONE  =     F    Hartree Fock one center treatment
   AEXX    =    0.0000 exact exchange contribution

 Linear response parameters
   LEPSILON=     F    determine dielectric tensor
   LRPA    =     F    only Hartree local field effects (RPA)
   LNABLA  =     F    use nabla operator in PAW spheres
   LVEL    =     F    velocity operator in full k-point grid
   LINTERFAST=   F  fast interpolation
   KINTER  =     0    interpolate to denser k-point grid
   CSHIFT  =0.1000    complex shift for real part using Kramers Kronig
   OMEGAMAX=  -1.0    maximum frequency
   DEG_THRESHOLD= 0.2000000E-02 threshold for treating states as degnerate
   RTIME   =    0.100 relaxation time in fs

 Orbital magnetization related:
   ORBITALMAG=     F  switch on orbital magnetization
   LCHIMAG   =     F  perturbation theory with respect to B field
   DQ        =  0.001000  dq finite difference perturbation B field



--------------------------------------------------------------------------------------------------------


 conjugate gradient relaxation of ions
 charge density and potential will be updated during run
 spin polarized calculation
 Variant of blocked Davidson
 Davidson routine will perform the subspace rotation
 perform sub-space diagonalisation
    after iterative eigenvector-optimisation
 modified Broyden-mixing scheme, WC =      100.0
 initial mixing is a Kerker type mixing with AMIX =  0.4000 and BMIX =      1.0000
 Hartree-type preconditioning will be used
 using additional bands           15
 real space projection scheme for non local part
 use partial core corrections
 calculate Harris-corrections to forces 
   (improved forces if not selfconsistent)
 use gradient corrections 
 use of overlap-Matrix (Vanderbilt PP)
 Gauss-broadening in eV      SIGMA  =   0.05


--------------------------------------------------------------------------------------------------------


  energy-cutoff  :      400.00
  volume of cell :      153.19
      direct lattice vectors                 reciprocal lattice vectors
     0.000000000  4.246893000  4.246893000    -0.117733129  0.117733129  0.117733129
     4.246893000  0.000000000  4.246893000     0.117733129 -0.117733129  0.117733129
     4.246893000  4.246893000  0.000000000     0.117733129  0.117733129 -0.117733129

  length of vectors
     6.006013679  6.006013679  6.006013679     0.203919761  0.203919761  0.203919761


 
 k-points in units of 2pi/SCALE and weight: k-point mesh                            
   0.00000000  0.00000000  0.00000000       0.125
  -0.05886656  0.05886656  0.05886656       0.125
   0.05886656 -0.05886656  0.05886656       0.125
   0.00000000  0.00000000  0.11773313       0.125
   0.05886656  0.05886656 -0.05886656       0.125
   0.00000000  0.11773313  0.00000000       0.125
   0.11773313  0.00000000  0.00000000       0.125
   0.05886656  0.05886656  0.05886656       0.125
 
 k-points in reciprocal lattice and weights: k-point mesh                            
   0.00000000  0.00000000  0.00000000       0.125
   0.50000000  0.00000000  0.00000000       0.125
   0.00000000  0.50000000  0.00000000       0.125
   0.50000000  0.50000000  0.00000000       0.125
   0.00000000  0.00000000  0.50000000       0.125
   0.50000000  0.00000000  0.50000000       0.125
   0.00000000  0.50000000  0.50000000       0.125
   0.50000000  0.50000000  0.50000000       0.125
 
 position of ions in fractional coordinates (direct lattice) 
   0.00122452  0.00029007  0.99787256
   0.99189147  0.99205952  0.50700096
   0.99224144  0.50934091  0.98868811
   0.99293409  0.50882965  0.50640502
   0.50985470  0.99109015  0.98955360
   0.51022272  0.99103751  0.50681488
   0.51044011  0.50933912  0.98881355
   0.50129951  0.50030548  0.49800670
   0.25113814  0.25033951  0.74763657
   0.25140508  0.75068729  0.24776155
   0.25125960  0.75073757  0.74734856
   0.75112533  0.25017635  0.24790080
   0.75029627  0.25029473  0.74888626
   0.75224022  0.74920559  0.24795485
   0.75123482  0.75026156  0.74799105
 
 position of ions in cartesian coordinates  (Angst):
   4.23908987  4.24305838  0.00643227
   6.36634946  6.36563575  8.42562757
   6.36196894  8.41279584  6.37705958
   4.31159301  6.36753277  6.37782988
   8.41158208  6.36782662  6.37435216
   6.36121882  4.31924985  6.37569156
   6.36249405  6.36716987  4.33089328
   4.23972502  4.24394652  4.25370923
   4.23829760  4.24168931  2.12972191
   4.24030539  2.11990725  4.25577908
   6.36221148  4.24098199  4.25537474
   2.11528033  4.24275708  4.25242109
   4.24341477  6.36686777  4.24940292
   4.23483367  4.24772141  6.37647967
   6.36291855  6.36705185  6.37669446
 


--------------------------------------------------------------------------------------------------------


 k-point  1 :   0.0000 0.0000 0.0000  plane waves:    2733
 k-point  2 :   0.5000 0.0000 0.0000  plane waves:    2788
 k-point  3 :   0.0000 0.5000 0.0000  plane waves:    2788
 k-point  4 :   0.5000 0.5000 0.0000  plane waves:    2778
 k-point  5 :   0.0000 0.0000 0.5000  plane waves:    2788
 k-point  6 :   0.5000 0.0000 0.5000  plane waves:    2778
 k-point  7 :   0.0000 0.5000 0.5000  plane waves:    2778
 k-point  8 :   0.5000 0.5000 0.5000  plane waves:    2788

 maximum and minimum number of plane-waves per node :       715      668

 maximum number of plane-waves:      2788
 maximum index in each direction: 
   IXMAX=    9   IYMAX=    9   IZMAX=    9
   IXMIN=  -10   IYMIN=  -10   IZMIN=  -10

 WARNING: aliasing errors must be expected set NGX to  40 to avoid them
 WARNING: aliasing errors must be expected set NGY to  40 to avoid them
 WARNING: aliasing errors must be expected set NGZ to  40 to avoid them
 aliasing errors are usually negligible using standard VASP settings
 and one can safely disregard these warnings

 real space projection operators:
  total allocation   :       2110.80 KBytes
  max/ min on nodes  :        569.61        487.09


 parallel 3D FFT for wavefunctions:
    minimum data exchange during FFTs selected (reduces bandwidth)
 parallel 3D FFT for charge:
    minimum data exchange during FFTs selected (reduces bandwidth)


 total amount of memory used by VASP on root node    35877. kBytes
========================================================================

   base      :      30000. kBytes
   nonlr-proj:       1199. kBytes
   fftplans  :        708. kBytes
   grid      :       1766. kBytes
   one-center:         64. kBytes
   wavefun   :       2140. kBytes
 
     INWAV:  cpu time    0.0000: real time    0.0001
 Broyden mixing: mesh for mixing (old mesh)
   NGX = 19   NGY = 19   NGZ = 19
  (NGX  = 60   NGY  = 60   NGZ  = 60)
  gives a total of   6859 points

 initial charge density was supplied:
 charge density of overlapping atoms calculated
 number of electron      58.0000000 magnetization      15.0000000
 keeping initial charge density in first step


--------------------------------------------------------------------------------------------------------


 Maximum index for non-local projection operator          524
 Maximum index for augmentation-charges          513 (set IRDMAX)


--------------------------------------------------------------------------------------------------------


 First call to EWALD:  gamma=   0.331
 Maximum number of real-space cells 3x 3x 3
 Maximum number of reciprocal cells 3x 3x 3

 FEWALD executed in parallel
    FEWALD:  cpu time    0.0000: real time    0.0017


----------------------------------------- Iteration    1(   1)  ---------------------------------------


    POTLOK:  cpu time    0.0200: real time    0.0218
    SETDIJ:  cpu time    0.6800: real time    0.6800
     EDDAV:  cpu time    0.4960: real time    0.4984
       DOS:  cpu time    0.0000: real time    0.0005
    --------------------------------------------
      LOOP:  cpu time    1.2000: real time    1.2040

 eigenvalue-minimisations  :  1488
 total energy-change (2. order) : 0.2271952E+03  (-0.2416884E+04)
 number of electron      58.0000000 magnetization      15.0000000
 augmentation part       58.0000000 magnetization      15.0000000

 Free energy of the ion-electron system (eV)
  ---------------------------------------------------
  alpha Z        PSCENC =       129.53385374
  Ewald energy   TEWEN  =     -2363.92415425
  -Hartree energ DENC   =      -978.64651822
  -exchange      EXHF   =         0.00000000
  -V(xc)+E(xc)   XCENC  =      -189.52199133
  PAW double counting   =      2946.27252624    -2543.92834819
  entropy T*S    EENTRO =        -0.00225635
  eigenvalues    EBANDS =        17.27552554
  atomic energy  EATOM  =      3210.13655998
  Solvation  Ediel_sol  =         0.00000000
  ---------------------------------------------------
  free energy    TOTEN  =       227.19519716 eV

  energy without entropy =      227.19745351  energy(sigma->0) =      227.19632533


--------------------------------------------------------------------------------------------------------




----------------------------------------- Iteration    1(   2)  ---------------------------------------


     EDDAV:  cpu time    0.5480: real time    0.5487
       DOS:  cpu time    0.0000: real time    0.0005
    --------------------------------------------
      LOOP:  cpu time    0.5520: real time    0.5529

 eigenvalue-minimisations  :  1780
 total energy-change (2. order) :-0.3043922E+03  (-0.2958346E+03)
 number of electron      58.0000000 magnetization      15.0000000
 augmentation part       58.0000000 magnetization      15.0000000

 Free energy of the ion-electron system (eV)
  ---------------------------------------------------
  alpha Z        PSCENC =       129.53385374
  Ewald energy   TEWEN  =     -2363.92415425
  -Hartree energ DENC   =      -978.64651822
  -exchange      EXHF   =         0.00000000
  -V(xc)+E(xc)   XCENC  =      -189.52199133
  PAW double counting   =      2946.27252624    -2543.92834819
  entropy T*S    EENTRO =        -0.00066696
  eigenvalues    EBANDS =      -287.11826982
  atomic energy  EATOM  =      3210.13655998
  Solvation  Ediel_sol  =         0.00000000
  ---------------------------------------------------
  free energy    TOTEN  =       -77.19700881 eV

  energy without entropy =      -77.19634185  energy(sigma->0) =      -77.19667533


--------------------------------------------------------------------------------------------------------




----------------------------------------- Iteration    1(   3)  ---------------------------------------


     EDDAV:  cpu time    0.5360: real time    0.5403
       DOS:  cpu time    0.0040: real time    0.0005
    --------------------------------------------
      LOOP:  cpu time    0.5400: real time    0.5439

 eigenvalue-minimisations  :  1704
 total energy-change (2. order) :-0.1769512E+02  (-0.1760700E+02)
 number of electron      58.0000000 magnetization      15.0000000
 augmentation part       58.0000000 magnetization      15.0000000

 Free energy of the ion-electron system (eV)
  ---------------------------------------------------
  alpha Z        PSCENC =       129.53385374
  Ewald energy   TEWEN  =     -2363.92415425
  -Hartree energ DENC   =      -978.64651822
  -exchange      EXHF   =         0.00000000
  -V(xc)+E(xc)   XCENC  =      -189.52199133
  PAW double counting   =      2946.27252624    -2543.92834819
  entropy T*S    EENTRO =        -0.00479338
  eigenvalues    EBANDS =      -304.80926784
  atomic energy  EATOM  =      3210.13655998
  Solvation  Ediel_sol  =         0.00000000
  ---------------------------------------------------
  free energy    TOTEN  =       -94.89213326 eV

  energy without entropy =      -94.88733988  energy(sigma->0) =      -94.88973657


--------------------------------------------------------------------------------------------------------




----------------------------------------- Iteration    1(   4)  ---------------------------------------


     EDDAV:  cpu time    0.5440: real time    0.5442
       DOS:  cpu time    0.0000: real time    0.0005
    --------------------------------------------
      LOOP:  cpu time    0.5440: real time    0.5473

 eigenvalue-minimisations  :  1760
 total energy-change (2. order) :-0.1182664E+00  (-0.1181395E+00)
 number of electron      58.0000000 magnetization      15.0000000
 augmentation part       58.0000000 magnetization      15.0000000

 Free energy of the ion-electron system (eV)
  ---------------------------------------------------
  alpha Z        PSCENC =       129.53385374
  Ewald energy   TEWEN  =     -2363.92415425
  -Hartree energ DENC   =      -978.64651822
  -exchange      EXHF   =         0.00000000
  -V(xc)+E(xc)   XCENC  =      -189.52199133
  PAW double counting   =      2946.27252624    -2543.92834819
  entropy T*S    EENTRO =        -0.00482104
  eigenvalues    EBANDS =      -304.92750660
  atomic energy  EATOM  =      3210.13655998
  Solvation  Ediel_sol  =         0.00000000
  ---------------------------------------------------
  free energy    TOTEN  =       -95.01039967 eV

  energy without entropy =      -95.00557864  energy(sigma->0) =      -95.00798916


--------------------------------------------------------------------------------------------------------




----------------------------------------- Iteration    1(   5)  ---------------------------------------


     EDDAV:  cpu time    0.5360: real time    0.5370
       DOS:  cpu time    0.0000: real time    0.0005
    CHARGE:  cpu time    0.0200: real time    0.0199
    MIXING:  cpu time    0.0000: real time    0.0007
    --------------------------------------------
      LOOP:  cpu time    0.5560: real time    0.5610

 eigenvalue-minimisations  :  1728
 total energy-change (2. order) :-0.7063521E-03  (-0.7062798E-03)
 number of electron      56.9999837 magnetization       0.8310015
 augmentation part        5.5664838 magnetization       0.1659559

 Broyden mixing:
  rms(total) = 0.26760E+01    rms(broyden)= 0.26741E+01
  rms(prec ) = 0.45577E+01
  weight for this iteration     100.00

 Free energy of the ion-electron system (eV)
  ---------------------------------------------------
  alpha Z        PSCENC =       129.53385374
  Ewald energy   TEWEN  =     -2363.92415425
  -Hartree energ DENC   =      -978.64651822
  -exchange      EXHF   =         0.00000000
  -V(xc)+E(xc)   XCENC  =      -189.52199133
  PAW double counting   =      2946.27252624    -2543.92834819
  entropy T*S    EENTRO =        -0.00482105
  eigenvalues    EBANDS =      -304.92821294
  atomic energy  EATOM  =      3210.13655998
  Solvation  Ediel_sol  =         0.00000000
  ---------------------------------------------------
  free energy    TOTEN  =       -95.01110603 eV

  energy without entropy =      -95.00628497  energy(sigma->0) =      -95.00869550


--------------------------------------------------------------------------------------------------------




----------------------------------------- Iteration    1(   6)  ---------------------------------------


    POTLOK:  cpu time    0.0240: real time    0.0220
    SETDIJ:  cpu time    0.6800: real time    0.6818
     EDDAV:  cpu time    0.4920: real time    0.4912
       DOS:  cpu time    0.0000: real time    0.0006
    CHARGE:  cpu time    0.0200: real time    0.0213
    MIXING:  cpu time    0.0000: real time    0.0006
    --------------------------------------------
      LOOP:  cpu time    1.2160: real time    1.2204

 eigenvalue-minimisations  :  1536
 total energy-change (2. order) : 0.5858012E+01  (-0.4182840E+01)
 number of electron      56.9999867 magnetization       0.7554888
 augmentation part        4.5922944 magnetization      -0.0520601

 Broyden mixing:
  rms(total) = 0.75868E+00    rms(broyden)= 0.75726E+00
  rms(prec ) = 0.10719E+01
  weight for this iteration     100.00

 eigenvalues of (default mixing * dielectric matrix)
  average eigenvalue GAMMA=   0.8274
  0.8274

 Free energy of the ion-electron system (eV)
  ---------------------------------------------------
  alpha Z        PSCENC =       129.53385374
  Ewald energy   TEWEN  =     -2363.92415425
  -Hartree energ DENC   =     -1117.22667100
  -exchange      EXHF   =         0.00000000
  -V(xc)+E(xc)   XCENC  =      -185.63374060
  PAW double counting   =      3480.55501820    -3080.46277198
  entropy T*S    EENTRO =        -0.00482067
  eigenvalues    EBANDS =      -162.12636703
  atomic energy  EATOM  =      3210.13655998
  Solvation  Ediel_sol  =         0.00000000
  ---------------------------------------------------
  free energy    TOTEN  =       -89.15309361 eV

  energy without entropy =      -89.14827294  energy(sigma->0) =      -89.15068327


--------------------------------------------------------------------------------------------------------




----------------------------------------- Iteration    1(   7)  ---------------------------------------


    POTLOK:  cpu time    0.0200: real time    0.0216
    SETDIJ:  cpu time    0.6840: real time    0.6828
     EDDAV:  cpu time    0.5000: real time    0.5022
       DOS:  cpu time    0.0000: real time    0.0005
    CHARGE:  cpu time    0.0200: real time    0.0197
    MIXING:  cpu time    0.0000: real time    0.0006
    --------------------------------------------
      LOOP:  cpu time    1.2280: real time    1.2310

 eigenvalue-minimisations  :  1588
 total energy-change (2. order) :-0.1114447E+00  (-0.1296300E+00)
 number of electron      56.9999867 magnetization       0.7475971
 augmentation part        4.5901801 magnetization       0.0345786

 Broyden mixing:
  rms(total) = 0.39354E+00    rms(broyden)= 0.39347E+00
  rms(prec ) = 0.63274E+00
  weight for this iteration     100.00

 eigenvalues of (default mixing * dielectric matrix)
  average eigenvalue GAMMA=   0.9686
  0.9686  0.9686

 Free energy of the ion-electron system (eV)
  ---------------------------------------------------
  alpha Z        PSCENC =       129.53385374
  Ewald energy   TEWEN  =     -2363.92415425
  -Hartree energ DENC   =     -1119.56493755
  -exchange      EXHF   =         0.00000000
  -V(xc)+E(xc)   XCENC  =      -185.43658367
  PAW double counting   =      3654.14555700    -3253.76961817
  entropy T*S    EENTRO =        -0.00482047
  eigenvalues    EBANDS =      -160.38039495
  atomic energy  EATOM  =      3210.13655998
  Solvation  Ediel_sol  =         0.00000000
  ---------------------------------------------------
  free energy    TOTEN  =       -89.26453834 eV

  energy without entropy =      -89.25971787  energy(sigma->0) =      -89.26212810


--------------------------------------------------------------------------------------------------------




----------------------------------------- Iteration    1(   8)  ---------------------------------------


    POTLOK:  cpu time    0.0200: real time    0.0211
    SETDIJ:  cpu time    0.6800: real time    0.6809
     EDDAV:  cpu time    0.5320: real time    0.5307
       DOS:  cpu time    0.0000: real time    0.0005
    CHARGE:  cpu time    0.0200: real time    0.0200
    MIXING:  cpu time    0.0000: real time    0.0006
    --------------------------------------------
      LOOP:  cpu time    1.2560: real time    1.2571

 eigenvalue-minimisations  :  1696
 total energy-change (2. order) : 0.1249123E+00  (-0.2131966E-01)
 number of electron      56.9999866 magnetization       0.7478280
 augmentation part        4.6157394 magnetization       0.0424422

 Broyden mixing:
  rms(total) = 0.14382E+00    rms(broyden)= 0.14379E+00
  rms(prec ) = 0.23189E+00
  weight for this iteration     100.00

 eigenvalues of (default mixing * dielectric matrix)
  average eigenvalue GAMMA=   1.2744
  2.0882  0.9055  0.8294

 Free energy of the ion-electron system (eV)
  ---------------------------------------------------
  alpha Z        PSCENC =       129.53385374
  Ewald energy   TEWEN  =     -2363.92415425
  -Hartree energ DENC   =     -1124.43212608
  -exchange      EXHF   =         0.00000000
  -V(xc)+E(xc)   XCENC  =      -184.86759749
  PAW double counting   =      3853.05222923    -3452.42735772
  entropy T*S    EENTRO =        -0.00482039
  eigenvalues    EBANDS =      -156.20621301
  atomic energy  EATOM  =      3210.13655998
  Solvation  Ediel_sol  =         0.00000000
  ---------------------------------------------------
  free energy    TOTEN  =       -89.13962599 eV

  energy without entropy =      -89.13480560  energy(sigma->0) =      -89.13721579


--------------------------------------------------------------------------------------------------------




----------------------------------------- Iteration    1(   9)  ---------------------------------------


    POTLOK:  cpu time    0.0200: real time    0.0213
    SETDIJ:  cpu time    0.6840: real time    0.6829
     EDDAV:  cpu time    0.5400: real time    0.5380
       DOS:  cpu time    0.0000: real time    0.0006
    CHARGE:  cpu time    0.0200: real time    0.0198
    MIXING:  cpu time    0.0000: real time    0.0007
    --------------------------------------------
      LOOP:  cpu time    1.2640: real time    1.2667

 eigenvalue-minimisations  :  1732
 total energy-change (2. order) : 0.7387621E-02  (-0.5212533E-02)
 number of electron      56.9999866 magnetization       0.7493794
 augmentation part        4.6065973 magnetization       0.0477132

 Broyden mixing:
  rms(total) = 0.47380E-01    rms(broyden)= 0.47348E-01
  rms(prec ) = 0.54507E-01
  weight for this iteration     100.00

 eigenvalues of (default mixing * dielectric matrix)
  average eigenvalue GAMMA=   1.2418
  2.4137  0.9509  0.9509  0.6515

 Free energy of the ion-electron system (eV)
  ---------------------------------------------------
  alpha Z        PSCENC =       129.53385374
  Ewald energy   TEWEN  =     -2363.92415425
  -Hartree energ DENC   =     -1130.12683306
  -exchange      EXHF   =         0.00000000
  -V(xc)+E(xc)   XCENC  =      -184.30736560
  PAW double counting   =      3947.97314322    -3547.29380401
  entropy T*S    EENTRO =        -0.00482064
  eigenvalues    EBANDS =      -151.11881774
  atomic energy  EATOM  =      3210.13655998
  Solvation  Ediel_sol  =         0.00000000
  ---------------------------------------------------
  free energy    TOTEN  =       -89.13223837 eV

  energy without entropy =      -89.12741772  energy(sigma->0) =      -89.12982804


--------------------------------------------------------------------------------------------------------




----------------------------------------- Iteration    1(  10)  ---------------------------------------


    POTLOK:  cpu time    0.0200: real time    0.0211
    SETDIJ:  cpu time    0.6840: real time    0.6821
     EDDAV:  cpu time    0.5240: real time    0.5235
       DOS:  cpu time    0.0000: real time    0.0005
    CHARGE:  cpu time    0.0200: real time    0.0198
    MIXING:  cpu time    0.0000: real time    0.0007
    --------------------------------------------
      LOOP:  cpu time    1.2480: real time    1.2512

 eigenvalue-minimisations  :  1676
 total energy-change (2. order) : 0.4447778E-03  (-0.3641645E-03)
 number of electron      56.9999866 magnetization       0.7503792
 augmentation part        4.6007178 magnetization       0.0490742

 Broyden mixing:
  rms(total) = 0.16163E-01    rms(broyden)= 0.16154E-01
  rms(prec ) = 0.21677E-01
  weight for this iteration     100.00

 eigenvalues of (default mixing * dielectric matrix)
  average eigenvalue GAMMA=   1.2303
  2.5050  1.1980  0.9049  0.9049  0.6386

 Free energy of the ion-electron system (eV)
  ---------------------------------------------------
  alpha Z        PSCENC =       129.53385374
  Ewald energy   TEWEN  =     -2363.92415425
  -Hartree energ DENC   =     -1130.81980923
  -exchange      EXHF   =         0.00000000
  -V(xc)+E(xc)   XCENC  =      -184.24605297
  PAW double counting   =      3940.63264572    -3539.97273509
  entropy T*S    EENTRO =        -0.00482068
  eigenvalues    EBANDS =      -150.46728080
  atomic energy  EATOM  =      3210.13655998
  Solvation  Ediel_sol  =         0.00000000
  ---------------------------------------------------
  free energy    TOTEN  =       -89.13179359 eV

  energy without entropy =      -89.12697291  energy(sigma->0) =      -89.12938325


--------------------------------------------------------------------------------------------------------




----------------------------------------- Iteration    1(  11)  ---------------------------------------


    POTLOK:  cpu time    0.0200: real time    0.0212
    SETDIJ:  cpu time    0.6840: real time    0.6841
     EDDAV:  cpu time    0.5360: real time    0.5332
       DOS:  cpu time    0.0000: real time    0.0005
    CHARGE:  cpu time    0.0200: real time    0.0198
    MIXING:  cpu time    0.0000: real time    0.0007
    --------------------------------------------
      LOOP:  cpu time    1.2600: real time    1.2630

 eigenvalue-minimisations  :  1716
 total energy-change (2. order) :-0.4878339E-03  (-0.4339979E-04)
 number of electron      56.9999866 magnetization       0.7500620
 augmentation part        4.6009957 magnetization       0.0474078

 Broyden mixing:
  rms(total) = 0.73967E-02    rms(broyden)= 0.73959E-02
  rms(prec ) = 0.10301E-01
  weight for this iteration     100.00

 eigenvalues of (default mixing * dielectric matrix)
  average eigenvalue GAMMA=   1.3510
  2.6635  2.0793  0.9715  0.9715  0.7874  0.6328

 Free energy of the ion-electron system (eV)
  ---------------------------------------------------
  alpha Z        PSCENC =       129.53385374
  Ewald energy   TEWEN  =     -2363.92415425
  -Hartree energ DENC   =     -1130.78481141
  -exchange      EXHF   =         0.00000000
  -V(xc)+E(xc)   XCENC  =      -184.23505341
  PAW double counting   =      3928.95028601    -3528.30058541
  entropy T*S    EENTRO =        -0.00482068
  eigenvalues    EBANDS =      -150.50355598
  atomic energy  EATOM  =      3210.13655998
  Solvation  Ediel_sol  =         0.00000000
  ---------------------------------------------------
  free energy    TOTEN  =       -89.13228142 eV

  energy without entropy =      -89.12746074  energy(sigma->0) =      -89.12987108


--------------------------------------------------------------------------------------------------------




----------------------------------------- Iteration    1(  12)  ---------------------------------------


    POTLOK:  cpu time    0.0200: real time    0.0211
    SETDIJ:  cpu time    0.6840: real time    0.6835
     EDDAV:  cpu time    0.5120: real time    0.5120
       DOS:  cpu time    0.0000: real time    0.0006
    CHARGE:  cpu time    0.0200: real time    0.0199
    MIXING:  cpu time    0.0000: real time    0.0007
    --------------------------------------------
      LOOP:  cpu time    1.2360: real time    1.2410

 eigenvalue-minimisations  :  1632
 total energy-change (2. order) :-0.1921266E-03  (-0.2628872E-04)
 number of electron      56.9999866 magnetization       0.7499993
 augmentation part        4.6018459 magnetization       0.0475830

 Broyden mixing:
  rms(total) = 0.20614E-02    rms(broyden)= 0.20604E-02
  rms(prec ) = 0.28392E-02
  weight for this iteration     100.00

 eigenvalues of (default mixing * dielectric matrix)
  average eigenvalue GAMMA=   1.3265
  2.7365  2.3862  0.9988  0.9616  0.8518  0.7214  0.6292

 Free energy of the ion-electron system (eV)
  ---------------------------------------------------
  alpha Z        PSCENC =       129.53385374
  Ewald energy   TEWEN  =     -2363.92415425
  -Hartree energ DENC   =     -1130.70978454
  -exchange      EXHF   =         0.00000000
  -V(xc)+E(xc)   XCENC  =      -184.22667397
  PAW double counting   =      3920.09240412    -3519.44949651
  entropy T*S    EENTRO =        -0.00482068
  eigenvalues    EBANDS =      -150.58036144
  atomic energy  EATOM  =      3210.13655998
  Solvation  Ediel_sol  =         0.00000000
  ---------------------------------------------------
  free energy    TOTEN  =       -89.13247355 eV

  energy without entropy =      -89.12765287  energy(sigma->0) =      -89.13006321


--------------------------------------------------------------------------------------------------------




----------------------------------------- Iteration    1(  13)  ---------------------------------------


    POTLOK:  cpu time    0.0200: real time    0.0215
    SETDIJ:  cpu time    0.6840: real time    0.6839
     EDDAV:  cpu time    0.5320: real time    0.5310
       DOS:  cpu time    0.0000: real time    0.0005
    CHARGE:  cpu time    0.0200: real time    0.0200
    MIXING:  cpu time    0.0000: real time    0.0008
    --------------------------------------------
      LOOP:  cpu time    1.2600: real time    1.2609

 eigenvalue-minimisations  :  1676
 total energy-change (2. order) :-0.7355423E-05  (-0.2372192E-05)
 number of electron      56.9999866 magnetization       0.7500123
 augmentation part        4.6016718 magnetization       0.0476417

 Broyden mixing:
  rms(total) = 0.75996E-03    rms(broyden)= 0.75992E-03
  rms(prec ) = 0.13497E-02
  weight for this iteration     100.00

 eigenvalues of (default mixing * dielectric matrix)
  average eigenvalue GAMMA=   1.2630
  2.7397  2.4216  1.0021  0.9391  0.8450  0.8450  0.6283  0.6833

 Free energy of the ion-electron system (eV)
  ---------------------------------------------------
  alpha Z        PSCENC =       129.53385374
  Ewald energy   TEWEN  =     -2363.92415425
  -Hartree energ DENC   =     -1130.74069655
  -exchange      EXHF   =         0.00000000
  -V(xc)+E(xc)   XCENC  =      -184.22387069
  PAW double counting   =      3919.22338383    -3518.58224859
  entropy T*S    EENTRO =        -0.00482068
  eigenvalues    EBANDS =      -150.55048768
  atomic energy  EATOM  =      3210.13655998
  Solvation  Ediel_sol  =         0.00000000
  ---------------------------------------------------
  free energy    TOTEN  =       -89.13248090 eV

  energy without entropy =      -89.12766022  energy(sigma->0) =      -89.13007056


--------------------------------------------------------------------------------------------------------




----------------------------------------- Iteration    1(  14)  ---------------------------------------


    POTLOK:  cpu time    0.0200: real time    0.0213
    SETDIJ:  cpu time    0.6840: real time    0.6837
     EDDAV:  cpu time    0.5240: real time    0.5227
       DOS:  cpu time    0.0000: real time    0.0005
    --------------------------------------------
      LOOP:  cpu time    1.2280: real time    1.2316

 eigenvalue-minimisations  :  1640
 total energy-change (2. order) :-0.1017470E-06  (-0.4382542E-06)
 number of electron      56.9999866 magnetization       0.7500123
 augmentation part        4.6016718 magnetization       0.0476417

 Free energy of the ion-electron system (eV)
  ---------------------------------------------------
  alpha Z        PSCENC =       129.53385374
  Ewald energy   TEWEN  =     -2363.92415425
  -Hartree energ DENC   =     -1130.75971769
  -exchange      EXHF   =         0.00000000
  -V(xc)+E(xc)   XCENC  =      -184.22255859
  PAW double counting   =      3919.10334327    -3518.46294966
  entropy T*S    EENTRO =        -0.00482068
  eigenvalues    EBANDS =      -150.53203712
  atomic energy  EATOM  =      3210.13655998
  Solvation  Ediel_sol  =         0.00000000
  ---------------------------------------------------
  free energy    TOTEN  =       -89.13248101 eV

  energy without entropy =      -89.12766032  energy(sigma->0) =      -89.13007067


--------------------------------------------------------------------------------------------------------




 average (electrostatic) potential at core
  the test charge radii are     1.0714  0.7215
  (the norm of the test charge is              1.0000)
       1 -35.1347       2 -35.6288       3 -35.6239       4 -35.6306       5 -35.6278
       6 -35.6269       7 -35.6235       8 -35.1347       9 -70.1256      10 -70.1260
      11 -70.1293      12 -70.1269      13 -70.1308      14 -70.1312      15 -70.3887
 
 
 
 E-fermi :   5.0736     XC(G=0): -10.5749     alpha+bet :-12.3115


 spin component 1

 k-point     1 :       0.0000    0.0000    0.0000
  band No.  band energies     occupation 
      1     -14.3484      1.00000
      2     -13.4184      1.00000
      3     -13.1508      1.00000
      4     -13.1507      1.00000
      5     -13.1503      1.00000
      6     -12.9058      1.00000
      7     -12.9055      1.00000
      8      -1.6876      1.00000
      9      -1.6857      1.00000
     10      -1.6847      1.00000
     11      -1.6011      1.00000
     12      -0.7751      1.00000
     13      -0.7739      1.00000
     14      -0.7717      1.00000
     15       1.4231      1.00000
     16       1.4231      1.00000
     17       1.4235      1.00000
     18       1.4516      1.00000
     19       1.4523      1.00000
     20       1.4546      1.00000
     21       2.1036      1.00000
     22       2.1043      1.00000
     23       2.1045      1.00000
     24       2.2045      1.00000
     25       2.2047      1.00000
     26       2.5076      1.00000
     27       2.5084      1.00000
     28       2.5095      1.00000
     29       2.8367      1.00000
     30       8.4454      0.00000
     31      10.5753      0.00000
     32      10.5760      0.00000
     33      10.5767      0.00000
     34      10.8968      0.00000
     35      10.8976      0.00000
     36      10.9002      0.00000
     37      11.9860      0.00000
     38      11.9863      0.00000
     39      11.9870      0.00000
     40      12.2498      0.00000
     41      12.4885      0.00000
     42      12.4893      0.00000
     43      15.2263      0.00000
     44      15.3591      0.00000

 k-point     2 :       0.5000    0.0000    0.0000
  band No.  band energies     occupation 
      1     -14.0262      1.00000
      2     -13.6258      1.00000
      3     -13.3492      1.00000
      4     -13.0401      1.00000
      5     -13.0378      1.00000
      6     -13.0368      1.00000
      7     -13.0349      1.00000
      8      -1.1874      1.00000
      9      -1.1547      1.00000
     10      -1.1533      1.00000
     11      -0.8920      1.00000
     12      -0.2590      1.00000
     13      -0.2070      1.00000
     14      -0.2064      1.00000
     15       0.3281      1.00000
     16       0.4458      1.00000
     17       0.8998      1.00000
     18       0.9038      1.00000
     19       0.9351      1.00000
     20       0.9401      1.00000
     21       1.5587      1.00000
     22       1.5608      1.00000
     23       1.7253      1.00000
     24       1.7655      1.00000
     25       2.1845      1.00000
     26       2.1866      1.00000
     27       2.3347      1.00000
     28       2.3363      1.00000
     29       4.5803      1.00000
     30       7.7855      0.00000
     31      10.0148      0.00000
     32      10.0177      0.00000
     33      10.6046      0.00000
     34      10.8756      0.00000
     35      12.4617      0.00000
     36      12.4659      0.00000
     37      12.4720      0.00000
     38      12.4761      0.00000
     39      13.4937      0.00000
     40      14.0664      0.00000
     41      14.1732      0.00000
     42      14.1750      0.00000
     43      14.6677      0.00000
     44      15.2654      0.00000

 k-point     3 :       0.0000    0.5000    0.0000
  band No.  band energies     occupation 
      1     -14.0258      1.00000
      2     -13.6269      1.00000
      3     -13.3485      1.00000
      4     -13.0403      1.00000
      5     -13.0383      1.00000
      6     -13.0358      1.00000
      7     -13.0352      1.00000
      8      -1.1862      1.00000
      9      -1.1546      1.00000
     10      -1.1520      1.00000
     11      -0.8934      1.00000
     12      -0.2588      1.00000
     13      -0.2093      1.00000
     14      -0.2061      1.00000
     15       0.3273      1.00000
     16       0.4457      1.00000
     17       0.8989      1.00000
     18       0.9028      1.00000
     19       0.9372      1.00000
     20       0.9399      1.00000
     21       1.5597      1.00000
     22       1.5614      1.00000
     23       1.7265      1.00000
     24       1.7643      1.00000
     25       2.1821      1.00000
     26       2.1865      1.00000
     27       2.3351      1.00000
     28       2.3382      1.00000
     29       4.5804      1.00000
     30       7.7864      0.00000
     31      10.0139      0.00000
     32      10.0178      0.00000
     33      10.6052      0.00000
     34      10.8747      0.00000
     35      12.4633      0.00000
     36      12.4643      0.00000
     37      12.4732      0.00000
     38      12.4753      0.00000
     39      13.4935      0.00000
     40      14.0661      0.00000
     41      14.1738      0.00000
     42      14.1744      0.00000
     43      14.6680      0.00000
     44      15.2628      0.00000

 k-point     4 :       0.5000    0.5000    0.0000
  band No.  band energies     occupation 
      1     -13.8949      1.00000
      2     -13.6434      1.00000
      3     -13.2164      1.00000
      4     -13.2150      1.00000
      5     -13.2135      1.00000
      6     -13.1444      1.00000
      7     -12.8598      1.00000
      8      -1.2132      1.00000
      9      -0.6984      1.00000
     10      -0.6953      1.00000
     11      -0.5320      1.00000
     12      -0.1503      1.00000
     13      -0.0630      1.00000
     14      -0.0628      1.00000
     15       0.0728      1.00000
     16       0.5788      1.00000
     17       0.5845      1.00000
     18       0.8091      1.00000
     19       0.8103      1.00000
     20       0.8364      1.00000
     21       0.9204      1.00000
     22       1.0123      1.00000
     23       1.8063      1.00000
     24       1.8118      1.00000
     25       2.0655      1.00000
     26       2.0659      1.00000
     27       2.1036      1.00000
     28       2.2032      1.00000
     29       5.0584      0.66614
     30       7.9597      0.00000
     31       9.3148      0.00000
     32       9.3174      0.00000
     33      11.1680      0.00000
     34      12.0140      0.00000
     35      12.0631      0.00000
     36      13.0338      0.00000
     37      13.0364      0.00000
     38      13.9375      0.00000
     39      13.9770      0.00000
     40      14.1549      0.00000
     41      14.1579      0.00000
     42      14.5681      0.00000
     43      14.6367      0.00000
     44      14.6720      0.00000

 k-point     5 :       0.0000    0.0000    0.5000
  band No.  band energies     occupation 
      1     -14.0257      1.00000
      2     -13.6272      1.00000
      3     -13.3483      1.00000
      4     -13.0408      1.00000
      5     -13.0379      1.00000
      6     -13.0364      1.00000
      7     -13.0345      1.00000
      8      -1.1859      1.00000
      9      -1.1544      1.00000
     10      -1.1518      1.00000
     11      -0.8936      1.00000
     12      -0.2585      1.00000
     13      -0.2097      1.00000
     14      -0.2064      1.00000
     15       0.3270      1.00000
     16       0.4456      1.00000
     17       0.8981      1.00000
     18       0.9027      1.00000
     19       0.9372      1.00000
     20       0.9407      1.00000
     21       1.5596      1.00000
     22       1.5619      1.00000
     23       1.7269      1.00000
     24       1.7639      1.00000
     25       2.1821      1.00000
     26       2.1861      1.00000
     27       2.3361      1.00000
     28       2.3376      1.00000
     29       4.5805      1.00000
     30       7.7866      0.00000
     31      10.0142      0.00000
     32      10.0170      0.00000
     33      10.6054      0.00000
     34      10.8743      0.00000
     35      12.4619      0.00000
     36      12.4651      0.00000
     37      12.4734      0.00000
     38      12.4761      0.00000
     39      13.4940      0.00000
     40      14.0662      0.00000
     41      14.1736      0.00000
     42      14.1746      0.00000
     43      14.6681      0.00000
     44      15.2642      0.00000

 k-point     6 :       0.5000    0.0000    0.5000
  band No.  band energies     occupation 
      1     -13.8949      1.00000
      2     -13.6434      1.00000
      3     -13.2166      1.00000
      4     -13.2151      1.00000
      5     -13.2132      1.00000
      6     -13.1445      1.00000
      7     -12.8598      1.00000
      8      -1.2131      1.00000
      9      -0.6980      1.00000
     10      -0.6955      1.00000
     11      -0.5320      1.00000
     12      -0.1504      1.00000
     13      -0.0628      1.00000
     14      -0.0627      1.00000
     15       0.0724      1.00000
     16       0.5790      1.00000
     17       0.5837      1.00000
     18       0.8093      1.00000
     19       0.8102      1.00000
     20       0.8362      1.00000
     21       0.9204      1.00000
     22       1.0123      1.00000
     23       1.8071      1.00000
     24       1.8116      1.00000
     25       2.0658      1.00000
     26       2.0659      1.00000
     27       2.1035      1.00000
     28       2.2032      1.00000
     29       5.0584      0.66584
     30       7.9592      0.00000
     31       9.3154      0.00000
     32       9.3175      0.00000
     33      11.1677      0.00000
     34      12.0139      0.00000
     35      12.0632      0.00000
     36      13.0340      0.00000
     37      13.0364      0.00000
     38      13.9376      0.00000
     39      13.9774      0.00000
     40      14.1548      0.00000
     41      14.1572      0.00000
     42      14.5726      0.00000
     43      14.6356      0.00000
     44      14.6718      0.00000

 k-point     7 :       0.0000    0.5000    0.5000
  band No.  band energies     occupation 
      1     -13.8949      1.00000
      2     -13.6437      1.00000
      3     -13.2160      1.00000
      4     -13.2151      1.00000
      5     -13.2137      1.00000
      6     -13.1441      1.00000
      7     -12.8600      1.00000
      8      -1.2139      1.00000
      9      -0.6980      1.00000
     10      -0.6970      1.00000
     11      -0.5322      1.00000
     12      -0.1500      1.00000
     13      -0.0633      1.00000
     14      -0.0631      1.00000
     15       0.0744      1.00000
     16       0.5823      1.00000
     17       0.5841      1.00000
     18       0.8097      1.00000
     19       0.8100      1.00000
     20       0.8368      1.00000
     21       0.9207      1.00000
     22       1.0126      1.00000
     23       1.8069      1.00000
     24       1.8086      1.00000
     25       2.0654      1.00000
     26       2.0656      1.00000
     27       2.1026      1.00000
     28       2.2030      1.00000
     29       5.0582      0.66802
     30       7.9622      0.00000
     31       9.3144      0.00000
     32       9.3148      0.00000
     33      11.1691      0.00000
     34      12.0148      0.00000
     35      12.0631      0.00000
     36      13.0342      0.00000
     37      13.0353      0.00000
     38      13.9388      0.00000
     39      13.9770      0.00000
     40      14.1560      0.00000
     41      14.1570      0.00000
     42      14.5680      0.00000
     43      14.6363      0.00000
     44      14.6685      0.00000

 k-point     8 :       0.5000    0.5000    0.5000
  band No.  band energies     occupation 
      1     -14.0246      1.00000
      2     -13.6301      1.00000
      3     -13.3465      1.00000
      4     -13.0420      1.00000
      5     -13.0402      1.00000
      6     -13.0342      1.00000
      7     -13.0333      1.00000
      8      -1.1829      1.00000
      9      -1.1522      1.00000
     10      -1.1508      1.00000
     11      -0.8969      1.00000
     12      -0.2574      1.00000
     13      -0.2115      1.00000
     14      -0.2096      1.00000
     15       0.3250      1.00000
     16       0.4455      1.00000
     17       0.8969      1.00000
     18       0.8990      1.00000
     19       0.9407      1.00000
     20       0.9411      1.00000
     21       1.5622      1.00000
     22       1.5634      1.00000
     23       1.7297      1.00000
     24       1.7616      1.00000
     25       2.1805      1.00000
     26       2.1809      1.00000
     27       2.3391      1.00000
     28       2.3411      1.00000
     29       4.5808      1.00000
     30       7.7882      0.00000
     31      10.0141      0.00000
     32      10.0162      0.00000
     33      10.6061      0.00000
     34      10.8722      0.00000
     35      12.4622      0.00000
     36      12.4634      0.00000
     37      12.4745      0.00000
     38      12.4764      0.00000
     39      13.4924      0.00000
     40      14.0656      0.00000
     41      14.1742      0.00000
     42      14.1750      0.00000
     43      14.6687      0.00000
     44      15.2636      0.00000

 spin component 2

 k-point     1 :       0.0000    0.0000    0.0000
  band No.  band energies     occupation 
      1     -14.3223      1.00000
      2     -13.4020      1.00000
      3     -13.1057      1.00000
      4     -13.1056      1.00000
      5     -13.1052      1.00000
      6     -12.8591      1.00000
      7     -12.8588      1.00000
      8      -1.6736      1.00000
      9      -1.6716      1.00000
     10      -1.6707      1.00000
     11      -1.5932      1.00000
     12      -0.7035      1.00000
     13      -0.7023      1.00000
     14      -0.7002      1.00000
     15       1.4660      1.00000
     16       1.4666      1.00000
     17       1.4671      1.00000
     18       1.4679      1.00000
     19       1.4694      1.00000
     20       1.4705      1.00000
     21       2.1590      1.00000
     22       2.1598      1.00000
     23       2.1601      1.00000
     24       2.2268      1.00000
     25       2.2271      1.00000
     26       2.5394      1.00000
     27       2.5402      1.00000
     28       2.5413      1.00000
     29       4.0087      1.00000
     30       8.6084      0.00000
     31      10.6063      0.00000
     32      10.6074      0.00000
     33      10.6080      0.00000
     34      11.6015      0.00000
     35      11.6018      0.00000
     36      11.6055      0.00000
     37      12.0711      0.00000
     38      12.0716      0.00000
     39      12.0723      0.00000
     40      12.2862      0.00000
     41      12.5551      0.00000
     42      12.5552      0.00000
     43      15.2305      0.00000
     44      15.3734      0.00000

 k-point     2 :       0.5000    0.0000    0.0000
  band No.  band energies     occupation 
      1     -14.0114      1.00000
      2     -13.5821      1.00000
      3     -13.3214      1.00000
      4     -12.9942      1.00000
      5     -12.9920      1.00000
      6     -12.9909      1.00000
      7     -12.9892      1.00000
      8      -1.1475      1.00000
      9      -1.1461      1.00000
     10      -1.0521      1.00000
     11      -0.8814      1.00000
     12      -0.1837      1.00000
     13      -0.1209      1.00000
     14      -0.1206      1.00000
     15       0.3452      1.00000
     16       0.4947      1.00000
     17       0.9168      1.00000
     18       0.9208      1.00000
     19       0.9919      1.00000
     20       0.9965      1.00000
     21       1.5751      1.00000
     22       1.5771      1.00000
     23       1.7458      1.00000
     24       1.8438      1.00000
     25       2.2175      1.00000
     26       2.2196      1.00000
     27       2.3676      1.00000
     28       2.3693      1.00000
     29       5.7595      0.00000
     30       8.1930      0.00000
     31      10.5864      0.00000
     32      10.5895      0.00000
     33      10.7703      0.00000
     34      10.9885      0.00000
     35      12.5103      0.00000
     36      12.5139      0.00000
     37      12.5738      0.00000
     38      12.5780      0.00000
     39      13.5545      0.00000
     40      14.1435      0.00000
     41      14.2387      0.00000
     42      14.2409      0.00000
     43      14.7144      0.00000
     44      15.3933      0.00000

 k-point     3 :       0.0000    0.5000    0.0000
  band No.  band energies     occupation 
      1     -14.0110      1.00000
      2     -13.5833      1.00000
      3     -13.3206      1.00000
      4     -12.9945      1.00000
      5     -12.9925      1.00000
      6     -12.9899      1.00000
      7     -12.9893      1.00000
      8      -1.1474      1.00000
      9      -1.1448      1.00000
     10      -1.0508      1.00000
     11      -0.8828      1.00000
     12      -0.1835      1.00000
     13      -0.1233      1.00000
     14      -0.1203      1.00000
     15       0.3444      1.00000
     16       0.4947      1.00000
     17       0.9160      1.00000
     18       0.9197      1.00000
     19       0.9938      1.00000
     20       0.9964      1.00000
     21       1.5760      1.00000
     22       1.5778      1.00000
     23       1.7469      1.00000
     24       1.8427      1.00000
     25       2.2150      1.00000
     26       2.2195      1.00000
     27       2.3681      1.00000
     28       2.3712      1.00000
     29       5.7596      0.00000
     30       8.1938      0.00000
     31      10.5856      0.00000
     32      10.5897      0.00000
     33      10.7709      0.00000
     34      10.9875      0.00000
     35      12.5117      0.00000
     36      12.5135      0.00000
     37      12.5750      0.00000
     38      12.5763      0.00000
     39      13.5543      0.00000
     40      14.1433      0.00000
     41      14.2395      0.00000
     42      14.2400      0.00000
     43      14.7148      0.00000
     44      15.3332      0.00000

 k-point     4 :       0.5000    0.5000    0.0000
  band No.  band energies     occupation 
      1     -13.8887      1.00000
      2     -13.6008      1.00000
      3     -13.1717      1.00000
      4     -13.1701      1.00000
      5     -13.1687      1.00000
      6     -13.1054      1.00000
      7     -12.8129      1.00000
      8      -1.0117      1.00000
      9      -0.6891      1.00000
     10      -0.6859      1.00000
     11      -0.5195      1.00000
     12      -0.0785      1.00000
     13      -0.0365      1.00000
     14      -0.0364      1.00000
     15       0.0776      1.00000
     16       0.6704      1.00000
     17       0.6756      1.00000
     18       0.8482      1.00000
     19       0.8563      1.00000
     20       0.8577      1.00000
     21       0.9361      1.00000
     22       1.0555      1.00000
     23       1.8183      1.00000
     24       1.8238      1.00000
     25       2.1028      1.00000
     26       2.1031      1.00000
     27       2.1588      1.00000
     28       2.2255      1.00000
     29       6.3027      0.00000
     30       8.4326      0.00000
     31       9.8386      0.00000
     32       9.8411      0.00000
     33      11.2139      0.00000
     34      12.1050      0.00000
     35      12.1854      0.00000
     36      13.1247      0.00000
     37      13.1272      0.00000
     38      13.9703      0.00000
     39      14.0851      0.00000
     40      14.1617      0.00000
     41      14.1647      0.00000
     42      14.5770      0.00000
     43      14.6711      0.00000
     44      14.7780      0.00000

 k-point     5 :       0.0000    0.0000    0.5000
  band No.  band energies     occupation 
      1     -14.0109      1.00000
      2     -13.5836      1.00000
      3     -13.3204      1.00000
      4     -12.9950      1.00000
      5     -12.9920      1.00000
      6     -12.9906      1.00000
      7     -12.9886      1.00000
      8      -1.1472      1.00000
      9      -1.1446      1.00000
     10      -1.0506      1.00000
     11      -0.8831      1.00000
     12      -0.1833      1.00000
     13      -0.1237      1.00000
     14      -0.1206      1.00000
     15       0.3441      1.00000
     16       0.4946      1.00000
     17       0.9153      1.00000
     18       0.9197      1.00000
     19       0.9937      1.00000
     20       0.9972      1.00000
     21       1.5758      1.00000
     22       1.5783      1.00000
     23       1.7474      1.00000
     24       1.8422      1.00000
     25       2.2151      1.00000
     26       2.2191      1.00000
     27       2.3691      1.00000
     28       2.3706      1.00000
     29       5.7596      0.00000
     30       8.1939      0.00000
     31      10.5859      0.00000
     32      10.5890      0.00000
     33      10.7711      0.00000
     34      10.9871      0.00000
     35      12.5111      0.00000
     36      12.5140      0.00000
     37      12.5744      0.00000
     38      12.5774      0.00000
     39      13.5547      0.00000
     40      14.1433      0.00000
     41      14.2391      0.00000
     42      14.2404      0.00000
     43      14.7149      0.00000
     44      15.3505      0.00000

 k-point     6 :       0.5000    0.0000    0.5000
  band No.  band energies     occupation 
      1     -13.8887      1.00000
      2     -13.6007      1.00000
      3     -13.1719      1.00000
      4     -13.1701      1.00000
      5     -13.1684      1.00000
      6     -13.1055      1.00000
      7     -12.8129      1.00000
      8      -1.0115      1.00000
      9      -0.6887      1.00000
     10      -0.6861      1.00000
     11      -0.5195      1.00000
     12      -0.0786      1.00000
     13      -0.0364      1.00000
     14      -0.0363      1.00000
     15       0.0771      1.00000
     16       0.6706      1.00000
     17       0.6748      1.00000
     18       0.8484      1.00000
     19       0.8561      1.00000
     20       0.8575      1.00000
     21       0.9361      1.00000
     22       1.0554      1.00000
     23       1.8191      1.00000
     24       1.8236      1.00000
     25       2.1030      1.00000
     26       2.1031      1.00000
     27       2.1589      1.00000
     28       2.2255      1.00000
     29       6.3027      0.00000
     30       8.4321      0.00000
     31       9.8391      0.00000
     32       9.8411      0.00000
     33      11.2136      0.00000
     34      12.1050      0.00000
     35      12.1852      0.00000
     36      13.1249      0.00000
     37      13.1271      0.00000
     38      13.9710      0.00000
     39      14.0849      0.00000
     40      14.1615      0.00000
     41      14.1640      0.00000
     42      14.5765      0.00000
     43      14.6711      0.00000
     44      14.7963      0.00000

 k-point     7 :       0.0000    0.5000    0.5000
  band No.  band energies     occupation 
      1     -13.8886      1.00000
      2     -13.6010      1.00000
      3     -13.1712      1.00000
      4     -13.1701      1.00000
      5     -13.1690      1.00000
      6     -13.1051      1.00000
      7     -12.8131      1.00000
      8      -1.0124      1.00000
      9      -0.6886      1.00000
     10      -0.6877      1.00000
     11      -0.5197      1.00000
     12      -0.0782      1.00000
     13      -0.0369      1.00000
     14      -0.0367      1.00000
     15       0.0792      1.00000
     16       0.6740      1.00000
     17       0.6752      1.00000
     18       0.8501      1.00000
     19       0.8561      1.00000
     20       0.8568      1.00000
     21       0.9363      1.00000
     22       1.0558      1.00000
     23       1.8189      1.00000
     24       1.8206      1.00000
     25       2.1026      1.00000
     26       2.1028      1.00000
     27       2.1579      1.00000
     28       2.2254      1.00000
     29       6.3026      0.00000
     30       8.4346      0.00000
     31       9.8381      0.00000
     32       9.8388      0.00000
     33      11.2150      0.00000
     34      12.1048      0.00000
     35      12.1863      0.00000
     36      13.1251      0.00000
     37      13.1260      0.00000
     38      13.9706      0.00000
     39      14.0858      0.00000
     40      14.1628      0.00000
     41      14.1638      0.00000
     42      14.5772      0.00000
     43      14.6695      0.00000
     44      14.8012      0.00000

 k-point     8 :       0.5000    0.5000    0.5000
  band No.  band energies     occupation 
      1     -14.0099      1.00000
      2     -13.5864      1.00000
      3     -13.3185      1.00000
      4     -12.9962      1.00000
      5     -12.9944      1.00000
      6     -12.9882      1.00000
      7     -12.9874      1.00000
      8      -1.1450      1.00000
      9      -1.1437      1.00000
     10      -1.0475      1.00000
     11      -0.8864      1.00000
     12      -0.1825      1.00000
     13      -0.1253      1.00000
     14      -0.1235      1.00000
     15       0.3421      1.00000
     16       0.4946      1.00000
     17       0.9142      1.00000
     18       0.9161      1.00000
     19       0.9966      1.00000
     20       0.9973      1.00000
     21       1.5784      1.00000
     22       1.5797      1.00000
     23       1.7501      1.00000
     24       1.8405      1.00000
     25       2.2135      1.00000
     26       2.2140      1.00000
     27       2.3719      1.00000
     28       2.3740      1.00000
     29       5.7592      0.00000
     30       8.1963      0.00000
     31      10.5859      0.00000
     32      10.5881      0.00000
     33      10.7724      0.00000
     34      10.9852      0.00000
     35      12.5129      0.00000
     36      12.5137      0.00000
     37      12.5741      0.00000
     38      12.5755      0.00000
     39      13.5531      0.00000
     40      14.1429      0.00000
     41      14.2398      0.00000
     42      14.2405      0.00000
     43      14.7155      0.00000
     44      15.3442      0.00000


--------------------------------------------------------------------------------------------------------


 soft charge-density along one line, spin component           1
         0         1         2         3         4         5         6         7         8         9
 total charge-density along one line
 
 soft charge-density along one line, spin component           2
         0         1         2         3         4         5         6         7         8         9
 total charge-density along one line
 
 pseudopotential strength for first ion, spin component:           1
  2.971   9.436  -0.000  -0.000  -0.000  -0.000  -0.000  -0.000
  9.436  29.823  -0.000  -0.000  -0.000  -0.000  -0.000  -0.000
 -0.000  -0.000   7.294  -0.000   0.000  10.565  -0.000   0.000
 -0.000  -0.000  -0.000   7.294  -0.000  -0.000  10.565  -0.000
 -0.000  -0.000   0.000  -0.000   7.294   0.000  -0.000  10.565
 -0.000  -0.000  10.565  -0.000   0.000  14.521  -0.000   0.000
 -0.000  -0.000  -0.000  10.565  -0.000  -0.000  14.521  -0.000
 -0.000  -0.000   0.000  -0.000  10.565   0.000  -0.000  14.521
  0.000   0.000  -0.000  -0.000  -0.000  -0.000  -0.000  -0.000
 -0.000  -0.000  -0.000  -0.000  -0.000  -0.000  -0.000  -0.000
  0.000   0.000   0.000  -0.000   0.000   0.000  -0.000   0.000
 -0.000  -0.000  -0.000  -0.000  -0.000  -0.000  -0.000  -0.000
 -0.000  -0.000   0.000  -0.000  -0.000   0.000  -0.000  -0.000
 pseudopotential strength for first ion, spin component:           2
  2.971   9.437  -0.000  -0.000  -0.000  -0.000  -0.000  -0.000
  9.437  29.823  -0.000  -0.000  -0.000  -0.000  -0.000  -0.000
 -0.000  -0.000   7.294  -0.000   0.000  10.565  -0.000   0.000
 -0.000  -0.000  -0.000   7.294  -0.000  -0.000  10.565  -0.000
 -0.000  -0.000   0.000  -0.000   7.294   0.000  -0.000  10.565
 -0.000  -0.000  10.565  -0.000   0.000  14.522  -0.000   0.000
 -0.000  -0.000  -0.000  10.565  -0.000  -0.000  14.522  -0.000
 -0.000  -0.000   0.000  -0.000  10.565   0.000  -0.000  14.522
  0.000   0.000  -0.000  -0.000  -0.000  -0.000  -0.000  -0.000
 -0.000  -0.000  -0.000  -0.000  -0.000  -0.000  -0.000  -0.000
  0.000   0.000   0.000  -0.000   0.000   0.000  -0.000   0.000
 -0.000  -0.000  -0.000  -0.000  -0.000  -0.000  -0.000  -0.000
 -0.000  -0.000   0.000  -0.000  -0.000   0.000  -0.000  -0.000
 total augmentation occupancy for first ion, spin component:           1
  0.961  -0.045  -0.000   0.000   0.000   0.000  -0.000   0.000  -0.000   0.000  -0.000   0.000  -0.000
 -0.045   0.002   0.000  -0.000   0.000  -0.000   0.000  -0.000   0.000  -0.000   0.000  -0.000   0.000
 -0.000   0.000   0.111   0.000  -0.000  -0.012   0.000   0.000   0.000  -0.000   0.000  -0.000   0.000
  0.000  -0.000   0.000   0.111   0.000   0.000  -0.012   0.000  -0.000   0.000   0.000  -0.000   0.000
  0.000   0.000  -0.000   0.000   0.111   0.000   0.000  -0.012  -0.000  -0.000  -0.000   0.000   0.000
  0.000  -0.000  -0.012   0.000   0.000   0.001  -0.000  -0.000  -0.000   0.000  -0.000   0.000  -0.000
 -0.000   0.000   0.000  -0.012   0.000  -0.000   0.001  -0.000   0.000  -0.000  -0.000   0.000  -0.000
  0.000  -0.000   0.000   0.000  -0.012  -0.000  -0.000   0.001   0.000   0.000   0.000  -0.000  -0.000
 -0.000   0.000   0.000  -0.000  -0.000  -0.000   0.000   0.000   0.012   0.000   0.000  -0.000   0.000
  0.000  -0.000  -0.000   0.000  -0.000   0.000  -0.000   0.000   0.000   0.012  -0.000  -0.000  -0.000
 -0.000   0.000   0.000   0.000  -0.000  -0.000  -0.000   0.000   0.000  -0.000   0.048   0.000  -0.000
  0.000  -0.000  -0.000  -0.000   0.000   0.000   0.000  -0.000  -0.000  -0.000   0.000   0.012  -0.000
 -0.000   0.000   0.000   0.000   0.000  -0.000  -0.000  -0.000   0.000  -0.000  -0.000  -0.000   0.048
 total augmentation occupancy for first ion, spin component:           2
 -0.003   0.000   0.000  -0.000   0.000  -0.000   0.000  -0.000  -0.000   0.000  -0.000   0.000  -0.000
  0.000  -0.000  -0.000   0.000  -0.000   0.000  -0.000   0.000   0.000  -0.000   0.000  -0.000  -0.000
  0.000  -0.000  -0.000   0.000  -0.000   0.000  -0.000   0.000  -0.000   0.000   0.000  -0.000  -0.000
 -0.000   0.000   0.000  -0.000   0.000  -0.000   0.000  -0.000  -0.000  -0.000   0.000   0.000   0.000
  0.000  -0.000  -0.000   0.000  -0.000   0.000  -0.000   0.000   0.000  -0.000  -0.000  -0.000  -0.000
 -0.000   0.000   0.000  -0.000   0.000  -0.000   0.000  -0.000  -0.000   0.000  -0.000   0.000   0.000
  0.000  -0.000  -0.000   0.000  -0.000   0.000  -0.000   0.000   0.000  -0.000  -0.000  -0.000  -0.000
 -0.000   0.000   0.000  -0.000   0.000  -0.000   0.000  -0.000  -0.000   0.000   0.000   0.000   0.000
 -0.000   0.000  -0.000  -0.000   0.000  -0.000   0.000  -0.000  -0.000   0.000   0.000   0.000  -0.000
  0.000  -0.000   0.000  -0.000  -0.000   0.000  -0.000   0.000   0.000  -0.000   0.000   0.000   0.000
 -0.000   0.000   0.000   0.000  -0.000  -0.000  -0.000   0.000   0.000   0.000  -0.000  -0.000   0.000
  0.000  -0.000  -0.000   0.000  -0.000   0.000  -0.000   0.000   0.000   0.000  -0.000  -0.000   0.000
 -0.000  -0.000  -0.000   0.000  -0.000   0.000  -0.000   0.000  -0.000   0.000   0.000   0.000  -0.000


------------------------ aborting loop because EDIFF is reached ----------------------------------------


 


 total charge     
 
# of ion     s       p       d       tot
----------------------------------------
  1        0.140   0.165   0.072   0.377
  2        0.147   0.163   0.067   0.377
  3        0.147   0.164   0.067   0.378
  4        0.147   0.163   0.067   0.377
  5        0.147   0.163   0.067   0.377
  6        0.147   0.163   0.067   0.377
  7        0.147   0.164   0.067   0.378
  8        0.140   0.165   0.072   0.377
  9        1.569   3.529   0.000   5.098
 10        1.569   3.529   0.000   5.098
 11        1.569   3.530   0.000   5.099
 12        1.569   3.529   0.000   5.098
 13        1.569   3.530   0.000   5.099
 14        1.569   3.530   0.000   5.099
 15        1.567   3.599   0.000   5.166
------------------------------------------------
tot       12.144  26.087   0.544  38.774
 


 magnetization (x)
 
# of ion     s       p       d       tot
----------------------------------------
  1       -0.000  -0.000  -0.000  -0.001
  2        0.003   0.006   0.003   0.012
  3        0.003   0.006   0.003   0.012
  4        0.003   0.006   0.003   0.012
  5        0.003   0.006   0.003   0.012
  6        0.003   0.006   0.003   0.012
  7        0.003   0.006   0.003   0.012
  8       -0.000  -0.000  -0.000  -0.001
  9        0.001   0.026   0.000   0.027
 10        0.001   0.026   0.000   0.027
 11        0.001   0.026   0.000   0.027
 12        0.001   0.026   0.000   0.027
 13        0.001   0.026   0.000   0.027
 14        0.001   0.026   0.000   0.027
 15       -0.000   0.000   0.000  -0.000
------------------------------------------------
tot        0.023   0.192   0.016   0.231
 
    CHARGE:  cpu time    0.0200: real time    0.0200
    FORLOC:  cpu time    0.0040: real time    0.0014
    FORNL :  cpu time    0.1280: real time    0.1279
    STRESS:  cpu time    0.3880: real time    0.3852
    FORCOR:  cpu time    0.0200: real time    0.0221
    FORHAR:  cpu time    0.0040: real time    0.0030
    MIXING:  cpu time    0.0000: real time    0.0010
    OFIELD:  cpu time    0.0000: real time    0.0000

  FORCE on cell =-STRESS in cart. coord.  units (eV):
  Direction    XX          YY          ZZ          XY          YZ          ZX
  --------------------------------------------------------------------------------------
  Alpha Z   129.53385   129.53385   129.53385
  Ewald    -788.25956  -787.79088  -787.87863     0.06089     0.01048     0.04386
  Hartree   376.90361   376.92527   376.92035     0.01126     0.00119     0.00830
  E(xc)    -256.01846  -256.02318  -256.02236    -0.00114    -0.00108    -0.00111
  Local    -383.88401  -384.33933  -384.25299    -0.06068    -0.00267    -0.04097
  n-local  -126.41847  -126.39808  -126.38950     0.00727     0.00522     0.00270
  augment    47.43250    47.43066    47.43109     0.00060     0.00074     0.00035
  Kinetic   991.18678   991.17211   991.17483     0.00120     0.00729     0.00339
  Fock        0.00000     0.00000     0.00000     0.00000     0.00000     0.00000
  -------------------------------------------------------------------------------------
  Total      -9.52377    -9.48958    -9.48336     0.01941     0.02117     0.01652
  in kB     -99.60370   -99.24614   -99.18109     0.20295     0.22144     0.17280
  external pressure =      -99.34 kB  Pullay stress =        0.00 kB


 VOLUME and BASIS-vectors are now :
 -----------------------------------------------------------------------------
  energy-cutoff  :      400.00
  volume of cell :      153.19
      direct lattice vectors                 reciprocal lattice vectors
     0.000000000  4.246893000  4.246893000    -0.117733129  0.117733129  0.117733129
     4.246893000  0.000000000  4.246893000     0.117733129 -0.117733129  0.117733129
     4.246893000  4.246893000  0.000000000     0.117733129  0.117733129 -0.117733129

  length of vectors
     6.006013679  6.006013679  6.006013679     0.203919761  0.203919761  0.203919761


 FORCES acting on ions
    electron-ion (+dipol)            ewald-force                    non-local-force                 convergence-correction
 -----------------------------------------------------------------------------------------------
   0.283E-01 -.260E-01 0.248E-01   -.217E-01 0.284E-01 -.198E-01   -.568E-02 0.626E-02 -.533E-02   0.253E-04 -.563E-04 -.193E-04
   0.167E-01 0.575E-01 -.339E+02   -.256E-01 -.517E-01 0.324E+02   -.169E-01 -.632E-02 0.149E+01   0.510E-04 -.199E-04 -.414E-03
   0.159E+00 -.339E+02 -.461E-01   -.141E+00 0.324E+02 0.423E-01   -.253E-01 0.153E+01 0.816E-02   0.958E-05 -.412E-03 -.158E-04
   0.338E+02 -.485E-01 0.884E-01   -.324E+02 0.430E-01 -.672E-01   -.147E+01 0.472E-02 -.169E-01   0.421E-03 -.193E-04 -.555E-04
   -.339E+02 -.261E-01 -.103E+00   0.324E+02 0.134E-01 0.912E-01   0.151E+01 0.377E-02 0.240E-01   -.406E-03 0.152E-04 0.583E-04
   0.110E+00 0.339E+02 -.125E+00   -.887E-01 -.324E+02 0.115E+00   -.167E-01 -.151E+01 0.261E-01   -.250E-04 0.416E-03 0.192E-04
   -.205E+00 0.142E+00 0.339E+02   0.178E+00 -.122E+00 -.324E+02   0.328E-01 -.242E-01 -.153E+01   -.645E-04 0.157E-04 0.410E-03
   0.558E-01 0.150E-01 0.457E-01   -.486E-01 -.156E-01 -.478E-01   -.133E-01 -.481E-02 -.900E-02   -.876E-05 0.597E-04 0.165E-04
   0.475E-01 0.536E-01 -.562E-01   -.717E-01 0.308E-02 0.717E-01   0.271E-01 -.518E-01 -.146E-01   0.960E-04 0.230E-03 0.114E-03
   -.151E+00 0.241E-01 0.453E-01   0.207E+00 -.231E-01 -.106E+00   -.619E-01 -.982E-03 0.507E-01   0.130E-03 0.604E-04 0.356E-04
   -.492E-01 0.777E-01 -.550E-01   0.487E-01 -.639E-01 0.119E-01   0.572E-02 -.375E-02 0.362E-01   -.199E-03 0.728E-04 -.603E-04
   -.484E-01 -.106E+00 0.153E+00   0.482E-01 0.920E-01 -.157E+00   0.584E-02 0.198E-01 0.749E-02   -.880E-04 0.582E-04 -.376E-04
   -.536E-01 0.250E-01 0.207E+00   0.830E-01 -.245E-01 -.199E+00   -.541E-01 -.237E-03 0.995E-02   -.343E-05 -.422E-04 -.232E-04
   0.806E-01 -.228E+00 -.676E-01   -.711E-01 0.212E+00 0.839E-01   0.992E-02 -.350E-02 -.145E-01   0.277E-03 -.182E-03 -.215E-04
   0.106E+00 0.118E+00 -.182E+00   -.144E+00 -.144E+00 0.233E+00   0.286E-01 0.165E-01 -.405E-01   -.361E-04 0.338E-05 0.147E-03
 -----------------------------------------------------------------------------------------------
   0.421E-01 0.203E-01 -.154E-01   -.117E-14 -.971E-14 -.994E-14   -.528E-01 -.215E-01 0.239E-01   0.180E-03 0.200E-03 0.153E-03
 
 
 POSITION                                       TOTAL-FORCE (eV/Angst)
 -----------------------------------------------------------------------------------
      4.23909      4.24306      0.00643         0.001700      0.008652     -0.000927
      6.36635      6.36564      8.42563        -0.024923     -0.000504      0.009592
      6.36197      8.41280      6.37706        -0.006861      0.039827      0.003674
      4.31159      6.36753      6.37783         0.004352     -0.000685      0.003684
      8.41158      6.36783      6.37435         0.022303     -0.008897      0.011478
      6.36122      4.31925      6.37569         0.005719     -0.021863      0.015017
      6.36249      6.36717      4.33089         0.005496     -0.004258     -0.044725
      4.23973      4.24395      4.25371        -0.005403     -0.005308     -0.011637
      4.23830      4.24169      2.12972         0.003699      0.005154      0.000443
      4.24031      2.11991      4.25578        -0.005716      0.000095     -0.010765
      6.36221      4.24098      4.25537         0.005678      0.010275     -0.007541
      2.11528      4.24276      4.25242         0.006266      0.005631      0.002646
      4.24341      6.36687      4.24940        -0.023939      0.000243      0.017712
      4.23483      4.24772      6.37648         0.020372     -0.019284      0.001326
      6.36292      6.36705      6.37669        -0.008742     -0.009079      0.010024
 -----------------------------------------------------------------------------------
    total drift:                               -0.010467     -0.000993      0.008648


--------------------------------------------------------------------------------------------------------



  FREE ENERGIE OF THE ION-ELECTRON SYSTEM (eV)
  ---------------------------------------------------
  free  energy   TOTEN  =       -89.13248101 eV

  energy  without entropy=      -89.12766032  energy(sigma->0) =      -89.13007067
 


--------------------------------------------------------------------------------------------------------


    POTLOK:  cpu time    0.7000: real time    0.6994


--------------------------------------------------------------------------------------------------------




--------------------------------------------------------------------------------------------------------


  
 reached required accuracy - stopping structural energy minimisation
     LOOP+:  cpu time   16.5320: real time   16.5833
    4ORBIT:  cpu time    0.0000: real time    0.0000
 


 total charge     
 
# of ion     s       p       d       tot
----------------------------------------
  1        0.140   0.165   0.072   0.377
  2        0.147   0.163   0.067   0.377
  3        0.147   0.164   0.067   0.378
  4        0.147   0.163   0.067   0.377
  5        0.147   0.163   0.067   0.377
  6        0.147   0.163   0.067   0.377
  7        0.147   0.164   0.067   0.378
  8        0.140   0.165   0.072   0.377
  9        1.569   3.529   0.000   5.098
 10        1.569   3.529   0.000   5.098
 11        1.569   3.530   0.000   5.099
 12        1.569   3.529   0.000   5.098
 13        1.569   3.530   0.000   5.099
 14        1.569   3.530   0.000   5.099
 15        1.567   3.599   0.000   5.166
------------------------------------------------
tot       12.144  26.087   0.544  38.774
 


 magnetization (x)
 
# of ion     s       p       d       tot
----------------------------------------
  1       -0.000  -0.000  -0.000  -0.001
  2        0.003   0.006   0.003   0.012
  3        0.003   0.006   0.003   0.012
  4        0.003   0.006   0.003   0.012
  5        0.003   0.006   0.003   0.012
  6        0.003   0.006   0.003   0.012
  7        0.003   0.006   0.003   0.012
  8       -0.000  -0.000  -0.000  -0.001
  9        0.001   0.026   0.000   0.027
 10        0.001   0.026   0.000   0.027
 11        0.001   0.026   0.000   0.027
 12        0.001   0.026   0.000   0.027
 13        0.001   0.026   0.000   0.027
 14        0.001   0.026   0.000   0.027
 15       -0.000   0.000   0.000  -0.000
------------------------------------------------
tot        0.023   0.192   0.016   0.231
 

 total amount of memory used by VASP on root node    35877. kBytes
========================================================================

   base      :      30000. kBytes
   nonlr-proj:       1199. kBytes
   fftplans  :        708. kBytes
   grid      :       1766. kBytes
   one-center:         64. kBytes
   wavefun   :       2140. kBytes
 
  
  
 General timing and accounting informations for this job:
 ========================================================
  
                  Total CPU time used (sec):       17.668
                            User time (sec):       17.480
                          System time (sec):        0.188
                         Elapsed time (sec):       17.927
  
                   Maximum memory used (kb):       64228.
                   Average memory used (kb):           0.
  
                          Minor page faults:        16169
                          Major page faults:            8
                 Voluntary context switches:         1632
