 vasp.5.4.1 05Feb16 (build Mar 31 2016 13:39:20) complex                        
  
 executed on           IFC91_ompi date 2018.04.12  14:18:13
 running on   36 total cores
 distrk:  each k-point on   36 cores,    1 groups
 distr:  one band on NCORES_PER_BAND=   9 cores,    4 groups


--------------------------------------------------------------------------------------------------------


 INCAR:
 POTCAR:    PAW_PBE Mg 13Apr2007                  
 POTCAR:    PAW_PBE O 08Apr2002                   
 POTCAR:    PAW_PBE Mg 13Apr2007                  
   VRHFIN =Mg: s2p0                                                             
   LEXCH  = PE                                                                  
   EATOM  =    23.0369 eV,    1.6932 Ry                                         
                                                                                
   TITEL  = PAW_PBE Mg 13Apr2007                                                
   LULTRA =        F    use ultrasoft PP ?                                      
   IUNSCR =        1    unscreen: 0-lin 1-nonlin 2-no                           
   RPACOR =    1.500    partial core radius                                     
   POMASS =   24.305; ZVAL   =    2.000    mass and valenz                      
   RCORE  =    2.000    outmost cutoff radius                                   
   RWIGS  =    2.880; RWIGS  =    1.524    wigner-seitz radius (au A)           
   ENMAX  =  126.143; ENMIN  =   94.607 eV                                      
   RCLOC  =    1.506    cutoff for local pot                                    
   LCOR   =        T    correct aug charges                                     
   LPAW   =        T    paw PP                                                  
   EAUG   =  454.734                                                            
   DEXC   =    0.000                                                            
   RMAX   =    2.045    core radius for proj-oper                               
   RAUG   =    1.300    factor for augmentation sphere                          
   RDEP   =    2.025    radius for radial grids                                 
   RDEPT  =    1.942    core radius for aug-charge                              
                                                                                
   Atomic configuration                                                         
    6 entries                                                                   
     n  l   j            E        occ.                                          
     1  0  0.50     -1259.6230   2.0000                                         
     2  0  0.50       -79.8442   2.0000                                         
     2  1  1.50       -46.6121   6.0000                                         
     3  0  0.50        -4.7055   2.0000                                         
     3  1  0.50        -1.3660   0.0000                                         
     3  2  1.50        -1.3606   0.0000                                         
   Description                                                                  
     l       E           TYP  RCUT    TYP  RCUT                                 
     0     -4.7054661     23  2.000                                             
     0     27.2116520     23  2.000                                             
     1      1.3605826     23  2.000                                             
     1     27.2116520     23  2.000                                             
     2     -1.3605826     23  2.000                                             
  local pseudopotential read in
  partial core-charges read in
  partial kinetic energy density read in
  atomic valenz-charges read in
  non local Contribution for L=           0  read in
    real space projection operators read in
  non local Contribution for L=           0  read in
    real space projection operators read in
  non local Contribution for L=           1  read in
    real space projection operators read in
  non local Contribution for L=           1  read in
    real space projection operators read in
  non local Contribution for L=           2  read in
    real space projection operators read in
    PAW grid and wavefunctions read in
 
   number of l-projection  operators is LMAX  =           5
   number of lm-projection operators is LMMAX =          13
 
 POTCAR:    PAW_PBE O 08Apr2002                   
   VRHFIN =O: s2p4                                                              
   LEXCH  = PE                                                                  
   EATOM  =   432.3788 eV,   31.7789 Ry                                         
                                                                                
   TITEL  = PAW_PBE O 08Apr2002                                                 
   LULTRA =        F    use ultrasoft PP ?                                      
   IUNSCR =        1    unscreen: 0-lin 1-nonlin 2-no                           
   RPACOR =    1.200    partial core radius                                     
   POMASS =   16.000; ZVAL   =    6.000    mass and valenz                      
   RCORE  =    1.520    outmost cutoff radius                                   
   RWIGS  =    1.550; RWIGS  =    0.820    wigner-seitz radius (au A)           
   ENMAX  =  400.000; ENMIN  =  300.000 eV                                      
   ICORE  =        2    local potential                                         
   LCOR   =        T    correct aug charges                                     
   LPAW   =        T    paw PP                                                  
   EAUG   =  605.392                                                            
   DEXC   =    0.000                                                            
   RMAX   =    1.553    core radius for proj-oper                               
   RAUG   =    1.300    factor for augmentation sphere                          
   RDEP   =    1.550    radius for radial grids                                 
   RDEPT  =    1.329    core radius for aug-charge                              
                                                                                
   Atomic configuration                                                         
    4 entries                                                                   
     n  l   j            E        occ.                                          
     1  0  0.50      -514.6923   2.0000                                         
     2  0  0.50       -23.9615   2.0000                                         
     2  1  0.50        -9.0305   4.0000                                         
     3  2  1.50        -9.5241   0.0000                                         
   Description                                                                  
     l       E           TYP  RCUT    TYP  RCUT                                 
     0    -23.9615318     23  1.200                                             
     0     -9.5240782     23  1.200                                             
     1     -9.0304911     23  1.520                                             
     1      8.1634956     23  1.520                                             
     2     -9.5240782      7  1.500                                             
  local pseudopotential read in
  partial core-charges read in
  partial kinetic energy density read in
  kinetic energy density of atom read in
  atomic valenz-charges read in
  non local Contribution for L=           0  read in
    real space projection operators read in
  non local Contribution for L=           0  read in
    real space projection operators read in
  non local Contribution for L=           1  read in
    real space projection operators read in
  non local Contribution for L=           1  read in
    real space projection operators read in
    PAW grid and wavefunctions read in
 
   number of l-projection  operators is LMAX  =           4
   number of lm-projection operators is LMMAX =           8
 
 Optimization of the real space projectors (new method)

 maximal supplied QI-value         = 18.90
 optimisation between [QCUT,QGAM] = [ 10.20, 20.41] = [ 29.16,116.64] Ry 
 Optimized for a Real-space Cutoff    1.30 Angstroem

   l    n(q)    QCUT    max X(q) W(low)/X(q) W(high)/X(q)  e(spline) 
   0      8    10.205    28.265    0.22E-03    0.17E-03    0.53E-07
   0      8    10.205    10.429    0.17E-03    0.15E-03    0.43E-07
   1      7    10.205    13.073    0.71E-04    0.41E-03    0.76E-07
   1      7    10.205     9.625    0.71E-04    0.33E-03    0.63E-07
   2      7    10.205     4.652    0.24E-03    0.41E-03    0.55E-07
 Optimization of the real space projectors (new method)

 maximal supplied QI-value         = 24.76
 optimisation between [QCUT,QGAM] = [ 10.15, 20.30] = [ 28.85,115.39] Ry 
 Optimized for a Real-space Cutoff    1.38 Angstroem

   l    n(q)    QCUT    max X(q) W(low)/X(q) W(high)/X(q)  e(spline) 
   0      8    10.150    20.381    0.22E-03    0.32E-03    0.29E-06
   0      8    10.150    15.268    0.23E-03    0.35E-03    0.30E-06
   1      8    10.150     5.964    0.46E-03    0.53E-03    0.21E-06
   1      8    10.150     5.382    0.38E-03    0.45E-03    0.19E-06
  PAW_PBE Mg 13Apr2007                  :
 energy of atom  1       EATOM=  -23.0369
 kinetic energy error for atom=    0.0001 (will be added to EATOM!!)
  PAW_PBE O 08Apr2002                   :
 energy of atom  2       EATOM= -432.3788
 kinetic energy error for atom=    0.1156 (will be added to EATOM!!)
 
 
 POSCAR: Mg8 O7                                  
  positions in direct lattice
  velocities in cartesian coordinates
 exchange correlation table for  LEXCH =        8
   RHO(1)=    0.500       N(1)  =     2000
   RHO(2)=  100.500       N(2)  =     4000
 


--------------------------------------------------------------------------------------------------------


 ion  position               nearest neighbor table
   1  0.001  0.000  0.998-  13 2.12  12 2.12   9 2.12  14 2.12  10 2.12  11 2.12   2 3.00   5 3.00
                             7 3.00   6 3.00   3 3.00   4 3.00   4 3.00   3 3.00   6 3.00   7 3.00
   2  0.992  0.992  0.507-  15 2.05  11 2.12  12 2.12  13 2.13  10 2.13   3 2.90   6 2.90   5 2.90
                             4 2.90   8 3.00   1 3.00   1 3.01   8 3.01   4 3.10   5 3.11   6 3.11
   3  0.992  0.509  0.989-  15 2.05  14 2.12   9 2.13  12 2.13  11 2.13   7 2.89   5 2.90   4 2.90
                             2 2.90   8 3.00   1 3.00   1 3.00   8 3.00   2 3.11   4 3.11   5 3.11
   4  0.993  0.509  0.506-  15 2.05  14 2.12   9 2.12  10 2.13  13 2.13   3 2.90   7 2.90   6 2.90
                             2 2.90   8 3.00   1 3.00   1 3.00   8 3.00   2 3.10   6 3.11   7 3.11
   5  0.510  0.991  0.990-  15 2.05  10 2.12  13 2.12   9 2.13  14 2.13   7 2.89   3 2.90   2 2.90
                             6 2.90   8 3.00   1 3.00   1 3.00   8 3.01   6 3.11   2 3.11   3 3.11
   6  0.510  0.991  0.507-  15 2.05  11 2.12  12 2.13   9 2.13  14 2.13   7 2.89   2 2.90   4 2.90
                             5 2.90   8 3.00   1 3.00   1 3.00   8 3.01   5 3.11   4 3.11   2 3.11
   7  0.510  0.509  0.989-  15 2.05  13 2.12  12 2.12  10 2.13  11 2.13   3 2.89   5 2.89   6 2.89
                             4 2.90   8 3.00   1 3.00   1 3.00   8 3.00   4 3.11   6 3.11   5 3.11
   8  0.501  0.500  0.498-  11 2.12  14 2.12  13 2.12   9 2.12  10 2.12  12 2.12   2 3.00   6 3.00
                             5 3.00   3 3.00   7 3.00   4 3.00   4 3.00   7 3.00   3 3.00   5 3.01
   9  0.251  0.250  0.748-   4 2.12   1 2.12   8 2.12   3 2.13   6 2.13   5 2.13
  10  0.251  0.751  0.248-   5 2.12   1 2.12   8 2.12   7 2.13   4 2.13   2 2.13
  11  0.251  0.751  0.747-   6 2.12   8 2.12   2 2.12   1 2.12   3 2.13   7 2.13
  12  0.751  0.250  0.248-   1 2.12   7 2.12   2 2.12   8 2.12   6 2.13   3 2.13
  13  0.750  0.250  0.749-   7 2.12   8 2.12   1 2.12   5 2.12   2 2.13   4 2.13
  14  0.752  0.749  0.248-   4 2.12   3 2.12   8 2.12   1 2.12   6 2.13   5 2.13
  15  0.751  0.750  0.748-   3 2.05   7 2.05   6 2.05   5 2.05   2 2.05   4 2.05
 
  LATTYP: Found a face centered cubic cell.
 ALAT       =     8.4937860000
  
  Lattice vectors:
  
 A1 = (   0.0000000000,   4.2468930000,   4.2468930000)
 A2 = (   4.2468930000,   0.0000000000,   4.2468930000)
 A3 = (   4.2468930000,   4.2468930000,   0.0000000000)


Analysis of symmetry for initial positions (statically):
=====================================================================
 Subroutine PRICEL returns:
 Original cell was already a primitive cell.
 

 Routine SETGRP: Setting up the symmetry group for a 
 face centered cubic supercell.


 Subroutine GETGRP returns: Found  1 space group operations
 (whereof  1 operations were pure point group operations)
 out of a pool of 48 trial point group operations.


The static configuration has the point symmetry C_1 .


Analysis of symmetry for dynamics (positions and initial velocities):
=====================================================================
 Subroutine PRICEL returns:
 Original cell was already a primitive cell.
 

 Routine SETGRP: Setting up the symmetry group for a 
 face centered cubic supercell.


 Subroutine GETGRP returns: Found  1 space group operations
 (whereof  1 operations were pure point group operations)
 out of a pool of 48 trial point group operations.


The dynamic configuration has the point symmetry C_1 .


Analysis of structural, dynamic, and magnetic symmetry:
=====================================================================
 Subroutine PRICEL returns:
 Original cell was already a primitive cell.
 

 Routine SETGRP: Setting up the symmetry group for a 
 face centered cubic supercell.


 Subroutine GETGRP returns: Found  1 space group operations
 (whereof  1 operations were pure point group operations)
 out of a pool of 48 trial point group operations.


The magnetic configuration has the point symmetry C_1 .


 Subroutine INISYM returns: Found  1 space group operations
 (whereof  1 operations are pure point group operations),
 and found     1 'primitive' translations

 
 
 KPOINTS: k-point mesh                            

Automatic generation of k-mesh.
Space group operators:
 irot       det(A)        alpha          n_x          n_y          n_z        tau_x        tau_y        tau_z
    1     1.000000     0.000000     1.000000     0.000000     0.000000     0.000000     0.000000     0.000000
 
 Subroutine IBZKPT returns following result:
 ===========================================
 
 Found     16 irreducible k-points:
 
 Following reciprocal coordinates:
            Coordinates               Weight
  0.250000  0.250000  0.250000     24.000000
  0.250000  0.000000  0.000000     24.000000
  0.000000  0.000000 -0.250000     24.000000
  0.000000  0.250000  0.000000     24.000000
 -0.250000  0.250000  0.250000     24.000000
  0.250000 -0.250000  0.250000     24.000000
  0.250000  0.250000 -0.250000     24.000000
  0.250000  0.000000  0.500000     24.000000
 -0.250000  0.500000  0.500000     24.000000
  0.250000  0.500000  0.000000     24.000000
  0.000000  0.500000 -0.250000     24.000000
  0.500000  0.000000 -0.250000     24.000000
  0.500000  0.500000  0.250000     24.000000
  0.500000 -0.250000  0.500000     24.000000
  0.000000  0.250000  0.500000     24.000000
  0.500000  0.250000  0.000000     24.000000
 
 Following cartesian coordinates:
            Coordinates               Weight
  0.029433  0.029433  0.029433     24.000000
 -0.029433  0.029433  0.029433     24.000000
 -0.029433 -0.029433  0.029433     24.000000
  0.029433 -0.029433  0.029433     24.000000
  0.088300 -0.029433 -0.029433     24.000000
 -0.029433  0.088300 -0.029433     24.000000
 -0.029433 -0.029433  0.088300     24.000000
  0.029433  0.088300 -0.029433     24.000000
  0.147166 -0.029433 -0.029433     24.000000
  0.029433 -0.029433  0.088300     24.000000
  0.029433 -0.088300  0.088300     24.000000
 -0.088300  0.029433  0.088300     24.000000
  0.029433  0.029433  0.088300     24.000000
 -0.029433  0.147166 -0.029433     24.000000
  0.088300  0.029433 -0.029433     24.000000
 -0.029433  0.029433  0.088300     24.000000
 


--------------------------------------------------------------------------------------------------------




 Dimension of arrays:
   k-points           NKPTS =     16   k-points in BZ     NKDIM =     16   number of bands    NBANDS=     44
   number of dos      NEDOS =    301   number of ions     NIONS =     15
   non local maximal  LDIM  =      5   non local SUM 2l+1 LMDIM =     13
   total plane-waves  NPLWV =  27000
   max r-space proj   IRMAX =   1992   max aug-charges    IRDMAX=   7686
   dimension x,y,z NGX =    30 NGY =   30 NGZ =   30
   dimension x,y,z NGXF=    60 NGYF=   60 NGZF=   60
   support grid    NGXF=    60 NGYF=   60 NGZF=   60
   ions per type =               8   7
 NGX,Y,Z   is equivalent  to a cutoff of   8.30,  8.30,  8.30 a.u.
 NGXF,Y,Z  is equivalent  to a cutoff of  16.61, 16.61, 16.61 a.u.


 I would recommend the setting:
   dimension x,y,z NGX =    29 NGY =   29 NGZ =   29
 SYSTEM =  unknown system                          
 POSCAR =  Mg8 O7                                  

 Startparameter for this run:
   NWRITE =      2    write-flag & timer
   PREC   = n         normal or accurate (medium, high low for compatibility)
   ISTART =      0    job   : 0-new  1-cont  2-samecut
   ICHARG =      2    charge: 1-file 2-atom 10-const
   ISPIN  =      2    spin polarized calculation?
   LNONCOLLINEAR =      F non collinear calculations
   LSORBIT =      F    spin-orbit coupling
   INIWAV =      1    electr: 0-lowe 1-rand  2-diag
   LASPH  =      T    aspherical Exc in radial PAW
   METAGGA=      F    non-selfconsistent MetaGGA calc.

 Electronic Relaxation 1
   ENCUT  =  400.0 eV  29.40 Ry    5.42 a.u.   9.79  9.79  9.79*2*pi/ulx,y,z
   ENINI  =  400.0     initial cutoff
   ENAUG  =  605.4 eV  augmentation charge cutoff
   NELM   =    100;   NELMIN=  4; NELMDL=  0     # of ELM steps 
   EDIFF  = 0.1E-05   stopping-criterion for ELM
   LREAL  =      T    real-space projection
   NLSPLINE    = F    spline interpolate recip. space projectors
   LCOMPAT=      F    compatible to vasp.4.4
   GGA_COMPAT  = T    GGA compatible to vasp.4.4-vasp.4.6
   LMAXPAW     = -100 max onsite density
   LMAXMIX     =    2 max onsite mixed and CHGCAR
   VOSKOWN=      0    Vosko Wilk Nusair interpolation
   ROPT   =   -0.00050  -0.00050
 Ionic relaxation
   EDIFFG = -.5E-01   stopping-criterion for IOM
   NSW    =     20    number of steps for IOM
   NBLOCK =      1;   KBLOCK =     20    inner block; outer block 
   IBRION =      2    ionic relax: 0-MD 1-quasi-New 2-CG
   NFREE  =      1    steps in history (QN), initial steepest desc. (CG)
   ISIF   =      2    stress and relaxation
   IWAVPR =     11    prediction:  0-non 1-charg 2-wave 3-comb
   ISYM   =      2    0-nonsym 1-usesym 2-fastsym
   LCORR  =      T    Harris-Foulkes like correction to forces

   POTIM  = 0.5000    time-step for ionic-motion
   TEIN   =    0.0    initial temperature
   TEBEG  =    0.0;   TEEND  =   0.0 temperature during run
   SMASS  =  -3.00    Nose mass-parameter (am)
   estimated Nose-frequenzy (Omega)   =  0.10E-29 period in steps =****** mass=  -0.824E-27a.u.
   SCALEE = 1.0000    scale energy and forces
   NPACO  =    256;   APACO  = 16.0  distance and # of slots for P.C.
   PSTRESS=    0.0 pullay stress

  Mass of Ions in am
   POMASS =  24.30 16.00
  Ionic Valenz
   ZVAL   =   2.00  6.00
  Atomic Wigner-Seitz radii
   RWIGS  =  -1.00 -1.00
  virtual crystal weights 
   VCA    =   1.00  1.00
   NELECT =      57.0000    total number of electrons
   NUPDOWN=      -1.0000    fix difference up-down

 DOS related values:
   EMIN   =  10.00;   EMAX   =-10.00  energy-range for DOS
   EFERMI =   0.00
   ISMEAR =     0;   SIGMA  =   0.05  broadening in eV -4-tet -1-fermi 0-gaus

 Electronic relaxation 2 (details)
   IALGO  =     38    algorithm
   LDIAG  =      T    sub-space diagonalisation (order eigenvalues)
   LSUBROT=      F    optimize rotation matrix (better conditioning)
   TURBO    =      0    0=normal 1=particle mesh
   IRESTART =      0    0=no restart 2=restart with 2 vectors
   NREBOOT  =      0    no. of reboots
   NMIN     =      0    reboot dimension
   EREF     =   0.00    reference energy to select bands
   IMIX   =      4    mixing-type and parameters
     AMIX     =   0.40;   BMIX     =  1.00
     AMIX_MAG =   1.60;   BMIX_MAG =  1.00
     AMIN     =   0.10
     WC   =   100.;   INIMIX=   1;  MIXPRE=   1;  MAXMIX= -45

 Intra band minimization:
   WEIMIN = 0.0010     energy-eigenvalue tresh-hold
   EBREAK =  0.57E-08  absolut break condition
   DEPER  =   0.30     relativ break condition  

   TIME   =   0.40     timestep for ELM

  volume/ion in A,a.u.               =      10.21        68.92
  Fermi-wavevector in a.u.,A,eV,Ry     =   1.177475  2.225106 18.863771  1.386448
  Thomas-Fermi vector in A             =   2.313821
 
 Write flags
   LWAVE  =      F    write WAVECAR
   LCHARG =      F    write CHGCAR
   LVTOT  =      F    write LOCPOT, total local potential
   LVHAR  =      F    write LOCPOT, Hartree potential only
   LELF   =      F    write electronic localiz. function (ELF)
   LORBIT =     12    0 simple, 1 ext, 2 COOP (PROOUT)


 Dipole corrections
   LMONO  =      F    monopole corrections only (constant potential shift)
   LDIPOL =      F    correct potential (dipole corrections)
   IDIPOL =      0    1-x, 2-y, 3-z, 4-all directions 
   EPSILON=  1.0000000 bulk dielectric constant

 Exchange correlation treatment:
   GGA     =    --    GGA type
   LEXCH   =     8    internal setting for exchange type
   VOSKOWN=      0    Vosko Wilk Nusair interpolation
   LHFCALC =     F    Hartree Fock is set to
   LHFONE  =     F    Hartree Fock one center treatment
   AEXX    =    0.0000 exact exchange contribution

 Linear response parameters
   LEPSILON=     F    determine dielectric tensor
   LRPA    =     F    only Hartree local field effects (RPA)
   LNABLA  =     F    use nabla operator in PAW spheres
   LVEL    =     F    velocity operator in full k-point grid
   LINTERFAST=   F  fast interpolation
   KINTER  =     0    interpolate to denser k-point grid
   CSHIFT  =0.1000    complex shift for real part using Kramers Kronig
   OMEGAMAX=  -1.0    maximum frequency
   DEG_THRESHOLD= 0.2000000E-02 threshold for treating states as degnerate
   RTIME   =    0.100 relaxation time in fs

 Orbital magnetization related:
   ORBITALMAG=     F  switch on orbital magnetization
   LCHIMAG   =     F  perturbation theory with respect to B field
   DQ        =  0.001000  dq finite difference perturbation B field



--------------------------------------------------------------------------------------------------------


 conjugate gradient relaxation of ions
 charge density and potential will be updated during run
 spin polarized calculation
 Variant of blocked Davidson
 Davidson routine will perform the subspace rotation
 perform sub-space diagonalisation
    after iterative eigenvector-optimisation
 modified Broyden-mixing scheme, WC =      100.0
 initial mixing is a Kerker type mixing with AMIX =  0.4000 and BMIX =      1.0000
 Hartree-type preconditioning will be used
 using additional bands           15
 real space projection scheme for non local part
 use partial core corrections
 calculate Harris-corrections to forces 
   (improved forces if not selfconsistent)
 use gradient corrections 
 use of overlap-Matrix (Vanderbilt PP)
 Gauss-broadening in eV      SIGMA  =   0.05


--------------------------------------------------------------------------------------------------------


  energy-cutoff  :      400.00
  volume of cell :      153.19
      direct lattice vectors                 reciprocal lattice vectors
     0.000000000  4.246893000  4.246893000    -0.117733129  0.117733129  0.117733129
     4.246893000  0.000000000  4.246893000     0.117733129 -0.117733129  0.117733129
     4.246893000  4.246893000  0.000000000     0.117733129  0.117733129 -0.117733129

  length of vectors
     6.006013679  6.006013679  6.006013679     0.203919761  0.203919761  0.203919761


 
 k-points in units of 2pi/SCALE and weight: k-point mesh                            
   0.02943328  0.02943328  0.02943328       0.062
  -0.02943328  0.02943328  0.02943328       0.062
  -0.02943328 -0.02943328  0.02943328       0.062
   0.02943328 -0.02943328  0.02943328       0.062
   0.08829985 -0.02943328 -0.02943328       0.062
  -0.02943328  0.08829985 -0.02943328       0.062
  -0.02943328 -0.02943328  0.08829985       0.062
   0.02943328  0.08829985 -0.02943328       0.062
   0.14716641 -0.02943328 -0.02943328       0.062
   0.02943328 -0.02943328  0.08829985       0.062
   0.02943328 -0.08829985  0.08829985       0.062
  -0.08829985  0.02943328  0.08829985       0.062
   0.02943328  0.02943328  0.08829985       0.062
  -0.02943328  0.14716641 -0.02943328       0.062
   0.08829985  0.02943328 -0.02943328       0.062
  -0.02943328  0.02943328  0.08829985       0.062
 
 k-points in reciprocal lattice and weights: k-point mesh                            
   0.25000000  0.25000000  0.25000000       0.062
   0.25000000  0.00000000  0.00000000       0.062
   0.00000000  0.00000000 -0.25000000       0.062
   0.00000000  0.25000000  0.00000000       0.062
  -0.25000000  0.25000000  0.25000000       0.062
   0.25000000 -0.25000000  0.25000000       0.062
   0.25000000  0.25000000 -0.25000000       0.062
   0.25000000  0.00000000  0.50000000       0.062
  -0.25000000  0.50000000  0.50000000       0.062
   0.25000000  0.50000000  0.00000000       0.062
   0.00000000  0.50000000 -0.25000000       0.062
   0.50000000  0.00000000 -0.25000000       0.062
   0.50000000  0.50000000  0.25000000       0.062
   0.50000000 -0.25000000  0.50000000       0.062
   0.00000000  0.25000000  0.50000000       0.062
   0.50000000  0.25000000  0.00000000       0.062
 
 position of ions in fractional coordinates (direct lattice) 
   0.00121505  0.00029229  0.99787466
   0.99190759  0.99206206  0.50698569
   0.99225176  0.50932586  0.98870522
   0.99294250  0.50880437  0.50639543
   0.50984409  0.99111333  0.98956602
   0.51021480  0.99104517  0.50679920
   0.51042715  0.50933827  0.98882284
   0.50129986  0.50031038  0.49801593
   0.25114511  0.25032953  0.74763686
   0.25140808  0.75068909  0.24775964
   0.25125790  0.75072408  0.74736398
   0.75112525  0.25018334  0.24789527
   0.75031518  0.25029282  0.74886870
   0.75222018  0.74922393  0.24794860
   0.75123349  0.75026051  0.74799696
 
 position of ions in cartesian coordinates  (Angst):
   4.23910825  4.24302713  0.00640152
   6.36629539  6.36563939  8.42570683
   6.36197768  8.41291233  6.37703947
   4.31144493  6.36752776  6.37775827
   8.41173327  6.36783432  6.37440557
   6.36118477  4.31914964  6.37569044
   6.36252992  6.36715427  4.33083461
   4.23978500  4.24398722  4.25373151
   4.23825647  4.24172016  2.12970914
   4.24030491  2.11991189  4.25579942
   6.36221968  4.24104029  4.25531026
   2.11528655  4.24273324  4.25245042
   4.24333206  6.36687354  4.24947511
   4.23488501  4.24760978  6.37647246
   6.36293914  6.36707130  6.37668435
 


--------------------------------------------------------------------------------------------------------


 k-point  1 :   0.2500 0.2500 0.2500  plane waves:    2782
 k-point  2 :   0.2500 0.0000 0.0000  plane waves:    2782
 k-point  3 :   0.0000 0.0000-0.2500  plane waves:    2782
 k-point  4 :   0.0000 0.2500 0.0000  plane waves:    2782
 k-point  5 :  -0.2500 0.2500 0.2500  plane waves:    2788
 k-point  6 :   0.2500-0.2500 0.2500  plane waves:    2788
 k-point  7 :   0.2500 0.2500-0.2500  plane waves:    2788
 k-point  8 :   0.2500 0.0000 0.5000  plane waves:    2788
 k-point  9 :  -0.2500 0.5000 0.5000  plane waves:    2788
 k-point 10 :   0.2500 0.5000 0.0000  plane waves:    2788
 k-point 11 :   0.0000 0.5000-0.2500  plane waves:    2788
 k-point 12 :   0.5000 0.0000-0.2500  plane waves:    2788
 k-point 13 :   0.5000 0.5000 0.2500  plane waves:    2788
 k-point 14 :   0.5000-0.2500 0.5000  plane waves:    2788
 k-point 15 :   0.0000 0.2500 0.5000  plane waves:    2788
 k-point 16 :   0.5000 0.2500 0.0000  plane waves:    2788

 maximum and minimum number of plane-waves per node :       326      286

 maximum number of plane-waves:      2788
 maximum index in each direction: 
   IXMAX=   10   IYMAX=   10   IZMAX=   10
   IXMIN=  -10   IYMIN=  -10   IZMIN=  -10

 WARNING: aliasing errors must be expected set NGX to  42 to avoid them
 WARNING: aliasing errors must be expected set NGY to  42 to avoid them
 WARNING: aliasing errors must be expected set NGZ to  42 to avoid them
 aliasing errors are usually negligible using standard VASP settings
 and one can safely disregard these warnings

 real space projection operators:
  total allocation   :       2110.80 KBytes
  max/ min on nodes  :        299.51        194.84


 parallel 3D FFT for wavefunctions:
    minimum data exchange during FFTs selected (reduces bandwidth)
 parallel 3D FFT for charge:
    minimum data exchange during FFTs selected (reduces bandwidth)


 total amount of memory used by VASP on root node    34050. kBytes
========================================================================

   base      :      30000. kBytes
   nonlr-proj:        868. kBytes
   fftplans  :        353. kBytes
   grid      :        883. kBytes
   one-center:         32. kBytes
   wavefun   :       1914. kBytes
 
     INWAV:  cpu time    0.0000: real time    0.0003
 Broyden mixing: mesh for mixing (old mesh)
   NGX = 19   NGY = 19   NGZ = 19
  (NGX  = 60   NGY  = 60   NGZ  = 60)
  gives a total of   6859 points

 initial charge density was supplied:
 charge density of overlapping atoms calculated
 number of electron      58.0000000 magnetization      15.0000000
 keeping initial charge density in first step


--------------------------------------------------------------------------------------------------------


 Maximum index for non-local projection operator          284
 Maximum index for augmentation-charges          421 (set IRDMAX)


--------------------------------------------------------------------------------------------------------


 First call to EWALD:  gamma=   0.331
 Maximum number of real-space cells 3x 3x 3
 Maximum number of reciprocal cells 3x 3x 3

 FEWALD executed in parallel
    FEWALD:  cpu time    0.0000: real time    0.0012


----------------------------------------- Iteration    1(   1)  ---------------------------------------


    POTLOK:  cpu time    0.0120: real time    0.0105
    SETDIJ:  cpu time    0.3600: real time    0.3640
     EDDAV:  cpu time    0.6520: real time    0.6604
       DOS:  cpu time    0.0000: real time    0.0009
    --------------------------------------------
      LOOP:  cpu time    1.0240: real time    1.0384

 eigenvalue-minimisations  :  2920
 total energy-change (2. order) : 0.2356270E+03  (-0.2417421E+04)
 number of electron      58.0000000 magnetization      15.0000000
 augmentation part       58.0000000 magnetization      15.0000000

 Free energy of the ion-electron system (eV)
  ---------------------------------------------------
  alpha Z        PSCENC =       129.53385374
  Ewald energy   TEWEN  =     -2363.94528198
  -Hartree energ DENC   =      -978.63425311
  -exchange      EXHF   =         0.00000000
  -V(xc)+E(xc)   XCENC  =      -189.52223325
  PAW double counting   =      2946.27252624    -2543.92834819
  entropy T*S    EENTRO =        -0.00179918
  eigenvalues    EBANDS =        25.71597985
  atomic energy  EATOM  =      3210.13655998
  Solvation  Ediel_sol  =         0.00000000
  ---------------------------------------------------
  free energy    TOTEN  =       235.62700410 eV

  energy without entropy =      235.62880328  energy(sigma->0) =      235.62790369


--------------------------------------------------------------------------------------------------------




----------------------------------------- Iteration    1(   2)  ---------------------------------------


     EDDAV:  cpu time    0.6680: real time    0.6686
       DOS:  cpu time    0.0000: real time    0.0006
    --------------------------------------------
      LOOP:  cpu time    0.6720: real time    0.6754

 eigenvalue-minimisations  :  3528
 total energy-change (2. order) :-0.3119712E+03  (-0.3026927E+03)
 number of electron      58.0000000 magnetization      15.0000000
 augmentation part       58.0000000 magnetization      15.0000000

 Free energy of the ion-electron system (eV)
  ---------------------------------------------------
  alpha Z        PSCENC =       129.53385374
  Ewald energy   TEWEN  =     -2363.94528198
  -Hartree energ DENC   =      -978.63425311
  -exchange      EXHF   =         0.00000000
  -V(xc)+E(xc)   XCENC  =      -189.52223325
  PAW double counting   =      2946.27252624    -2543.92834819
  entropy T*S    EENTRO =        -0.00000036
  eigenvalues    EBANDS =      -286.25700828
  atomic energy  EATOM  =      3210.13655998
  Solvation  Ediel_sol  =         0.00000000
  ---------------------------------------------------
  free energy    TOTEN  =       -76.34418520 eV

  energy without entropy =      -76.34418485  energy(sigma->0) =      -76.34418503


--------------------------------------------------------------------------------------------------------




----------------------------------------- Iteration    1(   3)  ---------------------------------------


     EDDAV:  cpu time    0.6640: real time    0.6673
       DOS:  cpu time    0.0000: real time    0.0004
    --------------------------------------------
      LOOP:  cpu time    0.6640: real time    0.6704

 eigenvalue-minimisations  :  3472
 total energy-change (2. order) :-0.1860843E+02  (-0.1852155E+02)
 number of electron      58.0000000 magnetization      15.0000000
 augmentation part       58.0000000 magnetization      15.0000000

 Free energy of the ion-electron system (eV)
  ---------------------------------------------------
  alpha Z        PSCENC =       129.53385374
  Ewald energy   TEWEN  =     -2363.94528198
  -Hartree energ DENC   =      -978.63425311
  -exchange      EXHF   =         0.00000000
  -V(xc)+E(xc)   XCENC  =      -189.52223325
  PAW double counting   =      2946.27252624    -2543.92834819
  entropy T*S    EENTRO =        -0.00000000
  eigenvalues    EBANDS =      -304.86543989
  atomic energy  EATOM  =      3210.13655998
  Solvation  Ediel_sol  =         0.00000000
  ---------------------------------------------------
  free energy    TOTEN  =       -94.95261645 eV

  energy without entropy =      -94.95261645  energy(sigma->0) =      -94.95261645


--------------------------------------------------------------------------------------------------------




----------------------------------------- Iteration    1(   4)  ---------------------------------------


     EDDAV:  cpu time    0.6680: real time    0.6666
       DOS:  cpu time    0.0000: real time    0.0004
    --------------------------------------------
      LOOP:  cpu time    0.6680: real time    0.6700

 eigenvalue-minimisations  :  3520
 total energy-change (2. order) :-0.1257473E+00  (-0.1256025E+00)
 number of electron      58.0000000 magnetization      15.0000000
 augmentation part       58.0000000 magnetization      15.0000000

 Free energy of the ion-electron system (eV)
  ---------------------------------------------------
  alpha Z        PSCENC =       129.53385374
  Ewald energy   TEWEN  =     -2363.94528198
  -Hartree energ DENC   =      -978.63425311
  -exchange      EXHF   =         0.00000000
  -V(xc)+E(xc)   XCENC  =      -189.52223325
  PAW double counting   =      2946.27252624    -2543.92834819
  entropy T*S    EENTRO =        -0.00000000
  eigenvalues    EBANDS =      -304.99118717
  atomic energy  EATOM  =      3210.13655998
  Solvation  Ediel_sol  =         0.00000000
  ---------------------------------------------------
  free energy    TOTEN  =       -95.07836373 eV

  energy without entropy =      -95.07836373  energy(sigma->0) =      -95.07836373


--------------------------------------------------------------------------------------------------------




----------------------------------------- Iteration    1(   5)  ---------------------------------------


     EDDAV:  cpu time    0.6400: real time    0.6434
       DOS:  cpu time    0.0040: real time    0.0004
    CHARGE:  cpu time    0.0160: real time    0.0168
    MIXING:  cpu time    0.0000: real time    0.0008
    --------------------------------------------
      LOOP:  cpu time    0.6600: real time    0.6644

 eigenvalue-minimisations  :  3376
 total energy-change (2. order) :-0.7794075E-03  (-0.7791280E-03)
 number of electron      56.9999837 magnetization       1.0795753
 augmentation part        5.5693585 magnetization       0.1639189

 Broyden mixing:
  rms(total) = 0.26659E+01    rms(broyden)= 0.26640E+01
  rms(prec ) = 0.45535E+01
  weight for this iteration     100.00

 Free energy of the ion-electron system (eV)
  ---------------------------------------------------
  alpha Z        PSCENC =       129.53385374
  Ewald energy   TEWEN  =     -2363.94528198
  -Hartree energ DENC   =      -978.63425311
  -exchange      EXHF   =         0.00000000
  -V(xc)+E(xc)   XCENC  =      -189.52223325
  PAW double counting   =      2946.27252624    -2543.92834819
  entropy T*S    EENTRO =        -0.00000000
  eigenvalues    EBANDS =      -304.99196657
  atomic energy  EATOM  =      3210.13655998
  Solvation  Ediel_sol  =         0.00000000
  ---------------------------------------------------
  free energy    TOTEN  =       -95.07914314 eV

  energy without entropy =      -95.07914314  energy(sigma->0) =      -95.07914314


--------------------------------------------------------------------------------------------------------




----------------------------------------- Iteration    1(   6)  ---------------------------------------


    POTLOK:  cpu time    0.0080: real time    0.0092
    SETDIJ:  cpu time    0.3680: real time    0.3694
     EDDAV:  cpu time    0.6240: real time    0.6252
       DOS:  cpu time    0.0000: real time    0.0008
    CHARGE:  cpu time    0.0160: real time    0.0192
    MIXING:  cpu time    0.0000: real time    0.0003
    --------------------------------------------
      LOOP:  cpu time    1.0160: real time    1.0266

 eigenvalue-minimisations  :  3288
 total energy-change (2. order) : 0.5890761E+01  (-0.4128190E+01)
 number of electron      56.9999867 magnetization       0.6661574
 augmentation part        4.5812961 magnetization      -0.0408320

 Broyden mixing:
  rms(total) = 0.74566E+00    rms(broyden)= 0.74417E+00
  rms(prec ) = 0.10634E+01
  weight for this iteration     100.00

 eigenvalues of (default mixing * dielectric matrix)
  average eigenvalue GAMMA=   0.8359
  0.8359

 Free energy of the ion-electron system (eV)
  ---------------------------------------------------
  alpha Z        PSCENC =       129.53385374
  Ewald energy   TEWEN  =     -2363.94528198
  -Hartree energ DENC   =     -1117.29713168
  -exchange      EXHF   =         0.00000000
  -V(xc)+E(xc)   XCENC  =      -185.59351833
  PAW double counting   =      3480.17167650    -3080.08612824
  entropy T*S    EENTRO =        -0.01122545
  eigenvalues    EBANDS =      -162.09718635
  atomic energy  EATOM  =      3210.13655998
  Solvation  Ediel_sol  =         0.00000000
  ---------------------------------------------------
  free energy    TOTEN  =       -89.18838181 eV

  energy without entropy =      -89.17715636  energy(sigma->0) =      -89.18276909


--------------------------------------------------------------------------------------------------------




----------------------------------------- Iteration    1(   7)  ---------------------------------------


    POTLOK:  cpu time    0.0080: real time    0.0086
    SETDIJ:  cpu time    0.3720: real time    0.3738
     EDDAV:  cpu time    0.6320: real time    0.6335
       DOS:  cpu time    0.0040: real time    0.0009
    CHARGE:  cpu time    0.0160: real time    0.0169
    MIXING:  cpu time    0.0000: real time    0.0003
    --------------------------------------------
      LOOP:  cpu time    1.0360: real time    1.0370

 eigenvalue-minimisations  :  3336
 total energy-change (2. order) :-0.9533758E-01  (-0.1285827E+00)
 number of electron      56.9999867 magnetization       0.4318535
 augmentation part        4.5785624 magnetization      -0.0761474

 Broyden mixing:
  rms(total) = 0.39343E+00    rms(broyden)= 0.39335E+00
  rms(prec ) = 0.62966E+00
  weight for this iteration     100.00

 eigenvalues of (default mixing * dielectric matrix)
  average eigenvalue GAMMA=   0.9817
  0.9817  0.9817

 Free energy of the ion-electron system (eV)
  ---------------------------------------------------
  alpha Z        PSCENC =       129.53385374
  Ewald energy   TEWEN  =     -2363.94528198
  -Hartree energ DENC   =     -1119.13483987
  -exchange      EXHF   =         0.00000000
  -V(xc)+E(xc)   XCENC  =      -185.48336054
  PAW double counting   =      3652.09386831    -3251.70248983
  entropy T*S    EENTRO =        -0.01037777
  eigenvalues    EBANDS =      -160.77165143
  atomic energy  EATOM  =      3210.13655998
  Solvation  Ediel_sol  =         0.00000000
  ---------------------------------------------------
  free energy    TOTEN  =       -89.28371939 eV

  energy without entropy =      -89.27334162  energy(sigma->0) =      -89.27853050


--------------------------------------------------------------------------------------------------------




----------------------------------------- Iteration    1(   8)  ---------------------------------------


    POTLOK:  cpu time    0.0080: real time    0.0088
    SETDIJ:  cpu time    0.3720: real time    0.3717
     EDDAV:  cpu time    0.6200: real time    0.6211
       DOS:  cpu time    0.0040: real time    0.0008
    CHARGE:  cpu time    0.0160: real time    0.0174
    MIXING:  cpu time    0.0000: real time    0.0003
    --------------------------------------------
      LOOP:  cpu time    1.0200: real time    1.0231

 eigenvalue-minimisations  :  3284
 total energy-change (2. order) : 0.1096266E+00  (-0.2773329E-01)
 number of electron      56.9999866 magnetization       0.4502782
 augmentation part        4.6080629 magnetization      -0.0209243

 Broyden mixing:
  rms(total) = 0.13981E+00    rms(broyden)= 0.13976E+00
  rms(prec ) = 0.22110E+00
  weight for this iteration     100.00

 eigenvalues of (default mixing * dielectric matrix)
  average eigenvalue GAMMA=   1.2690
  2.0710  0.9269  0.8091

 Free energy of the ion-electron system (eV)
  ---------------------------------------------------
  alpha Z        PSCENC =       129.53385374
  Ewald energy   TEWEN  =     -2363.94528198
  -Hartree energ DENC   =     -1123.46616613
  -exchange      EXHF   =         0.00000000
  -V(xc)+E(xc)   XCENC  =      -184.97156533
  PAW double counting   =      3853.31726931    -3452.64931517
  entropy T*S    EENTRO =        -0.00964138
  eigenvalues    EBANDS =      -157.11980588
  atomic energy  EATOM  =      3210.13655998
  Solvation  Ediel_sol  =         0.00000000
  ---------------------------------------------------
  free energy    TOTEN  =       -89.17409283 eV

  energy without entropy =      -89.16445144  energy(sigma->0) =      -89.16927213


--------------------------------------------------------------------------------------------------------




----------------------------------------- Iteration    1(   9)  ---------------------------------------


    POTLOK:  cpu time    0.0080: real time    0.0091
    SETDIJ:  cpu time    0.3760: real time    0.3734
     EDDAV:  cpu time    0.6800: real time    0.6802
       DOS:  cpu time    0.0000: real time    0.0008
    CHARGE:  cpu time    0.0160: real time    0.0166
    MIXING:  cpu time    0.0000: real time    0.0003
    --------------------------------------------
      LOOP:  cpu time    1.0800: real time    1.0833

 eigenvalue-minimisations  :  3648
 total energy-change (2. order) : 0.5291576E-02  (-0.4728517E-02)
 number of electron      56.9999866 magnetization       0.4943141
 augmentation part        4.5981519 magnetization       0.0280728

 Broyden mixing:
  rms(total) = 0.45181E-01    rms(broyden)= 0.45148E-01
  rms(prec ) = 0.54879E-01
  weight for this iteration     100.00

 eigenvalues of (default mixing * dielectric matrix)
  average eigenvalue GAMMA=   1.2336
  2.3640  0.9554  0.9554  0.6595

 Free energy of the ion-electron system (eV)
  ---------------------------------------------------
  alpha Z        PSCENC =       129.53385374
  Ewald energy   TEWEN  =     -2363.94528198
  -Hartree energ DENC   =     -1128.80981514
  -exchange      EXHF   =         0.00000000
  -V(xc)+E(xc)   XCENC  =      -184.45279936
  PAW double counting   =      3940.25863813    -3539.54041166
  entropy T*S    EENTRO =        -0.00964137
  eigenvalues    EBANDS =      -152.33990359
  atomic energy  EATOM  =      3210.13655998
  Solvation  Ediel_sol  =         0.00000000
  ---------------------------------------------------
  free energy    TOTEN  =       -89.16880125 eV

  energy without entropy =      -89.15915988  energy(sigma->0) =      -89.16398056


--------------------------------------------------------------------------------------------------------




----------------------------------------- Iteration    1(  10)  ---------------------------------------


    POTLOK:  cpu time    0.0080: real time    0.0082
    SETDIJ:  cpu time    0.3720: real time    0.3721
     EDDAV:  cpu time    0.6520: real time    0.6504
       DOS:  cpu time    0.0000: real time    0.0008
    CHARGE:  cpu time    0.0200: real time    0.0185
    MIXING:  cpu time    0.0000: real time    0.0004
    --------------------------------------------
      LOOP:  cpu time    1.0520: real time    1.0534

 eigenvalue-minimisations  :  3376
 total energy-change (2. order) :-0.4294045E-03  (-0.5101281E-03)
 number of electron      56.9999866 magnetization       0.5064654
 augmentation part        4.5914418 magnetization       0.0397549

 Broyden mixing:
  rms(total) = 0.16559E-01    rms(broyden)= 0.16552E-01
  rms(prec ) = 0.22542E-01
  weight for this iteration     100.00

 eigenvalues of (default mixing * dielectric matrix)
  average eigenvalue GAMMA=   1.2340
  2.5081  1.2066  0.9285  0.8863  0.6405

 Free energy of the ion-electron system (eV)
  ---------------------------------------------------
  alpha Z        PSCENC =       129.53385374
  Ewald energy   TEWEN  =     -2363.94528198
  -Hartree energ DENC   =     -1129.64483754
  -exchange      EXHF   =         0.00000000
  -V(xc)+E(xc)   XCENC  =      -184.37342847
  PAW double counting   =      3933.44499794    -3532.74885200
  entropy T*S    EENTRO =        -0.00964137
  eigenvalues    EBANDS =      -151.56260095
  atomic energy  EATOM  =      3210.13655998
  Solvation  Ediel_sol  =         0.00000000
  ---------------------------------------------------
  free energy    TOTEN  =       -89.16923065 eV

  energy without entropy =      -89.15958928  energy(sigma->0) =      -89.16440997


--------------------------------------------------------------------------------------------------------




----------------------------------------- Iteration    1(  11)  ---------------------------------------


    POTLOK:  cpu time    0.0080: real time    0.0091
    SETDIJ:  cpu time    0.3760: real time    0.3746
     EDDAV:  cpu time    0.6680: real time    0.6701
       DOS:  cpu time    0.0000: real time    0.0009
    CHARGE:  cpu time    0.0160: real time    0.0164
    MIXING:  cpu time    0.0040: real time    0.0004
    --------------------------------------------
      LOOP:  cpu time    1.0720: real time    1.0742

 eigenvalue-minimisations  :  3536
 total energy-change (2. order) :-0.3558119E-03  (-0.4775727E-04)
 number of electron      56.9999866 magnetization       0.4978902
 augmentation part        4.5914796 magnetization       0.0291708

 Broyden mixing:
  rms(total) = 0.73375E-02    rms(broyden)= 0.73359E-02
  rms(prec ) = 0.10646E-01
  weight for this iteration     100.00

 eigenvalues of (default mixing * dielectric matrix)
  average eigenvalue GAMMA=   1.2894
  2.5747  1.7213  0.9907  0.9907  0.8246  0.6343

 Free energy of the ion-electron system (eV)
  ---------------------------------------------------
  alpha Z        PSCENC =       129.53385374
  Ewald energy   TEWEN  =     -2363.94528198
  -Hartree energ DENC   =     -1129.67077509
  -exchange      EXHF   =         0.00000000
  -V(xc)+E(xc)   XCENC  =      -184.35301642
  PAW double counting   =      3923.62279254    -3522.93621065
  entropy T*S    EENTRO =        -0.00964137
  eigenvalues    EBANDS =      -151.54786722
  atomic energy  EATOM  =      3210.13655998
  Solvation  Ediel_sol  =         0.00000000
  ---------------------------------------------------
  free energy    TOTEN  =       -89.16958647 eV

  energy without entropy =      -89.15994510  energy(sigma->0) =      -89.16476578


--------------------------------------------------------------------------------------------------------




----------------------------------------- Iteration    1(  12)  ---------------------------------------


    POTLOK:  cpu time    0.0080: real time    0.0086
    SETDIJ:  cpu time    0.3720: real time    0.3736
     EDDAV:  cpu time    0.6200: real time    0.6201
       DOS:  cpu time    0.0000: real time    0.0008
    CHARGE:  cpu time    0.0160: real time    0.0164
    MIXING:  cpu time    0.0040: real time    0.0004
    --------------------------------------------
      LOOP:  cpu time    1.0200: real time    1.0229

 eigenvalue-minimisations  :  3208
 total energy-change (2. order) :-0.1969006E-03  (-0.2961833E-04)
 number of electron      56.9999866 magnetization       0.4994604
 augmentation part        4.5926052 magnetization       0.0309075

 Broyden mixing:
  rms(total) = 0.26186E-02    rms(broyden)= 0.26173E-02
  rms(prec ) = 0.36049E-02
  weight for this iteration     100.00

 eigenvalues of (default mixing * dielectric matrix)
  average eigenvalue GAMMA=   1.3136
  2.5908  2.3134  1.0566  0.9807  0.8573  0.7665  0.6300

 Free energy of the ion-electron system (eV)
  ---------------------------------------------------
  alpha Z        PSCENC =       129.53385374
  Ewald energy   TEWEN  =     -2363.94528198
  -Hartree energ DENC   =     -1129.57726866
  -exchange      EXHF   =         0.00000000
  -V(xc)+E(xc)   XCENC  =      -184.34613767
  PAW double counting   =      3916.14050549    -3515.45888461
  entropy T*S    EENTRO =        -0.00964137
  eigenvalues    EBANDS =      -151.64348829
  atomic energy  EATOM  =      3210.13655998
  Solvation  Ediel_sol  =         0.00000000
  ---------------------------------------------------
  free energy    TOTEN  =       -89.16978337 eV

  energy without entropy =      -89.16014200  energy(sigma->0) =      -89.16496268


--------------------------------------------------------------------------------------------------------




----------------------------------------- Iteration    1(  13)  ---------------------------------------


    POTLOK:  cpu time    0.0080: real time    0.0089
    SETDIJ:  cpu time    0.3720: real time    0.3734
     EDDAV:  cpu time    0.6360: real time    0.6360
       DOS:  cpu time    0.0000: real time    0.0008
    CHARGE:  cpu time    0.0160: real time    0.0169
    MIXING:  cpu time    0.0000: real time    0.0004
    --------------------------------------------
      LOOP:  cpu time    1.0320: real time    1.0392

 eigenvalue-minimisations  :  3344
 total energy-change (2. order) :-0.1008992E-04  (-0.3799347E-05)
 number of electron      56.9999866 magnetization       0.5002855
 augmentation part        4.5923500 magnetization       0.0318064

 Broyden mixing:
  rms(total) = 0.99021E-03    rms(broyden)= 0.99009E-03
  rms(prec ) = 0.16152E-02
  weight for this iteration     100.00

 eigenvalues of (default mixing * dielectric matrix)
  average eigenvalue GAMMA=   1.2995
  2.7052  2.4334  1.0117  1.0117  0.9568  0.9568  0.6288  0.6914

 Free energy of the ion-electron system (eV)
  ---------------------------------------------------
  alpha Z        PSCENC =       129.53385374
  Ewald energy   TEWEN  =     -2363.94528198
  -Hartree energ DENC   =     -1129.61297424
  -exchange      EXHF   =         0.00000000
  -V(xc)+E(xc)   XCENC  =      -184.34204371
  PAW double counting   =      3914.49281343    -3513.81399977
  entropy T*S    EENTRO =        -0.00964136
  eigenvalues    EBANDS =      -151.60907955
  atomic energy  EATOM  =      3210.13655998
  Solvation  Ediel_sol  =         0.00000000
  ---------------------------------------------------
  free energy    TOTEN  =       -89.16979346 eV

  energy without entropy =      -89.16015209  energy(sigma->0) =      -89.16497277


--------------------------------------------------------------------------------------------------------




----------------------------------------- Iteration    1(  14)  ---------------------------------------


    POTLOK:  cpu time    0.0080: real time    0.0082
    SETDIJ:  cpu time    0.3720: real time    0.3737
     EDDAV:  cpu time    0.6480: real time    0.6474
       DOS:  cpu time    0.0000: real time    0.0009
    --------------------------------------------
      LOOP:  cpu time    1.0320: real time    1.0333

 eigenvalue-minimisations  :  3400
 total energy-change (2. order) :-0.5085376E-06  (-0.6014042E-06)
 number of electron      56.9999866 magnetization       0.5002855
 augmentation part        4.5923500 magnetization       0.0318064

 Free energy of the ion-electron system (eV)
  ---------------------------------------------------
  alpha Z        PSCENC =       129.53385374
  Ewald energy   TEWEN  =     -2363.94528198
  -Hartree energ DENC   =     -1129.63037756
  -exchange      EXHF   =         0.00000000
  -V(xc)+E(xc)   XCENC  =      -184.34053802
  PAW double counting   =      3914.05562601    -3513.37784925
  entropy T*S    EENTRO =        -0.00964136
  eigenvalues    EBANDS =      -151.59214551
  atomic energy  EATOM  =      3210.13655998
  Solvation  Ediel_sol  =         0.00000000
  ---------------------------------------------------
  free energy    TOTEN  =       -89.16979397 eV

  energy without entropy =      -89.16015260  energy(sigma->0) =      -89.16497328


--------------------------------------------------------------------------------------------------------




 average (electrostatic) potential at core
  the test charge radii are     1.0714  0.7215
  (the norm of the test charge is              1.0000)
       1 -35.1384       2 -35.6153       3 -35.6104       4 -35.6173       5 -35.6142
       6 -35.6135       7 -35.6099       8 -35.1383       9 -70.1626      10 -70.1630
      11 -70.1662      12 -70.1640      13 -70.1680      14 -70.1682      15 -70.4108
 
 
 
 E-fermi :   4.9151     XC(G=0): -10.5888     alpha+bet :-12.3115


 spin component 1

 k-point     1 :       0.2500    0.2500    0.2500
  band No.  band energies     occupation 
      1     -14.2388      1.00000
      2     -13.4771      1.00000
      3     -13.2888      1.00000
      4     -13.1368      1.00000
      5     -13.1346      1.00000
      6     -12.9639      1.00000
      7     -12.9616      1.00000
      8      -1.4741      1.00000
      9      -1.4703      1.00000
     10      -1.4223      1.00000
     11      -1.2106      1.00000
     12      -0.8981      1.00000
     13      -0.5353      1.00000
     14      -0.5311      1.00000
     15       0.9820      1.00000
     16       1.0781      1.00000
     17       1.0859      1.00000
     18       1.4644      1.00000
     19       1.4668      1.00000
     20       1.5012      1.00000
     21       1.5211      1.00000
     22       1.6832      1.00000
     23       1.6884      1.00000
     24       1.9826      1.00000
     25       2.1534      1.00000
     26       2.1542      1.00000
     27       2.4118      1.00000
     28       2.4135      1.00000
     29       3.8556      1.00000
     30       8.6901      0.00000
     31       9.7480      0.00000
     32      10.3166      0.00000
     33      10.3257      0.00000
     34      11.1811      0.00000
     35      11.4323      0.00000
     36      11.4465      0.00000
     37      12.4052      0.00000
     38      12.4072      0.00000
     39      12.7485      0.00000
     40      13.0498      0.00000
     41      13.4039      0.00000
     42      13.4066      0.00000
     43      14.9998      0.00000
     44      15.1607      0.00000

 k-point     2 :       0.2500    0.0000    0.0000
  band No.  band energies     occupation 
      1     -14.2391      1.00000
      2     -13.4752      1.00000
      3     -13.2904      1.00000
      4     -13.1359      1.00000
      5     -13.1354      1.00000
      6     -12.9630      1.00000
      7     -12.9625      1.00000
      8      -1.4748      1.00000
      9      -1.4730      1.00000
     10      -1.4204      1.00000
     11      -1.2108      1.00000
     12      -0.8999      1.00000
     13      -0.5320      1.00000
     14      -0.5301      1.00000
     15       0.9830      1.00000
     16       1.0826      1.00000
     17       1.0842      1.00000
     18       1.4627      1.00000
     19       1.4646      1.00000
     20       1.5007      1.00000
     21       1.5225      1.00000
     22       1.6849      1.00000
     23       1.6862      1.00000
     24       1.9828      1.00000
     25       2.1547      1.00000
     26       2.1552      1.00000
     27       2.4107      1.00000
     28       2.4114      1.00000
     29       3.8552      1.00000
     30       8.6884      0.00000
     31       9.7474      0.00000
     32      10.3207      0.00000
     33      10.3235      0.00000
     34      11.1830      0.00000
     35      11.4380      0.00000
     36      11.4396      0.00000
     37      12.4064      0.00000
     38      12.4075      0.00000
     39      12.7497      0.00000
     40      13.0476      0.00000
     41      13.4047      0.00000
     42      13.4053      0.00000
     43      14.9998      0.00000
     44      15.1640      0.00000

 k-point     3 :       0.0000    0.0000   -0.2500
  band No.  band energies     occupation 
      1     -14.2390      1.00000
      2     -13.4758      1.00000
      3     -13.2899      1.00000
      4     -13.1365      1.00000
      5     -13.1349      1.00000
      6     -12.9636      1.00000
      7     -12.9619      1.00000
      8      -1.4751      1.00000
      9      -1.4715      1.00000
     10      -1.4210      1.00000
     11      -1.2108      1.00000
     12      -0.8993      1.00000
     13      -0.5338      1.00000
     14      -0.5298      1.00000
     15       0.9826      1.00000
     16       1.0801      1.00000
     17       1.0858      1.00000
     18       1.4631      1.00000
     19       1.4658      1.00000
     20       1.5008      1.00000
     21       1.5220      1.00000
     22       1.6837      1.00000
     23       1.6876      1.00000
     24       1.9826      1.00000
     25       2.1538      1.00000
     26       2.1553      1.00000
     27       2.4110      1.00000
     28       2.4120      1.00000
     29       3.8553      1.00000
     30       8.6890      0.00000
     31       9.7478      0.00000
     32      10.3184      0.00000
     33      10.3247      0.00000
     34      11.1823      0.00000
     35      11.4341      0.00000
     36      11.4440      0.00000
     37      12.4061      0.00000
     38      12.4076      0.00000
     39      12.7494      0.00000
     40      13.0486      0.00000
     41      13.4039      0.00000
     42      13.4061      0.00000
     43      14.9997      0.00000
     44      15.1636      0.00000

 k-point     4 :       0.0000    0.2500    0.0000
  band No.  band energies     occupation 
      1     -14.2390      1.00000
      2     -13.4757      1.00000
      3     -13.2900      1.00000
      4     -13.1361      1.00000
      5     -13.1352      1.00000
      6     -12.9632      1.00000
      7     -12.9623      1.00000
      8      -1.4749      1.00000
      9      -1.4720      1.00000
     10      -1.4209      1.00000
     11      -1.2107      1.00000
     12      -0.8994      1.00000
     13      -0.5335      1.00000
     14      -0.5299      1.00000
     15       0.9828      1.00000
     16       1.0815      1.00000
     17       1.0847      1.00000
     18       1.4631      1.00000
     19       1.4653      1.00000
     20       1.5008      1.00000
     21       1.5222      1.00000
     22       1.6846      1.00000
     23       1.6867      1.00000
     24       1.9827      1.00000
     25       2.1539      1.00000
     26       2.1553      1.00000
     27       2.4107      1.00000
     28       2.4122      1.00000
     29       3.8553      1.00000
     30       8.6889      0.00000
     31       9.7477      0.00000
     32      10.3191      0.00000
     33      10.3244      0.00000
     34      11.1825      0.00000
     35      11.4357      0.00000
     36      11.4422      0.00000
     37      12.4062      0.00000
     38      12.4073      0.00000
     39      12.7494      0.00000
     40      13.0483      0.00000
     41      13.4044      0.00000
     42      13.4057      0.00000
     43      14.9998      0.00000
     44      15.1632      0.00000

 k-point     5 :      -0.2500    0.2500    0.2500
  band No.  band energies     occupation 
      1     -13.9959      1.00000
      2     -13.5740      1.00000
      3     -13.4102      1.00000
      4     -13.1795      1.00000
      5     -13.1368      1.00000
      6     -13.0536      1.00000
      7     -12.9277      1.00000
      8      -1.1371      1.00000
      9      -0.9777      1.00000
     10      -0.9241      1.00000
     11      -0.6804      1.00000
     12      -0.5283      1.00000
     13      -0.2256      1.00000
     14      -0.0533      1.00000
     15       0.3169      1.00000
     16       0.4249      1.00000
     17       0.4518      1.00000
     18       0.8386      1.00000
     19       1.0734      1.00000
     20       1.1750      1.00000
     21       1.4172      1.00000
     22       1.4759      1.00000
     23       1.6805      1.00000
     24       1.7256      1.00000
     25       1.8961      1.00000
     26       2.0873      1.00000
     27       2.1194      1.00000
     28       2.2374      1.00000
     29       4.8998      0.66772
     30       8.2957      0.00000
     31       9.2324      0.00000
     32       9.6768      0.00000
     33      10.8271      0.00000
     34      11.7086      0.00000
     35      12.3776      0.00000
     36      12.6208      0.00000
     37      12.7338      0.00000
     38      13.3955      0.00000
     39      13.4712      0.00000
     40      14.1978      0.00000
     41      14.2405      0.00000
     42      14.3016      0.00000
     43      14.5829      0.00000
     44      14.7922      0.00000

 k-point     6 :       0.2500   -0.2500    0.2500
  band No.  band energies     occupation 
      1     -13.9956      1.00000
      2     -13.5746      1.00000
      3     -13.4102      1.00000
      4     -13.1793      1.00000
      5     -13.1364      1.00000
      6     -13.0543      1.00000
      7     -12.9274      1.00000
      8      -1.1363      1.00000
      9      -0.9763      1.00000
     10      -0.9239      1.00000
     11      -0.6816      1.00000
     12      -0.5276      1.00000
     13      -0.2256      1.00000
     14      -0.0551      1.00000
     15       0.3153      1.00000
     16       0.4241      1.00000
     17       0.4515      1.00000
     18       0.8380      1.00000
     19       1.0746      1.00000
     20       1.1744      1.00000
     21       1.4160      1.00000
     22       1.4768      1.00000
     23       1.6826      1.00000
     24       1.7249      1.00000
     25       1.8969      1.00000
     26       2.0872      1.00000
     27       2.1195      1.00000
     28       2.2382      1.00000
     29       4.8998      0.66715
     30       8.2959      0.00000
     31       9.2316      0.00000
     32       9.6778      0.00000
     33      10.8262      0.00000
     34      11.7085      0.00000
     35      12.3774      0.00000
     36      12.6210      0.00000
     37      12.7345      0.00000
     38      13.3958      0.00000
     39      13.4707      0.00000
     40      14.1985      0.00000
     41      14.2404      0.00000
     42      14.3003      0.00000
     43      14.5825      0.00000
     44      14.7922      0.00000

 k-point     7 :       0.2500    0.2500   -0.2500
  band No.  band energies     occupation 
      1     -13.9956      1.00000
      2     -13.5747      1.00000
      3     -13.4101      1.00000
      4     -13.1793      1.00000
      5     -13.1361      1.00000
      6     -13.0543      1.00000
      7     -12.9275      1.00000
      8      -1.1363      1.00000
      9      -0.9761      1.00000
     10      -0.9238      1.00000
     11      -0.6817      1.00000
     12      -0.5277      1.00000
     13      -0.2257      1.00000
     14      -0.0552      1.00000
     15       0.3152      1.00000
     16       0.4240      1.00000
     17       0.4517      1.00000
     18       0.8383      1.00000
     19       1.0747      1.00000
     20       1.1746      1.00000
     21       1.4159      1.00000
     22       1.4765      1.00000
     23       1.6828      1.00000
     24       1.7248      1.00000
     25       1.8968      1.00000
     26       2.0872      1.00000
     27       2.1194      1.00000
     28       2.2381      1.00000
     29       4.8999      0.66695
     30       8.2962      0.00000
     31       9.2316      0.00000
     32       9.6772      0.00000
     33      10.8264      0.00000
     34      11.7082      0.00000
     35      12.3774      0.00000
     36      12.6210      0.00000
     37      12.7347      0.00000
     38      13.3959      0.00000
     39      13.4706      0.00000
     40      14.1984      0.00000
     41      14.2407      0.00000
     42      14.3005      0.00000
     43      14.5825      0.00000
     44      14.7919      0.00000

 k-point     8 :       0.2500    0.0000    0.5000
  band No.  band energies     occupation 
      1     -13.9955      1.00000
      2     -13.5760      1.00000
      3     -13.4077      1.00000
      4     -13.1793      1.00000
      5     -13.1392      1.00000
      6     -13.0526      1.00000
      7     -12.9274      1.00000
      8      -1.1355      1.00000
      9      -0.9785      1.00000
     10      -0.9227      1.00000
     11      -0.6811      1.00000
     12      -0.5270      1.00000
     13      -0.2270      1.00000
     14      -0.0530      1.00000
     15       0.3124      1.00000
     16       0.4242      1.00000
     17       0.4527      1.00000
     18       0.8358      1.00000
     19       1.0762      1.00000
     20       1.1733      1.00000
     21       1.4166      1.00000
     22       1.4801      1.00000
     23       1.6804      1.00000
     24       1.7256      1.00000
     25       1.8969      1.00000
     26       2.0883      1.00000
     27       2.1163      1.00000
     28       2.2396      1.00000
     29       4.8999      0.66645
     30       8.2965      0.00000
     31       9.2291      0.00000
     32       9.6795      0.00000
     33      10.8263      0.00000
     34      11.7081      0.00000
     35      12.3777      0.00000
     36      12.6236      0.00000
     37      12.7321      0.00000
     38      13.3965      0.00000
     39      13.4701      0.00000
     40      14.1992      0.00000
     41      14.2401      0.00000
     42      14.3003      0.00000
     43      14.5812      0.00000
     44      14.7937      0.00000

 k-point     9 :      -0.2500    0.5000    0.5000
  band No.  band energies     occupation 
      1     -13.9949      1.00000
      2     -13.5780      1.00000
      3     -13.4072      1.00000
      4     -13.1796      1.00000
      5     -13.1366      1.00000
      6     -13.0538      1.00000
      7     -12.9277      1.00000
      8      -1.1350      1.00000
      9      -0.9769      1.00000
     10      -0.9219      1.00000
     11      -0.6832      1.00000
     12      -0.5264      1.00000
     13      -0.2283      1.00000
     14      -0.0550      1.00000
     15       0.3121      1.00000
     16       0.4235      1.00000
     17       0.4525      1.00000
     18       0.8381      1.00000
     19       1.0768      1.00000
     20       1.1762      1.00000
     21       1.4163      1.00000
     22       1.4779      1.00000
     23       1.6819      1.00000
     24       1.7254      1.00000
     25       1.8962      1.00000
     26       2.0878      1.00000
     27       2.1142      1.00000
     28       2.2411      1.00000
     29       4.9000      0.66577
     30       8.2990      0.00000
     31       9.2294      0.00000
     32       9.6766      0.00000
     33      10.8276      0.00000
     34      11.7062      0.00000
     35      12.3771      0.00000
     36      12.6239      0.00000
     37      12.7339      0.00000
     38      13.3953      0.00000
     39      13.4701      0.00000
     40      14.1980      0.00000
     41      14.2400      0.00000
     42      14.3006      0.00000
     43      14.5815      0.00000
     44      14.7924      0.00000

 k-point    10 :       0.2500    0.5000    0.0000
  band No.  band energies     occupation 
      1     -13.9955      1.00000
      2     -13.5759      1.00000
      3     -13.4077      1.00000
      4     -13.1793      1.00000
      5     -13.1393      1.00000
      6     -13.0525      1.00000
      7     -12.9275      1.00000
      8      -1.1355      1.00000
      9      -0.9788      1.00000
     10      -0.9229      1.00000
     11      -0.6810      1.00000
     12      -0.5272      1.00000
     13      -0.2272      1.00000
     14      -0.0526      1.00000
     15       0.3134      1.00000
     16       0.4246      1.00000
     17       0.4526      1.00000
     18       0.8361      1.00000
     19       1.0753      1.00000
     20       1.1736      1.00000
     21       1.4171      1.00000
     22       1.4793      1.00000
     23       1.6802      1.00000
     24       1.7259      1.00000
     25       1.8965      1.00000
     26       2.0884      1.00000
     27       2.1155      1.00000
     28       2.2403      1.00000
     29       4.8999      0.66626
     30       8.2960      0.00000
     31       9.2296      0.00000
     32       9.6797      0.00000
     33      10.8264      0.00000
     34      11.7081      0.00000
     35      12.3776      0.00000
     36      12.6234      0.00000
     37      12.7320      0.00000
     38      13.3960      0.00000
     39      13.4698      0.00000
     40      14.1996      0.00000
     41      14.2400      0.00000
     42      14.3012      0.00000
     43      14.5813      0.00000
     44      14.7938      0.00000

 k-point    11 :       0.0000    0.5000   -0.2500
  band No.  band energies     occupation 
      1     -13.9956      1.00000
      2     -13.5756      1.00000
      3     -13.4085      1.00000
      4     -13.1795      1.00000
      5     -13.1379      1.00000
      6     -13.0530      1.00000
      7     -12.9277      1.00000
      8      -1.1365      1.00000
      9      -0.9783      1.00000
     10      -0.9229      1.00000
     11      -0.6810      1.00000
     12      -0.5274      1.00000
     13      -0.2266      1.00000
     14      -0.0532      1.00000
     15       0.3139      1.00000
     16       0.4245      1.00000
     17       0.4527      1.00000
     18       0.8374      1.00000
     19       1.0756      1.00000
     20       1.1748      1.00000
     21       1.4168      1.00000
     22       1.4784      1.00000
     23       1.6798      1.00000
     24       1.7257      1.00000
     25       1.8966      1.00000
     26       2.0877      1.00000
     27       2.1171      1.00000
     28       2.2381      1.00000
     29       4.8998      0.66745
     30       8.2973      0.00000
     31       9.2305      0.00000
     32       9.6770      0.00000
     33      10.8272      0.00000
     34      11.7081      0.00000
     35      12.3777      0.00000
     36      12.6227      0.00000
     37      12.7328      0.00000
     38      13.3958      0.00000
     39      13.4709      0.00000
     40      14.1980      0.00000
     41      14.2396      0.00000
     42      14.3003      0.00000
     43      14.5820      0.00000
     44      14.7927      0.00000

 k-point    12 :       0.5000    0.0000   -0.2500
  band No.  band energies     occupation 
      1     -13.9958      1.00000
      2     -13.5747      1.00000
      3     -13.4087      1.00000
      4     -13.1792      1.00000
      5     -13.1393      1.00000
      6     -13.0525      1.00000
      7     -12.9274      1.00000
      8      -1.1363      1.00000
      9      -0.9787      1.00000
     10      -0.9236      1.00000
     11      -0.6802      1.00000
     12      -0.5275      1.00000
     13      -0.2260      1.00000
     14      -0.0525      1.00000
     15       0.3141      1.00000
     16       0.4247      1.00000
     17       0.4525      1.00000
     18       0.8358      1.00000
     19       1.0749      1.00000
     20       1.1730      1.00000
     21       1.4170      1.00000
     22       1.4793      1.00000
     23       1.6800      1.00000
     24       1.7257      1.00000
     25       1.8971      1.00000
     26       2.0882      1.00000
     27       2.1176      1.00000
     28       2.2385      1.00000
     29       4.8998      0.66745
     30       8.2953      0.00000
     31       9.2303      0.00000
     32       9.6796      0.00000
     33      10.8259      0.00000
     34      11.7091      0.00000
     35      12.3779      0.00000
     36      12.6223      0.00000
     37      12.7320      0.00000
     38      13.3964      0.00000
     39      13.4704      0.00000
     40      14.1990      0.00000
     41      14.2400      0.00000
     42      14.3007      0.00000
     43      14.5817      0.00000
     44      14.7936      0.00000

 k-point    13 :       0.5000    0.5000    0.2500
  band No.  band energies     occupation 
      1     -13.9949      1.00000
      2     -13.5774      1.00000
      3     -13.4081      1.00000
      4     -13.1793      1.00000
      5     -13.1360      1.00000
      6     -13.0545      1.00000
      7     -12.9275      1.00000
      8      -1.1345      1.00000
      9      -0.9756      1.00000
     10      -0.9228      1.00000
     11      -0.6836      1.00000
     12      -0.5265      1.00000
     13      -0.2280      1.00000
     14      -0.0561      1.00000
     15       0.3131      1.00000
     16       0.4233      1.00000
     17       0.4520      1.00000
     18       0.8382      1.00000
     19       1.0757      1.00000
     20       1.1757      1.00000
     21       1.4158      1.00000
     22       1.4767      1.00000
     23       1.6842      1.00000
     24       1.7251      1.00000
     25       1.8963      1.00000
     26       2.0877      1.00000
     27       2.1144      1.00000
     28       2.2422      1.00000
     29       4.9000      0.66519
     30       8.2976      0.00000
     31       9.2304      0.00000
     32       9.6774      0.00000
     33      10.8267      0.00000
     34      11.7067      0.00000
     35      12.3773      0.00000
     36      12.6225      0.00000
     37      12.7346      0.00000
     38      13.3954      0.00000
     39      13.4691      0.00000
     40      14.1990      0.00000
     41      14.2408      0.00000
     42      14.3013      0.00000
     43      14.5818      0.00000
     44      14.7920      0.00000

 k-point    14 :       0.5000   -0.2500    0.5000
  band No.  band energies     occupation 
      1     -13.9949      1.00000
      2     -13.5775      1.00000
      3     -13.4079      1.00000
      4     -13.1793      1.00000
      5     -13.1363      1.00000
      6     -13.0544      1.00000
      7     -12.9274      1.00000
      8      -1.1344      1.00000
      9      -0.9758      1.00000
     10      -0.9226      1.00000
     11      -0.6836      1.00000
     12      -0.5264      1.00000
     13      -0.2280      1.00000
     14      -0.0560      1.00000
     15       0.3128      1.00000
     16       0.4234      1.00000
     17       0.4518      1.00000
     18       0.8379      1.00000
     19       1.0759      1.00000
     20       1.1754      1.00000
     21       1.4158      1.00000
     22       1.4771      1.00000
     23       1.6841      1.00000
     24       1.7251      1.00000
     25       1.8964      1.00000
     26       2.0879      1.00000
     27       2.1145      1.00000
     28       2.2422      1.00000
     29       4.9000      0.66512
     30       8.2975      0.00000
     31       9.2301      0.00000
     32       9.6779      0.00000
     33      10.8265      0.00000
     34      11.7067      0.00000
     35      12.3772      0.00000
     36      12.6228      0.00000
     37      12.7345      0.00000
     38      13.3955      0.00000
     39      13.4692      0.00000
     40      14.1992      0.00000
     41      14.2407      0.00000
     42      14.3010      0.00000
     43      14.5817      0.00000
     44      14.7922      0.00000

 k-point    15 :       0.0000    0.2500    0.5000
  band No.  band energies     occupation 
      1     -13.9955      1.00000
      2     -13.5758      1.00000
      3     -13.4083      1.00000
      4     -13.1795      1.00000
      5     -13.1379      1.00000
      6     -13.0530      1.00000
      7     -12.9277      1.00000
      8      -1.1361      1.00000
      9      -0.9783      1.00000
     10      -0.9230      1.00000
     11      -0.6811      1.00000
     12      -0.5276      1.00000
     13      -0.2272      1.00000
     14      -0.0531      1.00000
     15       0.3143      1.00000
     16       0.4247      1.00000
     17       0.4526      1.00000
     18       0.8377      1.00000
     19       1.0750      1.00000
     20       1.1750      1.00000
     21       1.4170      1.00000
     22       1.4777      1.00000
     23       1.6802      1.00000
     24       1.7259      1.00000
     25       1.8961      1.00000
     26       2.0880      1.00000
     27       2.1162      1.00000
     28       2.2392      1.00000
     29       4.8999      0.66654
     30       8.2969      0.00000
     31       9.2307      0.00000
     32       9.6772      0.00000
     33      10.8274      0.00000
     34      11.7076      0.00000
     35      12.3776      0.00000
     36      12.6229      0.00000
     37      12.7328      0.00000
     38      13.3956      0.00000
     39      13.4705      0.00000
     40      14.1985      0.00000
     41      14.2405      0.00000
     42      14.3013      0.00000
     43      14.5821      0.00000
     44      14.7927      0.00000

 k-point    16 :       0.5000    0.2500    0.0000
  band No.  band energies     occupation 
      1     -13.9958      1.00000
      2     -13.5748      1.00000
      3     -13.4086      1.00000
      4     -13.1793      1.00000
      5     -13.1394      1.00000
      6     -13.0524      1.00000
      7     -12.9275      1.00000
      8      -1.1366      1.00000
      9      -0.9790      1.00000
     10      -0.9231      1.00000
     11      -0.6801      1.00000
     12      -0.5274      1.00000
     13      -0.2257      1.00000
     14      -0.0524      1.00000
     15       0.3133      1.00000
     16       0.4246      1.00000
     17       0.4526      1.00000
     18       0.8356      1.00000
     19       1.0757      1.00000
     20       1.1730      1.00000
     21       1.4169      1.00000
     22       1.4801      1.00000
     23       1.6792      1.00000
     24       1.7256      1.00000
     25       1.8973      1.00000
     26       2.0881      1.00000
     27       2.1184      1.00000
[...]
     43      14.5977      0.00000
     44      14.8117      0.00000

 k-point    15 :       0.0000    0.2500    0.5000
  band No.  band energies     occupation 
      1     -13.9863      1.00000
      2     -13.5515      1.00000
      3     -13.3826      1.00000
      4     -13.1497      1.00000
      5     -13.1096      1.00000
      6     -13.0235      1.00000
      7     -12.8970      1.00000
      8      -1.0393      1.00000
      9      -0.9732      1.00000
     10      -0.9002      1.00000
     11      -0.6510      1.00000
     12      -0.5072      1.00000
     13      -0.2036      1.00000
     14      -0.0054      1.00000
     15       0.3298      1.00000
     16       0.4492      1.00000
     17       0.4895      1.00000
     18       0.8669      1.00000
     19       1.1073      1.00000
     20       1.2008      1.00000
     21       1.4478      1.00000
     22       1.4922      1.00000
     23       1.6913      1.00000
     24       1.7467      1.00000
     25       1.9293      1.00000
     26       2.1069      1.00000
     27       2.1378      1.00000
     28       2.2598      1.00000
     29       5.6701      0.00000
     30       8.6033      0.00000
     31       9.5603      0.00000
     32      10.0320      0.00000
     33      10.9147      0.00000
     34      11.7948      0.00000
     35      12.4168      0.00000
     36      12.6798      0.00000
     37      12.7805      0.00000
     38      13.4616      0.00000
     39      13.5306      0.00000
     40      14.2220      0.00000
     41      14.3122      0.00000
     42      14.3521      0.00000
     43      14.5980      0.00000
     44      14.8120      0.00000

 k-point    16 :       0.5000    0.2500    0.0000
  band No.  band energies     occupation 
      1     -13.9866      1.00000
      2     -13.5504      1.00000
      3     -13.3829      1.00000
      4     -13.1495      1.00000
      5     -13.1111      1.00000
      6     -13.0229      1.00000
      7     -12.8967      1.00000
      8      -1.0399      1.00000
      9      -0.9740      1.00000
     10      -0.9000      1.00000
     11      -0.6502      1.00000
     12      -0.5069      1.00000
     13      -0.2020      1.00000
     14      -0.0048      1.00000
     15       0.3288      1.00000
     16       0.4491      1.00000
     17       0.4896      1.00000
     18       0.8646      1.00000
     19       1.1081      1.00000
     20       1.1988      1.00000
     21       1.4476      1.00000
     22       1.4947      1.00000
     23       1.6903      1.00000
     24       1.7464      1.00000
     25       1.9306      1.00000
     26       2.1071      1.00000
     27       2.1401      1.00000
     28       2.2580      1.00000
     29       5.6700      0.00000
     30       8.6026      0.00000
     31       9.5593      0.00000
     32      10.0340      0.00000
     33      10.9133      0.00000
     34      11.7962      0.00000
     35      12.4173      0.00000
     36      12.6793      0.00000
     37      12.7797      0.00000
     38      13.4625      0.00000
     39      13.5313      0.00000
     40      14.2226      0.00000
     41      14.3106      0.00000
     42      14.3507      0.00000
     43      14.5972      0.00000
     44      14.8133      0.00000


--------------------------------------------------------------------------------------------------------


 soft charge-density along one line, spin component           1
         0         1         2         3         4         5         6         7         8         9
 total charge-density along one line
 
 soft charge-density along one line, spin component           2
         0         1         2         3         4         5         6         7         8         9
 total charge-density along one line
 
 pseudopotential strength for first ion, spin component:           1
  2.971   9.437  -0.000  -0.000  -0.000  -0.000  -0.000  -0.000
  9.437  29.824  -0.000  -0.000  -0.000  -0.000  -0.000  -0.000
 -0.000  -0.000   7.294  -0.000   0.000  10.565  -0.000   0.000
 -0.000  -0.000  -0.000   7.294  -0.000  -0.000  10.565  -0.000
 -0.000  -0.000   0.000  -0.000   7.294   0.000  -0.000  10.565
 -0.000  -0.000  10.565  -0.000   0.000  14.522  -0.000   0.000
 -0.000  -0.000  -0.000  10.565  -0.000  -0.000  14.522  -0.000
 -0.000  -0.000   0.000  -0.000  10.565   0.000  -0.000  14.522
  0.000   0.000  -0.000  -0.000  -0.000  -0.000  -0.000  -0.000
 -0.000  -0.000  -0.000  -0.000  -0.000  -0.000  -0.000  -0.000
  0.000   0.000   0.000  -0.000   0.000   0.000  -0.000   0.000
 -0.000  -0.000  -0.000  -0.000  -0.000  -0.000  -0.000  -0.000
 -0.000  -0.000   0.000  -0.000  -0.000   0.000  -0.000  -0.000
 pseudopotential strength for first ion, spin component:           2
  2.971   9.437  -0.000  -0.000  -0.000  -0.000  -0.000  -0.000
  9.437  29.824  -0.000  -0.000  -0.000  -0.000  -0.000  -0.000
 -0.000  -0.000   7.294  -0.000   0.000  10.565  -0.000   0.000
 -0.000  -0.000  -0.000   7.294  -0.000  -0.000  10.565  -0.000
 -0.000  -0.000   0.000  -0.000   7.294   0.000  -0.000  10.565
 -0.000  -0.000  10.565  -0.000   0.000  14.522  -0.000   0.000
 -0.000  -0.000  -0.000  10.565  -0.000  -0.000  14.522  -0.000
 -0.000  -0.000   0.000  -0.000  10.565   0.000  -0.000  14.522
  0.000   0.000  -0.000  -0.000  -0.000  -0.000  -0.000  -0.000
 -0.000  -0.000  -0.000  -0.000  -0.000  -0.000  -0.000  -0.000
  0.000   0.000   0.000  -0.000   0.000   0.000  -0.000   0.000
 -0.000  -0.000  -0.000  -0.000  -0.000  -0.000  -0.000  -0.000
 -0.000  -0.000   0.000  -0.000  -0.000   0.000  -0.000  -0.000
 total augmentation occupancy for first ion, spin component:           1
  0.962  -0.045  -0.000   0.000   0.000   0.000  -0.000   0.000  -0.000   0.000  -0.000   0.000  -0.000
 -0.045   0.002   0.000  -0.000   0.000  -0.000   0.000  -0.000   0.000  -0.000   0.000  -0.000   0.000
 -0.000   0.000   0.111   0.000  -0.000  -0.012   0.000   0.000   0.000  -0.000   0.000  -0.000   0.000
  0.000  -0.000   0.000   0.111   0.000   0.000  -0.012   0.000  -0.000   0.000   0.000  -0.000   0.000
  0.000   0.000  -0.000   0.000   0.111   0.000   0.000  -0.012  -0.000  -0.000  -0.000   0.000   0.000
  0.000  -0.000  -0.012   0.000   0.000   0.001  -0.000  -0.000  -0.000   0.000  -0.000   0.000  -0.000
 -0.000   0.000   0.000  -0.012   0.000  -0.000   0.001  -0.000   0.000  -0.000  -0.000   0.000  -0.000
  0.000  -0.000   0.000   0.000  -0.012  -0.000  -0.000   0.001   0.000   0.000   0.000  -0.000  -0.000
 -0.000   0.000   0.000  -0.000  -0.000  -0.000   0.000   0.000   0.012  -0.000   0.000  -0.000   0.000
  0.000  -0.000  -0.000   0.000  -0.000   0.000  -0.000   0.000  -0.000   0.012  -0.000  -0.000  -0.000
 -0.000   0.000   0.000   0.000  -0.000  -0.000  -0.000   0.000   0.000  -0.000   0.048   0.000  -0.000
  0.000  -0.000  -0.000  -0.000   0.000   0.000   0.000  -0.000  -0.000  -0.000   0.000   0.012  -0.000
 -0.000   0.000   0.000   0.000   0.000  -0.000  -0.000  -0.000   0.000  -0.000  -0.000  -0.000   0.048
 total augmentation occupancy for first ion, spin component:           2
 -0.002   0.000   0.000  -0.000   0.000  -0.000   0.000  -0.000  -0.000   0.000   0.000   0.000  -0.000
  0.000  -0.000  -0.000   0.000  -0.000   0.000  -0.000   0.000   0.000  -0.000  -0.000  -0.000   0.000
  0.000  -0.000  -0.000   0.000  -0.000   0.000  -0.000   0.000  -0.000  -0.000  -0.000  -0.000  -0.000
 -0.000   0.000   0.000  -0.000   0.000  -0.000   0.000  -0.000  -0.000  -0.000   0.000   0.000  -0.000
  0.000  -0.000  -0.000   0.000  -0.000   0.000  -0.000   0.000   0.000  -0.000  -0.000  -0.000   0.000
 -0.000   0.000   0.000  -0.000   0.000  -0.000   0.000  -0.000  -0.000   0.000   0.000   0.000   0.000
  0.000  -0.000  -0.000   0.000  -0.000   0.000  -0.000   0.000   0.000  -0.000  -0.000  -0.000   0.000
 -0.000   0.000   0.000  -0.000   0.000  -0.000   0.000  -0.000  -0.000   0.000   0.000   0.000  -0.000
 -0.000   0.000  -0.000  -0.000   0.000  -0.000   0.000  -0.000  -0.000   0.000   0.000   0.000  -0.000
  0.000  -0.000  -0.000  -0.000  -0.000   0.000  -0.000   0.000   0.000  -0.000   0.000   0.000   0.000
  0.000  -0.000  -0.000   0.000  -0.000   0.000  -0.000   0.000   0.000   0.000  -0.000  -0.000   0.000
  0.000  -0.000  -0.000   0.000  -0.000   0.000  -0.000   0.000   0.000   0.000  -0.000  -0.000   0.000
 -0.000   0.000  -0.000  -0.000   0.000   0.000   0.000  -0.000  -0.000   0.000   0.000   0.000  -0.000


------------------------ aborting loop because EDIFF is reached ----------------------------------------


 


 total charge     
 
# of ion     s       p       d       tot
----------------------------------------
  1        0.140   0.165   0.072   0.377
  2        0.148   0.164   0.066   0.378
  3        0.149   0.164   0.066   0.379
  4        0.148   0.164   0.066   0.378
  5        0.148   0.164   0.066   0.379
  6        0.148   0.164   0.066   0.379
  7        0.149   0.164   0.066   0.379
  8        0.140   0.165   0.072   0.377
  9        1.570   3.525   0.000   5.095
 10        1.570   3.525   0.000   5.095
 11        1.570   3.525   0.000   5.096
 12        1.570   3.525   0.000   5.095
 13        1.570   3.525   0.000   5.096
 14        1.570   3.525   0.000   5.096
 15        1.568   3.597   0.000   5.164
------------------------------------------------
tot       12.160  26.061   0.541  38.763
 


 magnetization (x)
 
# of ion     s       p       d       tot
----------------------------------------
  1       -0.000  -0.000  -0.000  -0.001
  2        0.002   0.004   0.002   0.008
  3        0.002   0.004   0.002   0.008
  4        0.002   0.004   0.002   0.008
  5        0.002   0.004   0.002   0.008
  6        0.002   0.004   0.002   0.008
  7        0.002   0.004   0.002   0.008
  8       -0.000  -0.000  -0.000  -0.001
  9        0.001   0.017   0.000   0.018
 10        0.001   0.017   0.000   0.018
 11        0.001   0.017   0.000   0.018
 12        0.001   0.017   0.000   0.018
 13        0.001   0.017   0.000   0.018
 14        0.001   0.017   0.000   0.018
 15       -0.000  -0.000   0.000  -0.000
------------------------------------------------
tot        0.016   0.126   0.011   0.153
 
    CHARGE:  cpu time    0.0200: real time    0.0180
    FORLOC:  cpu time    0.0000: real time    0.0006
    FORNL :  cpu time    0.1080: real time    0.1099
    STRESS:  cpu time    0.3320: real time    0.3313
    FORCOR:  cpu time    0.0080: real time    0.0086
    FORHAR:  cpu time    0.0040: real time    0.0015
    MIXING:  cpu time    0.0000: real time    0.0005
    OFIELD:  cpu time    0.0000: real time    0.0000

  FORCE on cell =-STRESS in cart. coord.  units (eV):
  Direction    XX          YY          ZZ          XY          YZ          ZX
  --------------------------------------------------------------------------------------
  Alpha Z   129.53385   129.53385   129.53385
  Ewald    -788.27237  -787.79794  -787.87988     0.06476     0.01158     0.04736
  Hartree   376.52567   376.54751   376.54277     0.01253     0.00167     0.00967
  E(xc)    -255.91082  -255.91556  -255.91480    -0.00109    -0.00105    -0.00107
  Local    -383.47287  -383.93473  -383.85384    -0.06492    -0.00401    -0.04508
  n-local  -125.95998  -125.93824  -125.92857     0.00711     0.00507     0.00221
  augment    47.34773    47.34599    47.34638     0.00040     0.00062     0.00017
  Kinetic   990.76518   990.75182   990.75423    -0.00111     0.00619     0.00138
  Fock        0.00000     0.00000     0.00000     0.00000     0.00000     0.00000
  -------------------------------------------------------------------------------------
  Total      -9.44361    -9.40729    -9.39985     0.01768     0.02007     0.01465
  in kB     -98.76538   -98.38554   -98.30772     0.18494     0.20989     0.15326
  external pressure =      -98.49 kB  Pullay stress =        0.00 kB


 VOLUME and BASIS-vectors are now :
 -----------------------------------------------------------------------------
  energy-cutoff  :      400.00
  volume of cell :      153.19
      direct lattice vectors                 reciprocal lattice vectors
     0.000000000  4.246893000  4.246893000    -0.117733129  0.117733129  0.117733129
     4.246893000  0.000000000  4.246893000     0.117733129 -0.117733129  0.117733129
     4.246893000  4.246893000  0.000000000     0.117733129  0.117733129 -0.117733129

  length of vectors
     6.006013679  6.006013679  6.006013679     0.203919761  0.203919761  0.203919761


 FORCES acting on ions
    electron-ion (+dipol)            ewald-force                    non-local-force                 convergence-correction
 -----------------------------------------------------------------------------------------------
   0.276E-01 -.288E-01 0.249E-01   -.210E-01 0.311E-01 -.197E-01   -.589E-02 0.672E-02 -.505E-02   -.569E-05 -.328E-05 -.349E-05
   0.180E-01 0.570E-01 -.338E+02   -.268E-01 -.516E-01 0.324E+02   -.166E-01 -.604E-02 0.144E+01   0.463E-05 0.187E-05 -.326E-03
   0.160E+00 -.339E+02 -.466E-01   -.142E+00 0.324E+02 0.427E-01   -.250E-01 0.147E+01 0.801E-02   0.308E-05 -.323E-03 0.473E-05
   0.338E+02 -.453E-01 0.795E-01   -.324E+02 0.407E-01 -.593E-01   -.142E+01 0.442E-02 -.151E-01   0.325E-03 -.342E-05 -.235E-05
   -.338E+02 -.216E-01 -.104E+00   0.324E+02 0.927E-02 0.918E-01   0.145E+01 0.320E-02 0.250E-01   -.326E-03 0.503E-06 0.481E-05
   0.108E+00 0.338E+02 -.125E+00   -.867E-01 -.324E+02 0.115E+00   -.163E-01 -.145E+01 0.258E-01   -.906E-06 0.326E-03 -.287E-05
   -.199E+00 0.140E+00 0.339E+02   0.173E+00 -.121E+00 -.324E+02   0.315E-01 -.237E-01 -.148E+01   -.387E-05 -.512E-05 0.324E-03
   0.570E-01 0.160E-01 0.488E-01   -.498E-01 -.167E-01 -.508E-01   -.130E-01 -.529E-02 -.936E-02   0.284E-05 0.562E-05 0.157E-05
   0.467E-01 0.594E-01 -.604E-01   -.700E-01 -.258E-02 0.758E-01   0.267E-01 -.519E-01 -.142E-01   -.569E-04 0.466E-04 0.320E-04
   -.157E+00 0.258E-01 0.555E-01   0.210E+00 -.244E-01 -.117E+00   -.598E-01 -.137E-02 0.503E-01   0.571E-04 -.501E-05 -.102E-03
   -.472E-01 0.761E-01 -.527E-01   0.484E-01 -.618E-01 0.895E-02   0.374E-02 -.416E-02 0.369E-01   0.267E-04 0.442E-04 -.476E-04
   -.474E-01 -.109E+00 0.158E+00   0.489E-01 0.949E-01 -.163E+00   0.396E-02 0.195E-01 0.790E-02   0.457E-04 0.520E-04 -.966E-05
   -.546E-01 0.275E-01 0.203E+00   0.823E-01 -.268E-01 -.194E+00   -.520E-01 -.703E-03 0.101E-01   -.825E-04 -.198E-04 0.588E-04
   0.751E-01 -.237E+00 -.705E-01   -.649E-01 0.220E+00 0.868E-01   0.978E-02 -.172E-02 -.143E-01   0.755E-04 -.387E-04 0.176E-04
   0.115E+00 0.122E+00 -.187E+00   -.152E+00 -.147E+00 0.238E+00   0.274E-01 0.159E-01 -.405E-01   -.794E-04 -.814E-04 0.746E-04
 -----------------------------------------------------------------------------------------------
   0.448E-01 0.212E-01 -.175E-01   -.749E-15 0.222E-15 0.663E-14   -.549E-01 -.221E-01 0.271E-01   -.143E-04 -.276E-05 0.244E-04
 
 
 POSITION                                       TOTAL-FORCE (eV/Angst)
 -----------------------------------------------------------------------------------
      4.23911      4.24303      0.00640         0.001408      0.009057     -0.000567
      6.36630      6.36564      8.42571        -0.024692     -0.000607      0.011335
      6.36198      8.41291      6.37704        -0.007150      0.041832      0.003520
      4.31144      6.36753      6.37776         0.002374     -0.000092      0.004492
      8.41173      6.36783      6.37441         0.023610     -0.009060      0.012150
      6.36118      4.31915      6.37569         0.005852     -0.024147      0.015203
      6.36253      6.36715      4.33083         0.005787     -0.004212     -0.047355
      4.23979      4.24399      4.25373        -0.005061     -0.005886     -0.012021
      4.23826      4.24172      2.12971         0.003998      0.005040      0.000537
      4.24030      2.11991      4.25580        -0.005477      0.000024     -0.011620
      6.36222      4.24104      4.25531         0.005567      0.010194     -0.007511
      2.11529      4.24273      4.25245         0.006198      0.005873      0.002407
      4.24333      6.36687      4.24948        -0.023787      0.000131      0.017835
      4.23489      4.24761      6.37647         0.020743     -0.018771      0.001351
      6.36294      6.36707      6.37668        -0.009372     -0.009380      0.010244
 -----------------------------------------------------------------------------------
    total drift:                               -0.010203     -0.000931      0.009659


--------------------------------------------------------------------------------------------------------



  FREE ENERGIE OF THE ION-ELECTRON SYSTEM (eV)
  ---------------------------------------------------
  free  energy   TOTEN  =       -89.16979397 eV

  energy  without entropy=      -89.16015260  energy(sigma->0) =      -89.16497328
 


--------------------------------------------------------------------------------------------------------


    POTLOK:  cpu time    0.3880: real time    0.3889


--------------------------------------------------------------------------------------------------------




--------------------------------------------------------------------------------------------------------


  
 reached required accuracy - stopping structural energy minimisation
     LOOP+:  cpu time   14.2800: real time   14.3539
    4ORBIT:  cpu time    0.0000: real time    0.0000
 


 total charge     
 
# of ion     s       p       d       tot
----------------------------------------
  1        0.140   0.165   0.072   0.377
  2        0.148   0.164   0.066   0.378
  3        0.149   0.164   0.066   0.379
  4        0.148   0.164   0.066   0.378
  5        0.148   0.164   0.066   0.379
  6        0.148   0.164   0.066   0.379
  7        0.149   0.164   0.066   0.379
  8        0.140   0.165   0.072   0.377
  9        1.570   3.525   0.000   5.095
 10        1.570   3.525   0.000   5.095
 11        1.570   3.525   0.000   5.096
 12        1.570   3.525   0.000   5.095
 13        1.570   3.525   0.000   5.096
 14        1.570   3.525   0.000   5.096
 15        1.568   3.597   0.000   5.164
------------------------------------------------
tot       12.160  26.061   0.541  38.763
 


 magnetization (x)
 
# of ion     s       p       d       tot
----------------------------------------
  1       -0.000  -0.000  -0.000  -0.001
  2        0.002   0.004   0.002   0.008
  3        0.002   0.004   0.002   0.008
  4        0.002   0.004   0.002   0.008
  5        0.002   0.004   0.002   0.008
  6        0.002   0.004   0.002   0.008
  7        0.002   0.004   0.002   0.008
  8       -0.000  -0.000  -0.000  -0.001
  9        0.001   0.017   0.000   0.018
 10        0.001   0.017   0.000   0.018
 11        0.001   0.017   0.000   0.018
 12        0.001   0.017   0.000   0.018
 13        0.001   0.017   0.000   0.018
 14        0.001   0.017   0.000   0.018
 15       -0.000  -0.000   0.000  -0.000
------------------------------------------------
tot        0.016   0.126   0.011   0.153
 

 total amount of memory used by VASP on root node    34050. kBytes
========================================================================

   base      :      30000. kBytes
   nonlr-proj:        868. kBytes
   fftplans  :        353. kBytes
   grid      :        883. kBytes
   one-center:         32. kBytes
   wavefun   :       1914. kBytes
 
  
  
 General timing and accounting informations for this job:
 ========================================================
  
                  Total CPU time used (sec):       15.560
                            User time (sec):       15.280
                          System time (sec):        0.280
                         Elapsed time (sec):       15.914
  
                   Maximum memory used (kb):       78204.
                   Average memory used (kb):           0.
  
                          Minor page faults:        16348
                          Major page faults:           10
                 Voluntary context switches:         2055
