<?xml version="1.0" encoding="ISO-8859-1"?>
<modeling>
 <generator>
  <i name="program" type="string">vasp </i>
  <i name="version" type="string">5.4.1  </i>
  <i name="subversion" type="string">05Feb16 (build Mar 31 2016 13:39:20) complex                          parallel </i>
  <i name="platform" type="string">IFC91_ompi </i>
  <i name="date" type="string">2018 04 12 </i>
  <i name="time" type="string">14:18:13 </i>
 </generator>
 <incar>
  <i type="string" name="PREC">n</i>
  <i type="string" name="ALGO"> N</i>
  <i type="int" name="ISPIN">     2</i>
  <i type="int" name="NELM">   100</i>
  <i type="int" name="NELMIN">     4</i>
  <i type="int" name="IBRION">     2</i>
  <i name="EDIFF">      0.00000100</i>
  <i name="EDIFFG">     -0.05000000</i>
  <i type="int" name="NSW">    20</i>
  <i type="int" name="ISIF">     2</i>
  <i name="ENCUT">    400.00000000</i>
  <i name="NELECT">     57.00000000</i>
  <i type="string" name="LREAL"> A</i>
  <i type="int" name="ISMEAR">     0</i>
  <i name="SIGMA">      0.05000000</i>
  <i type="logical" name="LWAVE"> F  </i>
  <i type="logical" name="LCHARG"> F  </i>
  <i type="logical" name="LORBIT"> F  </i>
  <i type="logical" name="LASPH"> T  </i>
  <v type="int" name="KPOINT_BSE">    -1     0     0     0</v>
  <i type="int" name="NELM">   100</i>
  <i type="logical" name="LASPH"> T  </i>
 </incar>
 <kpoints>
  <generation param="Monkhorst-Pack">
   <v type="int" name="divisions">       2        2        2 </v>
   <v name="usershift">      0.00000000       0.00000000       0.00000000 </v>
   <v name="genvec1">      0.50000000       0.00000000       0.00000000 </v>
   <v name="genvec2">      0.00000000       0.50000000       0.00000000 </v>
   <v name="genvec3">      0.00000000       0.00000000       0.50000000 </v>
   <v name="shift">      0.50000000       0.50000000       0.50000000 </v>
  </generation>
  <varray name="kpointlist" >
   <v>       0.25000000       0.25000000       0.25000000 </v>
   <v>       0.25000000       0.00000000       0.00000000 </v>
   <v>       0.00000000       0.00000000      -0.25000000 </v>
   <v>       0.00000000       0.25000000       0.00000000 </v>
   <v>      -0.25000000       0.25000000       0.25000000 </v>
   <v>       0.25000000      -0.25000000       0.25000000 </v>
   <v>       0.25000000       0.25000000      -0.25000000 </v>
   <v>       0.25000000       0.00000000       0.50000000 </v>
   <v>      -0.25000000       0.50000000       0.50000000 </v>
   <v>       0.25000000       0.50000000       0.00000000 </v>
   <v>       0.00000000       0.50000000      -0.25000000 </v>
   <v>       0.50000000       0.00000000      -0.25000000 </v>
   <v>       0.50000000       0.50000000       0.25000000 </v>
   <v>       0.50000000      -0.25000000       0.50000000 </v>
   <v>       0.00000000       0.25000000       0.50000000 </v>
   <v>       0.50000000       0.25000000       0.00000000 </v>
  </varray>
  <varray name="weights" >
   <v>       0.06250000 </v>
   <v>       0.06250000 </v>
   <v>       0.06250000 </v>
   <v>       0.06250000 </v>
   <v>       0.06250000 </v>
   <v>       0.06250000 </v>
   <v>       0.06250000 </v>
   <v>       0.06250000 </v>
   <v>       0.06250000 </v>
   <v>       0.06250000 </v>
   <v>       0.06250000 </v>
   <v>       0.06250000 </v>
   <v>       0.06250000 </v>
   <v>       0.06250000 </v>
   <v>       0.06250000 </v>
   <v>       0.06250000 </v>
  </varray>
 </kpoints>
 <parameters>
  <separator name="general" >
   <i type="string" name="SYSTEM">unknown system</i>
   <i type="logical" name="LCOMPAT"> F  </i>
  </separator>
  <separator name="electronic" >
   <i type="string" name="PREC">n</i>
   <i name="ENMAX">    400.00000000</i>
   <i name="ENAUG">    605.39200000</i>
   <i name="EDIFF">      0.00000100</i>
   <i type="int" name="IALGO">    38</i>
   <i type="int" name="IWAVPR">    11</i>
   <i type="int" name="NBANDS">    44</i>
   <i name="NELECT">     57.00000000</i>
   <i type="int" name="TURBO">     0</i>
   <i type="int" name="IRESTART">     0</i>
   <i type="int" name="NREBOOT">     0</i>
   <i type="int" name="NMIN">     0</i>
   <i name="EREF">      0.00000000</i>
   <separator name="electronic smearing" >
    <i type="int" name="ISMEAR">     0</i>
    <i name="SIGMA">      0.05000000</i>
    <i name="KSPACING">      0.50000000</i>
    <i type="logical" name="KGAMMA"> T  </i>
   </separator>
   <separator name="electronic projectors" >
    <i type="logical" name="LREAL"> T  </i>
    <v name="ROPT">     -0.00050000     -0.00050000</v>
    <i type="int" name="LMAXPAW">  -100</i>
    <i type="int" name="LMAXMIX">     2</i>
    <i type="logical" name="NLSPLINE"> F  </i>
   </separator>
   <separator name="electronic startup" >
    <i type="int" name="ISTART">     0</i>
    <i type="int" name="ICHARG">     2</i>
    <i type="int" name="INIWAV">     1</i>
   </separator>
   <separator name="electronic spin" >
    <i type="int" name="ISPIN">     2</i>
    <i type="logical" name="LNONCOLLINEAR"> F  </i>
    <v name="MAGMOM">      1.00000000      1.00000000      1.00000000      1.00000000      1.00000000      1.00000000      1.00000000      1.00000000      1.00000000      1.00000000      1.00000000      1.00000000      1.00000000      1.00000000      1.00000000</v>
    <i name="NUPDOWN">     -1.00000000</i>
    <i type="logical" name="LSORBIT"> F  </i>
    <v name="SAXIS">      0.00000000      0.00000000      1.00000000</v>
    <i type="logical" name="LSPIRAL"> F  </i>
    <v name="QSPIRAL">      0.00000000      0.00000000      0.00000000</v>
    <i type="logical" name="LZEROZ"> F  </i>
   </separator>
   <separator name="electronic exchange-correlation" >
    <i type="logical" name="LASPH"> T  </i>
    <i type="logical" name="LMETAGGA"> F  </i>
   </separator>
   <separator name="electronic convergence" >
    <i type="int" name="NELM">   100</i>
    <i type="int" name="NELMDL">     0</i>
    <i type="int" name="NELMIN">     4</i>
    <i name="ENINI">    400.00000000</i>
    <separator name="electronic convergence detail" >
     <i type="logical" name="LDIAG"> T  </i>
     <i type="logical" name="LSUBROT"> F  </i>
     <i name="WEIMIN">      0.00100000</i>
     <i name="EBREAK">      0.00000001</i>
     <i name="DEPER">      0.30000000</i>
     <i type="int" name="NRMM">     4</i>
     <i name="TIME">      0.40000000</i>
    </separator>
   </separator>
   <separator name="electronic mixer" >
    <i name="AMIX">      0.40000000</i>
    <i name="BMIX">      1.00000000</i>
    <i name="AMIN">      0.10000000</i>
    <i name="AMIX_MAG">      1.60000000</i>
    <i name="BMIX_MAG">      1.00000000</i>
    <separator name="electronic mixer details" >
     <i type="int" name="IMIX">     4</i>
     <i type="logical" name="MIXFIRST"> F  </i>
     <i type="int" name="MAXMIX">   -45</i>
     <i name="WC">    100.00000000</i>
     <i type="int" name="INIMIX">     1</i>
     <i type="int" name="MIXPRE">     1</i>
     <i type="int" name="MREMOVE">     5</i>
    </separator>
   </separator>
   <separator name="electronic dipolcorrection" >
    <i type="logical" name="LDIPOL"> F  </i>
    <i type="logical" name="LMONO"> F  </i>
    <i type="int" name="IDIPOL">     0</i>
    <i name="EPSILON">      1.00000000</i>
    <v name="DIPOL">   -100.00000000   -100.00000000   -100.00000000</v>
    <i name="EFIELD">      0.00000000</i>
   </separator>
  </separator>
  <separator name="grids" >
   <i type="int" name="NGX">    30</i>
   <i type="int" name="NGY">    30</i>
   <i type="int" name="NGZ">    30</i>
   <i type="int" name="NGXF">    60</i>
   <i type="int" name="NGYF">    60</i>
   <i type="int" name="NGZF">    60</i>
   <i type="logical" name="ADDGRID"> F  </i>
  </separator>
  <separator name="ionic" >
   <i type="int" name="NSW">    20</i>
   <i type="int" name="IBRION">     2</i>
   <i type="int" name="ISIF">     2</i>
   <i name="PSTRESS">      0.00000000</i>
   <i name="EDIFFG">     -0.05000000</i>
   <i type="int" name="NFREE">     1</i>
   <i name="POTIM">      0.50000000</i>
   <i name="SMASS">     -3.00000000</i>
   <i name="SCALEE">      1.00000000</i>
  </separator>
  <separator name="ionic md" >
   <i name="TEBEG">      0.00010000</i>
   <i name="TEEND">      0.00010000</i>
   <i type="int" name="NBLOCK">     1</i>
   <i type="int" name="KBLOCK">    20</i>
   <i type="int" name="NPACO">   256</i>
   <i name="APACO">     16.00000000</i>
  </separator>
  <separator name="symmetry" >
   <i type="int" name="ISYM">     2</i>
   <i name="SYMPREC">      0.00001000</i>
  </separator>
  <separator name="dos" >
   <i type="logical" name="LORBIT"> F  </i>
   <v name="RWIGS">     -1.00000000     -1.00000000</v>
   <i type="int" name="NEDOS">   301</i>
   <i name="EMIN">     10.00000000</i>
   <i name="EMAX">    -10.00000000</i>
   <i name="EFERMI">      0.00000000</i>
  </separator>
  <separator name="writing" >
   <i type="int" name="NWRITE">     2</i>
   <i type="logical" name="LWAVE"> F  </i>
   <i type="logical" name="LCHARG"> F  </i>
   <i type="logical" name="LPARD"> F  </i>
   <i type="logical" name="LVTOT"> F  </i>
   <i type="logical" name="LVHAR"> F  </i>
   <i type="logical" name="LELF"> F  </i>
   <i type="logical" name="LOPTICS"> F  </i>
   <v name="STM">      0.00000000      0.00000000      0.00000000      0.00000000      0.00000000      0.00000000      0.00000000</v>
  </separator>
  <separator name="performance" >
   <i type="int" name="NPAR">     4</i>
   <i type="int" name="NSIM">     4</i>
   <i type="int" name="NBLK">    -1</i>
   <i type="logical" name="LPLANE"> T  </i>
   <i type="logical" name="LSCALAPACK"> T  </i>
   <i type="logical" name="LSCAAWARE"> F  </i>
   <i type="logical" name="LSCALU"> F  </i>
   <i type="logical" name="LASYNC"> F  </i>
   <i type="logical" name="LORBITALREAL"> F  </i>
  </separator>
  <separator name="miscellaneous" >
   <i type="int" name="IDIOT">     3</i>
   <i type="logical" name="LMUSIC"> F  </i>
   <v name="POMASS">     24.30500000     16.00000000</v>
   <v name="DARWINR">      0.00000000      0.00000000</v>
   <v name="DARWINV">      1.00000000      1.00000000</v>
   <i type="logical" name="LCORR"> T  </i>
  </separator>
  <i type="logical" name="GGA_COMPAT"> T  </i>
  <i type="logical" name="LBERRY"> F  </i>
  <i type="int" name="ICORELEVEL">     0</i>
  <i type="logical" name="LDAU"> F  </i>
  <i type="int" name="I_CONSTRAINED_M">     0</i>
  <separator name="electronic exchange-correlation" >
   <i type="string" name="GGA">--</i>
   <i type="int" name="VOSKOWN">     0</i>
   <i type="logical" name="LHFCALC"> F  </i>
   <i type="string" name="PRECFOCK"></i>
   <i type="logical" name="LSYMGRAD"> F  </i>
   <i type="logical" name="LHFONE"> F  </i>
   <i type="logical" name="LRHFCALC"> F  </i>
   <i type="logical" name="LTHOMAS"> F  </i>
   <i type="logical" name="LMODELHF"> F  </i>
   <i name="ENCUT4O">     -1.00000000</i>
   <i type="int" name="EXXOEP">     0</i>
   <i type="int" name="FOURORBIT">     0</i>
   <i name="AEXX">      0.00000000</i>
   <i name="HFALPHA">      0.00000000</i>
   <i name="MCALPHA">      0.00000000</i>
   <i name="ALDAX">      1.00000000</i>
   <i name="AGGAX">      1.00000000</i>
   <i name="ALDAC">      1.00000000</i>
   <i name="AGGAC">      1.00000000</i>
   <i type="int" name="NKREDX">     1</i>
   <i type="int" name="NKREDY">     1</i>
   <i type="int" name="NKREDZ">     1</i>
   <i type="logical" name="SHIFTRED"> F  </i>
   <i type="logical" name="ODDONLY"> F  </i>
   <i type="logical" name="EVENONLY"> F  </i>
   <i type="int" name="LMAXFOCK">     0</i>
   <i type="int" name="NMAXFOCKAE">     0</i>
   <i type="logical" name="LFOCKAEDFT"> F  </i>
   <i name="HFSCREEN">      0.00000000</i>
   <i name="HFSCREENC">      0.00000000</i>
   <i type="int" name="NBANDSGWLOW">     0</i>
  </separator>
  <separator name="vdW DFT" >
   <i type="logical" name="LUSE_VDW"> F  </i>
   <i name="Zab_VDW">     -0.84910000</i>
   <i name="PARAM1">      0.12340000</i>
   <i name="PARAM2">      1.00000000</i>
   <i name="PARAM3">      0.00000000</i>
  </separator>
  <separator name="model GW" >
   <i type="int" name="MODEL_GW">     0</i>
   <i name="MODEL_EPS0">      6.12779100</i>
   <i name="MODEL_ALPHA">      1.00000000</i>
  </separator>
  <separator name="linear response parameters" >
   <i type="logical" name="LEPSILON"> F  </i>
   <i type="logical" name="LRPA"> F  </i>
   <i type="logical" name="LNABLA"> F  </i>
   <i type="logical" name="LVEL"> F  </i>
   <i type="int" name="KINTER">     0</i>
   <i name="CSHIFT">      0.10000000</i>
   <i name="OMEGAMAX">     -1.00000000</i>
   <i name="DEG_THRESHOLD">      0.00200000</i>
  </separator>
  <separator name="orbital magnetization" >
   <i type="logical" name="NUCIND"> F  </i>
   <v name="MAGPOS">      0.00000000      0.00000000      0.00000000</v>
   <i type="logical" name="LNICSALL"> T  </i>
   <i type="logical" name="ORBITALMAG"> F  </i>
   <i type="logical" name="LMAGBLOCH"> F  </i>
   <i type="logical" name="LCHIMAG"> F  </i>
   <i type="logical" name="LGAUGE"> T  </i>
   <i type="int" name="MAGATOM">     0</i>
   <v name="MAGDIPOL">      0.00000000      0.00000000      0.00000000</v>
   <v name="AVECCONST">      0.00000000      0.00000000      0.00000000</v>
  </separator>
  <separator name="response functions" >
   <i type="logical" name="LADDER"> F  </i>
   <i type="logical" name="LFXC"> F  </i>
   <i type="logical" name="LHARTREE"> T  </i>
   <i type="int" name="IBSE">     0</i>
   <v type="int" name="KPOINT">    -1     0     0     0</v>
   <i type="logical" name="LTCTE"> F  </i>
   <i type="logical" name="LTETE"> F  </i>
   <i type="logical" name="LTRIPLET"> F  </i>
   <i type="logical" name="LFXCEPS"> F  </i>
   <i type="logical" name="LFXHEG"> F  </i>
   <i type="int" name="NATURALO">     0</i>
   <i type="logical" name="L2ORDER"> F  </i>
   <i type="logical" name="LUSEW"> F  </i>
   <i name="ENCUTGW">     -2.00000000</i>
   <i name="ENCUTGWSOFT">     -2.00000000</i>
   <i name="ENCUTLF">     -1.00000000</i>
   <i type="int" name="LMAXMP2">    -1</i>
   <i name="SCISSOR">      0.00000000</i>
   <i type="int" name="NOMEGA">     0</i>
   <i type="int" name="NOMEGAR">     0</i>
   <i type="int" name="NBANDSGW">    -1</i>
   <i type="int" name="NBANDSO">    -1</i>
   <i type="int" name="NBANDSV">    -1</i>
   <i type="int" name="NELM">   100</i>
   <i type="int" name="NELMHF">     1</i>
   <i type="int" name="DIM">     3</i>
   <i type="int" name="ANTIRES">     0</i>
   <i name="OMEGAMAX">    -30.00000000</i>
   <i name="OMEGAMIN">    -30.00000000</i>
   <i name="OMEGATL">   -200.00000000</i>
   <i type="int" name="OMEGAGRID">     0</i>
   <i name="CSHIFT">     -0.10000000</i>
   <i type="logical" name="SELFENERGY"> F  </i>
   <i type="logical" name="LSPECTRAL"> F  </i>
   <i type="logical" name="LSPECTRALGW"> F  </i>
   <i type="logical" name="LSINGLES"> F  </i>
   <i type="logical" name="LFERMIGW"> F  </i>
   <i type="logical" name="ODDONLYGW"> F  </i>
   <i type="logical" name="EVENONLYGW"> F  </i>
   <i type="int" name="NKREDLFX">     1</i>
   <i type="int" name="NKREDLFY">     1</i>
   <i type="int" name="NKREDLFZ">     1</i>
   <i type="int" name="MAXMEM">  1800</i>
   <i type="int" name="TELESCOPE">     0</i>
   <i type="int" name="TAUPAR">     1</i>
   <i type="int" name="OMEGAPAR">    -1</i>
   <i name="LAMBDA">      1.00000000</i>
  </separator>
  <separator name="External order field" >
   <i name="OFIELD_KAPPA">      0.00000000</i>
   <v name="OFIELD_K">      0.00000000      0.00000000      0.00000000</v>
   <i name="OFIELD_Q6_NEAR">      0.00000000</i>
   <i name="OFIELD_Q6_FAR">      0.00000000</i>
   <i name="OFIELD_A">      0.00000000</i>
  </separator>
 </parameters>
 <atominfo>
  <atoms>      15 </atoms>
  <types>       2 </types>
  <array name="atoms" >
   <dimension dim="1">ion</dimension>
   <field type="string">element</field>
   <field type="int">atomtype</field>
   <set>
    <rc><c>Mg</c><c>   1</c></rc>
    <rc><c>Mg</c><c>   1</c></rc>
    <rc><c>Mg</c><c>   1</c></rc>
    <rc><c>Mg</c><c>   1</c></rc>
    <rc><c>Mg</c><c>   1</c></rc>
    <rc><c>Mg</c><c>   1</c></rc>
    <rc><c>Mg</c><c>   1</c></rc>
    <rc><c>Mg</c><c>   1</c></rc>
    <rc><c>O </c><c>   2</c></rc>
    <rc><c>O </c><c>   2</c></rc>
    <rc><c>O </c><c>   2</c></rc>
    <rc><c>O </c><c>   2</c></rc>
    <rc><c>O </c><c>   2</c></rc>
    <rc><c>O </c><c>   2</c></rc>
    <rc><c>O </c><c>   2</c></rc>
   </set>
  </array>
  <array name="atomtypes" >
   <dimension dim="1">type</dimension>
   <field type="int">atomspertype</field>
   <field type="string">element</field>
   <field>mass</field>
   <field>valence</field>
   <field type="string">pseudopotential</field>
   <set>
    <rc><c>   8</c><c>Mg</c><c>     24.30500000</c><c>      2.00000000</c><c>  PAW_PBE Mg 13Apr2007                  </c></rc>
    <rc><c>   7</c><c>O </c><c>     16.00000000</c><c>      6.00000000</c><c>  PAW_PBE O 08Apr2002                   </c></rc>
   </set>
  </array>
 </atominfo>
 <structure name="initialpos" >
  <crystal>
   <varray name="basis" >
    <v>       0.00000000       4.24689300       4.24689300 </v>
    <v>       4.24689300       0.00000000       4.24689300 </v>
    <v>       4.24689300       4.24689300       0.00000000 </v>
   </varray>
   <i name="volume">    153.19477498 </i>
   <varray name="rec_basis" >
    <v>      -0.11773313       0.11773313       0.11773313 </v>
    <v>       0.11773313      -0.11773313       0.11773313 </v>
    <v>       0.11773313       0.11773313      -0.11773313 </v>
   </varray>
  </crystal>
  <varray name="positions" >
   <v>       0.00121505       0.00029229       0.99787466 </v>
   <v>       0.99190759       0.99206206       0.50698569 </v>
   <v>       0.99225176       0.50932586       0.98870522 </v>
   <v>       0.99294250       0.50880437       0.50639543 </v>
   <v>       0.50984409       0.99111333       0.98956602 </v>
   <v>       0.51021480       0.99104517       0.50679920 </v>
   <v>       0.51042715       0.50933827       0.98882284 </v>
   <v>       0.50129986       0.50031038       0.49801593 </v>
   <v>       0.25114511       0.25032953       0.74763686 </v>
   <v>       0.25140808       0.75068909       0.24775964 </v>
   <v>       0.25125790       0.75072408       0.74736398 </v>
   <v>       0.75112525       0.25018334       0.24789527 </v>
   <v>       0.75031518       0.25029282       0.74886870 </v>
   <v>       0.75222018       0.74922393       0.24794860 </v>
   <v>       0.75123349       0.75026051       0.74799696 </v>
  </varray>
 </structure>
 <calculation>
  <scstep>
   <time name="dav">    0.65    0.66</time>
   <time name="total">    1.02    1.04</time>
   <energy>
    <i name="alphaZ">    129.53385374 </i>
    <i name="ewald">  -2363.94528198 </i>
    <i name="hartreedc">   -978.63425311 </i>
    <i name="XCdc">   -189.52223325 </i>
    <i name="pawpsdc">   2946.27252624 </i>
    <i name="pawaedc">  -2543.92834819 </i>
    <i name="eentropy">     -0.00179918 </i>
    <i name="bandstr">     25.71597985 </i>
    <i name="atom">   3210.13655998 </i>
    <i name="e_fr_energy">    235.62700410 </i>
    <i name="e_wo_entrp">    235.62880328 </i>
    <i name="e_0_energy">    235.62790369 </i>
   </energy>
  </scstep>
  <scstep>
   <time name="dav">    0.67    0.67</time>
   <time name="total">    0.67    0.68</time>
   <energy>
    <i name="e_fr_energy">    -76.34418520 </i>
    <i name="e_wo_entrp">    -76.34418485 </i>
    <i name="e_0_energy">    -76.34418503 </i>
   </energy>
  </scstep>
  <scstep>
   <time name="dav">    0.66    0.67</time>
   <time name="total">    0.66    0.67</time>
   <energy>
    <i name="e_fr_energy">    -94.95261645 </i>
    <i name="e_wo_entrp">    -94.95261645 </i>
    <i name="e_0_energy">    -94.95261645 </i>
   </energy>
  </scstep>
  <scstep>
   <time name="dav">    0.67    0.67</time>
   <time name="total">    0.67    0.67</time>
   <energy>
    <i name="e_fr_energy">    -95.07836373 </i>
    <i name="e_wo_entrp">    -95.07836373 </i>
    <i name="e_0_energy">    -95.07836373 </i>
   </energy>
  </scstep>
  <scstep>
   <time name="dav">    0.64    0.64</time>
   <time name="total">    0.66    0.66</time>
   <energy>
    <i name="e_fr_energy">    -95.07914314 </i>
    <i name="e_wo_entrp">    -95.07914314 </i>
    <i name="e_0_energy">    -95.07914314 </i>
   </energy>
  </scstep>
  <scstep>
   <time name="dav">    0.62    0.63</time>
   <time name="total">    1.02    1.03</time>
   <energy>
    <i name="e_fr_energy">    -89.18838181 </i>
    <i name="e_wo_entrp">    -89.17715636 </i>
    <i name="e_0_energy">    -89.18276909 </i>
   </energy>
  </scstep>
  <scstep>
   <time name="dav">    0.63    0.63</time>
   <time name="total">    1.04    1.04</time>
   <energy>
    <i name="e_fr_energy">    -89.28371939 </i>
    <i name="e_wo_entrp">    -89.27334162 </i>
    <i name="e_0_energy">    -89.27853050 </i>
   </energy>
  </scstep>
  <scstep>
   <time name="dav">    0.62    0.62</time>
   <time name="total">    1.02    1.02</time>
   <energy>
    <i name="e_fr_energy">    -89.17409283 </i>
    <i name="e_wo_entrp">    -89.16445144 </i>
    <i name="e_0_energy">    -89.16927213 </i>
   </energy>
  </scstep>
  <scstep>
   <time name="dav">    0.68    0.68</time>
   <time name="total">    1.08    1.08</time>
   <energy>
    <i name="e_fr_energy">    -89.16880125 </i>
    <i name="e_wo_entrp">    -89.15915988 </i>
    <i name="e_0_energy">    -89.16398056 </i>
   </energy>
  </scstep>
  <scstep>
   <time name="dav">    0.65    0.65</time>
   <time name="total">    1.05    1.05</time>
   <energy>
    <i name="e_fr_energy">    -89.16923065 </i>
    <i name="e_wo_entrp">    -89.15958928 </i>
    <i name="e_0_energy">    -89.16440997 </i>
   </energy>
  </scstep>
  <scstep>
   <time name="dav">    0.67    0.67</time>
   <time name="total">    1.07    1.07</time>
   <energy>
    <i name="e_fr_energy">    -89.16958647 </i>
    <i name="e_wo_entrp">    -89.15994510 </i>
    <i name="e_0_energy">    -89.16476578 </i>
   </energy>
  </scstep>
  <scstep>
   <time name="dav">    0.62    0.62</time>
   <time name="total">    1.02    1.02</time>
   <energy>
    <i name="e_fr_energy">    -89.16978337 </i>
    <i name="e_wo_entrp">    -89.16014200 </i>
    <i name="e_0_energy">    -89.16496268 </i>
   </energy>
  </scstep>
  <scstep>
   <time name="dav">    0.64    0.64</time>
   <time name="total">    1.03    1.04</time>
   <energy>
    <i name="e_fr_energy">    -89.16979346 </i>
    <i name="e_wo_entrp">    -89.16015209 </i>
    <i name="e_0_energy">    -89.16497277 </i>
   </energy>
  </scstep>
  <scstep>
   <time name="dav">    0.65    0.65</time>
   <time name="total">    1.03    1.03</time>
   <energy>
    <i name="alphaZ">    129.53385374 </i>
    <i name="ewald">  -2363.94528198 </i>
    <i name="hartreedc">  -1129.63037756 </i>
    <i name="XCdc">   -184.34053802 </i>
    <i name="pawpsdc">   3914.05562601 </i>
    <i name="pawaedc">  -3513.37784925 </i>
    <i name="eentropy">     -0.00964136 </i>
    <i name="bandstr">   -151.59214551 </i>
    <i name="atom">   3210.13655998 </i>
    <i name="e_fr_energy">    -89.16979397 </i>
    <i name="e_wo_entrp">    -89.16015260 </i>
    <i name="e_0_energy">    -89.16497328 </i>
   </energy>
  </scstep>
  <structure>
   <crystal>
    <varray name="basis" >
     <v>       0.00000000       4.24689300       4.24689300 </v>
     <v>       4.24689300       0.00000000       4.24689300 </v>
     <v>       4.24689300       4.24689300       0.00000000 </v>
    </varray>
    <i name="volume">    153.19477498 </i>
    <varray name="rec_basis" >
     <v>      -0.11773313       0.11773313       0.11773313 </v>
     <v>       0.11773313      -0.11773313       0.11773313 </v>
     <v>       0.11773313       0.11773313      -0.11773313 </v>
    </varray>
   </crystal>
   <varray name="positions" >
    <v>       0.00121505       0.00029229       0.99787466 </v>
    <v>       0.99190759       0.99206206       0.50698569 </v>
    <v>       0.99225176       0.50932586       0.98870522 </v>
    <v>       0.99294250       0.50880437       0.50639543 </v>
    <v>       0.50984409       0.99111333       0.98956602 </v>
    <v>       0.51021480       0.99104517       0.50679920 </v>
    <v>       0.51042715       0.50933827       0.98882284 </v>
    <v>       0.50129986       0.50031038       0.49801593 </v>
    <v>       0.25114511       0.25032953       0.74763686 </v>
    <v>       0.25140808       0.75068909       0.24775964 </v>
    <v>       0.25125790       0.75072408       0.74736398 </v>
    <v>       0.75112525       0.25018334       0.24789527 </v>
    <v>       0.75031518       0.25029282       0.74886870 </v>
    <v>       0.75222018       0.74922393       0.24794860 </v>
    <v>       0.75123349       0.75026051       0.74799696 </v>
   </varray>
  </structure>
  <varray name="forces" >
   <v>       0.00140812       0.00905665      -0.00056655 </v>
   <v>      -0.02469218      -0.00060663       0.01133482 </v>
   <v>      -0.00714975       0.04183249       0.00351951 </v>
   <v>       0.00237415      -0.00009196       0.00449202 </v>
   <v>       0.02360993      -0.00905975       0.01215032 </v>
   <v>       0.00585226      -0.02414664       0.01520339 </v>
   <v>       0.00578738      -0.00421151      -0.04735499 </v>
   <v>      -0.00506053      -0.00588615      -0.01202078 </v>
   <v>       0.00399834       0.00504039       0.00053652 </v>
   <v>      -0.00547707       0.00002446      -0.01161988 </v>
   <v>       0.00556714       0.01019440      -0.00751095 </v>
   <v>       0.00619845       0.00587337       0.00240720 </v>
   <v>      -0.02378694       0.00013137       0.01783468 </v>
   <v>       0.02074298      -0.01877063       0.00135091 </v>
   <v>      -0.00937227      -0.00937985       0.01024377 </v>
  </varray>
  <varray name="stress" >
   <v>     -98.76538414       0.18493857       0.15326375 </v>
   <v>       0.18493854     -98.38553510       0.20989427 </v>
   <v>       0.15326368       0.20989437     -98.30771932 </v>
  </varray>
  <energy>
   <i name="e_fr_energy">    -89.16979397 </i>
   <i name="e_wo_entrp">    -89.16497328 </i>
   <i name="e_0_energy">     -0.00964136 </i>
  </energy>
  <time name="totalsc">   14.28   14.35</time>
  <eigenvalues>
   <array>
    <dimension dim="1">band</dimension>
    <dimension dim="2">kpoint</dimension>
    <dimension dim="3">spin</dimension>
    <field>eigene</field>
    <field>occ</field>
    <set>
     <set comment="spin 1">
      <set comment="kpoint 1">
       <r>  -14.2388    1.0000 </r>
       <r>  -13.4771    1.0000 </r>
       <r>  -13.2888    1.0000 </r>
       <r>  -13.1368    1.0000 </r>
       <r>  -13.1346    1.0000 </r>
       <r>  -12.9639    1.0000 </r>
       <r>  -12.9616    1.0000 </r>
       <r>   -1.4741    1.0000 </r>
       <r>   -1.4703    1.0000 </r>
       <r>   -1.4223    1.0000 </r>
       <r>   -1.2106    1.0000 </r>
       <r>   -0.8981    1.0000 </r>
       <r>   -0.5353    1.0000 </r>
       <r>   -0.5311    1.0000 </r>
       <r>    0.9820    1.0000 </r>
       <r>    1.0781    1.0000 </r>
       <r>    1.0859    1.0000 </r>
       <r>    1.4644    1.0000 </r>
       <r>    1.4668    1.0000 </r>
       <r>    1.5012    1.0000 </r>
       <r>    1.5211    1.0000 </r>
       <r>    1.6832    1.0000 </r>
       <r>    1.6884    1.0000 </r>
       <r>    1.9826    1.0000 </r>
       <r>    2.1534    1.0000 </r>
       <r>    2.1542    1.0000 </r>
       <r>    2.4118    1.0000 </r>
       <r>    2.4135    1.0000 </r>
       <r>    3.8556    1.0000 </r>
       <r>    8.6901    0.0000 </r>
       <r>    9.7480    0.0000 </r>
       <r>   10.3166    0.0000 </r>
       <r>   10.3257    0.0000 </r>
       <r>   11.1811    0.0000 </r>
       <r>   11.4323    0.0000 </r>
       <r>   11.4465    0.0000 </r>
       <r>   12.4052    0.0000 </r>
       <r>   12.4072    0.0000 </r>
       <r>   12.7485    0.0000 </r>
       <r>   13.0498    0.0000 </r>
       <r>   13.4039    0.0000 </r>
       <r>   13.4066    0.0000 </r>
       <r>   14.9998    0.0000 </r>
       <r>   15.1607    0.0000 </r>
      </set>
      <set comment="kpoint 2">
       <r>  -14.2391    1.0000 </r>
       <r>  -13.4752    1.0000 </r>
       <r>  -13.2904    1.0000 </r>
       <r>  -13.1359    1.0000 </r>
       <r>  -13.1354    1.0000 </r>
       <r>  -12.9630    1.0000 </r>
       <r>  -12.9625    1.0000 </r>
       <r>   -1.4748    1.0000 </r>
       <r>   -1.4730    1.0000 </r>
       <r>   -1.4204    1.0000 </r>
       <r>   -1.2108    1.0000 </r>
       <r>   -0.8999    1.0000 </r>
       <r>   -0.5320    1.0000 </r>
       <r>   -0.5301    1.0000 </r>
       <r>    0.9830    1.0000 </r>
       <r>    1.0826    1.0000 </r>
       <r>    1.0842    1.0000 </r>
       <r>    1.4627    1.0000 </r>
       <r>    1.4646    1.0000 </r>
       <r>    1.5007    1.0000 </r>
       <r>    1.5225    1.0000 </r>
       <r>    1.6849    1.0000 </r>
       <r>    1.6862    1.0000 </r>
       <r>    1.9828    1.0000 </r>
       <r>    2.1547    1.0000 </r>
       <r>    2.1552    1.0000 </r>
       <r>    2.4107    1.0000 </r>
       <r>    2.4114    1.0000 </r>
       <r>    3.8552    1.0000 </r>
       <r>    8.6884    0.0000 </r>
       <r>    9.7474    0.0000 </r>
       <r>   10.3207    0.0000 </r>
       <r>   10.3235    0.0000 </r>
       <r>   11.1830    0.0000 </r>
       <r>   11.4380    0.0000 </r>
       <r>   11.4396    0.0000 </r>
       <r>   12.4064    0.0000 </r>
       <r>   12.4075    0.0000 </r>
       <r>   12.7497    0.0000 </r>
       <r>   13.0476    0.0000 </r>
       <r>   13.4047    0.0000 </r>
       <r>   13.4053    0.0000 </r>
       <r>   14.9998    0.0000 </r>
       <r>   15.1640    0.0000 </r>
      </set>
      <set comment="kpoint 3">
       <r>  -14.2390    1.0000 </r>
       <r>  -13.4758    1.0000 </r>
       <r>  -13.2899    1.0000 </r>
       <r>  -13.1365    1.0000 </r>
       <r>  -13.1349    1.0000 </r>
       <r>  -12.9636    1.0000 </r>
       <r>  -12.9619    1.0000 </r>
       <r>   -1.4751    1.0000 </r>
       <r>   -1.4715    1.0000 </r>
       <r>   -1.4210    1.0000 </r>
       <r>   -1.2108    1.0000 </r>
       <r>   -0.8993    1.0000 </r>
       <r>   -0.5338    1.0000 </r>
       <r>   -0.5298    1.0000 </r>
       <r>    0.9826    1.0000 </r>
       <r>    1.0801    1.0000 </r>
       <r>    1.0858    1.0000 </r>
       <r>    1.4631    1.0000 </r>
       <r>    1.4658    1.0000 </r>
       <r>    1.5008    1.0000 </r>
       <r>    1.5220    1.0000 </r>
       <r>    1.6837    1.0000 </r>
       <r>    1.6876    1.0000 </r>
       <r>    1.9826    1.0000 </r>
       <r>    2.1538    1.0000 </r>
       <r>    2.1553    1.0000 </r>
       <r>    2.4110    1.0000 </r>
       <r>    2.4120    1.0000 </r>
       <r>    3.8553    1.0000 </r>
       <r>    8.6890    0.0000 </r>
       <r>    9.7478    0.0000 </r>
       <r>   10.3184    0.0000 </r>
       <r>   10.3247    0.0000 </r>
       <r>   11.1823    0.0000 </r>
       <r>   11.4341    0.0000 </r>
       <r>   11.4440    0.0000 </r>
       <r>   12.4061    0.0000 </r>
       <r>   12.4076    0.0000 </r>
       <r>   12.7494    0.0000 </r>
       <r>   13.0486    0.0000 </r>
       <r>   13.4039    0.0000 </r>
       <r>   13.4061    0.0000 </r>
       <r>   14.9997    0.0000 </r>
       <r>   15.1636    0.0000 </r>
      </set>
      <set comment="kpoint 4">
       <r>  -14.2390    1.0000 </r>
       <r>  -13.4757    1.0000 </r>
       <r>  -13.2900    1.0000 </r>
       <r>  -13.1361    1.0000 </r>
       <r>  -13.1352    1.0000 </r>
       <r>  -12.9632    1.0000 </r>
       <r>  -12.9623    1.0000 </r>
       <r>   -1.4749    1.0000 </r>
       <r>   -1.4720    1.0000 </r>
       <r>   -1.4209    1.0000 </r>
       <r>   -1.2107    1.0000 </r>
       <r>   -0.8994    1.0000 </r>
       <r>   -0.5335    1.0000 </r>
       <r>   -0.5299    1.0000 </r>
       <r>    0.9828    1.0000 </r>
       <r>    1.0815    1.0000 </r>
       <r>    1.0847    1.0000 </r>
       <r>    1.4631    1.0000 </r>
       <r>    1.4653    1.0000 </r>
       <r>    1.5008    1.0000 </r>
       <r>    1.5222    1.0000 </r>
       <r>    1.6846    1.0000 </r>
       <r>    1.6867    1.0000 </r>
       <r>    1.9827    1.0000 </r>
       <r>    2.1539    1.0000 </r>
       <r>    2.1553    1.0000 </r>
       <r>    2.4107    1.0000 </r>
       <r>    2.4122    1.0000 </r>
       <r>    3.8553    1.0000 </r>
       <r>    8.6889    0.0000 </r>
       <r>    9.7477    0.0000 </r>
       <r>   10.3191    0.0000 </r>
       <r>   10.3244    0.0000 </r>
       <r>   11.1825    0.0000 </r>
       <r>   11.4357    0.0000 </r>
       <r>   11.4422    0.0000 </r>
       <r>   12.4062    0.0000 </r>
       <r>   12.4073    0.0000 </r>
       <r>   12.7494    0.0000 </r>
       <r>   13.0483    0.0000 </r>
       <r>   13.4044    0.0000 </r>
       <r>   13.4057    0.0000 </r>
       <r>   14.9998    0.0000 </r>
       <r>   15.1632    0.0000 </r>
      </set>
      <set comment="kpoint 5">
       <r>  -13.9959    1.0000 </r>
       <r>  -13.5740    1.0000 </r>
       <r>  -13.4102    1.0000 </r>
       <r>  -13.1795    1.0000 </r>
       <r>  -13.1368    1.0000 </r>
       <r>  -13.0536    1.0000 </r>
       <r>  -12.9277    1.0000 </r>
       <r>   -1.1371    1.0000 </r>
       <r>   -0.9777    1.0000 </r>
       <r>   -0.9241    1.0000 </r>
       <r>   -0.6804    1.0000 </r>
       <r>   -0.5283    1.0000 </r>
       <r>   -0.2256    1.0000 </r>
       <r>   -0.0533    1.0000 </r>
       <r>    0.3169    1.0000 </r>
       <r>    0.4249    1.0000 </r>
       <r>    0.4518    1.0000 </r>
       <r>    0.8386    1.0000 </r>
       <r>    1.0734    1.0000 </r>
       <r>    1.1750    1.0000 </r>
       <r>    1.4172    1.0000 </r>
       <r>    1.4759    1.0000 </r>
       <r>    1.6805    1.0000 </r>
       <r>    1.7256    1.0000 </r>
       <r>    1.8961    1.0000 </r>
       <r>    2.0873    1.0000 </r>
       <r>    2.1194    1.0000 </r>
       <r>    2.2374    1.0000 </r>
       <r>    4.8998    0.6677 </r>
       <r>    8.2957    0.0000 </r>
       <r>    9.2324    0.0000 </r>
       <r>    9.6768    0.0000 </r>
       <r>   10.8271    0.0000 </r>
       <r>   11.7086    0.0000 </r>
       <r>   12.3776    0.0000 </r>
       <r>   12.6208    0.0000 </r>
       <r>   12.7338    0.0000 </r>
       <r>   13.3955    0.0000 </r>
       <r>   13.4712    0.0000 </r>
       <r>   14.1978    0.0000 </r>
       <r>   14.2405    0.0000 </r>
       <r>   14.3016    0.0000 </r>
       <r>   14.5829    0.0000 </r>
       <r>   14.7922    0.0000 </r>
      </set>
      <set comment="kpoint 6">
       <r>  -13.9956    1.0000 </r>
       <r>  -13.5746    1.0000 </r>
       <r>  -13.4102    1.0000 </r>
       <r>  -13.1793    1.0000 </r>
       <r>  -13.1364    1.0000 </r>
       <r>  -13.0543    1.0000 </r>
       <r>  -12.9274    1.0000 </r>
       <r>   -1.1363    1.0000 </r>
       <r>   -0.9763    1.0000 </r>
       <r>   -0.9239    1.0000 </r>
       <r>   -0.6816    1.0000 </r>
       <r>   -0.5276    1.0000 </r>
       <r>   -0.2256    1.0000 </r>
       <r>   -0.0551    1.0000 </r>
       <r>    0.3153    1.0000 </r>
       <r>    0.4241    1.0000 </r>
       <r>    0.4515    1.0000 </r>
       <r>    0.8380    1.0000 </r>
       <r>    1.0746    1.0000 </r>
       <r>    1.1744    1.0000 </r>
       <r>    1.4160    1.0000 </r>
       <r>    1.4768    1.0000 </r>
       <r>    1.6826    1.0000 </r>
       <r>    1.7249    1.0000 </r>
       <r>    1.8969    1.0000 </r>
       <r>    2.0872    1.0000 </r>
       <r>    2.1195    1.0000 </r>
       <r>    2.2382    1.0000 </r>
       <r>    4.8998    0.6671 </r>
       <r>    8.2959    0.0000 </r>
       <r>    9.2316    0.0000 </r>
       <r>    9.6778    0.0000 </r>
       <r>   10.8262    0.0000 </r>
       <r>   11.7085    0.0000 </r>
       <r>   12.3774    0.0000 </r>
       <r>   12.6210    0.0000 </r>
       <r>   12.7345    0.0000 </r>
       <r>   13.3958    0.0000 </r>
       <r>   13.4707    0.0000 </r>
       <r>   14.1985    0.0000 </r>
       <r>   14.2404    0.0000 </r>
       <r>   14.3003    0.0000 </r>
       <r>   14.5825    0.0000 </r>
       <r>   14.7922    0.0000 </r>
      </set>
      <set comment="kpoint 7">
       <r>  -13.9956    1.0000 </r>
       <r>  -13.5747    1.0000 </r>
       <r>  -13.4101    1.0000 </r>
       <r>  -13.1793    1.0000 </r>
       <r>  -13.1361    1.0000 </r>
       <r>  -13.0543    1.0000 </r>
       <r>  -12.9275    1.0000 </r>
       <r>   -1.1363    1.0000 </r>
       <r>   -0.9761    1.0000 </r>
       <r>   -0.9238    1.0000 </r>
       <r>   -0.6817    1.0000 </r>
       <r>   -0.5277    1.0000 </r>
       <r>   -0.2257    1.0000 </r>
       <r>   -0.0552    1.0000 </r>
       <r>    0.3152    1.0000 </r>
       <r>    0.4240    1.0000 </r>
       <r>    0.4517    1.0000 </r>
       <r>    0.8383    1.0000 </r>
       <r>    1.0747    1.0000 </r>
       <r>    1.1746    1.0000 </r>
       <r>    1.4159    1.0000 </r>
       <r>    1.4765    1.0000 </r>
       <r>    1.6828    1.0000 </r>
       <r>    1.7248    1.0000 </r>
       <r>    1.8968    1.0000 </r>
       <r>    2.0872    1.0000 </r>
       <r>    2.1194    1.0000 </r>
       <r>    2.2381    1.0000 </r>
       <r>    4.8999    0.6669 </r>
       <r>    8.2962    0.0000 </r>
       <r>    9.2316    0.0000 </r>
       <r>    9.6772    0.0000 </r>
       <r>   10.8264    0.0000 </r>
       <r>   11.7082    0.0000 </r>
       <r>   12.3774    0.0000 </r>
       <r>   12.6210    0.0000 </r>
       <r>   12.7347    0.0000 </r>
       <r>   13.3959    0.0000 </r>
       <r>   13.4706    0.0000 </r>
       <r>   14.1984    0.0000 </r>
       <r>   14.2407    0.0000 </r>
       <r>   14.3005    0.0000 </r>
       <r>   14.5825    0.0000 </r>
       <r>   14.7919    0.0000 </r>
      </set>
      <set comment="kpoint 8">
       <r>  -13.9955    1.0000 </r>
       <r>  -13.5760    1.0000 </r>
       <r>  -13.4077    1.0000 </r>
       <r>  -13.1793    1.0000 </r>
       <r>  -13.1392    1.0000 </r>
       <r>  -13.0526    1.0000 </r>
       <r>  -12.9274    1.0000 </r>
       <r>   -1.1355    1.0000 </r>
       <r>   -0.9785    1.0000 </r>
       <r>   -0.9227    1.0000 </r>
       <r>   -0.6811    1.0000 </r>
       <r>   -0.5270    1.0000 </r>
       <r>   -0.2270    1.0000 </r>
       <r>   -0.0530    1.0000 </r>
       <r>    0.3124    1.0000 </r>
       <r>    0.4242    1.0000 </r>
       <r>    0.4527    1.0000 </r>
       <r>    0.8358    1.0000 </r>
       <r>    1.0762    1.0000 </r>
       <r>    1.1733    1.0000 </r>
       <r>    1.4166    1.0000 </r>
       <r>    1.4801    1.0000 </r>
       <r>    1.6804    1.0000 </r>
       <r>    1.7256    1.0000 </r>
       <r>    1.8969    1.0000 </r>
       <r>    2.0883    1.0000 </r>
       <r>    2.1163    1.0000 </r>
       <r>    2.2396    1.0000 </r>
       <r>    4.8999    0.6665 </r>
       <r>    8.2965    0.0000 </r>
       <r>    9.2291    0.0000 </r>
       <r>    9.6795    0.0000 </r>
       <r>   10.8263    0.0000 </r>
       <r>   11.7081    0.0000 </r>
       <r>   12.3777    0.0000 </r>
       <r>   12.6236    0.0000 </r>
       <r>   12.7321    0.0000 </r>
       <r>   13.3965    0.0000 </r>
       <r>   13.4701    0.0000 </r>
       <r>   14.1992    0.0000 </r>
       <r>   14.2401    0.0000 </r>
       <r>   14.3003    0.0000 </r>
       <r>   14.5812    0.0000 </r>
       <r>   14.7937    0.0000 </r>
      </set>
      <set comment="kpoint 9">
       <r>  -13.9949    1.0000 </r>
       <r>  -13.5780    1.0000 </r>
       <r>  -13.4072    1.0000 </r>
       <r>  -13.1796    1.0000 </r>
       <r>  -13.1366    1.0000 </r>
       <r>  -13.0538    1.0000 </r>
       <r>  -12.9277    1.0000 </r>
       <r>   -1.1350    1.0000 </r>
       <r>   -0.9769    1.0000 </r>
       <r>   -0.9219    1.0000 </r>
       <r>   -0.6832    1.0000 </r>
       <r>   -0.5264    1.0000 </r>
       <r>   -0.2283    1.0000 </r>
       <r>   -0.0550    1.0000 </r>
       <r>    0.3121    1.0000 </r>
       <r>    0.4235    1.0000 </r>
       <r>    0.4525    1.0000 </r>
       <r>    0.8381    1.0000 </r>
       <r>    1.0768    1.0000 </r>
       <r>    1.1762    1.0000 </r>
       <r>    1.4163    1.0000 </r>
       <r>    1.4779    1.0000 </r>
       <r>    1.6819    1.0000 </r>
       <r>    1.7254    1.0000 </r>
       <r>    1.8962    1.0000 </r>
       <r>    2.0878    1.0000 </r>
       <r>    2.1142    1.0000 </r>
       <r>    2.2411    1.0000 </r>
       <r>    4.9000    0.6658 </r>
       <r>    8.2990    0.0000 </r>
       <r>    9.2294    0.0000 </r>
       <r>    9.6766    0.0000 </r>
       <r>   10.8276    0.0000 </r>
       <r>   11.7062    0.0000 </r>
       <r>   12.3771    0.0000 </r>
       <r>   12.6239    0.0000 </r>
       <r>   12.7339    0.0000 </r>
       <r>   13.3953    0.0000 </r>
       <r>   13.4701    0.0000 </r>
       <r>   14.1980    0.0000 </r>
       <r>   14.2400    0.0000 </r>
       <r>   14.3006    0.0000 </r>
       <r>   14.5815    0.0000 </r>
       <r>   14.7924    0.0000 </r>
      </set>
      <set comment="kpoint 10">
       <r>  -13.9955    1.0000 </r>
       <r>  -13.5759    1.0000 </r>
       <r>  -13.4077    1.0000 </r>
       <r>  -13.1793    1.0000 </r>
       <r>  -13.1393    1.0000 </r>
       <r>  -13.0525    1.0000 </r>
       <r>  -12.9275    1.0000 </r>
       <r>   -1.1355    1.0000 </r>
       <r>   -0.9788    1.0000 </r>
       <r>   -0.9229    1.0000 </r>
       <r>   -0.6810    1.0000 </r>
       <r>   -0.5272    1.0000 </r>
       <r>   -0.2272    1.0000 </r>
       <r>   -0.0526    1.0000 </r>
       <r>    0.3134    1.0000 </r>
       <r>    0.4246    1.0000 </r>
       <r>    0.4526    1.0000 </r>
       <r>    0.8361    1.0000 </r>
       <r>    1.0753    1.0000 </r>
       <r>    1.1736    1.0000 </r>
       <r>    1.4171    1.0000 </r>
       <r>    1.4793    1.0000 </r>
       <r>    1.6802    1.0000 </r>
       <r>    1.7259    1.0000 </r>
       <r>    1.8965    1.0000 </r>
       <r>    2.0884    1.0000 </r>
       <r>    2.1155    1.0000 </r>
       <r>    2.2403    1.0000 </r>
       <r>    4.8999    0.6663 </r>
       <r>    8.2960    0.0000 </r>
       <r>    9.2296    0.0000 </r>
       <r>    9.6797    0.0000 </r>
       <r>   10.8264    0.0000 </r>
       <r>   11.7081    0.0000 </r>
       <r>   12.3776    0.0000 </r>
       <r>   12.6234    0.0000 </r>
       <r>   12.7320    0.0000 </r>
       <r>   13.3960    0.0000 </r>
       <r>   13.4698    0.0000 </r>
       <r>   14.1996    0.0000 </r>
       <r>   14.2400    0.0000 </r>
       <r>   14.3012    0.0000 </r>
       <r>   14.5813    0.0000 </r>
       <r>   14.7938    0.0000 </r>
      </set>
      <set comment="kpoint 11">
       <r>  -13.9956    1.0000 </r>
       <r>  -13.5756    1.0000 </r>
       <r>  -13.4085    1.0000 </r>
       <r>  -13.1795    1.0000 </r>
       <r>  -13.1379    1.0000 </r>
       <r>  -13.0530    1.0000 </r>
       <r>  -12.9277    1.0000 </r>
       <r>   -1.1365    1.0000 </r>
       <r>   -0.9783    1.0000 </r>
       <r>   -0.9229    1.0000 </r>
       <r>   -0.6810    1.0000 </r>
       <r>   -0.5274    1.0000 </r>
       <r>   -0.2266    1.0000 </r>
       <r>   -0.0532    1.0000 </r>
       <r>    0.3139    1.0000 </r>
       <r>    0.4245    1.0000 </r>
       <r>    0.4527    1.0000 </r>
       <r>    0.8374    1.0000 </r>
       <r>    1.0756    1.0000 </r>
       <r>    1.1748    1.0000 </r>
       <r>    1.4168    1.0000 </r>
       <r>    1.4784    1.0000 </r>
       <r>    1.6798    1.0000 </r>
       <r>    1.7257    1.0000 </r>
       <r>    1.8966    1.0000 </r>
       <r>    2.0877    1.0000 </r>
       <r>    2.1171    1.0000 </r>
       <r>    2.2381    1.0000 </r>
       <r>    4.8998    0.6674 </r>
       <r>    8.2973    0.0000 </r>
       <r>    9.2305    0.0000 </r>
       <r>    9.6770    0.0000 </r>
       <r>   10.8272    0.0000 </r>
       <r>   11.7081    0.0000 </r>
       <r>   12.3777    0.0000 </r>
       <r>   12.6227    0.0000 </r>
       <r>   12.7328    0.0000 </r>
       <r>   13.3958    0.0000 </r>
       <r>   13.4709    0.0000 </r>
       <r>   14.1980    0.0000 </r>
       <r>   14.2396    0.0000 </r>
       <r>   14.3003    0.0000 </r>
       <r>   14.5820    0.0000 </r>
       <r>   14.7927    0.0000 </r>
      </set>
      <set comment="kpoint 12">
       <r>  -13.9958    1.0000 </r>
       <r>  -13.5747    1.0000 </r>
       <r>  -13.4087    1.0000 </r>
       <r>  -13.1792    1.0000 </r>
       <r>  -13.1393    1.0000 </r>
       <r>  -13.0525    1.0000 </r>
       <r>  -12.9274    1.0000 </r>
       <r>   -1.1363    1.0000 </r>
       <r>   -0.9787    1.0000 </r>
       <r>   -0.9236    1.0000 </r>
       <r>   -0.6802    1.0000 </r>
       <r>   -0.5275    1.0000 </r>
       <r>   -0.2260    1.0000 </r>
       <r>   -0.0525    1.0000 </r>
       <r>    0.3141    1.0000 </r>
       <r>    0.4247    1.0000 </r>
       <r>    0.4525    1.0000 </r>
       <r>    0.8358    1.0000 </r>
       <r>    1.0749    1.0000 </r>
       <r>    1.1730    1.0000 </r>
       <r>    1.4170    1.0000 </r>
       <r>    1.4793    1.0000 </r>
       <r>    1.6800    1.0000 </r>
       <r>    1.7257    1.0000 </r>
       <r>    1.8971    1.0000 </r>
       <r>    2.0882    1.0000 </r>
       <r>    2.1176    1.0000 </r>
       <r>    2.2385    1.0000 </r>
       <r>    4.8998    0.6675 </r>
       <r>    8.2953    0.0000 </r>
       <r>    9.2303    0.0000 </r>
       <r>    9.6796    0.0000 </r>
       <r>   10.8259    0.0000 </r>
       <r>   11.7091    0.0000 </r>
       <r>   12.3779    0.0000 </r>
       <r>   12.6223    0.0000 </r>
       <r>   12.7320    0.0000 </r>
       <r>   13.3964    0.0000 </r>
       <r>   13.4704    0.0000 </r>
       <r>   14.1990    0.0000 </r>
       <r>   14.2400    0.0000 </r>
       <r>   14.3007    0.0000 </r>
       <r>   14.5817    0.0000 </r>
       <r>   14.7936    0.0000 </r>
      </set>
      <set comment="kpoint 13">
       <r>  -13.9949    1.0000 </r>
       <r>  -13.5774    1.0000 </r>
       <r>  -13.4081    1.0000 </r>
       <r>  -13.1793    1.0000 </r>
       <r>  -13.1360    1.0000 </r>
       <r>  -13.0545    1.0000 </r>
       <r>  -12.9275    1.0000 </r>
       <r>   -1.1345    1.0000 </r>
       <r>   -0.9756    1.0000 </r>
       <r>   -0.9228    1.0000 </r>
       <r>   -0.6836    1.0000 </r>
       <r>   -0.5265    1.0000 </r>
       <r>   -0.2280    1.0000 </r>
       <r>   -0.0561    1.0000 </r>
       <r>    0.3131    1.0000 </r>
       <r>    0.4233    1.0000 </r>
       <r>    0.4520    1.0000 </r>
       <r>    0.8382    1.0000 </r>
       <r>    1.0757    1.0000 </r>
       <r>    1.1757    1.0000 </r>
       <r>    1.4158    1.0000 </r>
       <r>    1.4767    1.0000 </r>
       <r>    1.6842    1.0000 </r>
       <r>    1.7251    1.0000 </r>
       <r>    1.8963    1.0000 </r>
       <r>    2.0877    1.0000 </r>
       <r>    2.1144    1.0000 </r>
       <r>    2.2422    1.0000 </r>
       <r>    4.9000    0.6652 </r>
       <r>    8.2976    0.0000 </r>
       <r>    9.2304    0.0000 </r>
       <r>    9.6774    0.0000 </r>
       <r>   10.8267    0.0000 </r>
       <r>   11.7067    0.0000 </r>
       <r>   12.3773    0.0000 </r>
       <r>   12.6225    0.0000 </r>
       <r>   12.7346    0.0000 </r>
       <r>   13.3954    0.0000 </r>
       <r>   13.4691    0.0000 </r>
       <r>   14.1990    0.0000 </r>
       <r>   14.2408    0.0000 </r>
       <r>   14.3013    0.0000 </r>
       <r>   14.5818    0.0000 </r>
       <r>   14.7920    0.0000 </r>
      </set>
      <set comment="kpoint 14">
       <r>  -13.9949    1.0000 </r>
       <r>  -13.5775    1.0000 </r>
       <r>  -13.4079    1.0000 </r>
       <r>  -13.1793    1.0000 </r>
       <r>  -13.1363    1.0000 </r>
       <r>  -13.0544    1.0000 </r>
       <r>  -12.9274    1.0000 </r>
       <r>   -1.1344    1.0000 </r>
       <r>   -0.9758    1.0000 </r>
       <r>   -0.9226    1.0000 </r>
       <r>   -0.6836    1.0000 </r>
       <r>   -0.5264    1.0000 </r>
       <r>   -0.2280    1.0000 </r>
       <r>   -0.0560    1.0000 </r>
       <r>    0.3128    1.0000 </r>
       <r>    0.4234    1.0000 </r>
       <r>    0.4518    1.0000 </r>
       <r>    0.8379    1.0000 </r>
       <r>    1.0759    1.0000 </r>
       <r>    1.1754    1.0000 </r>
       <r>    1.4158    1.0000 </r>
       <r>    1.4771    1.0000 </r>
       <r>    1.6841    1.0000 </r>
       <r>    1.7251    1.0000 </r>
       <r>    1.8964    1.0000 </r>
       <r>    2.0879    1.0000 </r>
       <r>    2.1145    1.0000 </r>
       <r>    2.2422    1.0000 </r>
       <r>    4.9000    0.6651 </r>
       <r>    8.2975    0.0000 </r>
       <r>    9.2301    0.0000 </r>
       <r>    9.6779    0.0000 </r>
       <r>   10.8265    0.0000 </r>
       <r>   11.7067    0.0000 </r>
       <r>   12.3772    0.0000 </r>
       <r>   12.6228    0.0000 </r>
       <r>   12.7345    0.0000 </r>
       <r>   13.3955    0.0000 </r>
       <r>   13.4692    0.0000 </r>
       <r>   14.1992    0.0000 </r>
       <r>   14.2407    0.0000 </r>
       <r>   14.3010    0.0000 </r>
       <r>   14.5817    0.0000 </r>
       <r>   14.7922    0.0000 </r>
      </set>
      <set comment="kpoint 15">
       <r>  -13.9955    1.0000 </r>
       <r>  -13.5758    1.0000 </r>
       <r>  -13.4083    1.0000 </r>
       <r>  -13.1795    1.0000 </r>
       <r>  -13.1379    1.0000 </r>
       <r>  -13.0530    1.0000 </r>
       <r>  -12.9277    1.0000 </r>
       <r>   -1.1361    1.0000 </r>
       <r>   -0.9783    1.0000 </r>
       <r>   -0.9230    1.0000 </r>
       <r>   -0.6811    1.0000 </r>
       <r>   -0.5276    1.0000 </r>
       <r>   -0.2272    1.0000 </r>
       <r>   -0.0531    1.0000 </r>
       <r>    0.3143    1.0000 </r>
       <r>    0.4247    1.0000 </r>
       <r>    0.4526    1.0000 </r>
       <r>    0.8377    1.0000 </r>
       <r>    1.0750    1.0000 </r>
       <r>    1.1750    1.0000 </r>
       <r>    1.4170    1.0000 </r>
       <r>    1.4777    1.0000 </r>
       <r>    1.6802    1.0000 </r>
       <r>    1.7259    1.0000 </r>
       <r>    1.8961    1.0000 </r>
       <r>    2.0880    1.0000 </r>
       <r>    2.1162    1.0000 </r>
       <r>    2.2392    1.0000 </r>
       <r>    4.8999    0.6665 </r>
       <r>    8.2969    0.0000 </r>
       <r>    9.2307    0.0000 </r>
       <r>    9.6772    0.0000 </r>
       <r>   10.8274    0.0000 </r>
       <r>   11.7076    0.0000 </r>
       <r>   12.3776    0.0000 </r>
       <r>   12.6229    0.0000 </r>
       <r>   12.7328    0.0000 </r>
       <r>   13.3956    0.0000 </r>
       <r>   13.4705    0.0000 </r>
       <r>   14.1985    0.0000 </r>
       <r>   14.2405    0.0000 </r>
       <r>   14.3013    0.0000 </r>
       <r>   14.5821    0.0000 </r>
       <r>   14.7927    0.0000 </r>
      </set>
      <set comment="kpoint 16">
       <r>  -13.9958    1.0000 </r>
       <r>  -13.5748    1.0000 </r>
       <r>  -13.4086    1.0000 </r>
       <r>  -13.1793    1.0000 </r>
       <r>  -13.1394    1.0000 </r>
       <r>  -13.0524    1.0000 </r>
       <r>  -12.9275    1.0000 </r>
       <r>   -1.1366    1.0000 </r>
       <r>   -0.9790    1.0000 </r>
       <r>   -0.9231    1.0000 </r>
       <r>   -0.6801    1.0000 </r>
       <r>   -0.5274    1.0000 </r>
       <r>   -0.2257    1.0000 </r>
       <r>   -0.0524    1.0000 </r>
       <r>    0.3133    1.0000 </r>
       <r>    0.4246    1.0000 </r>
       <r>    0.4526    1.0000 </r>
       <r>    0.8356    1.0000 </r>
       <r>    1.0757    1.0000 </r>
       <r>    1.1730    1.0000 </r>
       <r>    1.4169    1.0000 </r>
       <r>    1.4801    1.0000 </r>
       <r>    1.6792    1.0000 </r>
       <r>    1.7256    1.0000 </r>
       <r>    1.8973    1.0000 </r>
       <r>    2.0881    1.0000 </r>
       <r>    2.1184    1.0000 </r>
       <r>    2.2374    1.0000 </r>
       <r>    4.8998    0.6680 </r>
       <r>    8.2960    0.0000 </r>
       <r>    9.2298    0.0000 </r>
       <r>    9.6794    0.0000 </r>
       <r>   10.8260    0.0000 </r>
       <r>   11.7090    0.0000 </r>
       <r>   12.3777    0.0000 </r>
       <r>   12.6228    0.0000 </r>
       <r>   12.7319    0.0000 </r>
       <r>   13.3967    0.0000 </r>
       <r>   13.4710    0.0000 </r>
       <r>   14.1988    0.0000 </r>
       <r>   14.2390    0.0000 </r>
       <r>   14.2998    0.0000 </r>
       <r>   14.5815    0.0000 </r>
       <r>   14.7937    0.0000 </r>
      </set>
     </set>
     <set comment="spin 2">
      <set comment="kpoint 1">
       <r>  -14.2230    1.0000 </r>
       <r>  -13.4628    1.0000 </r>
       <r>  -13.2617    1.0000 </r>
       <r>  -13.1069    1.0000 </r>
       <r>  -13.1048    1.0000 </r>
       <r>  -12.9332    1.0000 </r>
       <r>  -12.9310    1.0000 </r>
       <r>   -1.4660    1.0000 </r>
       <r>   -1.4622    1.0000 </r>
       <r>   -1.4065    1.0000 </r>
       <r>   -1.2034    1.0000 </r>
       <r>   -0.8226    1.0000 </r>
       <r>   -0.4863    1.0000 </r>
       <r>   -0.4822    1.0000 </r>
       <r>    1.0034    1.0000 </r>
       <r>    1.1019    1.0000 </r>
       <r>    1.1097    1.0000 </r>
       <r>    1.4816    1.0000 </r>
       <r>    1.4838    1.0000 </r>
       <r>    1.5304    1.0000 </r>
       <r>    1.5794    1.0000 </r>
       <r>    1.7074    1.0000 </r>
       <r>    1.7131    1.0000 </r>
       <r>    2.0191    1.0000 </r>
       <r>    2.1757    1.0000 </r>
       <r>    2.1762    1.0000 </r>
       <r>    2.4327    1.0000 </r>
       <r>    2.4344    1.0000 </r>
       <r>    4.5625    1.0000 </r>
       <r>    8.8838    0.0000 </r>
       <r>    9.9356    0.0000 </r>
       <r>   10.6437    0.0000 </r>
       <r>   10.6536    0.0000 </r>
       <r>   11.2885    0.0000 </r>
       <r>   11.5291    0.0000 </r>
       <r>   11.5435    0.0000 </r>
       <r>   12.4618    0.0000 </r>
       <r>   12.4634    0.0000 </r>
       <r>   12.7747    0.0000 </r>
       <r>   13.1806    0.0000 </r>
       <r>   13.4944    0.0000 </r>
       <r>   13.4964    0.0000 </r>
       <r>   15.0083    0.0000 </r>
       <r>   15.1701    0.0000 </r>
      </set>
      <set comment="kpoint 2">
       <r>  -14.2233    1.0000 </r>
       <r>  -13.4611    1.0000 </r>
       <r>  -13.2632    1.0000 </r>
       <r>  -13.1061    1.0000 </r>
       <r>  -13.1056    1.0000 </r>
       <r>  -12.9323    1.0000 </r>
       <r>  -12.9319    1.0000 </r>
       <r>   -1.4668    1.0000 </r>
       <r>   -1.4649    1.0000 </r>
       <r>   -1.4043    1.0000 </r>
       <r>   -1.2036    1.0000 </r>
       <r>   -0.8246    1.0000 </r>
       <r>   -0.4831    1.0000 </r>
       <r>   -0.4813    1.0000 </r>
       <r>    1.0045    1.0000 </r>
       <r>    1.1064    1.0000 </r>
       <r>    1.1084    1.0000 </r>
       <r>    1.4798    1.0000 </r>
       <r>    1.4816    1.0000 </r>
       <r>    1.5293    1.0000 </r>
       <r>    1.5808    1.0000 </r>
       <r>    1.7093    1.0000 </r>
       <r>    1.7107    1.0000 </r>
       <r>    2.0193    1.0000 </r>
       <r>    2.1769    1.0000 </r>
       <r>    2.1773    1.0000 </r>
       <r>    2.4316    1.0000 </r>
       <r>    2.4323    1.0000 </r>
       <r>    4.5624    1.0000 </r>
       <r>    8.8824    0.0000 </r>
       <r>    9.9348    0.0000 </r>
       <r>   10.6481    0.0000 </r>
       <r>   10.6505    0.0000 </r>
       <r>   11.2900    0.0000 </r>
       <r>   11.5350    0.0000 </r>
       <r>   11.5367    0.0000 </r>
       <r>   12.4630    0.0000 </r>
       <r>   12.4640    0.0000 </r>
       <r>   12.7759    0.0000 </r>
       <r>   13.1783    0.0000 </r>
       <r>   13.4950    0.0000 </r>
       <r>   13.4955    0.0000 </r>
       <r>   15.0083    0.0000 </r>
       <r>   15.1726    0.0000 </r>
      </set>
      <set comment="kpoint 3">
       <r>  -14.2232    1.0000 </r>
       <r>  -13.4617    1.0000 </r>
       <r>  -13.2627    1.0000 </r>
       <r>  -13.1066    1.0000 </r>
       <r>  -13.1050    1.0000 </r>
       <r>  -12.9329    1.0000 </r>
       <r>  -12.9313    1.0000 </r>
       <r>   -1.4670    1.0000 </r>
       <r>   -1.4635    1.0000 </r>
       <r>   -1.4051    1.0000 </r>
       <r>   -1.2036    1.0000 </r>
       <r>   -0.8239    1.0000 </r>
       <r>   -0.4849    1.0000 </r>
       <r>   -0.4810    1.0000 </r>
       <r>    1.0040    1.0000 </r>
       <r>    1.1040    1.0000 </r>
       <r>    1.1097    1.0000 </r>
       <r>    1.4801    1.0000 </r>
       <r>    1.4829    1.0000 </r>
       <r>    1.5296    1.0000 </r>
       <r>    1.5803    1.0000 </r>
       <r>    1.7080    1.0000 </r>
       <r>    1.7122    1.0000 </r>
       <r>    2.0191    1.0000 </r>
       <r>    2.1760    1.0000 </r>
       <r>    2.1774    1.0000 </r>
       <r>    2.4320    1.0000 </r>
       <r>    2.4329    1.0000 </r>
       <r>    4.5625    1.0000 </r>
       <r>    8.8829    0.0000 </r>
       <r>    9.9351    0.0000 </r>
       <r>   10.6455    0.0000 </r>
       <r>   10.6523    0.0000 </r>
       <r>   11.2895    0.0000 </r>
       <r>   11.5310    0.0000 </r>
       <r>   11.5411    0.0000 </r>
       <r>   12.4627    0.0000 </r>
       <r>   12.4640    0.0000 </r>
       <r>   12.7756    0.0000 </r>
       <r>   13.1793    0.0000 </r>
       <r>   13.4943    0.0000 </r>
       <r>   13.4961    0.0000 </r>
       <r>   15.0083    0.0000 </r>
       <r>   15.1719    0.0000 </r>
      </set>
      <set comment="kpoint 4">
       <r>  -14.2233    1.0000 </r>
       <r>  -13.4616    1.0000 </r>
       <r>  -13.2628    1.0000 </r>
       <r>  -13.1063    1.0000 </r>
       <r>  -13.1053    1.0000 </r>
       <r>  -12.9326    1.0000 </r>
       <r>  -12.9316    1.0000 </r>
       <r>   -1.4668    1.0000 </r>
       <r>   -1.4639    1.0000 </r>
       <r>   -1.4050    1.0000 </r>
       <r>   -1.2036    1.0000 </r>
       <r>   -0.8240    1.0000 </r>
       <r>   -0.4846    1.0000 </r>
       <r>   -0.4810    1.0000 </r>
       <r>    1.0042    1.0000 </r>
       <r>    1.1054    1.0000 </r>
       <r>    1.1086    1.0000 </r>
       <r>    1.4802    1.0000 </r>
       <r>    1.4824    1.0000 </r>
       <r>    1.5295    1.0000 </r>
       <r>    1.5805    1.0000 </r>
       <r>    1.7090    1.0000 </r>
       <r>    1.7112    1.0000 </r>
       <r>    2.0191    1.0000 </r>
       <r>    2.1760    1.0000 </r>
       <r>    2.1775    1.0000 </r>
       <r>    2.4316    1.0000 </r>
       <r>    2.4331    1.0000 </r>
       <r>    4.5625    1.0000 </r>
       <r>    8.8828    0.0000 </r>
       <r>    9.9351    0.0000 </r>
       <r>   10.6463    0.0000 </r>
       <r>   10.6518    0.0000 </r>
       <r>   11.2896    0.0000 </r>
       <r>   11.5327    0.0000 </r>
       <r>   11.5392    0.0000 </r>
       <r>   12.4627    0.0000 </r>
       <r>   12.4638    0.0000 </r>
       <r>   12.7756    0.0000 </r>
       <r>   13.1791    0.0000 </r>
       <r>   13.4946    0.0000 </r>
       <r>   13.4959    0.0000 </r>
       <r>   15.0083    0.0000 </r>
       <r>   15.1719    0.0000 </r>
      </set>
      <set comment="kpoint 5">
       <r>  -13.9867    1.0000 </r>
       <r>  -13.5497    1.0000 </r>
       <r>  -13.3845    1.0000 </r>
       <r>  -13.1497    1.0000 </r>
       <r>  -13.1087    1.0000 </r>
       <r>  -13.0240    1.0000 </r>
       <r>  -12.8970    1.0000 </r>
       <r>   -1.0407    1.0000 </r>
       <r>   -0.9726    1.0000 </r>
       <r>   -0.9008    1.0000 </r>
       <r>   -0.6504    1.0000 </r>
       <r>   -0.5080    1.0000 </r>
       <r>   -0.2021    1.0000 </r>
       <r>   -0.0056    1.0000 </r>
       <r>    0.3324    1.0000 </r>
       <r>    0.4497    1.0000 </r>
       <r>    0.4885    1.0000 </r>
       <r>    0.8679    1.0000 </r>
       <r>    1.1057    1.0000 </r>
       <r>    1.2006    1.0000 </r>
       <r>    1.4480    1.0000 </r>
       <r>    1.4904    1.0000 </r>
       <r>    1.6917    1.0000 </r>
       <r>    1.7464    1.0000 </r>
       <r>    1.9293    1.0000 </r>
       <r>    2.1063    1.0000 </r>
       <r>    2.1410    1.0000 </r>
       <r>    2.2580    1.0000 </r>
       <r>    5.6700    0.0000 </r>
       <r>    8.6019    0.0000 </r>
       <r>    9.5623    0.0000 </r>
       <r>   10.0315    0.0000 </r>
       <r>   10.9144    0.0000 </r>
       <r>   11.7959    0.0000 </r>
       <r>   12.4165    0.0000 </r>
       <r>   12.6779    0.0000 </r>
       <r>   12.7815    0.0000 </r>
       <r>   13.4615    0.0000 </r>
       <r>   13.5314    0.0000 </r>
       <r>   14.2213    0.0000 </r>
       <r>   14.3123    0.0000 </r>
       <r>   14.3524    0.0000 </r>
       <r>   14.5987    0.0000 </r>
       <r>   14.8117    0.0000 </r>
      </set>
      <set comment="kpoint 6">
       <r>  -13.9864    1.0000 </r>
       <r>  -13.5502    1.0000 </r>
       <r>  -13.3844    1.0000 </r>
       <r>  -13.1494    1.0000 </r>
       <r>  -13.1083    1.0000 </r>
       <r>  -13.0247    1.0000 </r>
       <r>  -12.8967    1.0000 </r>
       <r>   -1.0401    1.0000 </r>
       <r>   -0.9712    1.0000 </r>
       <r>   -0.9004    1.0000 </r>
       <r>   -0.6514    1.0000 </r>
       <r>   -0.5073    1.0000 </r>
       <r>   -0.2020    1.0000 </r>
       <r>   -0.0073    1.0000 </r>
       <r>    0.3307    1.0000 </r>
       <r>    0.4488    1.0000 </r>
       <r>    0.4883    1.0000 </r>
       <r>    0.8672    1.0000 </r>
       <r>    1.1069    1.0000 </r>
       <r>    1.1999    1.0000 </r>
       <r>    1.4468    1.0000 </r>
       <r>    1.4913    1.0000 </r>
       <r>    1.6938    1.0000 </r>
       <r>    1.7457    1.0000 </r>
       <r>    1.9301    1.0000 </r>
       <r>    2.1062    1.0000 </r>
       <r>    2.1412    1.0000 </r>
       <r>    2.2587    1.0000 </r>
       <r>    5.6700    0.0000 </r>
       <r>    8.6024    0.0000 </r>
       <r>    9.5613    0.0000 </r>
       <r>   10.0324    0.0000 </r>
       <r>   10.9134    0.0000 </r>
       <r>   11.7959    0.0000 </r>
       <r>   12.4167    0.0000 </r>
       <r>   12.6776    0.0000 </r>
       <r>   12.7822    0.0000 </r>
       <r>   13.4618    0.0000 </r>
       <r>   13.5311    0.0000 </r>
       <r>   14.2221    0.0000 </r>
       <r>   14.3118    0.0000 </r>
       <r>   14.3512    0.0000 </r>
       <r>   14.5983    0.0000 </r>
       <r>   14.8119    0.0000 </r>
      </set>
      <set comment="kpoint 7">
       <r>  -13.9864    1.0000 </r>
       <r>  -13.5504    1.0000 </r>
       <r>  -13.3843    1.0000 </r>
       <r>  -13.1495    1.0000 </r>
       <r>  -13.1080    1.0000 </r>
       <r>  -13.0247    1.0000 </r>
       <r>  -12.8967    1.0000 </r>
       <r>   -1.0401    1.0000 </r>
       <r>   -0.9710    1.0000 </r>
       <r>   -0.9004    1.0000 </r>
       <r>   -0.6515    1.0000 </r>
       <r>   -0.5074    1.0000 </r>
       <r>   -0.2022    1.0000 </r>
       <r>   -0.0074    1.0000 </r>
       <r>    0.3306    1.0000 </r>
       <r>    0.4487    1.0000 </r>
       <r>    0.4884    1.0000 </r>
       <r>    0.8675    1.0000 </r>
       <r>    1.1071    1.0000 </r>
       <r>    1.2002    1.0000 </r>
       <r>    1.4467    1.0000 </r>
       <r>    1.4911    1.0000 </r>
       <r>    1.6939    1.0000 </r>
       <r>    1.7457    1.0000 </r>
       <r>    1.9300    1.0000 </r>
       <r>    2.1062    1.0000 </r>
       <r>    2.1411    1.0000 </r>
       <r>    2.2587    1.0000 </r>
       <r>    5.6700    0.0000 </r>
       <r>    8.6026    0.0000 </r>
       <r>    9.5613    0.0000 </r>
       <r>   10.0318    0.0000 </r>
       <r>   10.9137    0.0000 </r>
       <r>   11.7956    0.0000 </r>
       <r>   12.4167    0.0000 </r>
       <r>   12.6777    0.0000 </r>
       <r>   12.7824    0.0000 </r>
       <r>   13.4619    0.0000 </r>
       <r>   13.5309    0.0000 </r>
       <r>   14.2220    0.0000 </r>
       <r>   14.3122    0.0000 </r>
       <r>   14.3514    0.0000 </r>
       <r>   14.5984    0.0000 </r>
       <r>   14.8115    0.0000 </r>
      </set>
      <set comment="kpoint 8">
       <r>  -13.9863    1.0000 </r>
       <r>  -13.5516    1.0000 </r>
       <r>  -13.3820    1.0000 </r>
       <r>  -13.1494    1.0000 </r>
       <r>  -13.1109    1.0000 </r>
       <r>  -13.0231    1.0000 </r>
       <r>  -12.8967    1.0000 </r>
       <r>   -1.0386    1.0000 </r>
       <r>   -0.9734    1.0000 </r>
       <r>   -0.8999    1.0000 </r>
       <r>   -0.6511    1.0000 </r>
       <r>   -0.5066    1.0000 </r>
       <r>   -0.2033    1.0000 </r>
       <r>   -0.0054    1.0000 </r>
       <r>    0.3279    1.0000 </r>
       <r>    0.4487    1.0000 </r>
       <r>    0.4897    1.0000 </r>
       <r>    0.8648    1.0000 </r>
       <r>    1.1086    1.0000 </r>
       <r>    1.1991    1.0000 </r>
       <r>    1.4474    1.0000 </r>
       <r>    1.4946    1.0000 </r>
       <r>    1.6915    1.0000 </r>
       <r>    1.7464    1.0000 </r>
       <r>    1.9302    1.0000 </r>
       <r>    2.1073    1.0000 </r>
       <r>    2.1379    1.0000 </r>
       <r>    2.2602    1.0000 </r>
       <r>    5.6701    0.0000 </r>
       <r>    8.6031    0.0000 </r>
       <r>    9.5587    0.0000 </r>
       <r>   10.0342    0.0000 </r>
       <r>   10.9135    0.0000 </r>
       <r>   11.7953    0.0000 </r>
       <r>   12.4173    0.0000 </r>
       <r>   12.6800    0.0000 </r>
       <r>   12.7799    0.0000 </r>
       <r>   13.4623    0.0000 </r>
       <r>   13.5303    0.0000 </r>
       <r>   14.2230    0.0000 </r>
       <r>   14.3115    0.0000 </r>
       <r>   14.3511    0.0000 </r>
       <r>   14.5970    0.0000 </r>
       <r>   14.8132    0.0000 </r>
      </set>
      <set comment="kpoint 9">
       <r>  -13.9857    1.0000 </r>
       <r>  -13.5535    1.0000 </r>
       <r>  -13.3815    1.0000 </r>
       <r>  -13.1497    1.0000 </r>
       <r>  -13.1084    1.0000 </r>
       <r>  -13.0242    1.0000 </r>
       <r>  -12.8969    1.0000 </r>
       <r>   -1.0382    1.0000 </r>
       <r>   -0.9718    1.0000 </r>
       <r>   -0.8992    1.0000 </r>
       <r>   -0.6528    1.0000 </r>
       <r>   -0.5063    1.0000 </r>
       <r>   -0.2046    1.0000 </r>
       <r>   -0.0072    1.0000 </r>
       <r>    0.3275    1.0000 </r>
       <r>    0.4480    1.0000 </r>
       <r>    0.4895    1.0000 </r>
       <r>    0.8671    1.0000 </r>
       <r>    1.1092    1.0000 </r>
       <r>    1.2018    1.0000 </r>
       <r>    1.4472    1.0000 </r>
       <r>    1.4924    1.0000 </r>
       <r>    1.6930    1.0000 </r>
       <r>    1.7463    1.0000 </r>
       <r>    1.9294    1.0000 </r>
       <r>    2.1068    1.0000 </r>
       <r>    2.1358    1.0000 </r>
       <r>    2.2617    1.0000 </r>
       <r>    5.6699    0.0000 </r>
       <r>    8.6057    0.0000 </r>
       <r>    9.5590    0.0000 </r>
       <r>   10.0313    0.0000 </r>
       <r>   10.9150    0.0000 </r>
       <r>   11.7934    0.0000 </r>
       <r>   12.4167    0.0000 </r>
       <r>   12.6804    0.0000 </r>
       <r>   12.7816    0.0000 </r>
       <r>   13.4613    0.0000 </r>
       <r>   13.5302    0.0000 </r>
       <r>   14.2216    0.0000 </r>
       <r>   14.3115    0.0000 </r>
       <r>   14.3513    0.0000 </r>
       <r>   14.5974    0.0000 </r>
       <r>   14.8118    0.0000 </r>
      </set>
      <set comment="kpoint 10">
       <r>  -13.9863    1.0000 </r>
       <r>  -13.5515    1.0000 </r>
       <r>  -13.3821    1.0000 </r>
       <r>  -13.1495    1.0000 </r>
       <r>  -13.1110    1.0000 </r>
       <r>  -13.0230    1.0000 </r>
       <r>  -12.8967    1.0000 </r>
       <r>   -1.0384    1.0000 </r>
       <r>   -0.9738    1.0000 </r>
       <r>   -0.9002    1.0000 </r>
       <r>   -0.6510    1.0000 </r>
       <r>   -0.5068    1.0000 </r>
       <r>   -0.2036    1.0000 </r>
       <r>   -0.0049    1.0000 </r>
       <r>    0.3289    1.0000 </r>
       <r>    0.4492    1.0000 </r>
       <r>    0.4895    1.0000 </r>
       <r>    0.8651    1.0000 </r>
       <r>    1.1077    1.0000 </r>
       <r>    1.1994    1.0000 </r>
       <r>    1.4479    1.0000 </r>
       <r>    1.4939    1.0000 </r>
       <r>    1.6913    1.0000 </r>
       <r>    1.7466    1.0000 </r>
       <r>    1.9298    1.0000 </r>
       <r>    2.1074    1.0000 </r>
       <r>    2.1370    1.0000 </r>
       <r>    2.2609    1.0000 </r>
       <r>    5.6701    0.0000 </r>
       <r>    8.6026    0.0000 </r>
       <r>    9.5592    0.0000 </r>
       <r>   10.0343    0.0000 </r>
       <r>   10.9137    0.0000 </r>
       <r>   11.7953    0.0000 </r>
       <r>   12.4171    0.0000 </r>
       <r>   12.6800    0.0000 </r>
       <r>   12.7797    0.0000 </r>
       <r>   13.4619    0.0000 </r>
       <r>   13.5301    0.0000 </r>
       <r>   14.2232    0.0000 </r>
       <r>   14.3118    0.0000 </r>
       <r>   14.3520    0.0000 </r>
       <r>   14.5972    0.0000 </r>
       <r>   14.8131    0.0000 </r>
      </set>
      <set comment="kpoint 11">
       <r>  -13.9864    1.0000 </r>
       <r>  -13.5512    1.0000 </r>
       <r>  -13.3828    1.0000 </r>
       <r>  -13.1497    1.0000 </r>
       <r>  -13.1097    1.0000 </r>
       <r>  -13.0234    1.0000 </r>
       <r>  -12.8970    1.0000 </r>
       <r>   -1.0399    1.0000 </r>
       <r>   -0.9732    1.0000 </r>
       <r>   -0.9000    1.0000 </r>
       <r>   -0.6509    1.0000 </r>
       <r>   -0.5071    1.0000 </r>
       <r>   -0.2029    1.0000 </r>
       <r>   -0.0055    1.0000 </r>
       <r>    0.3293    1.0000 </r>
       <r>    0.4491    1.0000 </r>
       <r>    0.4897    1.0000 </r>
       <r>    0.8665    1.0000 </r>
       <r>    1.1079    1.0000 </r>
       <r>    1.2006    1.0000 </r>
       <r>    1.4476    1.0000 </r>
       <r>    1.4929    1.0000 </r>
       <r>    1.6909    1.0000 </r>
       <r>    1.7465    1.0000 </r>
       <r>    1.9298    1.0000 </r>
       <r>    2.1067    1.0000 </r>
       <r>    2.1388    1.0000 </r>
       <r>    2.2587    1.0000 </r>
       <r>    5.6700    0.0000 </r>
       <r>    8.6037    0.0000 </r>
       <r>    9.5600    0.0000 </r>
       <r>   10.0318    0.0000 </r>
       <r>   10.9146    0.0000 </r>
       <r>   11.7952    0.0000 </r>
       <r>   12.4171    0.0000 </r>
       <r>   12.6794    0.0000 </r>
       <r>   12.7805    0.0000 </r>
       <r>   13.4618    0.0000 </r>
       <r>   13.5310    0.0000 </r>
       <r>   14.2216    0.0000 </r>
       <r>   14.3113    0.0000 </r>
       <r>   14.3513    0.0000 </r>
       <r>   14.5978    0.0000 </r>
       <r>   14.8122    0.0000 </r>
      </set>
      <set comment="kpoint 12">
       <r>  -13.9866    1.0000 </r>
       <r>  -13.5503    1.0000 </r>
       <r>  -13.3830    1.0000 </r>
       <r>  -13.1494    1.0000 </r>
       <r>  -13.1110    1.0000 </r>
       <r>  -13.0230    1.0000 </r>
       <r>  -12.8967    1.0000 </r>
       <r>   -1.0395    1.0000 </r>
       <r>   -0.9736    1.0000 </r>
       <r>   -0.9005    1.0000 </r>
       <r>   -0.6503    1.0000 </r>
       <r>   -0.5070    1.0000 </r>
       <r>   -0.2024    1.0000 </r>
       <r>   -0.0048    1.0000 </r>
       <r>    0.3295    1.0000 </r>
       <r>    0.4493    1.0000 </r>
       <r>    0.4894    1.0000 </r>
       <r>    0.8649    1.0000 </r>
       <r>    1.1072    1.0000 </r>
       <r>    1.1988    1.0000 </r>
       <r>    1.4477    1.0000 </r>
       <r>    1.4939    1.0000 </r>
       <r>    1.6911    1.0000 </r>
       <r>    1.7465    1.0000 </r>
       <r>    1.9304    1.0000 </r>
       <r>    2.1072    1.0000 </r>
       <r>    2.1393    1.0000 </r>
       <r>    2.2591    1.0000 </r>
       <r>    5.6700    0.0000 </r>
       <r>    8.6020    0.0000 </r>
       <r>    9.5598    0.0000 </r>
       <r>   10.0343    0.0000 </r>
       <r>   10.9132    0.0000 </r>
       <r>   11.7963    0.0000 </r>
       <r>   12.4174    0.0000 </r>
       <r>   12.6790    0.0000 </r>
       <r>   12.7797    0.0000 </r>
       <r>   13.4622    0.0000 </r>
       <r>   13.5307    0.0000 </r>
       <r>   14.2228    0.0000 </r>
       <r>   14.3114    0.0000 </r>
       <r>   14.3515    0.0000 </r>
       <r>   14.5975    0.0000 </r>
       <r>   14.8131    0.0000 </r>
      </set>
      <set comment="kpoint 13">
       <r>  -13.9857    1.0000 </r>
       <r>  -13.5530    1.0000 </r>
       <r>  -13.3824    1.0000 </r>
       <r>  -13.1495    1.0000 </r>
       <r>  -13.1079    1.0000 </r>
       <r>  -13.0249    1.0000 </r>
       <r>  -12.8967    1.0000 </r>
       <r>   -1.0379    1.0000 </r>
       <r>   -0.9705    1.0000 </r>
       <r>   -0.8999    1.0000 </r>
       <r>   -0.6531    1.0000 </r>
       <r>   -0.5064    1.0000 </r>
       <r>   -0.2044    1.0000 </r>
       <r>   -0.0082    1.0000 </r>
       <r>    0.3286    1.0000 </r>
       <r>    0.4478    1.0000 </r>
       <r>    0.4887    1.0000 </r>
       <r>    0.8673    1.0000 </r>
       <r>    1.1080    1.0000 </r>
       <r>    1.2013    1.0000 </r>
       <r>    1.4468    1.0000 </r>
       <r>    1.4912    1.0000 </r>
       <r>    1.6953    1.0000 </r>
       <r>    1.7460    1.0000 </r>
       <r>    1.9296    1.0000 </r>
       <r>    2.1067    1.0000 </r>
       <r>    2.1360    1.0000 </r>
       <r>    2.2628    1.0000 </r>
       <r>    5.6700    0.0000 </r>
       <r>    8.6045    0.0000 </r>
       <r>    9.5598    0.0000 </r>
       <r>   10.0321    0.0000 </r>
       <r>   10.9141    0.0000 </r>
       <r>   11.7940    0.0000 </r>
       <r>   12.4168    0.0000 </r>
       <r>   12.6791    0.0000 </r>
       <r>   12.7824    0.0000 </r>
       <r>   13.4613    0.0000 </r>
       <r>   13.5293    0.0000 </r>
       <r>   14.2226    0.0000 </r>
       <r>   14.3123    0.0000 </r>
       <r>   14.3520    0.0000 </r>
       <r>   14.5978    0.0000 </r>
       <r>   14.8115    0.0000 </r>
      </set>
      <set comment="kpoint 14">
       <r>  -13.9857    1.0000 </r>
       <r>  -13.5530    1.0000 </r>
       <r>  -13.3822    1.0000 </r>
       <r>  -13.1494    1.0000 </r>
       <r>  -13.1082    1.0000 </r>
       <r>  -13.0248    1.0000 </r>
       <r>  -12.8967    1.0000 </r>
       <r>   -1.0378    1.0000 </r>
       <r>   -0.9706    1.0000 </r>
       <r>   -0.8998    1.0000 </r>
       <r>   -0.6532    1.0000 </r>
       <r>   -0.5063    1.0000 </r>
       <r>   -0.2044    1.0000 </r>
       <r>   -0.0081    1.0000 </r>
       <r>    0.3283    1.0000 </r>
       <r>    0.4479    1.0000 </r>
       <r>    0.4886    1.0000 </r>
       <r>    0.8670    1.0000 </r>
       <r>    1.1082    1.0000 </r>
       <r>    1.2010    1.0000 </r>
       <r>    1.4467    1.0000 </r>
       <r>    1.4917    1.0000 </r>
       <r>    1.6952    1.0000 </r>
       <r>    1.7460    1.0000 </r>
       <r>    1.9297    1.0000 </r>
       <r>    2.1068    1.0000 </r>
       <r>    2.1361    1.0000 </r>
       <r>    2.2628    1.0000 </r>
       <r>    5.6700    0.0000 </r>
       <r>    8.6044    0.0000 </r>
       <r>    9.5595    0.0000 </r>
       <r>   10.0326    0.0000 </r>
       <r>   10.9139    0.0000 </r>
       <r>   11.7940    0.0000 </r>
       <r>   12.4167    0.0000 </r>
       <r>   12.6793    0.0000 </r>
       <r>   12.7823    0.0000 </r>
       <r>   13.4614    0.0000 </r>
       <r>   13.5294    0.0000 </r>
       <r>   14.2227    0.0000 </r>
       <r>   14.3122    0.0000 </r>
       <r>   14.3516    0.0000 </r>
       <r>   14.5977    0.0000 </r>
       <r>   14.8117    0.0000 </r>
      </set>
      <set comment="kpoint 15">
       <r>  -13.9863    1.0000 </r>
       <r>  -13.5515    1.0000 </r>
       <r>  -13.3826    1.0000 </r>
       <r>  -13.1497    1.0000 </r>
       <r>  -13.1096    1.0000 </r>
       <r>  -13.0235    1.0000 </r>
       <r>  -12.8970    1.0000 </r>
       <r>   -1.0393    1.0000 </r>
       <r>   -0.9732    1.0000 </r>
       <r>   -0.9002    1.0000 </r>
       <r>   -0.6510    1.0000 </r>
       <r>   -0.5072    1.0000 </r>
       <r>   -0.2036    1.0000 </r>
       <r>   -0.0054    1.0000 </r>
       <r>    0.3298    1.0000 </r>
       <r>    0.4492    1.0000 </r>
       <r>    0.4895    1.0000 </r>
       <r>    0.8669    1.0000 </r>
       <r>    1.1073    1.0000 </r>
       <r>    1.2008    1.0000 </r>
       <r>    1.4478    1.0000 </r>
       <r>    1.4922    1.0000 </r>
       <r>    1.6913    1.0000 </r>
       <r>    1.7467    1.0000 </r>
       <r>    1.9293    1.0000 </r>
       <r>    2.1069    1.0000 </r>
       <r>    2.1378    1.0000 </r>
       <r>    2.2598    1.0000 </r>
       <r>    5.6701    0.0000 </r>
       <r>    8.6033    0.0000 </r>
       <r>    9.5603    0.0000 </r>
       <r>   10.0320    0.0000 </r>
       <r>   10.9147    0.0000 </r>
       <r>   11.7948    0.0000 </r>
       <r>   12.4168    0.0000 </r>
       <r>   12.6798    0.0000 </r>
       <r>   12.7805    0.0000 </r>
       <r>   13.4616    0.0000 </r>
       <r>   13.5306    0.0000 </r>
       <r>   14.2220    0.0000 </r>
       <r>   14.3122    0.0000 </r>
       <r>   14.3521    0.0000 </r>
       <r>   14.5980    0.0000 </r>
       <r>   14.8120    0.0000 </r>
      </set>
      <set comment="kpoint 16">
       <r>  -13.9866    1.0000 </r>
       <r>  -13.5504    1.0000 </r>
       <r>  -13.3829    1.0000 </r>
       <r>  -13.1495    1.0000 </r>
       <r>  -13.1111    1.0000 </r>
       <r>  -13.0229    1.0000 </r>
       <r>  -12.8967    1.0000 </r>
       <r>   -1.0399    1.0000 </r>
       <r>   -0.9740    1.0000 </r>
       <r>   -0.9000    1.0000 </r>
       <r>   -0.6502    1.0000 </r>
       <r>   -0.5069    1.0000 </r>
       <r>   -0.2020    1.0000 </r>
       <r>   -0.0048    1.0000 </r>
       <r>    0.3288    1.0000 </r>
       <r>    0.4491    1.0000 </r>
       <r>    0.4896    1.0000 </r>
       <r>    0.8646    1.0000 </r>
       <r>    1.1081    1.0000 </r>
       <r>    1.1988    1.0000 </r>
       <r>    1.4476    1.0000 </r>
       <r>    1.4947    1.0000 </r>
       <r>    1.6903    1.0000 </r>
       <r>    1.7464    1.0000 </r>
       <r>    1.9306    1.0000 </r>
       <r>    2.1071    1.0000 </r>
       <r>    2.1401    1.0000 </r>
       <r>    2.2580    1.0000 </r>
       <r>    5.6700    0.0000 </r>
       <r>    8.6026    0.0000 </r>
       <r>    9.5593    0.0000 </r>
       <r>   10.0340    0.0000 </r>
       <r>   10.9133    0.0000 </r>
       <r>   11.7962    0.0000 </r>
       <r>   12.4173    0.0000 </r>
       <r>   12.6793    0.0000 </r>
       <r>   12.7797    0.0000 </r>
       <r>   13.4625    0.0000 </r>
       <r>   13.5313    0.0000 </r>
       <r>   14.2226    0.0000 </r>
       <r>   14.3106    0.0000 </r>
       <r>   14.3507    0.0000 </r>
       <r>   14.5972    0.0000 </r>
       <r>   14.8133    0.0000 </r>
      </set>
     </set>
    </set>
   </array>
  </eigenvalues>
  <separator name="orbital magnetization" >
   <v name="MAGDIPOLOUT">      0.00000000      0.00000000      0.00000000</v>
  </separator>
  <dos>
   <i name="efermi">      4.91511229 </i>
   <total>
    <array>
     <dimension dim="1">gridpoints</dimension>
     <dimension dim="2">spin</dimension>
     <field>energy</field>
     <field>total</field>
     <field>integrated</field>
     <set>
      <set comment="spin 1">
       <r>   -15.7097     0.0000     0.0000 </r>
       <r>   -15.6018     0.0000     0.0000 </r>
       <r>   -15.4940     0.0000     0.0000 </r>
       <r>   -15.3861     0.0000     0.0000 </r>
       <r>   -15.2783     0.0000     0.0000 </r>
       <r>   -15.1704     0.0000     0.0000 </r>
       <r>   -15.0626     0.0000     0.0000 </r>
       <r>   -14.9548     0.0000     0.0000 </r>
       <r>   -14.8469     0.0000     0.0000 </r>
       <r>   -14.7391     0.0000     0.0000 </r>
       <r>   -14.6312     0.0000     0.0000 </r>
       <r>   -14.5234     0.0000     0.0000 </r>
       <r>   -14.4155     0.0000     0.0000 </r>
       <r>   -14.3077     0.0601     0.0065 </r>
       <r>   -14.1999     1.9465     0.2164 </r>
       <r>   -14.0920     0.3336     0.2524 </r>
       <r>   -13.9842     4.3256     0.7189 </r>
[...]
        <r>  0.0000  0.0000  0.0027  0.0034  0.0000  0.0000  0.0000  0.0000  0.0000 </r>
        <r>  0.0001  0.0034  0.0027  0.0000  0.0000  0.0000  0.0000  0.0000  0.0000 </r>
        <r>  0.0166  0.0172  0.0070  0.0173  0.0000  0.0000  0.0000  0.0000  0.0000 </r>
        <r>  0.0007  0.0017  0.0053  0.0017  0.0000  0.0000  0.0000  0.0000  0.0000 </r>
       </set>
       <set comment="band 32">
        <r>  0.0000  0.0015  0.0000  0.0015  0.0000  0.0002  0.0000  0.0002  0.0001 </r>
        <r>  0.0000  0.0041  0.0000  0.0042  0.0000  0.0018  0.0000  0.0018  0.0003 </r>
        <r>  0.0227  0.0103  0.0008  0.0003  0.0009  0.0001  0.0001  0.0000  0.0024 </r>
        <r>  0.0230  0.0003  0.0008  0.0102  0.0009  0.0000  0.0001  0.0001  0.0024 </r>
        <r>  0.0228  0.0003  0.0008  0.0103  0.0009  0.0000  0.0001  0.0001  0.0024 </r>
        <r>  0.0225  0.0101  0.0008  0.0003  0.0009  0.0001  0.0001  0.0000  0.0024 </r>
        <r>  0.0000  0.0041  0.0000  0.0041  0.0000  0.0018  0.0000  0.0018  0.0003 </r>
        <r>  0.0000  0.0015  0.0000  0.0014  0.0000  0.0002  0.0000  0.0002  0.0001 </r>
        <r>  0.0000  0.0729  0.0000  0.0728  0.0000  0.0000  0.0000  0.0000  0.0000 </r>
        <r>  0.0081  0.0017  0.0057  0.0061  0.0000  0.0000  0.0000  0.0000  0.0000 </r>
        <r>  0.0080  0.0060  0.0056  0.0017  0.0000  0.0000  0.0000  0.0000  0.0000 </r>
        <r>  0.0118  0.0007  0.0004  0.0006  0.0000  0.0000  0.0000  0.0000  0.0000 </r>
        <r>  0.0117  0.0006  0.0004  0.0007  0.0000  0.0000  0.0000  0.0000  0.0000 </r>
        <r>  0.0000  0.0043  0.0000  0.0042  0.0000  0.0000  0.0000  0.0000  0.0000 </r>
        <r>  0.0000  0.0025  0.0000  0.0025  0.0000  0.0000  0.0000  0.0000  0.0000 </r>
       </set>
       <set comment="band 33">
        <r>  0.0095  0.0003  0.0023  0.0003  0.0002  0.0001  0.0001  0.0001  0.0000 </r>
        <r>  0.0031  0.0002  0.0156  0.0002  0.0000  0.0007  0.0017  0.0007  0.0000 </r>
        <r>  0.0141  0.0132  0.0005  0.0005  0.0008  0.0021  0.0002  0.0000  0.0002 </r>
        <r>  0.0140  0.0005  0.0004  0.0135  0.0008  0.0000  0.0002  0.0022  0.0002 </r>
        <r>  0.0139  0.0005  0.0005  0.0133  0.0009  0.0000  0.0003  0.0021  0.0002 </r>
        <r>  0.0139  0.0134  0.0005  0.0005  0.0009  0.0021  0.0003  0.0000  0.0002 </r>
        <r>  0.0032  0.0001  0.0155  0.0001  0.0000  0.0007  0.0018  0.0007  0.0000 </r>
        <r>  0.0096  0.0003  0.0023  0.0003  0.0003  0.0001  0.0001  0.0001  0.0000 </r>
        <r>  0.0149  0.0032  0.0057  0.0033  0.0000  0.0000  0.0000  0.0000  0.0000 </r>
        <r>  0.0038  0.0006  0.0229  0.0088  0.0000  0.0000  0.0000  0.0000  0.0000 </r>
        <r>  0.0038  0.0088  0.0229  0.0006  0.0000  0.0000  0.0000  0.0000  0.0000 </r>
        <r>  0.0028  0.0077  0.0113  0.0011  0.0000  0.0000  0.0000  0.0000  0.0000 </r>
        <r>  0.0028  0.0011  0.0114  0.0077  0.0000  0.0000  0.0000  0.0000  0.0000 </r>
        <r>  0.0105  0.0019  0.0041  0.0019  0.0000  0.0000  0.0000  0.0000  0.0000 </r>
        <r>  0.0558  0.0018  0.0141  0.0018  0.0000  0.0000  0.0000  0.0000  0.0000 </r>
       </set>
       <set comment="band 34">
        <r>  0.0244  0.0026  0.0043  0.0026  0.0005  0.0010  0.0008  0.0010  0.0000 </r>
        <r>  0.0028  0.0011  0.0025  0.0011  0.0007  0.0021  0.0005  0.0021  0.0000 </r>
        <r>  0.0013  0.0064  0.0009  0.0089  0.0023  0.0003  0.0005  0.0007  0.0014 </r>
        <r>  0.0012  0.0089  0.0009  0.0065  0.0023  0.0007  0.0005  0.0003  0.0013 </r>
        <r>  0.0013  0.0090  0.0009  0.0065  0.0023  0.0007  0.0005  0.0003  0.0014 </r>
        <r>  0.0013  0.0064  0.0009  0.0090  0.0023  0.0003  0.0005  0.0007  0.0014 </r>
        <r>  0.0028  0.0011  0.0025  0.0011  0.0008  0.0021  0.0005  0.0021  0.0000 </r>
        <r>  0.0242  0.0026  0.0043  0.0026  0.0005  0.0010  0.0008  0.0010  0.0000 </r>
        <r>  0.0378  0.0038  0.0032  0.0038  0.0000  0.0000  0.0000  0.0000  0.0000 </r>
        <r>  0.0094  0.0153  0.0024  0.0044  0.0000  0.0000  0.0000  0.0000  0.0000 </r>
        <r>  0.0095  0.0045  0.0024  0.0153  0.0000  0.0000  0.0000  0.0000  0.0000 </r>
        <r>  0.0014  0.0006  0.0001  0.0182  0.0000  0.0000  0.0000  0.0000  0.0000 </r>
        <r>  0.0014  0.0182  0.0001  0.0006  0.0000  0.0000  0.0000  0.0000  0.0000 </r>
        <r>  0.0055  0.0050  0.0007  0.0050  0.0000  0.0000  0.0000  0.0000  0.0000 </r>
        <r>  0.0042  0.0227  0.0051  0.0227  0.0000  0.0000  0.0000  0.0000  0.0000 </r>
       </set>
       <set comment="band 35">
        <r>  0.0150  0.0039  0.0039  0.0039  0.0002  0.0003  0.0013  0.0003  0.0000 </r>
        <r>  0.0121  0.0047  0.0012  0.0047  0.0021  0.0004  0.0008  0.0004  0.0000 </r>
        <r>  0.0008  0.0010  0.0016  0.0138  0.0011  0.0003  0.0005  0.0004  0.0001 </r>
        <r>  0.0008  0.0137  0.0016  0.0010  0.0010  0.0004  0.0005  0.0003  0.0001 </r>
        <r>  0.0008  0.0140  0.0016  0.0010  0.0010  0.0004  0.0005  0.0003  0.0001 </r>
        <r>  0.0008  0.0011  0.0017  0.0140  0.0010  0.0004  0.0005  0.0005  0.0001 </r>
        <r>  0.0119  0.0049  0.0010  0.0048  0.0020  0.0005  0.0008  0.0005  0.0000 </r>
        <r>  0.0157  0.0040  0.0039  0.0041  0.0002  0.0003  0.0012  0.0003  0.0000 </r>
        <r>  0.0152  0.0185  0.0000  0.0185  0.0000  0.0000  0.0000  0.0000  0.0000 </r>
        <r>  0.0137  0.0204  0.0012  0.0039  0.0000  0.0000  0.0000  0.0000  0.0000 </r>
        <r>  0.0138  0.0038  0.0012  0.0205  0.0000  0.0000  0.0000  0.0000  0.0000 </r>
        <r>  0.0007  0.0047  0.0078  0.0116  0.0000  0.0000  0.0000  0.0000  0.0000 </r>
        <r>  0.0007  0.0117  0.0078  0.0047  0.0000  0.0000  0.0000  0.0000  0.0000 </r>
        <r>  0.0212  0.0017  0.0221  0.0017  0.0000  0.0000  0.0000  0.0000  0.0000 </r>
        <r>  0.0066  0.0028  0.0129  0.0028  0.0000  0.0000  0.0000  0.0000  0.0000 </r>
       </set>
       <set comment="band 36">
        <r>  0.0224  0.0023  0.0019  0.0024  0.0028  0.0006  0.0010  0.0006  0.0000 </r>
        <r>  0.0058  0.0039  0.0069  0.0038  0.0020  0.0015  0.0033  0.0014  0.0000 </r>
        <r>  0.0073  0.0011  0.0011  0.0029  0.0018  0.0048  0.0005  0.0006  0.0002 </r>
        <r>  0.0075  0.0029  0.0010  0.0012  0.0018  0.0006  0.0005  0.0048  0.0002 </r>
        <r>  0.0070  0.0026  0.0010  0.0011  0.0018  0.0006  0.0005  0.0046  0.0002 </r>
        <r>  0.0072  0.0011  0.0010  0.0025  0.0018  0.0048  0.0005  0.0006  0.0002 </r>
        <r>  0.0062  0.0038  0.0071  0.0037  0.0021  0.0015  0.0033  0.0013  0.0000 </r>
        <r>  0.0220  0.0022  0.0017  0.0023  0.0028  0.0006  0.0010  0.0006  0.0000 </r>
        <r>  0.0052  0.0073  0.0329  0.0071  0.0000  0.0000  0.0000  0.0000  0.0000 </r>
        <r>  0.0011  0.0015  0.0058  0.0191  0.0000  0.0000  0.0000  0.0000  0.0000 </r>
        <r>  0.0010  0.0195  0.0061  0.0014  0.0000  0.0000  0.0000  0.0000  0.0000 </r>
        <r>  0.0137  0.0040  0.0048  0.0010  0.0000  0.0000  0.0000  0.0000  0.0000 </r>
        <r>  0.0133  0.0010  0.0050  0.0041  0.0000  0.0000  0.0000  0.0000  0.0000 </r>
        <r>  0.0062  0.0000  0.0108  0.0000  0.0000  0.0000  0.0000  0.0000  0.0000 </r>
        <r>  0.0054  0.0086  0.0300  0.0082  0.0000  0.0000  0.0000  0.0000  0.0000 </r>
       </set>
       <set comment="band 37">
        <r>  0.0000  0.0066  0.0000  0.0064  0.0000  0.0034  0.0000  0.0034  0.0003 </r>
        <r>  0.0000  0.0064  0.0000  0.0066  0.0000  0.0058  0.0000  0.0059  0.0003 </r>
        <r>  0.0015  0.0046  0.0058  0.0015  0.0002  0.0024  0.0010  0.0023  0.0005 </r>
        <r>  0.0015  0.0014  0.0057  0.0046  0.0002  0.0022  0.0011  0.0025  0.0004 </r>
        <r>  0.0018  0.0015  0.0056  0.0046  0.0002  0.0022  0.0011  0.0026  0.0005 </r>
        <r>  0.0016  0.0045  0.0055  0.0015  0.0002  0.0024  0.0010  0.0023  0.0005 </r>
        <r>  0.0000  0.0064  0.0000  0.0066  0.0000  0.0058  0.0000  0.0059  0.0003 </r>
        <r>  0.0000  0.0066  0.0000  0.0064  0.0000  0.0034  0.0000  0.0034  0.0003 </r>
        <r>  0.0000  0.0033  0.0000  0.0035  0.0000  0.0000  0.0000  0.0000  0.0000 </r>
        <r>  0.0051  0.0074  0.0216  0.0060  0.0000  0.0000  0.0000  0.0000  0.0000 </r>
        <r>  0.0051  0.0057  0.0211  0.0074  0.0000  0.0000  0.0000  0.0000  0.0000 </r>
        <r>  0.0115  0.0000  0.0020  0.0000  0.0000  0.0000  0.0000  0.0000  0.0000 </r>
        <r>  0.0120  0.0000  0.0019  0.0000  0.0000  0.0000  0.0000  0.0000  0.0000 </r>
        <r>  0.0000  0.0206  0.0000  0.0205  0.0000  0.0000  0.0000  0.0000  0.0000 </r>
        <r>  0.0000  0.0215  0.0000  0.0221  0.0000  0.0000  0.0000  0.0000  0.0000 </r>
       </set>
       <set comment="band 38">
        <r>  0.0000  0.0066  0.0000  0.0064  0.0000  0.0005  0.0000  0.0005  0.0008 </r>
        <r>  0.0000  0.0060  0.0000  0.0063  0.0000  0.0002  0.0000  0.0002  0.0008 </r>
        <r>  0.0221  0.0005  0.0087  0.0000  0.0001  0.0034  0.0002  0.0035  0.0001 </r>
        <r>  0.0225  0.0000  0.0087  0.0005  0.0000  0.0035  0.0002  0.0033  0.0001 </r>
        <r>  0.0222  0.0000  0.0086  0.0005  0.0001  0.0034  0.0002  0.0033  0.0001 </r>
        <r>  0.0221  0.0005  0.0087  0.0000  0.0001  0.0032  0.0002  0.0034  0.0001 </r>
        <r>  0.0000  0.0063  0.0000  0.0063  0.0000  0.0002  0.0000  0.0002  0.0008 </r>
        <r>  0.0000  0.0067  0.0000  0.0066  0.0000  0.0005  0.0000  0.0005  0.0008 </r>
        <r>  0.0000  0.0007  0.0000  0.0006  0.0000  0.0000  0.0000  0.0000  0.0000 </r>
        <r>  0.0183  0.0124  0.0061  0.0141  0.0000  0.0000  0.0000  0.0000  0.0000 </r>
        <r>  0.0182  0.0140  0.0059  0.0121  0.0000  0.0000  0.0000  0.0000  0.0000 </r>
        <r>  0.0023  0.0219  0.0014  0.0223  0.0000  0.0000  0.0000  0.0000  0.0000 </r>
        <r>  0.0021  0.0231  0.0014  0.0226  0.0000  0.0000  0.0000  0.0000  0.0000 </r>
        <r>  0.0000  0.0066  0.0000  0.0062  0.0000  0.0000  0.0000  0.0000  0.0000 </r>
        <r>  0.0000  0.0064  0.0000  0.0066  0.0000  0.0000  0.0000  0.0000  0.0000 </r>
       </set>
       <set comment="band 39">
        <r>  0.0119  0.0009  0.0011  0.0011  0.0149  0.0006  0.0002  0.0005  0.0000 </r>
        <r>  0.0012  0.0015  0.0010  0.0013  0.0154  0.0001  0.0002  0.0001  0.0000 </r>
        <r>  0.0014  0.0008  0.0002  0.0015  0.0152  0.0004  0.0001  0.0000  0.0001 </r>
        <r>  0.0010  0.0015  0.0002  0.0008  0.0153  0.0000  0.0000  0.0004  0.0001 </r>
        <r>  0.0011  0.0016  0.0002  0.0009  0.0153  0.0000  0.0001  0.0003  0.0001 </r>
        <r>  0.0013  0.0008  0.0001  0.0016  0.0152  0.0005  0.0001  0.0000  0.0001 </r>
        <r>  0.0010  0.0015  0.0009  0.0014  0.0153  0.0002  0.0002  0.0001  0.0000 </r>
        <r>  0.0118  0.0009  0.0011  0.0009  0.0149  0.0006  0.0002  0.0006  0.0000 </r>
        <r>  0.0031  0.0044  0.0066  0.0045  0.0000  0.0000  0.0000  0.0000  0.0000 </r>
        <r>  0.0000  0.0010  0.0022  0.0001  0.0000  0.0000  0.0000  0.0000  0.0000 </r>
        <r>  0.0000  0.0000  0.0024  0.0012  0.0000  0.0000  0.0000  0.0000  0.0000 </r>
        <r>  0.0018  0.0094  0.0000  0.0111  0.0000  0.0000  0.0000  0.0000  0.0000 </r>
        <r>  0.0019  0.0101  0.0000  0.0086  0.0000  0.0000  0.0000  0.0000  0.0000 </r>
        <r>  0.0001  0.0103  0.0028  0.0109  0.0000  0.0000  0.0000  0.0000  0.0000 </r>
        <r>  0.0047  0.0021  0.0015  0.0019  0.0000  0.0000  0.0000  0.0000  0.0000 </r>
       </set>
       <set comment="band 40">
        <r>  0.0333  0.0005  0.0043  0.0006  0.0019  0.0025  0.0001  0.0024  0.0000 </r>
        <r>  0.0415  0.0008  0.0046  0.0008  0.0006  0.0005  0.0004  0.0005  0.0000 </r>
        <r>  0.0052  0.0003  0.0026  0.0004  0.0003  0.0035  0.0000  0.0018  0.0005 </r>
        <r>  0.0054  0.0004  0.0027  0.0003  0.0003  0.0019  0.0000  0.0035  0.0005 </r>
        <r>  0.0051  0.0004  0.0025  0.0003  0.0002  0.0018  0.0000  0.0036  0.0005 </r>
        <r>  0.0051  0.0003  0.0025  0.0004  0.0002  0.0036  0.0000  0.0018  0.0005 </r>
        <r>  0.0409  0.0008  0.0046  0.0007  0.0006  0.0005  0.0004  0.0005  0.0000 </r>
        <r>  0.0327  0.0005  0.0042  0.0005  0.0019  0.0024  0.0001  0.0024  0.0000 </r>
        <r>  0.0054  0.0042  0.0064  0.0041  0.0000  0.0000  0.0000  0.0000  0.0000 </r>
        <r>  0.0001  0.0088  0.0071  0.0081  0.0000  0.0000  0.0000  0.0000  0.0000 </r>
        <r>  0.0001  0.0080  0.0070  0.0088  0.0000  0.0000  0.0000  0.0000  0.0000 </r>
        <r>  0.0001  0.0210  0.0161  0.0067  0.0000  0.0000  0.0000  0.0000  0.0000 </r>
        <r>  0.0001  0.0067  0.0165  0.0210  0.0000  0.0000  0.0000  0.0000  0.0000 </r>
        <r>  0.0053  0.0024  0.0169  0.0023  0.0000  0.0000  0.0000  0.0000  0.0000 </r>
        <r>  0.0042  0.0038  0.0616  0.0040  0.0000  0.0000  0.0000  0.0000  0.0000 </r>
       </set>
       <set comment="band 41">
        <r>  0.0194  0.0061  0.0037  0.0061  0.0024  0.0025  0.0001  0.0023  0.0000 </r>
        <r>  0.0012  0.0022  0.0008  0.0022  0.0056  0.0018  0.0000  0.0020  0.0000 </r>
        <r>  0.0058  0.0004  0.0008  0.0006  0.0003  0.0025  0.0000  0.0068  0.0003 </r>
        <r>  0.0066  0.0005  0.0010  0.0003  0.0003  0.0068  0.0000  0.0025  0.0003 </r>
        <r>  0.0064  0.0007  0.0009  0.0003  0.0004  0.0071  0.0000  0.0027  0.0003 </r>
        <r>  0.0065  0.0004  0.0008  0.0007  0.0004  0.0026  0.0000  0.0074  0.0003 </r>
        <r>  0.0012  0.0020  0.0008  0.0020  0.0057  0.0019  0.0000  0.0021  0.0000 </r>
        <r>  0.0189  0.0062  0.0036  0.0063  0.0024  0.0024  0.0001  0.0027  0.0000 </r>
        <r>  0.0002  0.0054  0.0094  0.0054  0.0000  0.0000  0.0000  0.0000  0.0000 </r>
        <r>  0.0014  0.0010  0.0080  0.0049  0.0000  0.0000  0.0000  0.0000  0.0000 </r>
        <r>  0.0014  0.0049  0.0074  0.0010  0.0000  0.0000  0.0000  0.0000  0.0000 </r>
        <r>  0.0010  0.0060  0.0060  0.0460  0.0000  0.0000  0.0000  0.0000  0.0000 </r>
        <r>  0.0010  0.0459  0.0070  0.0060  0.0000  0.0000  0.0000  0.0000  0.0000 </r>
        <r>  0.0012  0.0000  0.0309  0.0000  0.0000  0.0000  0.0000  0.0000  0.0000 </r>
        <r>  0.0014  0.0027  0.0006  0.0032  0.0000  0.0000  0.0000  0.0000  0.0000 </r>
       </set>
       <set comment="band 42">
        <r>  0.0000  0.0001  0.0000  0.0000  0.0000  0.0077  0.0000  0.0078  0.0000 </r>
        <r>  0.0000  0.0001  0.0000  0.0001  0.0000  0.0077  0.0000  0.0074  0.0000 </r>
        <r>  0.0118  0.0007  0.0064  0.0013  0.0005  0.0017  0.0001  0.0018  0.0000 </r>
        <r>  0.0110  0.0014  0.0064  0.0007  0.0006  0.0019  0.0001  0.0017  0.0000 </r>
        <r>  0.0121  0.0015  0.0060  0.0007  0.0005  0.0020  0.0001  0.0017  0.0000 </r>
        <r>  0.0123  0.0007  0.0063  0.0014  0.0005  0.0018  0.0001  0.0018  0.0000 </r>
        <r>  0.0000  0.0001  0.0000  0.0001  0.0000  0.0076  0.0000  0.0074  0.0000 </r>
        <r>  0.0000  0.0000  0.0000  0.0001  0.0000  0.0078  0.0000  0.0076  0.0000 </r>
        <r>  0.0000  0.0000  0.0000  0.0000  0.0000  0.0000  0.0000  0.0000  0.0000 </r>
        <r>  0.0003  0.0000  0.0150  0.0000  0.0000  0.0000  0.0000  0.0000  0.0000 </r>
        <r>  0.0003  0.0000  0.0156  0.0000  0.0000  0.0000  0.0000  0.0000  0.0000 </r>
        <r>  0.0000  0.0001  0.0568  0.0001  0.0000  0.0000  0.0000  0.0000  0.0000 </r>
        <r>  0.0000  0.0003  0.0556  0.0001  0.0000  0.0000  0.0000  0.0000  0.0000 </r>
        <r>  0.0000  0.0312  0.0000  0.0314  0.0000  0.0000  0.0000  0.0000  0.0000 </r>
        <r>  0.0000  0.0301  0.0000  0.0296  0.0000  0.0000  0.0000  0.0000  0.0000 </r>
       </set>
       <set comment="band 43">
        <r>  0.0081  0.0047  0.0145  0.0047  0.0003  0.0013  0.0001  0.0013  0.0000 </r>
        <r>  0.0018  0.0030  0.0008  0.0031  0.0024  0.0007  0.0000  0.0007  0.0000 </r>
        <r>  0.0002  0.0005  0.0004  0.0008  0.0008  0.0020  0.0000  0.0128  0.0000 </r>
        <r>  0.0002  0.0008  0.0003  0.0005  0.0008  0.0128  0.0000  0.0020  0.0000 </r>
        <r>  0.0002  0.0008  0.0003  0.0006  0.0008  0.0121  0.0000  0.0022  0.0000 </r>
        <r>  0.0003  0.0006  0.0003  0.0008  0.0008  0.0022  0.0000  0.0121  0.0000 </r>
        <r>  0.0017  0.0032  0.0007  0.0031  0.0021  0.0007  0.0000  0.0007  0.0000 </r>
        <r>  0.0100  0.0048  0.0148  0.0048  0.0003  0.0012  0.0001  0.0012  0.0000 </r>
        <r>  0.0001  0.0027  0.0490  0.0027  0.0000  0.0000  0.0000  0.0000  0.0000 </r>
        <r>  0.0000  0.0342  0.0011  0.0077  0.0000  0.0000  0.0000  0.0000  0.0000 </r>
        <r>  0.0000  0.0077  0.0011  0.0341  0.0000  0.0000  0.0000  0.0000  0.0000 </r>
        <r>  0.0005  0.0072  0.0007  0.0006  0.0000  0.0000  0.0000  0.0000  0.0000 </r>
        <r>  0.0005  0.0006  0.0007  0.0072  0.0000  0.0000  0.0000  0.0000  0.0000 </r>
        <r>  0.0002  0.0006  0.0667  0.0005  0.0000  0.0000  0.0000  0.0000  0.0000 </r>
        <r>  0.0000  0.0014  0.0001  0.0014  0.0000  0.0000  0.0000  0.0000  0.0000 </r>
       </set>
       <set comment="band 44">
        <r>  0.0295  0.0019  0.0018  0.0019  0.0001  0.0040  0.0003  0.0040  0.0000 </r>
        <r>  0.0238  0.0019  0.0012  0.0020  0.0007  0.0052  0.0004  0.0052  0.0000 </r>
        <r>  0.0021  0.0015  0.0049  0.0010  0.0009  0.0037  0.0000  0.0027  0.0000 </r>
        <r>  0.0030  0.0009  0.0050  0.0018  0.0009  0.0028  0.0000  0.0038  0.0000 </r>
        <r>  0.0020  0.0009  0.0047  0.0017  0.0007  0.0030  0.0000  0.0034  0.0000 </r>
        <r>  0.0031  0.0016  0.0048  0.0010  0.0008  0.0035  0.0000  0.0032  0.0000 </r>
        <r>  0.0237  0.0019  0.0011  0.0021  0.0008  0.0050  0.0004  0.0051  0.0000 </r>
        <r>  0.0286  0.0016  0.0017  0.0018  0.0001  0.0041  0.0003  0.0040  0.0000 </r>
        <r>  0.0000  0.0113  0.0246  0.0113  0.0000  0.0000  0.0000  0.0000  0.0000 </r>
        <r>  0.0000  0.0001  0.0171  0.0023  0.0000  0.0000  0.0000  0.0000  0.0000 </r>
        <r>  0.0000  0.0021  0.0159  0.0001  0.0000  0.0000  0.0000  0.0000  0.0000 </r>
        <r>  0.0002  0.0001  0.0156  0.0034  0.0000  0.0000  0.0000  0.0000  0.0000 </r>
        <r>  0.0002  0.0030  0.0146  0.0001  0.0000  0.0000  0.0000  0.0000  0.0000 </r>
        <r>  0.0003  0.0000  0.0003  0.0000  0.0000  0.0000  0.0000  0.0000  0.0000 </r>
        <r>  0.0000  0.0152  0.0258  0.0156  0.0000  0.0000  0.0000  0.0000  0.0000 </r>
       </set>
      </set>
     </set>
    </set>
   </array>
  </projected>
 </calculation>
 <structure name="finalpos" >
  <crystal>
   <varray name="basis" >
    <v>       0.00000000       4.24689300       4.24689300 </v>
    <v>       4.24689300       0.00000000       4.24689300 </v>
    <v>       4.24689300       4.24689300       0.00000000 </v>
   </varray>
   <i name="volume">    153.19477498 </i>
   <varray name="rec_basis" >
    <v>      -0.11773313       0.11773313       0.11773313 </v>
    <v>       0.11773313      -0.11773313       0.11773313 </v>
    <v>       0.11773313       0.11773313      -0.11773313 </v>
   </varray>
  </crystal>
  <varray name="positions" >
   <v>       0.00121505       0.00029229       0.99787466 </v>
   <v>       0.99190759       0.99206206       0.50698569 </v>
   <v>       0.99225176       0.50932586       0.98870522 </v>
   <v>       0.99294250       0.50880437       0.50639543 </v>
   <v>       0.50984409       0.99111333       0.98956602 </v>
   <v>       0.51021480       0.99104517       0.50679920 </v>
   <v>       0.51042715       0.50933827       0.98882284 </v>
   <v>       0.50129986       0.50031038       0.49801593 </v>
   <v>       0.25114511       0.25032953       0.74763686 </v>
   <v>       0.25140808       0.75068909       0.24775964 </v>
   <v>       0.25125790       0.75072408       0.74736398 </v>
   <v>       0.75112525       0.25018334       0.24789527 </v>
   <v>       0.75031518       0.25029282       0.74886870 </v>
   <v>       0.75222018       0.74922393       0.24794860 </v>
   <v>       0.75123349       0.75026051       0.74799696 </v>
  </varray>
 </structure>
</modeling>
