<?xml version="1.0" encoding="ISO-8859-1"?>
<modeling>
 <generator>
  <i name="program" type="string">vasp </i>
  <i name="version" type="string">5.4.1  </i>
  <i name="subversion" type="string">05Feb16 (build Mar 31 2016 13:39:20) complex                          parallel </i>
  <i name="platform" type="string">IFC91_ompi </i>
  <i name="date" type="string">2018 04 28 </i>
  <i name="time" type="string">12:46:12 </i>
 </generator>
 <incar>
  <i type="string" name="PREC">n</i>
  <i type="string" name="ALGO"> N</i>
  <i type="int" name="ISPIN">     2</i>
  <i type="int" name="NELM">   100</i>
  <i type="int" name="NELMIN">     4</i>
  <i type="int" name="IBRION">     2</i>
  <i name="EDIFF">      0.00000100</i>
  <i name="EDIFFG">     -0.05000000</i>
  <i type="int" name="NSW">    20</i>
  <i type="int" name="ISIF">     2</i>
  <i name="ENCUT">    400.00000000</i>
  <i name="NELECT">     57.00000000</i>
  <i type="string" name="LREAL"> A</i>
  <i type="int" name="ISMEAR">     0</i>
  <i name="SIGMA">      0.05000000</i>
  <i type="logical" name="LWAVE"> F  </i>
  <i type="logical" name="LCHARG"> F  </i>
  <i type="logical" name="LORBIT"> F  </i>
  <i type="logical" name="LASPH"> T  </i>
  <v type="int" name="KPOINT_BSE">    -1     0     0     0</v>
  <i type="int" name="NELM">   100</i>
  <i type="logical" name="LASPH"> T  </i>
 </incar>
 <kpoints>
  <generation param="Gamma">
   <v type="int" name="divisions">       2        2        2 </v>
   <v name="usershift">      0.00000000       0.00000000       0.00000000 </v>
   <v name="genvec1">      0.50000000       0.00000000       0.00000000 </v>
   <v name="genvec2">      0.00000000       0.50000000       0.00000000 </v>
   <v name="genvec3">      0.00000000       0.00000000       0.50000000 </v>
   <v name="shift">      0.00000000       0.00000000       0.00000000 </v>
  </generation>
  <varray name="kpointlist" >
   <v>       0.00000000       0.00000000       0.00000000 </v>
   <v>       0.50000000       0.00000000       0.00000000 </v>
   <v>       0.00000000       0.50000000       0.00000000 </v>
   <v>       0.50000000       0.50000000       0.00000000 </v>
   <v>       0.00000000       0.00000000       0.50000000 </v>
   <v>       0.50000000       0.00000000       0.50000000 </v>
   <v>       0.00000000       0.50000000       0.50000000 </v>
   <v>       0.50000000       0.50000000       0.50000000 </v>
  </varray>
  <varray name="weights" >
   <v>       0.12500000 </v>
   <v>       0.12500000 </v>
   <v>       0.12500000 </v>
   <v>       0.12500000 </v>
   <v>       0.12500000 </v>
   <v>       0.12500000 </v>
   <v>       0.12500000 </v>
   <v>       0.12500000 </v>
  </varray>
 </kpoints>
 <parameters>
  <separator name="general" >
   <i type="string" name="SYSTEM">unknown system</i>
   <i type="logical" name="LCOMPAT"> F  </i>
  </separator>
  <separator name="electronic" >
   <i type="string" name="PREC">n</i>
   <i name="ENMAX">    400.00000000</i>
   <i name="ENAUG">    605.39200000</i>
   <i name="EDIFF">      0.00000100</i>
   <i type="int" name="IALGO">    38</i>
   <i type="int" name="IWAVPR">    11</i>
   <i type="int" name="NBANDS">    44</i>
   <i name="NELECT">     57.00000000</i>
   <i type="int" name="TURBO">     0</i>
   <i type="int" name="IRESTART">     0</i>
   <i type="int" name="NREBOOT">     0</i>
   <i type="int" name="NMIN">     0</i>
   <i name="EREF">      0.00000000</i>
   <separator name="electronic smearing" >
    <i type="int" name="ISMEAR">     0</i>
    <i name="SIGMA">      0.05000000</i>
    <i name="KSPACING">      0.50000000</i>
    <i type="logical" name="KGAMMA"> T  </i>
   </separator>
   <separator name="electronic projectors" >
    <i type="logical" name="LREAL"> T  </i>
    <v name="ROPT">     -0.00050000     -0.00050000</v>
    <i type="int" name="LMAXPAW">  -100</i>
    <i type="int" name="LMAXMIX">     2</i>
    <i type="logical" name="NLSPLINE"> F  </i>
   </separator>
   <separator name="electronic startup" >
    <i type="int" name="ISTART">     0</i>
    <i type="int" name="ICHARG">     2</i>
    <i type="int" name="INIWAV">     1</i>
   </separator>
   <separator name="electronic spin" >
    <i type="int" name="ISPIN">     2</i>
    <i type="logical" name="LNONCOLLINEAR"> F  </i>
    <v name="MAGMOM">      1.00000000      1.00000000      1.00000000      1.00000000      1.00000000      1.00000000      1.00000000      1.00000000      1.00000000      1.00000000      1.00000000      1.00000000      1.00000000      1.00000000      1.00000000</v>
    <i name="NUPDOWN">     -1.00000000</i>
    <i type="logical" name="LSORBIT"> F  </i>
    <v name="SAXIS">      0.00000000      0.00000000      1.00000000</v>
    <i type="logical" name="LSPIRAL"> F  </i>
    <v name="QSPIRAL">      0.00000000      0.00000000      0.00000000</v>
    <i type="logical" name="LZEROZ"> F  </i>
   </separator>
   <separator name="electronic exchange-correlation" >
    <i type="logical" name="LASPH"> T  </i>
    <i type="logical" name="LMETAGGA"> F  </i>
   </separator>
   <separator name="electronic convergence" >
    <i type="int" name="NELM">   100</i>
    <i type="int" name="NELMDL">     0</i>
    <i type="int" name="NELMIN">     4</i>
    <i name="ENINI">    400.00000000</i>
    <separator name="electronic convergence detail" >
     <i type="logical" name="LDIAG"> T  </i>
     <i type="logical" name="LSUBROT"> F  </i>
     <i name="WEIMIN">      0.00100000</i>
     <i name="EBREAK">      0.00000001</i>
     <i name="DEPER">      0.30000000</i>
     <i type="int" name="NRMM">     4</i>
     <i name="TIME">      0.40000000</i>
    </separator>
   </separator>
   <separator name="electronic mixer" >
    <i name="AMIX">      0.40000000</i>
    <i name="BMIX">      1.00000000</i>
    <i name="AMIN">      0.10000000</i>
    <i name="AMIX_MAG">      1.60000000</i>
    <i name="BMIX_MAG">      1.00000000</i>
    <separator name="electronic mixer details" >
     <i type="int" name="IMIX">     4</i>
     <i type="logical" name="MIXFIRST"> F  </i>
     <i type="int" name="MAXMIX">   -45</i>
     <i name="WC">    100.00000000</i>
     <i type="int" name="INIMIX">     1</i>
     <i type="int" name="MIXPRE">     1</i>
     <i type="int" name="MREMOVE">     5</i>
    </separator>
   </separator>
   <separator name="electronic dipolcorrection" >
    <i type="logical" name="LDIPOL"> F  </i>
    <i type="logical" name="LMONO"> F  </i>
    <i type="int" name="IDIPOL">     0</i>
    <i name="EPSILON">      1.00000000</i>
    <v name="DIPOL">   -100.00000000   -100.00000000   -100.00000000</v>
    <i name="EFIELD">      0.00000000</i>
   </separator>
  </separator>
  <separator name="grids" >
   <i type="int" name="NGX">    30</i>
   <i type="int" name="NGY">    30</i>
   <i type="int" name="NGZ">    30</i>
   <i type="int" name="NGXF">    60</i>
   <i type="int" name="NGYF">    60</i>
   <i type="int" name="NGZF">    60</i>
   <i type="logical" name="ADDGRID"> F  </i>
  </separator>
  <separator name="ionic" >
   <i type="int" name="NSW">    20</i>
   <i type="int" name="IBRION">     2</i>
   <i type="int" name="ISIF">     2</i>
   <i name="PSTRESS">      0.00000000</i>
   <i name="EDIFFG">     -0.05000000</i>
   <i type="int" name="NFREE">     1</i>
   <i name="POTIM">      0.50000000</i>
   <i name="SMASS">     -3.00000000</i>
   <i name="SCALEE">      1.00000000</i>
  </separator>
  <separator name="ionic md" >
   <i name="TEBEG">      0.00010000</i>
   <i name="TEEND">      0.00010000</i>
   <i type="int" name="NBLOCK">     1</i>
   <i type="int" name="KBLOCK">    20</i>
   <i type="int" name="NPACO">   256</i>
   <i name="APACO">     16.00000000</i>
  </separator>
  <separator name="symmetry" >
   <i type="int" name="ISYM">     2</i>
   <i name="SYMPREC">      0.00001000</i>
  </separator>
  <separator name="dos" >
   <i type="logical" name="LORBIT"> F  </i>
   <v name="RWIGS">     -1.00000000     -1.00000000</v>
   <i type="int" name="NEDOS">   301</i>
   <i name="EMIN">     10.00000000</i>
   <i name="EMAX">    -10.00000000</i>
   <i name="EFERMI">      0.00000000</i>
  </separator>
  <separator name="writing" >
   <i type="int" name="NWRITE">     2</i>
   <i type="logical" name="LWAVE"> F  </i>
   <i type="logical" name="LCHARG"> F  </i>
   <i type="logical" name="LPARD"> F  </i>
   <i type="logical" name="LVTOT"> F  </i>
   <i type="logical" name="LVHAR"> F  </i>
   <i type="logical" name="LELF"> F  </i>
   <i type="logical" name="LOPTICS"> F  </i>
   <v name="STM">      0.00000000      0.00000000      0.00000000      0.00000000      0.00000000      0.00000000      0.00000000</v>
  </separator>
  <separator name="performance" >
   <i type="int" name="NPAR">     4</i>
   <i type="int" name="NSIM">     4</i>
   <i type="int" name="NBLK">    -1</i>
   <i type="logical" name="LPLANE"> T  </i>
   <i type="logical" name="LSCALAPACK"> T  </i>
   <i type="logical" name="LSCAAWARE"> F  </i>
   <i type="logical" name="LSCALU"> F  </i>
   <i type="logical" name="LASYNC"> F  </i>
   <i type="logical" name="LORBITALREAL"> F  </i>
  </separator>
  <separator name="miscellaneous" >
   <i type="int" name="IDIOT">     3</i>
   <i type="logical" name="LMUSIC"> F  </i>
   <v name="POMASS">     24.30500000     16.00000000</v>
   <v name="DARWINR">      0.00000000      0.00000000</v>
   <v name="DARWINV">      1.00000000      1.00000000</v>
   <i type="logical" name="LCORR"> T  </i>
  </separator>
  <i type="logical" name="GGA_COMPAT"> T  </i>
  <i type="logical" name="LBERRY"> F  </i>
  <i type="int" name="ICORELEVEL">     0</i>
  <i type="logical" name="LDAU"> F  </i>
  <i type="int" name="I_CONSTRAINED_M">     0</i>
  <separator name="electronic exchange-correlation" >
   <i type="string" name="GGA">--</i>
   <i type="int" name="VOSKOWN">     0</i>
   <i type="logical" name="LHFCALC"> F  </i>
   <i type="string" name="PRECFOCK"></i>
   <i type="logical" name="LSYMGRAD"> F  </i>
   <i type="logical" name="LHFONE"> F  </i>
   <i type="logical" name="LRHFCALC"> F  </i>
   <i type="logical" name="LTHOMAS"> F  </i>
   <i type="logical" name="LMODELHF"> F  </i>
   <i name="ENCUT4O">     -1.00000000</i>
   <i type="int" name="EXXOEP">     0</i>
   <i type="int" name="FOURORBIT">     0</i>
   <i name="AEXX">      0.00000000</i>
   <i name="HFALPHA">      0.00000000</i>
   <i name="MCALPHA">      0.00000000</i>
   <i name="ALDAX">      1.00000000</i>
   <i name="AGGAX">      1.00000000</i>
   <i name="ALDAC">      1.00000000</i>
   <i name="AGGAC">      1.00000000</i>
   <i type="int" name="NKREDX">     1</i>
   <i type="int" name="NKREDY">     1</i>
   <i type="int" name="NKREDZ">     1</i>
   <i type="logical" name="SHIFTRED"> F  </i>
   <i type="logical" name="ODDONLY"> F  </i>
   <i type="logical" name="EVENONLY"> F  </i>
   <i type="int" name="LMAXFOCK">     0</i>
   <i type="int" name="NMAXFOCKAE">     0</i>
   <i type="logical" name="LFOCKAEDFT"> F  </i>
   <i name="HFSCREEN">      0.00000000</i>
   <i name="HFSCREENC">      0.00000000</i>
   <i type="int" name="NBANDSGWLOW">     0</i>
  </separator>
  <separator name="vdW DFT" >
   <i type="logical" name="LUSE_VDW"> F  </i>
   <i name="Zab_VDW">     -0.84910000</i>
   <i name="PARAM1">      0.12340000</i>
   <i name="PARAM2">      1.00000000</i>
   <i name="PARAM3">      0.00000000</i>
  </separator>
  <separator name="model GW" >
   <i type="int" name="MODEL_GW">     0</i>
   <i name="MODEL_EPS0">      6.12779100</i>
   <i name="MODEL_ALPHA">      1.00000000</i>
  </separator>
  <separator name="linear response parameters" >
   <i type="logical" name="LEPSILON"> F  </i>
   <i type="logical" name="LRPA"> F  </i>
   <i type="logical" name="LNABLA"> F  </i>
   <i type="logical" name="LVEL"> F  </i>
   <i type="int" name="KINTER">     0</i>
   <i name="CSHIFT">      0.10000000</i>
   <i name="OMEGAMAX">     -1.00000000</i>
   <i name="DEG_THRESHOLD">      0.00200000</i>
  </separator>
  <separator name="orbital magnetization" >
   <i type="logical" name="NUCIND"> F  </i>
   <v name="MAGPOS">      0.00000000      0.00000000      0.00000000</v>
   <i type="logical" name="LNICSALL"> T  </i>
   <i type="logical" name="ORBITALMAG"> F  </i>
   <i type="logical" name="LMAGBLOCH"> F  </i>
   <i type="logical" name="LCHIMAG"> F  </i>
   <i type="logical" name="LGAUGE"> T  </i>
   <i type="int" name="MAGATOM">     0</i>
   <v name="MAGDIPOL">      0.00000000      0.00000000      0.00000000</v>
   <v name="AVECCONST">      0.00000000      0.00000000      0.00000000</v>
  </separator>
  <separator name="response functions" >
   <i type="logical" name="LADDER"> F  </i>
   <i type="logical" name="LFXC"> F  </i>
   <i type="logical" name="LHARTREE"> T  </i>
   <i type="int" name="IBSE">     0</i>
   <v type="int" name="KPOINT">    -1     0     0     0</v>
   <i type="logical" name="LTCTE"> F  </i>
   <i type="logical" name="LTETE"> F  </i>
   <i type="logical" name="LTRIPLET"> F  </i>
   <i type="logical" name="LFXCEPS"> F  </i>
   <i type="logical" name="LFXHEG"> F  </i>
   <i type="int" name="NATURALO">     0</i>
   <i type="logical" name="L2ORDER"> F  </i>
   <i type="logical" name="LUSEW"> F  </i>
   <i name="ENCUTGW">     -2.00000000</i>
   <i name="ENCUTGWSOFT">     -2.00000000</i>
   <i name="ENCUTLF">     -1.00000000</i>
   <i type="int" name="LMAXMP2">    -1</i>
   <i name="SCISSOR">      0.00000000</i>
   <i type="int" name="NOMEGA">     0</i>
   <i type="int" name="NOMEGAR">     0</i>
   <i type="int" name="NBANDSGW">    -1</i>
   <i type="int" name="NBANDSO">    -1</i>
   <i type="int" name="NBANDSV">    -1</i>
   <i type="int" name="NELM">   100</i>
   <i type="int" name="NELMHF">     1</i>
   <i type="int" name="DIM">     3</i>
   <i type="int" name="ANTIRES">     0</i>
   <i name="OMEGAMAX">    -30.00000000</i>
   <i name="OMEGAMIN">    -30.00000000</i>
   <i name="OMEGATL">   -200.00000000</i>
   <i type="int" name="OMEGAGRID">     0</i>
   <i name="CSHIFT">     -0.10000000</i>
   <i type="logical" name="SELFENERGY"> F  </i>
   <i type="logical" name="LSPECTRAL"> F  </i>
   <i type="logical" name="LSPECTRALGW"> F  </i>
   <i type="logical" name="LSINGLES"> F  </i>
   <i type="logical" name="LFERMIGW"> F  </i>
   <i type="logical" name="ODDONLYGW"> F  </i>
   <i type="logical" name="EVENONLYGW"> F  </i>
   <i type="int" name="NKREDLFX">     1</i>
   <i type="int" name="NKREDLFY">     1</i>
   <i type="int" name="NKREDLFZ">     1</i>
   <i type="int" name="MAXMEM">  1800</i>
   <i type="int" name="TELESCOPE">     0</i>
   <i type="int" name="TAUPAR">     1</i>
   <i type="int" name="OMEGAPAR">    -1</i>
   <i name="LAMBDA">      1.00000000</i>
  </separator>
  <separator name="External order field" >
   <i name="OFIELD_KAPPA">      0.00000000</i>
   <v name="OFIELD_K">      0.00000000      0.00000000      0.00000000</v>
   <i name="OFIELD_Q6_NEAR">      0.00000000</i>
   <i name="OFIELD_Q6_FAR">      0.00000000</i>
   <i name="OFIELD_A">      0.00000000</i>
  </separator>
 </parameters>
 <atominfo>
  <atoms>      15 </atoms>
  <types>       2 </types>
  <array name="atoms" >
   <dimension dim="1">ion</dimension>
   <field type="string">element</field>
   <field type="int">atomtype</field>
   <set>
    <rc><c>Mg</c><c>   1</c></rc>
    <rc><c>Mg</c><c>   1</c></rc>
    <rc><c>Mg</c><c>   1</c></rc>
    <rc><c>Mg</c><c>   1</c></rc>
    <rc><c>Mg</c><c>   1</c></rc>
    <rc><c>Mg</c><c>   1</c></rc>
    <rc><c>Mg</c><c>   1</c></rc>
    <rc><c>Mg</c><c>   1</c></rc>
    <rc><c>O </c><c>   2</c></rc>
    <rc><c>O </c><c>   2</c></rc>
    <rc><c>O </c><c>   2</c></rc>
    <rc><c>O </c><c>   2</c></rc>
    <rc><c>O </c><c>   2</c></rc>
    <rc><c>O </c><c>   2</c></rc>
    <rc><c>O </c><c>   2</c></rc>
   </set>
  </array>
  <array name="atomtypes" >
   <dimension dim="1">type</dimension>
   <field type="int">atomspertype</field>
   <field type="string">element</field>
   <field>mass</field>
   <field>valence</field>
   <field type="string">pseudopotential</field>
   <set>
    <rc><c>   8</c><c>Mg</c><c>     24.30500000</c><c>      2.00000000</c><c>  PAW_PBE Mg 13Apr2007                  </c></rc>
    <rc><c>   7</c><c>O </c><c>     16.00000000</c><c>      6.00000000</c><c>  PAW_PBE O 08Apr2002                   </c></rc>
   </set>
  </array>
 </atominfo>
 <structure name="initialpos" >
  <crystal>
   <varray name="basis" >
    <v>       0.00000000       4.24689300       4.24689300 </v>
    <v>       4.24689300       0.00000000       4.24689300 </v>
    <v>       4.24689300       4.24689300       0.00000000 </v>
   </varray>
   <i name="volume">    153.19477498 </i>
   <varray name="rec_basis" >
    <v>      -0.11773313       0.11773313       0.11773313 </v>
    <v>       0.11773313      -0.11773313       0.11773313 </v>
    <v>       0.11773313       0.11773313      -0.11773313 </v>
   </varray>
  </crystal>
  <varray name="positions" >
   <v>       0.00122452       0.00029007       0.99787256 </v>
   <v>       0.99189147       0.99205952       0.50700096 </v>
   <v>       0.99224144       0.50934091       0.98868811 </v>
   <v>       0.99293409       0.50882965       0.50640502 </v>
   <v>       0.50985470       0.99109015       0.98955360 </v>
   <v>       0.51022272       0.99103751       0.50681488 </v>
   <v>       0.51044011       0.50933912       0.98881355 </v>
   <v>       0.50129951       0.50030548       0.49800670 </v>
   <v>       0.25113814       0.25033951       0.74763657 </v>
   <v>       0.25140508       0.75068729       0.24776155 </v>
   <v>       0.25125960       0.75073757       0.74734856 </v>
   <v>       0.75112533       0.25017635       0.24790080 </v>
   <v>       0.75029627       0.25029473       0.74888626 </v>
   <v>       0.75224022       0.74920559       0.24795485 </v>
   <v>       0.75123482       0.75026156       0.74799105 </v>
  </varray>
 </structure>
 <calculation>
  <scstep>
   <time name="dav">    0.50    0.50</time>
   <time name="total">    1.20    1.20</time>
   <energy>
    <i name="alphaZ">    129.53385374 </i>
    <i name="ewald">  -2363.92415425 </i>
    <i name="hartreedc">   -978.64651822 </i>
    <i name="XCdc">   -189.52199133 </i>
    <i name="pawpsdc">   2946.27252624 </i>
    <i name="pawaedc">  -2543.92834819 </i>
    <i name="eentropy">     -0.00225635 </i>
    <i name="bandstr">     17.27552554 </i>
    <i name="atom">   3210.13655998 </i>
    <i name="e_fr_energy">    227.19519716 </i>
    <i name="e_wo_entrp">    227.19745351 </i>
    <i name="e_0_energy">    227.19632533 </i>
   </energy>
  </scstep>
  <scstep>
   <time name="dav">    0.55    0.55</time>
   <time name="total">    0.55    0.55</time>
   <energy>
    <i name="e_fr_energy">    -77.19700881 </i>
    <i name="e_wo_entrp">    -77.19634185 </i>
    <i name="e_0_energy">    -77.19667533 </i>
   </energy>
  </scstep>
  <scstep>
   <time name="dav">    0.54    0.54</time>
   <time name="total">    0.54    0.54</time>
   <energy>
    <i name="e_fr_energy">    -94.89213326 </i>
    <i name="e_wo_entrp">    -94.88733988 </i>
    <i name="e_0_energy">    -94.88973657 </i>
   </energy>
  </scstep>
  <scstep>
   <time name="dav">    0.54    0.54</time>
   <time name="total">    0.54    0.55</time>
   <energy>
    <i name="e_fr_energy">    -95.01039967 </i>
    <i name="e_wo_entrp">    -95.00557864 </i>
    <i name="e_0_energy">    -95.00798916 </i>
   </energy>
  </scstep>
  <scstep>
   <time name="dav">    0.54    0.54</time>
   <time name="total">    0.56    0.56</time>
   <energy>
    <i name="e_fr_energy">    -95.01110603 </i>
    <i name="e_wo_entrp">    -95.00628497 </i>
    <i name="e_0_energy">    -95.00869550 </i>
   </energy>
  </scstep>
  <scstep>
   <time name="dav">    0.49    0.49</time>
   <time name="total">    1.22    1.22</time>
   <energy>
    <i name="e_fr_energy">    -89.15309361 </i>
    <i name="e_wo_entrp">    -89.14827294 </i>
    <i name="e_0_energy">    -89.15068327 </i>
   </energy>
  </scstep>
  <scstep>
   <time name="dav">    0.50    0.50</time>
   <time name="total">    1.23    1.23</time>
   <energy>
    <i name="e_fr_energy">    -89.26453834 </i>
    <i name="e_wo_entrp">    -89.25971787 </i>
    <i name="e_0_energy">    -89.26212810 </i>
   </energy>
  </scstep>
  <scstep>
   <time name="dav">    0.53    0.53</time>
   <time name="total">    1.26    1.26</time>
   <energy>
    <i name="e_fr_energy">    -89.13962599 </i>
    <i name="e_wo_entrp">    -89.13480560 </i>
    <i name="e_0_energy">    -89.13721579 </i>
   </energy>
  </scstep>
  <scstep>
   <time name="dav">    0.54    0.54</time>
   <time name="total">    1.26    1.27</time>
   <energy>
    <i name="e_fr_energy">    -89.13223837 </i>
    <i name="e_wo_entrp">    -89.12741772 </i>
    <i name="e_0_energy">    -89.12982804 </i>
   </energy>
  </scstep>
  <scstep>
   <time name="dav">    0.52    0.52</time>
   <time name="total">    1.25    1.25</time>
   <energy>
    <i name="e_fr_energy">    -89.13179359 </i>
    <i name="e_wo_entrp">    -89.12697291 </i>
    <i name="e_0_energy">    -89.12938325 </i>
   </energy>
  </scstep>
  <scstep>
   <time name="dav">    0.54    0.53</time>
   <time name="total">    1.26    1.26</time>
   <energy>
    <i name="e_fr_energy">    -89.13228142 </i>
    <i name="e_wo_entrp">    -89.12746074 </i>
    <i name="e_0_energy">    -89.12987108 </i>
   </energy>
  </scstep>
  <scstep>
   <time name="dav">    0.51    0.51</time>
   <time name="total">    1.24    1.24</time>
   <energy>
    <i name="e_fr_energy">    -89.13247355 </i>
    <i name="e_wo_entrp">    -89.12765287 </i>
    <i name="e_0_energy">    -89.13006321 </i>
   </energy>
  </scstep>
  <scstep>
   <time name="dav">    0.53    0.53</time>
   <time name="total">    1.26    1.26</time>
   <energy>
    <i name="e_fr_energy">    -89.13248090 </i>
    <i name="e_wo_entrp">    -89.12766022 </i>
    <i name="e_0_energy">    -89.13007056 </i>
   </energy>
  </scstep>
  <scstep>
   <time name="dav">    0.52    0.52</time>
   <time name="total">    1.23    1.23</time>
   <energy>
    <i name="alphaZ">    129.53385374 </i>
    <i name="ewald">  -2363.92415425 </i>
    <i name="hartreedc">  -1130.75971769 </i>
    <i name="XCdc">   -184.22255859 </i>
    <i name="pawpsdc">   3919.10334327 </i>
    <i name="pawaedc">  -3518.46294966 </i>
    <i name="eentropy">     -0.00482068 </i>
    <i name="bandstr">   -150.53203712 </i>
    <i name="atom">   3210.13655998 </i>
    <i name="e_fr_energy">    -89.13248101 </i>
    <i name="e_wo_entrp">    -89.12766032 </i>
    <i name="e_0_energy">    -89.13007067 </i>
   </energy>
  </scstep>
  <structure>
   <crystal>
    <varray name="basis" >
     <v>       0.00000000       4.24689300       4.24689300 </v>
     <v>       4.24689300       0.00000000       4.24689300 </v>
     <v>       4.24689300       4.24689300       0.00000000 </v>
    </varray>
    <i name="volume">    153.19477498 </i>
    <varray name="rec_basis" >
     <v>      -0.11773313       0.11773313       0.11773313 </v>
     <v>       0.11773313      -0.11773313       0.11773313 </v>
     <v>       0.11773313       0.11773313      -0.11773313 </v>
    </varray>
   </crystal>
   <varray name="positions" >
    <v>       0.00122452       0.00029007       0.99787256 </v>
    <v>       0.99189147       0.99205952       0.50700096 </v>
    <v>       0.99224144       0.50934091       0.98868811 </v>
    <v>       0.99293409       0.50882965       0.50640502 </v>
    <v>       0.50985470       0.99109015       0.98955360 </v>
    <v>       0.51022272       0.99103751       0.50681488 </v>
    <v>       0.51044011       0.50933912       0.98881355 </v>
    <v>       0.50129951       0.50030548       0.49800670 </v>
    <v>       0.25113814       0.25033951       0.74763657 </v>
    <v>       0.25140508       0.75068729       0.24776155 </v>
    <v>       0.25125960       0.75073757       0.74734856 </v>
    <v>       0.75112533       0.25017635       0.24790080 </v>
    <v>       0.75029627       0.25029473       0.74888626 </v>
    <v>       0.75224022       0.74920559       0.24795485 </v>
    <v>       0.75123482       0.75026156       0.74799105 </v>
   </varray>
  </structure>
  <varray name="forces" >
   <v>       0.00170031       0.00865212      -0.00092721 </v>
   <v>      -0.02492326      -0.00050393       0.00959199 </v>
   <v>      -0.00686066       0.03982711       0.00367396 </v>
   <v>       0.00435155      -0.00068456       0.00368401 </v>
   <v>       0.02230336      -0.00889738       0.01147781 </v>
   <v>       0.00571930      -0.02186300       0.01501739 </v>
   <v>       0.00549556      -0.00425773      -0.04472510 </v>
   <v>      -0.00540340      -0.00530837      -0.01163727 </v>
   <v>       0.00369856       0.00515434       0.00044263 </v>
   <v>      -0.00571619       0.00009507      -0.01076544 </v>
   <v>       0.00567803       0.01027497      -0.00754057 </v>
   <v>       0.00626618       0.00563088       0.00264624 </v>
   <v>      -0.02393920       0.00024279       0.01771238 </v>
   <v>       0.02037186      -0.01928352       0.00132560 </v>
   <v>      -0.00874200      -0.00907878       0.01002357 </v>
  </varray>
  <varray name="stress" >
   <v>     -99.60369741       0.20294711       0.17280211 </v>
   <v>       0.20294709     -99.24613829       0.22143944 </v>
   <v>       0.17280205       0.22143947     -99.18109211 </v>
  </varray>
  <energy>
   <i name="e_fr_energy">    -89.13248101 </i>
   <i name="e_wo_entrp">    -89.13007067 </i>
   <i name="e_0_energy">     -0.00482068 </i>
  </energy>
  <time name="totalsc">   16.53   16.58</time>
  <eigenvalues>
   <array>
    <dimension dim="1">band</dimension>
    <dimension dim="2">kpoint</dimension>
    <dimension dim="3">spin</dimension>
    <field>eigene</field>
    <field>occ</field>
    <set>
     <set comment="spin 1">
      <set comment="kpoint 1">
       <r>  -14.3484    1.0000 </r>
       <r>  -13.4184    1.0000 </r>
       <r>  -13.1508    1.0000 </r>
       <r>  -13.1507    1.0000 </r>
       <r>  -13.1503    1.0000 </r>
       <r>  -12.9058    1.0000 </r>
       <r>  -12.9055    1.0000 </r>
       <r>   -1.6876    1.0000 </r>
       <r>   -1.6857    1.0000 </r>
       <r>   -1.6847    1.0000 </r>
       <r>   -1.6011    1.0000 </r>
       <r>   -0.7751    1.0000 </r>
       <r>   -0.7739    1.0000 </r>
       <r>   -0.7717    1.0000 </r>
       <r>    1.4231    1.0000 </r>
       <r>    1.4231    1.0000 </r>
       <r>    1.4235    1.0000 </r>
       <r>    1.4516    1.0000 </r>
       <r>    1.4523    1.0000 </r>
       <r>    1.4546    1.0000 </r>
       <r>    2.1036    1.0000 </r>
       <r>    2.1043    1.0000 </r>
       <r>    2.1045    1.0000 </r>
       <r>    2.2045    1.0000 </r>
       <r>    2.2047    1.0000 </r>
       <r>    2.5076    1.0000 </r>
       <r>    2.5084    1.0000 </r>
       <r>    2.5095    1.0000 </r>
       <r>    2.8367    1.0000 </r>
       <r>    8.4454    0.0000 </r>
       <r>   10.5753    0.0000 </r>
       <r>   10.5760    0.0000 </r>
       <r>   10.5767    0.0000 </r>
       <r>   10.8968    0.0000 </r>
       <r>   10.8976    0.0000 </r>
       <r>   10.9002    0.0000 </r>
       <r>   11.9860    0.0000 </r>
       <r>   11.9863    0.0000 </r>
       <r>   11.9870    0.0000 </r>
       <r>   12.2498    0.0000 </r>
       <r>   12.4885    0.0000 </r>
       <r>   12.4893    0.0000 </r>
       <r>   15.2263    0.0000 </r>
       <r>   15.3591    0.0000 </r>
      </set>
      <set comment="kpoint 2">
       <r>  -14.0262    1.0000 </r>
       <r>  -13.6258    1.0000 </r>
       <r>  -13.3492    1.0000 </r>
       <r>  -13.0401    1.0000 </r>
       <r>  -13.0378    1.0000 </r>
       <r>  -13.0368    1.0000 </r>
       <r>  -13.0349    1.0000 </r>
       <r>   -1.1874    1.0000 </r>
       <r>   -1.1547    1.0000 </r>
       <r>   -1.1533    1.0000 </r>
       <r>   -0.8920    1.0000 </r>
       <r>   -0.2590    1.0000 </r>
       <r>   -0.2070    1.0000 </r>
       <r>   -0.2064    1.0000 </r>
       <r>    0.3281    1.0000 </r>
       <r>    0.4458    1.0000 </r>
       <r>    0.8998    1.0000 </r>
       <r>    0.9038    1.0000 </r>
       <r>    0.9351    1.0000 </r>
       <r>    0.9401    1.0000 </r>
       <r>    1.5587    1.0000 </r>
       <r>    1.5608    1.0000 </r>
       <r>    1.7253    1.0000 </r>
       <r>    1.7655    1.0000 </r>
       <r>    2.1845    1.0000 </r>
       <r>    2.1866    1.0000 </r>
       <r>    2.3347    1.0000 </r>
       <r>    2.3363    1.0000 </r>
       <r>    4.5803    1.0000 </r>
       <r>    7.7855    0.0000 </r>
       <r>   10.0148    0.0000 </r>
       <r>   10.0177    0.0000 </r>
       <r>   10.6046    0.0000 </r>
       <r>   10.8756    0.0000 </r>
       <r>   12.4617    0.0000 </r>
       <r>   12.4659    0.0000 </r>
       <r>   12.4720    0.0000 </r>
       <r>   12.4761    0.0000 </r>
       <r>   13.4937    0.0000 </r>
       <r>   14.0664    0.0000 </r>
       <r>   14.1732    0.0000 </r>
       <r>   14.1750    0.0000 </r>
       <r>   14.6677    0.0000 </r>
       <r>   15.2654    0.0000 </r>
      </set>
      <set comment="kpoint 3">
       <r>  -14.0258    1.0000 </r>
       <r>  -13.6269    1.0000 </r>
       <r>  -13.3485    1.0000 </r>
       <r>  -13.0403    1.0000 </r>
       <r>  -13.0383    1.0000 </r>
       <r>  -13.0358    1.0000 </r>
       <r>  -13.0352    1.0000 </r>
       <r>   -1.1862    1.0000 </r>
       <r>   -1.1546    1.0000 </r>
       <r>   -1.1520    1.0000 </r>
       <r>   -0.8934    1.0000 </r>
       <r>   -0.2588    1.0000 </r>
       <r>   -0.2093    1.0000 </r>
       <r>   -0.2061    1.0000 </r>
       <r>    0.3273    1.0000 </r>
       <r>    0.4457    1.0000 </r>
       <r>    0.8989    1.0000 </r>
       <r>    0.9028    1.0000 </r>
       <r>    0.9372    1.0000 </r>
       <r>    0.9399    1.0000 </r>
       <r>    1.5597    1.0000 </r>
       <r>    1.5614    1.0000 </r>
       <r>    1.7265    1.0000 </r>
       <r>    1.7643    1.0000 </r>
       <r>    2.1821    1.0000 </r>
       <r>    2.1865    1.0000 </r>
       <r>    2.3351    1.0000 </r>
       <r>    2.3382    1.0000 </r>
       <r>    4.5804    1.0000 </r>
       <r>    7.7864    0.0000 </r>
       <r>   10.0139    0.0000 </r>
       <r>   10.0178    0.0000 </r>
       <r>   10.6052    0.0000 </r>
       <r>   10.8747    0.0000 </r>
       <r>   12.4633    0.0000 </r>
       <r>   12.4643    0.0000 </r>
       <r>   12.4732    0.0000 </r>
       <r>   12.4753    0.0000 </r>
       <r>   13.4935    0.0000 </r>
       <r>   14.0661    0.0000 </r>
       <r>   14.1738    0.0000 </r>
       <r>   14.1744    0.0000 </r>
       <r>   14.6680    0.0000 </r>
       <r>   15.2628    0.0000 </r>
      </set>
      <set comment="kpoint 4">
       <r>  -13.8949    1.0000 </r>
       <r>  -13.6434    1.0000 </r>
       <r>  -13.2164    1.0000 </r>
       <r>  -13.2150    1.0000 </r>
       <r>  -13.2135    1.0000 </r>
       <r>  -13.1444    1.0000 </r>
       <r>  -12.8598    1.0000 </r>
       <r>   -1.2132    1.0000 </r>
       <r>   -0.6984    1.0000 </r>
       <r>   -0.6953    1.0000 </r>
       <r>   -0.5320    1.0000 </r>
       <r>   -0.1503    1.0000 </r>
       <r>   -0.0630    1.0000 </r>
       <r>   -0.0628    1.0000 </r>
       <r>    0.0728    1.0000 </r>
       <r>    0.5788    1.0000 </r>
       <r>    0.5845    1.0000 </r>
       <r>    0.8091    1.0000 </r>
       <r>    0.8103    1.0000 </r>
       <r>    0.8364    1.0000 </r>
       <r>    0.9204    1.0000 </r>
       <r>    1.0123    1.0000 </r>
       <r>    1.8063    1.0000 </r>
       <r>    1.8118    1.0000 </r>
       <r>    2.0655    1.0000 </r>
       <r>    2.0659    1.0000 </r>
       <r>    2.1036    1.0000 </r>
       <r>    2.2032    1.0000 </r>
       <r>    5.0584    0.6661 </r>
       <r>    7.9597    0.0000 </r>
       <r>    9.3148    0.0000 </r>
       <r>    9.3174    0.0000 </r>
       <r>   11.1680    0.0000 </r>
       <r>   12.0140    0.0000 </r>
       <r>   12.0631    0.0000 </r>
       <r>   13.0338    0.0000 </r>
       <r>   13.0364    0.0000 </r>
       <r>   13.9375    0.0000 </r>
       <r>   13.9770    0.0000 </r>
       <r>   14.1549    0.0000 </r>
       <r>   14.1579    0.0000 </r>
       <r>   14.5681    0.0000 </r>
       <r>   14.6367    0.0000 </r>
       <r>   14.6720    0.0000 </r>
      </set>
      <set comment="kpoint 5">
       <r>  -14.0257    1.0000 </r>
       <r>  -13.6272    1.0000 </r>
       <r>  -13.3483    1.0000 </r>
       <r>  -13.0408    1.0000 </r>
       <r>  -13.0379    1.0000 </r>
       <r>  -13.0364    1.0000 </r>
       <r>  -13.0345    1.0000 </r>
       <r>   -1.1859    1.0000 </r>
       <r>   -1.1544    1.0000 </r>
       <r>   -1.1518    1.0000 </r>
       <r>   -0.8936    1.0000 </r>
       <r>   -0.2585    1.0000 </r>
       <r>   -0.2097    1.0000 </r>
       <r>   -0.2064    1.0000 </r>
       <r>    0.3270    1.0000 </r>
       <r>    0.4456    1.0000 </r>
       <r>    0.8981    1.0000 </r>
       <r>    0.9027    1.0000 </r>
       <r>    0.9372    1.0000 </r>
       <r>    0.9407    1.0000 </r>
       <r>    1.5596    1.0000 </r>
       <r>    1.5619    1.0000 </r>
       <r>    1.7269    1.0000 </r>
       <r>    1.7639    1.0000 </r>
       <r>    2.1821    1.0000 </r>
       <r>    2.1861    1.0000 </r>
       <r>    2.3361    1.0000 </r>
       <r>    2.3376    1.0000 </r>
       <r>    4.5805    1.0000 </r>
       <r>    7.7866    0.0000 </r>
       <r>   10.0142    0.0000 </r>
       <r>   10.0170    0.0000 </r>
       <r>   10.6054    0.0000 </r>
       <r>   10.8743    0.0000 </r>
       <r>   12.4619    0.0000 </r>
       <r>   12.4651    0.0000 </r>
       <r>   12.4734    0.0000 </r>
       <r>   12.4761    0.0000 </r>
       <r>   13.4940    0.0000 </r>
       <r>   14.0662    0.0000 </r>
       <r>   14.1736    0.0000 </r>
       <r>   14.1746    0.0000 </r>
       <r>   14.6681    0.0000 </r>
       <r>   15.2642    0.0000 </r>
      </set>
      <set comment="kpoint 6">
       <r>  -13.8949    1.0000 </r>
       <r>  -13.6434    1.0000 </r>
       <r>  -13.2166    1.0000 </r>
       <r>  -13.2151    1.0000 </r>
       <r>  -13.2132    1.0000 </r>
       <r>  -13.1445    1.0000 </r>
       <r>  -12.8598    1.0000 </r>
       <r>   -1.2131    1.0000 </r>
       <r>   -0.6980    1.0000 </r>
       <r>   -0.6955    1.0000 </r>
       <r>   -0.5320    1.0000 </r>
       <r>   -0.1504    1.0000 </r>
       <r>   -0.0628    1.0000 </r>
       <r>   -0.0627    1.0000 </r>
       <r>    0.0724    1.0000 </r>
       <r>    0.5790    1.0000 </r>
       <r>    0.5837    1.0000 </r>
       <r>    0.8093    1.0000 </r>
       <r>    0.8102    1.0000 </r>
       <r>    0.8362    1.0000 </r>
       <r>    0.9204    1.0000 </r>
       <r>    1.0123    1.0000 </r>
       <r>    1.8071    1.0000 </r>
       <r>    1.8116    1.0000 </r>
       <r>    2.0658    1.0000 </r>
       <r>    2.0659    1.0000 </r>
       <r>    2.1035    1.0000 </r>
       <r>    2.2032    1.0000 </r>
       <r>    5.0584    0.6658 </r>
       <r>    7.9592    0.0000 </r>
       <r>    9.3154    0.0000 </r>
       <r>    9.3175    0.0000 </r>
       <r>   11.1677    0.0000 </r>
       <r>   12.0139    0.0000 </r>
       <r>   12.0632    0.0000 </r>
       <r>   13.0340    0.0000 </r>
       <r>   13.0364    0.0000 </r>
       <r>   13.9376    0.0000 </r>
       <r>   13.9774    0.0000 </r>
       <r>   14.1548    0.0000 </r>
       <r>   14.1572    0.0000 </r>
       <r>   14.5726    0.0000 </r>
       <r>   14.6356    0.0000 </r>
       <r>   14.6718    0.0000 </r>
      </set>
      <set comment="kpoint 7">
       <r>  -13.8949    1.0000 </r>
       <r>  -13.6437    1.0000 </r>
       <r>  -13.2160    1.0000 </r>
       <r>  -13.2151    1.0000 </r>
       <r>  -13.2137    1.0000 </r>
       <r>  -13.1441    1.0000 </r>
       <r>  -12.8600    1.0000 </r>
       <r>   -1.2139    1.0000 </r>
       <r>   -0.6980    1.0000 </r>
       <r>   -0.6970    1.0000 </r>
       <r>   -0.5322    1.0000 </r>
       <r>   -0.1500    1.0000 </r>
       <r>   -0.0633    1.0000 </r>
       <r>   -0.0631    1.0000 </r>
       <r>    0.0744    1.0000 </r>
       <r>    0.5823    1.0000 </r>
       <r>    0.5841    1.0000 </r>
       <r>    0.8097    1.0000 </r>
       <r>    0.8100    1.0000 </r>
       <r>    0.8368    1.0000 </r>
       <r>    0.9207    1.0000 </r>
       <r>    1.0126    1.0000 </r>
       <r>    1.8069    1.0000 </r>
       <r>    1.8086    1.0000 </r>
       <r>    2.0654    1.0000 </r>
       <r>    2.0656    1.0000 </r>
       <r>    2.1026    1.0000 </r>
       <r>    2.2030    1.0000 </r>
       <r>    5.0582    0.6680 </r>
       <r>    7.9622    0.0000 </r>
       <r>    9.3144    0.0000 </r>
       <r>    9.3148    0.0000 </r>
       <r>   11.1691    0.0000 </r>
       <r>   12.0148    0.0000 </r>
       <r>   12.0631    0.0000 </r>
       <r>   13.0342    0.0000 </r>
       <r>   13.0353    0.0000 </r>
       <r>   13.9388    0.0000 </r>
       <r>   13.9770    0.0000 </r>
       <r>   14.1560    0.0000 </r>
       <r>   14.1570    0.0000 </r>
       <r>   14.5680    0.0000 </r>
       <r>   14.6363    0.0000 </r>
       <r>   14.6685    0.0000 </r>
      </set>
      <set comment="kpoint 8">
       <r>  -14.0246    1.0000 </r>
       <r>  -13.6301    1.0000 </r>
       <r>  -13.3465    1.0000 </r>
       <r>  -13.0420    1.0000 </r>
       <r>  -13.0402    1.0000 </r>
       <r>  -13.0342    1.0000 </r>
       <r>  -13.0333    1.0000 </r>
       <r>   -1.1829    1.0000 </r>
       <r>   -1.1522    1.0000 </r>
       <r>   -1.1508    1.0000 </r>
       <r>   -0.8969    1.0000 </r>
       <r>   -0.2574    1.0000 </r>
       <r>   -0.2115    1.0000 </r>
       <r>   -0.2096    1.0000 </r>
       <r>    0.3250    1.0000 </r>
       <r>    0.4455    1.0000 </r>
       <r>    0.8969    1.0000 </r>
       <r>    0.8990    1.0000 </r>
       <r>    0.9407    1.0000 </r>
       <r>    0.9411    1.0000 </r>
       <r>    1.5622    1.0000 </r>
       <r>    1.5634    1.0000 </r>
       <r>    1.7297    1.0000 </r>
       <r>    1.7616    1.0000 </r>
       <r>    2.1805    1.0000 </r>
       <r>    2.1809    1.0000 </r>
       <r>    2.3391    1.0000 </r>
       <r>    2.3411    1.0000 </r>
       <r>    4.5808    1.0000 </r>
       <r>    7.7882    0.0000 </r>
       <r>   10.0141    0.0000 </r>
       <r>   10.0162    0.0000 </r>
       <r>   10.6061    0.0000 </r>
       <r>   10.8722    0.0000 </r>
       <r>   12.4622    0.0000 </r>
       <r>   12.4634    0.0000 </r>
       <r>   12.4745    0.0000 </r>
       <r>   12.4764    0.0000 </r>
       <r>   13.4924    0.0000 </r>
       <r>   14.0656    0.0000 </r>
       <r>   14.1742    0.0000 </r>
       <r>   14.1750    0.0000 </r>
       <r>   14.6687    0.0000 </r>
       <r>   15.2636    0.0000 </r>
      </set>
     </set>
     <set comment="spin 2">
      <set comment="kpoint 1">
       <r>  -14.3223    1.0000 </r>
       <r>  -13.4020    1.0000 </r>
       <r>  -13.1057    1.0000 </r>
       <r>  -13.1056    1.0000 </r>
       <r>  -13.1052    1.0000 </r>
       <r>  -12.8591    1.0000 </r>
       <r>  -12.8588    1.0000 </r>
       <r>   -1.6736    1.0000 </r>
       <r>   -1.6716    1.0000 </r>
       <r>   -1.6707    1.0000 </r>
       <r>   -1.5932    1.0000 </r>
       <r>   -0.7035    1.0000 </r>
       <r>   -0.7023    1.0000 </r>
       <r>   -0.7002    1.0000 </r>
       <r>    1.4660    1.0000 </r>
       <r>    1.4666    1.0000 </r>
       <r>    1.4671    1.0000 </r>
       <r>    1.4679    1.0000 </r>
       <r>    1.4694    1.0000 </r>
       <r>    1.4705    1.0000 </r>
       <r>    2.1590    1.0000 </r>
       <r>    2.1598    1.0000 </r>
       <r>    2.1601    1.0000 </r>
       <r>    2.2268    1.0000 </r>
       <r>    2.2271    1.0000 </r>
       <r>    2.5394    1.0000 </r>
       <r>    2.5402    1.0000 </r>
       <r>    2.5413    1.0000 </r>
       <r>    4.0087    1.0000 </r>
       <r>    8.6084    0.0000 </r>
       <r>   10.6063    0.0000 </r>
       <r>   10.6074    0.0000 </r>
       <r>   10.6080    0.0000 </r>
       <r>   11.6015    0.0000 </r>
       <r>   11.6018    0.0000 </r>
       <r>   11.6055    0.0000 </r>
       <r>   12.0711    0.0000 </r>
       <r>   12.0716    0.0000 </r>
       <r>   12.0723    0.0000 </r>
       <r>   12.2862    0.0000 </r>
       <r>   12.5551    0.0000 </r>
       <r>   12.5552    0.0000 </r>
       <r>   15.2305    0.0000 </r>
       <r>   15.3734    0.0000 </r>
      </set>
      <set comment="kpoint 2">
       <r>  -14.0114    1.0000 </r>
       <r>  -13.5821    1.0000 </r>
       <r>  -13.3214    1.0000 </r>
       <r>  -12.9942    1.0000 </r>
       <r>  -12.9920    1.0000 </r>
       <r>  -12.9909    1.0000 </r>
       <r>  -12.9892    1.0000 </r>
       <r>   -1.1475    1.0000 </r>
       <r>   -1.1461    1.0000 </r>
       <r>   -1.0521    1.0000 </r>
       <r>   -0.8814    1.0000 </r>
       <r>   -0.1837    1.0000 </r>
       <r>   -0.1209    1.0000 </r>
       <r>   -0.1206    1.0000 </r>
       <r>    0.3452    1.0000 </r>
       <r>    0.4947    1.0000 </r>
       <r>    0.9168    1.0000 </r>
       <r>    0.9208    1.0000 </r>
       <r>    0.9919    1.0000 </r>
       <r>    0.9965    1.0000 </r>
       <r>    1.5751    1.0000 </r>
       <r>    1.5771    1.0000 </r>
       <r>    1.7458    1.0000 </r>
       <r>    1.8438    1.0000 </r>
       <r>    2.2175    1.0000 </r>
       <r>    2.2196    1.0000 </r>
       <r>    2.3676    1.0000 </r>
       <r>    2.3693    1.0000 </r>
       <r>    5.7595    0.0000 </r>
       <r>    8.1930    0.0000 </r>
       <r>   10.5864    0.0000 </r>
       <r>   10.5895    0.0000 </r>
       <r>   10.7703    0.0000 </r>
       <r>   10.9885    0.0000 </r>
       <r>   12.5103    0.0000 </r>
       <r>   12.5139    0.0000 </r>
       <r>   12.5738    0.0000 </r>
       <r>   12.5780    0.0000 </r>
       <r>   13.5545    0.0000 </r>
       <r>   14.1435    0.0000 </r>
       <r>   14.2387    0.0000 </r>
       <r>   14.2409    0.0000 </r>
       <r>   14.7144    0.0000 </r>
       <r>   15.3933    0.0000 </r>
      </set>
      <set comment="kpoint 3">
       <r>  -14.0110    1.0000 </r>
       <r>  -13.5833    1.0000 </r>
       <r>  -13.3206    1.0000 </r>
       <r>  -12.9945    1.0000 </r>
       <r>  -12.9925    1.0000 </r>
       <r>  -12.9899    1.0000 </r>
       <r>  -12.9893    1.0000 </r>
       <r>   -1.1474    1.0000 </r>
       <r>   -1.1448    1.0000 </r>
       <r>   -1.0508    1.0000 </r>
       <r>   -0.8828    1.0000 </r>
       <r>   -0.1835    1.0000 </r>
       <r>   -0.1233    1.0000 </r>
       <r>   -0.1203    1.0000 </r>
       <r>    0.3444    1.0000 </r>
       <r>    0.4947    1.0000 </r>
       <r>    0.9160    1.0000 </r>
       <r>    0.9197    1.0000 </r>
       <r>    0.9938    1.0000 </r>
       <r>    0.9964    1.0000 </r>
       <r>    1.5760    1.0000 </r>
       <r>    1.5778    1.0000 </r>
       <r>    1.7469    1.0000 </r>
       <r>    1.8427    1.0000 </r>
       <r>    2.2150    1.0000 </r>
       <r>    2.2195    1.0000 </r>
       <r>    2.3681    1.0000 </r>
       <r>    2.3712    1.0000 </r>
       <r>    5.7596    0.0000 </r>
       <r>    8.1938    0.0000 </r>
       <r>   10.5856    0.0000 </r>
       <r>   10.5897    0.0000 </r>
       <r>   10.7709    0.0000 </r>
       <r>   10.9875    0.0000 </r>
       <r>   12.5117    0.0000 </r>
       <r>   12.5135    0.0000 </r>
       <r>   12.5750    0.0000 </r>
       <r>   12.5763    0.0000 </r>
       <r>   13.5543    0.0000 </r>
       <r>   14.1433    0.0000 </r>
       <r>   14.2395    0.0000 </r>
       <r>   14.2400    0.0000 </r>
       <r>   14.7148    0.0000 </r>
       <r>   15.3332    0.0000 </r>
      </set>
      <set comment="kpoint 4">
       <r>  -13.8887    1.0000 </r>
       <r>  -13.6008    1.0000 </r>
       <r>  -13.1717    1.0000 </r>
       <r>  -13.1701    1.0000 </r>
       <r>  -13.1687    1.0000 </r>
       <r>  -13.1054    1.0000 </r>
       <r>  -12.8129    1.0000 </r>
       <r>   -1.0117    1.0000 </r>
       <r>   -0.6891    1.0000 </r>
       <r>   -0.6859    1.0000 </r>
       <r>   -0.5195    1.0000 </r>
       <r>   -0.0785    1.0000 </r>
       <r>   -0.0365    1.0000 </r>
       <r>   -0.0364    1.0000 </r>
       <r>    0.0776    1.0000 </r>
       <r>    0.6704    1.0000 </r>
       <r>    0.6756    1.0000 </r>
       <r>    0.8482    1.0000 </r>
       <r>    0.8563    1.0000 </r>
       <r>    0.8577    1.0000 </r>
       <r>    0.9361    1.0000 </r>
       <r>    1.0555    1.0000 </r>
       <r>    1.8183    1.0000 </r>
       <r>    1.8238    1.0000 </r>
       <r>    2.1028    1.0000 </r>
       <r>    2.1031    1.0000 </r>
       <r>    2.1588    1.0000 </r>
       <r>    2.2255    1.0000 </r>
       <r>    6.3027    0.0000 </r>
       <r>    8.4326    0.0000 </r>
       <r>    9.8386    0.0000 </r>
       <r>    9.8411    0.0000 </r>
       <r>   11.2139    0.0000 </r>
       <r>   12.1050    0.0000 </r>
       <r>   12.1854    0.0000 </r>
       <r>   13.1247    0.0000 </r>
       <r>   13.1272    0.0000 </r>
       <r>   13.9703    0.0000 </r>
       <r>   14.0851    0.0000 </r>
       <r>   14.1617    0.0000 </r>
       <r>   14.1647    0.0000 </r>
       <r>   14.5770    0.0000 </r>
       <r>   14.6711    0.0000 </r>
       <r>   14.7780    0.0000 </r>
      </set>
      <set comment="kpoint 5">
       <r>  -14.0109    1.0000 </r>
       <r>  -13.5836    1.0000 </r>
       <r>  -13.3204    1.0000 </r>
       <r>  -12.9950    1.0000 </r>
       <r>  -12.9920    1.0000 </r>
       <r>  -12.9906    1.0000 </r>
       <r>  -12.9886    1.0000 </r>
       <r>   -1.1472    1.0000 </r>
       <r>   -1.1446    1.0000 </r>
       <r>   -1.0506    1.0000 </r>
       <r>   -0.8831    1.0000 </r>
       <r>   -0.1833    1.0000 </r>
       <r>   -0.1237    1.0000 </r>
       <r>   -0.1206    1.0000 </r>
       <r>    0.3441    1.0000 </r>
       <r>    0.4946    1.0000 </r>
       <r>    0.9153    1.0000 </r>
       <r>    0.9197    1.0000 </r>
       <r>    0.9937    1.0000 </r>
       <r>    0.9972    1.0000 </r>
       <r>    1.5758    1.0000 </r>
       <r>    1.5783    1.0000 </r>
       <r>    1.7474    1.0000 </r>
       <r>    1.8422    1.0000 </r>
       <r>    2.2151    1.0000 </r>
       <r>    2.2191    1.0000 </r>
       <r>    2.3691    1.0000 </r>
       <r>    2.3706    1.0000 </r>
       <r>    5.7596    0.0000 </r>
       <r>    8.1939    0.0000 </r>
       <r>   10.5859    0.0000 </r>
       <r>   10.5890    0.0000 </r>
       <r>   10.7711    0.0000 </r>
       <r>   10.9871    0.0000 </r>
       <r>   12.5111    0.0000 </r>
       <r>   12.5140    0.0000 </r>
       <r>   12.5744    0.0000 </r>
       <r>   12.5774    0.0000 </r>
       <r>   13.5547    0.0000 </r>
       <r>   14.1433    0.0000 </r>
       <r>   14.2391    0.0000 </r>
       <r>   14.2404    0.0000 </r>
       <r>   14.7149    0.0000 </r>
       <r>   15.3505    0.0000 </r>
      </set>
      <set comment="kpoint 6">
       <r>  -13.8887    1.0000 </r>
       <r>  -13.6007    1.0000 </r>
       <r>  -13.1719    1.0000 </r>
       <r>  -13.1701    1.0000 </r>
       <r>  -13.1684    1.0000 </r>
       <r>  -13.1055    1.0000 </r>
       <r>  -12.8129    1.0000 </r>
       <r>   -1.0115    1.0000 </r>
       <r>   -0.6887    1.0000 </r>
       <r>   -0.6861    1.0000 </r>
       <r>   -0.5195    1.0000 </r>
       <r>   -0.0786    1.0000 </r>
       <r>   -0.0364    1.0000 </r>
       <r>   -0.0363    1.0000 </r>
       <r>    0.0771    1.0000 </r>
       <r>    0.6706    1.0000 </r>
       <r>    0.6748    1.0000 </r>
       <r>    0.8484    1.0000 </r>
       <r>    0.8561    1.0000 </r>
       <r>    0.8575    1.0000 </r>
       <r>    0.9361    1.0000 </r>
       <r>    1.0554    1.0000 </r>
       <r>    1.8191    1.0000 </r>
       <r>    1.8236    1.0000 </r>
       <r>    2.1030    1.0000 </r>
       <r>    2.1031    1.0000 </r>
       <r>    2.1589    1.0000 </r>
       <r>    2.2255    1.0000 </r>
       <r>    6.3027    0.0000 </r>
       <r>    8.4321    0.0000 </r>
       <r>    9.8391    0.0000 </r>
       <r>    9.8411    0.0000 </r>
       <r>   11.2136    0.0000 </r>
       <r>   12.1050    0.0000 </r>
       <r>   12.1852    0.0000 </r>
       <r>   13.1249    0.0000 </r>
       <r>   13.1271    0.0000 </r>
       <r>   13.9710    0.0000 </r>
       <r>   14.0849    0.0000 </r>
       <r>   14.1615    0.0000 </r>
       <r>   14.1640    0.0000 </r>
       <r>   14.5765    0.0000 </r>
       <r>   14.6711    0.0000 </r>
       <r>   14.7963    0.0000 </r>
      </set>
      <set comment="kpoint 7">
       <r>  -13.8886    1.0000 </r>
       <r>  -13.6010    1.0000 </r>
       <r>  -13.1712    1.0000 </r>
       <r>  -13.1701    1.0000 </r>
       <r>  -13.1690    1.0000 </r>
       <r>  -13.1051    1.0000 </r>
       <r>  -12.8131    1.0000 </r>
       <r>   -1.0124    1.0000 </r>
       <r>   -0.6886    1.0000 </r>
       <r>   -0.6877    1.0000 </r>
       <r>   -0.5197    1.0000 </r>
       <r>   -0.0782    1.0000 </r>
       <r>   -0.0369    1.0000 </r>
       <r>   -0.0367    1.0000 </r>
       <r>    0.0792    1.0000 </r>
       <r>    0.6740    1.0000 </r>
       <r>    0.6752    1.0000 </r>
       <r>    0.8501    1.0000 </r>
       <r>    0.8561    1.0000 </r>
       <r>    0.8568    1.0000 </r>
       <r>    0.9363    1.0000 </r>
       <r>    1.0558    1.0000 </r>
       <r>    1.8189    1.0000 </r>
       <r>    1.8206    1.0000 </r>
       <r>    2.1026    1.0000 </r>
       <r>    2.1028    1.0000 </r>
       <r>    2.1579    1.0000 </r>
       <r>    2.2254    1.0000 </r>
       <r>    6.3026    0.0000 </r>
       <r>    8.4346    0.0000 </r>
       <r>    9.8381    0.0000 </r>
       <r>    9.8388    0.0000 </r>
       <r>   11.2150    0.0000 </r>
       <r>   12.1048    0.0000 </r>
       <r>   12.1863    0.0000 </r>
       <r>   13.1251    0.0000 </r>
       <r>   13.1260    0.0000 </r>
       <r>   13.9706    0.0000 </r>
       <r>   14.0858    0.0000 </r>
       <r>   14.1628    0.0000 </r>
       <r>   14.1638    0.0000 </r>
       <r>   14.5772    0.0000 </r>
       <r>   14.6695    0.0000 </r>
       <r>   14.8012    0.0000 </r>
      </set>
      <set comment="kpoint 8">
       <r>  -14.0099    1.0000 </r>
       <r>  -13.5864    1.0000 </r>
       <r>  -13.3185    1.0000 </r>
       <r>  -12.9962    1.0000 </r>
       <r>  -12.9944    1.0000 </r>
       <r>  -12.9882    1.0000 </r>
       <r>  -12.9874    1.0000 </r>
       <r>   -1.1450    1.0000 </r>
       <r>   -1.1437    1.0000 </r>
       <r>   -1.0475    1.0000 </r>
       <r>   -0.8864    1.0000 </r>
       <r>   -0.1825    1.0000 </r>
       <r>   -0.1253    1.0000 </r>
       <r>   -0.1235    1.0000 </r>
       <r>    0.3421    1.0000 </r>
       <r>    0.4946    1.0000 </r>
       <r>    0.9142    1.0000 </r>
       <r>    0.9161    1.0000 </r>
       <r>    0.9966    1.0000 </r>
       <r>    0.9973    1.0000 </r>
       <r>    1.5784    1.0000 </r>
       <r>    1.5797    1.0000 </r>
       <r>    1.7501    1.0000 </r>
       <r>    1.8405    1.0000 </r>
       <r>    2.2135    1.0000 </r>
       <r>    2.2140    1.0000 </r>
       <r>    2.3719    1.0000 </r>
       <r>    2.3740    1.0000 </r>
       <r>    5.7592    0.0000 </r>
       <r>    8.1963    0.0000 </r>
       <r>   10.5859    0.0000 </r>
       <r>   10.5881    0.0000 </r>
       <r>   10.7724    0.0000 </r>
       <r>   10.9852    0.0000 </r>
       <r>   12.5129    0.0000 </r>
       <r>   12.5137    0.0000 </r>
       <r>   12.5741    0.0000 </r>
       <r>   12.5755    0.0000 </r>
       <r>   13.5531    0.0000 </r>
       <r>   14.1429    0.0000 </r>
       <r>   14.2398    0.0000 </r>
       <r>   14.2405    0.0000 </r>
       <r>   14.7155    0.0000 </r>
       <r>   15.3442    0.0000 </r>
      </set>
     </set>
    </set>
   </array>
  </eigenvalues>
  <separator name="orbital magnetization" >
   <v name="MAGDIPOLOUT">      0.00000000      0.00000000      0.00000000</v>
  </separator>
  <dos>
   <i name="efermi">      5.07357730 </i>
   <total>
    <array>
     <dimension dim="1">gridpoints</dimension>
     <dimension dim="2">spin</dimension>
     <field>energy</field>
     <field>total</field>
     <field>integrated</field>
     <set>
      <set comment="spin 1">
       <r>   -15.8355     0.0000     0.0000 </r>
       <r>   -15.7264     0.0000     0.0000 </r>
       <r>   -15.6174     0.0000     0.0000 </r>
       <r>   -15.5083     0.0000     0.0000 </r>
       <r>   -15.3993     0.0000     0.0000 </r>
       <r>   -15.2902     0.0000     0.0000 </r>
       <r>   -15.1812     0.0000     0.0000 </r>
       <r>   -15.0721     0.0000     0.0000 </r>
       <r>   -14.9631     0.0000     0.0000 </r>
       <r>   -14.8540     0.0000     0.0000 </r>
       <r>   -14.7450     0.0000     0.0000 </r>
       <r>   -14.6359     0.0000     0.0000 </r>
       <r>   -14.5269     0.0000     0.0000 </r>
       <r>   -14.4178     0.0285     0.0031 </r>
       <r>   -14.3087     0.9676     0.1086 </r>
       <r>   -14.1997     0.1502     0.1250 </r>
       <r>   -14.0906     0.1508     0.1414 </r>
       <r>   -13.9816     3.9691     0.5743 </r>
       <r>   -13.8725     2.9978     0.9012 </r>
       <r>   -13.7635     0.9070     1.0001 </r>
       <r>   -13.6544     2.3250     1.2537 </r>
       <r>   -13.5454     5.6417     1.8689 </r>
       <r>   -13.4363     0.4356     1.9164 </r>
       <r>   -13.3273     4.0815     2.3615 </r>
       <r>   -13.2182     6.2075     3.0384 </r>
       <r>   -13.1092    11.6708     4.3112 </r>
       <r>   -13.0001    16.2489     6.0832 </r>
       <r>   -12.8911     4.8380     6.6108 </r>
       <r>   -12.7820     3.5210     6.9948 </r>
       <r>   -12.6730     0.0481     7.0000 </r>
       <r>   -12.5639     0.0000     7.0000 </r>
       <r>   -12.4548     0.0000     7.0000 </r>
       <r>   -12.3458     0.0000     7.0000 </r>
       <r>   -12.2367     0.0000     7.0000 </r>
       <r>   -12.1277     0.0000     7.0000 </r>
       <r>   -12.0186     0.0000     7.0000 </r>
       <r>   -11.9096     0.0000     7.0000 </r>
       <r>   -11.8005     0.0000     7.0000 </r>
       <r>   -11.6915     0.0000     7.0000 </r>
       <r>   -11.5824     0.0000     7.0000 </r>
       <r>   -11.4734     0.0000     7.0000 </r>
       <r>   -11.3643     0.0000     7.0000 </r>
       <r>   -11.2553     0.0000     7.0000 </r>
       <r>   -11.1462     0.0000     7.0000 </r>
       <r>   -11.0372     0.0000     7.0000 </r>
       <r>   -10.9281     0.0000     7.0000 </r>
       <r>   -10.8190     0.0000     7.0000 </r>
       <r>   -10.7100     0.0000     7.0000 </r>
       <r>   -10.6009     0.0000     7.0000 </r>
       <r>   -10.4919     0.0000     7.0000 </r>
       <r>   -10.3828     0.0000     7.0000 </r>
       <r>   -10.2738     0.0000     7.0000 </r>
       <r>   -10.1647     0.0000     7.0000 </r>
       <r>   -10.0557     0.0000     7.0000 </r>
       <r>    -9.9466     0.0000     7.0000 </r>
       <r>    -9.8376     0.0000     7.0000 </r>
       <r>    -9.7285     0.0000     7.0000 </r>
       <r>    -9.6195     0.0000     7.0000 </r>
       <r>    -9.5104     0.0000     7.0000 </r>
       <r>    -9.4014     0.0000     7.0000 </r>
       <r>    -9.2923     0.0000     7.0000 </r>
       <r>    -9.1833     0.0000     7.0000 </r>
       <r>    -9.0742     0.0000     7.0000 </r>
       <r>    -8.9651     0.0000     7.0000 </r>
       <r>    -8.8561     0.0000     7.0000 </r>
       <r>    -8.7470     0.0000     7.0000 </r>
       <r>    -8.6380     0.0000     7.0000 </r>
       <r>    -8.5289     0.0000     7.0000 </r>
       <r>    -8.4199     0.0000     7.0000 </r>
       <r>    -8.3108     0.0000     7.0000 </r>
       <r>    -8.2018     0.0000     7.0000 </r>
       <r>    -8.0927     0.0000     7.0000 </r>
       <r>    -7.9837     0.0000     7.0000 </r>
       <r>    -7.8746     0.0000     7.0000 </r>
       <r>    -7.7656     0.0000     7.0000 </r>
       <r>    -7.6565     0.0000     7.0000 </r>
       <r>    -7.5475     0.0000     7.0000 </r>
       <r>    -7.4384     0.0000     7.0000 </r>
       <r>    -7.3293     0.0000     7.0000 </r>
       <r>    -7.2203     0.0000     7.0000 </r>
       <r>    -7.1112     0.0000     7.0000 </r>
       <r>    -7.0022     0.0000     7.0000 </r>
       <r>    -6.8931     0.0000     7.0000 </r>
       <r>    -6.7841     0.0000     7.0000 </r>
       <r>    -6.6750     0.0000     7.0000 </r>
       <r>    -6.5660     0.0000     7.0000 </r>
       <r>    -6.4569     0.0000     7.0000 </r>
       <r>    -6.3479     0.0000     7.0000 </r>
       <r>    -6.2388     0.0000     7.0000 </r>
       <r>    -6.1298     0.0000     7.0000 </r>
       <r>    -6.0207     0.0000     7.0000 </r>
       <r>    -5.9117     0.0000     7.0000 </r>
       <r>    -5.8026     0.0000     7.0000 </r>
       <r>    -5.6936     0.0000     7.0000 </r>
       <r>    -5.5845     0.0000     7.0000 </r>
       <r>    -5.4754     0.0000     7.0000 </r>
       <r>    -5.3664     0.0000     7.0000 </r>
       <r>    -5.2573     0.0000     7.0000 </r>
       <r>    -5.1483     0.0000     7.0000 </r>
       <r>    -5.0392     0.0000     7.0000 </r>
       <r>    -4.9302     0.0000     7.0000 </r>
       <r>    -4.8211     0.0000     7.0000 </r>
       <r>    -4.7121     0.0000     7.0000 </r>
       <r>    -4.6030     0.0000     7.0000 </r>
       <r>    -4.4940     0.0000     7.0000 </r>
       <r>    -4.3849     0.0000     7.0000 </r>
       <r>    -4.2759     0.0000     7.0000 </r>
       <r>    -4.1668     0.0000     7.0000 </r>
       <r>    -4.0578     0.0000     7.0000 </r>
       <r>    -3.9487     0.0000     7.0000 </r>
       <r>    -3.8397     0.0000     7.0000 </r>
       <r>    -3.7306     0.0000     7.0000 </r>
       <r>    -3.6215     0.0000     7.0000 </r>
       <r>    -3.5125     0.0000     7.0000 </r>
       <r>    -3.4034     0.0000     7.0000 </r>
       <r>    -3.2944     0.0000     7.0000 </r>
       <r>    -3.1853     0.0000     7.0000 </r>
       <r>    -3.0763     0.0000     7.0000 </r>
       <r>    -2.9672     0.0000     7.0000 </r>
       <r>    -2.8582     0.0000     7.0000 </r>
       <r>    -2.7491     0.0000     7.0000 </r>
       <r>    -2.6401     0.0000     7.0000 </r>
       <r>    -2.5310     0.0000     7.0000 </r>
       <r>    -2.4220     0.0000     7.0000 </r>
       <r>    -2.3129     0.0000     7.0000 </r>
       <r>    -2.2039     0.0000     7.0000 </r>
       <r>    -2.0948     0.0000     7.0000 </r>
       <r>    -1.9857     0.0000     7.0000 </r>
       <r>    -1.8767     0.0000     7.0000 </r>
       <r>    -1.7676     0.0361     7.0039 </r>
       <r>    -1.6586     2.7080     7.2993 </r>
       <r>    -1.5495     1.7575     7.4909 </r>
       <r>    -1.4405     0.0833     7.5000 </r>
       <r>    -1.3314     0.0015     7.5002 </r>
       <r>    -1.2224     2.2861     7.7495 </r>
       <r>    -1.1133    13.5997     9.2326 </r>
       <r>    -1.0043     1.3102     9.3754 </r>
       <r>    -0.8952     2.2252     9.6181 </r>
       <r>    -0.7862     3.6311    10.0141 </r>
       <r>    -0.6771     7.0571    10.7837 </r>
       <r>    -0.5681     2.5132    11.0578 </r>
       <r>    -0.4590     2.8423    11.3677 </r>
       <r>    -0.3500     0.0891    11.3774 </r>
       <r>    -0.2409     4.7943    11.9003 </r>
       <r>    -0.1318    11.3752    13.1408 </r>
       <r>    -0.0228     7.0096    13.9052 </r>
       <r>     0.0863     3.0835    14.2415 </r>
       <r>     0.1953     1.2240    14.3749 </r>
       <r>     0.3044     1.2048    14.5063 </r>
       <r>     0.4134     4.1778    14.9619 </r>
       <r>     0.5225     4.0379    15.4023 </r>
       <r>     0.6315     6.0677    16.0640 </r>
       <r>     0.7406     0.7443    16.1452 </r>
       <r>     0.8496     8.8510    17.1104 </r>
       <r>     0.9587    19.6906    19.2577 </r>
       <r>     1.0677     6.6032    19.9778 </r>
       <r>     1.1768     0.2036    20.0000 </r>
       <r>     1.2858     0.0002    20.0000 </r>
       <r>     1.3949     0.9011    20.0983 </r>
       <r>     1.5039     6.1729    20.7715 </r>
       <r>     1.6130     8.3275    21.6796 </r>
       <r>     1.7221     3.2734    22.0366 </r>
       <r>     1.8311    11.4665    23.2870 </r>
       <r>     1.9402     1.9535    23.5001 </r>
       <r>     2.0492     2.6306    23.7869 </r>
       <r>     2.1583    13.4124    25.2496 </r>
       <r>     2.2673    12.5432    26.6175 </r>
       <r>     2.3764     8.0036    27.4903 </r>
       <r>     2.4854     2.1193    27.7214 </r>
       <r>     2.5945     2.5287    27.9972 </r>
       <r>     2.7035     0.0259    28.0000 </r>
       <r>     2.8126     0.2841    28.0310 </r>
       <r>     2.9216     0.8527    28.1240 </r>
       <r>     3.0307     0.0093    28.1250 </r>
       <r>     3.1397     0.0000    28.1250 </r>
       <r>     3.2488     0.0000    28.1250 </r>
       <r>     3.3579     0.0000    28.1250 </r>
       <r>     3.4669     0.0000    28.1250 </r>
       <r>     3.5760     0.0000    28.1250 </r>
       <r>     3.6850     0.0000    28.1250 </r>
       <r>     3.7941     0.0000    28.1250 </r>
       <r>     3.9031     0.0000    28.1250 </r>
       <r>     4.0122     0.0000    28.1250 </r>
       <r>     4.1212     0.0000    28.1250 </r>
       <r>     4.2303     0.0000    28.1250 </r>
       <r>     4.3393     0.0000    28.1250 </r>
       <r>     4.4484     0.0004    28.1250 </r>
       <r>     4.5574     1.1774    28.2534 </r>
       <r>     4.6665     3.3726    28.6212 </r>
       <r>     4.7755     0.0345    28.6250 </r>
       <r>     4.8846     0.0000    28.6250 </r>
       <r>     4.9936     0.1156    28.6376 </r>
       <r>     5.1027     2.9626    28.9607 </r>
       <r>     5.2118     0.3605    29.0000 </r>
       <r>     5.3208     0.0000    29.0000 </r>
       <r>     5.4299     0.0000    29.0000 </r>
       <r>     5.5389     0.0000    29.0000 </r>
       <r>     5.6480     0.0000    29.0000 </r>
       <r>     5.7570     0.0000    29.0000 </r>
       <r>     5.8661     0.0000    29.0000 </r>
       <r>     5.9751     0.0000    29.0000 </r>
       <r>     6.0842     0.0000    29.0000 </r>
       <r>     6.1932     0.0000    29.0000 </r>
       <r>     6.3023     0.0000    29.0000 </r>
       <r>     6.4113     0.0000    29.0000 </r>
       <r>     6.5204     0.0000    29.0000 </r>
       <r>     6.6294     0.0000    29.0000 </r>
       <r>     6.7385     0.0000    29.0000 </r>
       <r>     6.8475     0.0000    29.0000 </r>
       <r>     6.9566     0.0000    29.0000 </r>
       <r>     7.0657     0.0000    29.0000 </r>
       <r>     7.1747     0.0000    29.0000 </r>
       <r>     7.2838     0.0000    29.0000 </r>
       <r>     7.3928     0.0000    29.0000 </r>
       <r>     7.5019     0.0000    29.0000 </r>
       <r>     7.6109     0.0000    29.0000 </r>
       <r>     7.7200     0.1361    29.0148 </r>
       <r>     7.8290     3.9197    29.4423 </r>
       <r>     7.9381     1.4375    29.5991 </r>
       <r>     8.0471     2.5059    29.8723 </r>
       <r>     8.1562     0.0244    29.8750 </r>
       <r>     8.2652     0.0000    29.8750 </r>
       <r>     8.3743     0.0253    29.8778 </r>
       <r>     8.4833     0.9584    29.9823 </r>
       <r>     8.5924     0.1624    30.0000 </r>
       <r>     8.7015     0.0000    30.0000 </r>
       <r>     8.8105     0.0000    30.0000 </r>
       <r>     8.9196     0.0000    30.0000 </r>
       <r>     9.0286     0.0000    30.0000 </r>
       <r>     9.1377     0.0000    30.0000 </r>
       <r>     9.2467     0.1759    30.0192 </r>
       <r>     9.3558     5.8161    30.6535 </r>
       <r>     9.4648     0.8853    30.7500 </r>
       <r>     9.5739     0.0001    30.7500 </r>
       <r>     9.6829     0.0000    30.7500 </r>
       <r>     9.7920     0.0000    30.7500 </r>
       <r>     9.9010     0.0055    30.7506 </r>
       <r>    10.0101     4.0012    31.1869 </r>
       <r>    10.1191     5.1472    31.7483 </r>
       <r>    10.2282     0.0159    31.7500 </r>
       <r>    10.3372     0.0000    31.7500 </r>
       <r>    10.4463     0.0004    31.7500 </r>
       <r>    10.5554     1.3222    31.8942 </r>
       <r>    10.6644     6.4621    32.5989 </r>
       <r>    10.7735     0.2497    32.6262 </r>
       <r>    10.8825     3.8380    33.0447 </r>
       <r>    10.9916     4.1584    33.4982 </r>
       <r>    11.1006     0.1123    33.5105 </r>
       <r>    11.2097     2.9276    33.8297 </r>
       <r>    11.3187     0.4152    33.8750 </r>
       <r>    11.4278     0.0000    33.8750 </r>
       <r>    11.5368     0.0000    33.8750 </r>
       <r>    11.6459     0.0000    33.8750 </r>
       <r>    11.7549     0.0000    33.8750 </r>
       <r>    11.8640     0.0010    33.8751 </r>
       <r>    11.9730     1.6497    34.0550 </r>
       <r>    12.0821     7.5421    34.8775 </r>
       <r>    12.1912     1.1784    35.0060 </r>
       <r>    12.3002     1.0028    35.1154 </r>
       <r>    12.4093     0.9881    35.2231 </r>
       <r>    12.5183    17.7170    37.1552 </r>
       <r>    12.6274     2.0152    37.3750 </r>
       <r>    12.7364     0.0002    37.3750 </r>
       <r>    12.8455     0.0000    37.3750 </r>
       <r>    12.9545     0.0787    37.3836 </r>
       <r>    13.0636     5.3566    37.9677 </r>
       <r>    13.1726     1.4418    38.1250 </r>
       <r>    13.2817     0.0003    38.1250 </r>
       <r>    13.3907     0.0085    38.1259 </r>
       <r>    13.4998     2.6129    38.4109 </r>
       <r>    13.6088     1.9610    38.6247 </r>
       <r>    13.7179     0.0025    38.6250 </r>
       <r>    13.8269     0.0029    38.6253 </r>
       <r>    13.9360     2.0613    38.8501 </r>
       <r>    14.0451     5.9882    39.5032 </r>
       <r>    14.1541     9.2600    40.5130 </r>
       <r>    14.2632    10.1338    41.6181 </r>
       <r>    14.3722     0.0632    41.6250 </r>
       <r>    14.4813     0.0218    41.6274 </r>
       <r>    14.5903     2.8953    41.9431 </r>
       <r>    14.6994    10.2711    43.0632 </r>
       <r>    14.8084     1.7124    43.2500 </r>
       <r>    14.9175     0.0003    43.2500 </r>
       <r>    15.0265     0.0000    43.2500 </r>
       <r>    15.1356     0.0066    43.2507 </r>
       <r>    15.2446     2.1350    43.4835 </r>
       <r>    15.3537     4.0674    43.9271 </r>
       <r>    15.4627     0.6665    43.9998 </r>
       <r>    15.5718     0.0019    44.0000 </r>
       <r>    15.6808     0.0000    44.0000 </r>
       <r>    15.7899     0.0000    44.0000 </r>
       <r>    15.8990     0.0000    44.0000 </r>
       <r>    16.0080     0.0000    44.0000 </r>
       <r>    16.1171     0.0000    44.0000 </r>
       <r>    16.2261     0.0000    44.0000 </r>
       <r>    16.3352     0.0000    44.0000 </r>
       <r>    16.4442     0.0000    44.0000 </r>
       <r>    16.5533     0.0000    44.0000 </r>
       <r>    16.6623     0.0000    44.0000 </r>
       <r>    16.7714     0.0000    44.0000 </r>
       <r>    16.8804     0.0000    44.0000 </r>
      </set>
      <set comment="spin 2">
       <r>   -15.8355     0.0000     0.0000 </r>
       <r>   -15.7264     0.0000     0.0000 </r>
       <r>   -15.6174     0.0000     0.0000 </r>
       <r>   -15.5083     0.0000     0.0000 </r>
       <r>   -15.3993     0.0000     0.0000 </r>
       <r>   -15.2902     0.0000     0.0000 </r>
       <r>   -15.1812     0.0000     0.0000 </r>
       <r>   -15.0721     0.0000     0.0000 </r>
       <r>   -14.9631     0.0000     0.0000 </r>
       <r>   -14.8540     0.0000     0.0000 </r>
       <r>   -14.7450     0.0000     0.0000 </r>
       <r>   -14.6359     0.0000     0.0000 </r>
       <r>   -14.5269     0.0000     0.0000 </r>
       <r>   -14.4178     0.0040     0.0004 </r>
       <r>   -14.3087     0.7407     0.0812 </r>
       <r>   -14.1997     0.4013     0.1250 </r>
       <r>   -14.0906     0.0551     0.1310 </r>
       <r>   -13.9816     3.6070     0.5243 </r>
       <r>   -13.8725     3.2465     0.8784 </r>
       <r>   -13.7635     1.1146     0.9999 </r>
       <r>   -13.6544     0.3291     1.0358 </r>
       <r>   -13.5454     6.8595     1.7839 </r>
       <r>   -13.4363     1.0282     1.8960 </r>
       <r>   -13.3273     2.8652     2.2084 </r>
       <r>   -13.2182     3.5665     2.5974 </r>
       <r>   -13.1092    12.1426     3.9216 </r>
       <r>   -13.0001    11.5679     5.1831 </r>
       <r>   -12.8911    11.3515     6.4210 </r>
       <r>   -12.7820     4.6200     6.9248 </r>
       <r>   -12.6730     0.6892     7.0000 </r>
       <r>   -12.5639     0.0001     7.0000 </r>
       <r>   -12.4548     0.0000     7.0000 </r>
       <r>   -12.3458     0.0000     7.0000 </r>
       <r>   -12.2367     0.0000     7.0000 </r>
       <r>   -12.1277     0.0000     7.0000 </r>
       <r>   -12.0186     0.0000     7.0000 </r>
       <r>   -11.9096     0.0000     7.0000 </r>
       <r>   -11.8005     0.0000     7.0000 </r>
       <r>   -11.6915     0.0000     7.0000 </r>
       <r>   -11.5824     0.0000     7.0000 </r>
       <r>   -11.4734     0.0000     7.0000 </r>
       <r>   -11.3643     0.0000     7.0000 </r>
       <r>   -11.2553     0.0000     7.0000 </r>
       <r>   -11.1462     0.0000     7.0000 </r>
       <r>   -11.0372     0.0000     7.0000 </r>
       <r>   -10.9281     0.0000     7.0000 </r>
       <r>   -10.8190     0.0000     7.0000 </r>
       <r>   -10.7100     0.0000     7.0000 </r>
       <r>   -10.6009     0.0000     7.0000 </r>
       <r>   -10.4919     0.0000     7.0000 </r>
       <r>   -10.3828     0.0000     7.0000 </r>
       <r>   -10.2738     0.0000     7.0000 </r>
       <r>   -10.1647     0.0000     7.0000 </r>
       <r>   -10.0557     0.0000     7.0000 </r>
       <r>    -9.9466     0.0000     7.0000 </r>
       <r>    -9.8376     0.0000     7.0000 </r>
       <r>    -9.7285     0.0000     7.0000 </r>
       <r>    -9.6195     0.0000     7.0000 </r>
       <r>    -9.5104     0.0000     7.0000 </r>
       <r>    -9.4014     0.0000     7.0000 </r>
       <r>    -9.2923     0.0000     7.0000 </r>
       <r>    -9.1833     0.0000     7.0000 </r>
       <r>    -9.0742     0.0000     7.0000 </r>
       <r>    -8.9651     0.0000     7.0000 </r>
       <r>    -8.8561     0.0000     7.0000 </r>
       <r>    -8.7470     0.0000     7.0000 </r>
       <r>    -8.6380     0.0000     7.0000 </r>
       <r>    -8.5289     0.0000     7.0000 </r>
       <r>    -8.4199     0.0000     7.0000 </r>
       <r>    -8.3108     0.0000     7.0000 </r>
       <r>    -8.2018     0.0000     7.0000 </r>
       <r>    -8.0927     0.0000     7.0000 </r>
       <r>    -7.9837     0.0000     7.0000 </r>
       <r>    -7.8746     0.0000     7.0000 </r>
       <r>    -7.7656     0.0000     7.0000 </r>
       <r>    -7.6565     0.0000     7.0000 </r>
       <r>    -7.5475     0.0000     7.0000 </r>
       <r>    -7.4384     0.0000     7.0000 </r>
       <r>    -7.3293     0.0000     7.0000 </r>
       <r>    -7.2203     0.0000     7.0000 </r>
       <r>    -7.1112     0.0000     7.0000 </r>
       <r>    -7.0022     0.0000     7.0000 </r>
       <r>    -6.8931     0.0000     7.0000 </r>
       <r>    -6.7841     0.0000     7.0000 </r>
       <r>    -6.6750     0.0000     7.0000 </r>
       <r>    -6.5660     0.0000     7.0000 </r>
       <r>    -6.4569     0.0000     7.0000 </r>
       <r>    -6.3479     0.0000     7.0000 </r>
       <r>    -6.2388     0.0000     7.0000 </r>
       <r>    -6.1298     0.0000     7.0000 </r>
       <r>    -6.0207     0.0000     7.0000 </r>
       <r>    -5.9117     0.0000     7.0000 </r>
       <r>    -5.8026     0.0000     7.0000 </r>
       <r>    -5.6936     0.0000     7.0000 </r>
       <r>    -5.5845     0.0000     7.0000 </r>
       <r>    -5.4754     0.0000     7.0000 </r>
       <r>    -5.3664     0.0000     7.0000 </r>
       <r>    -5.2573     0.0000     7.0000 </r>
       <r>    -5.1483     0.0000     7.0000 </r>
       <r>    -5.0392     0.0000     7.0000 </r>
       <r>    -4.9302     0.0000     7.0000 </r>
       <r>    -4.8211     0.0000     7.0000 </r>
       <r>    -4.7121     0.0000     7.0000 </r>
       <r>    -4.6030     0.0000     7.0000 </r>
       <r>    -4.4940     0.0000     7.0000 </r>
       <r>    -4.3849     0.0000     7.0000 </r>
       <r>    -4.2759     0.0000     7.0000 </r>
       <r>    -4.1668     0.0000     7.0000 </r>
       <r>    -4.0578     0.0000     7.0000 </r>
       <r>    -3.9487     0.0000     7.0000 </r>
       <r>    -3.8397     0.0000     7.0000 </r>
       <r>    -3.7306     0.0000     7.0000 </r>
       <r>    -3.6215     0.0000     7.0000 </r>
       <r>    -3.5125     0.0000     7.0000 </r>
       <r>    -3.4034     0.0000     7.0000 </r>
       <r>    -3.2944     0.0000     7.0000 </r>
       <r>    -3.1853     0.0000     7.0000 </r>
       <r>    -3.0763     0.0000     7.0000 </r>
       <r>    -2.9672     0.0000     7.0000 </r>
       <r>    -2.8582     0.0000     7.0000 </r>
       <r>    -2.7491     0.0000     7.0000 </r>
       <r>    -2.6401     0.0000     7.0000 </r>
       <r>    -2.5310     0.0000     7.0000 </r>
       <r>    -2.4220     0.0000     7.0000 </r>
       <r>    -2.3129     0.0000     7.0000 </r>
       <r>    -2.2039     0.0000     7.0000 </r>
       <r>    -2.0948     0.0000     7.0000 </r>
       <r>    -1.9857     0.0000     7.0000 </r>
       <r>    -1.8767     0.0000     7.0000 </r>
       <r>    -1.7676     0.0117     7.0013 </r>
       <r>    -1.6586     2.2507     7.2467 </r>
       <r>    -1.5495     2.1975     7.4864 </r>
       <r>    -1.4405     0.1250     7.5000 </r>
       <r>    -1.3314     0.0000     7.5000 </r>
       <r>    -1.2224     0.1395     7.5152 </r>
       <r>    -1.1133     7.5635     8.3400 </r>
       <r>    -1.0043     7.6186     9.1709 </r>
       <r>    -0.8952     3.5648     9.5596 </r>
       <r>    -0.7862     2.9266     9.8788 </r>
       <r>    -0.6771     6.8227    10.6228 </r>
       <r>    -0.5681     3.7488    11.0316 </r>
       <r>    -0.4590     2.9996    11.3587 </r>
       <r>    -0.3500     0.1490    11.3750 </r>
       <r>    -0.2409     0.2397    11.4011 </r>
       <r>    -0.1318     7.8680    12.2592 </r>
       <r>    -0.0228    13.3512    13.7152 </r>
       <r>     0.0863     4.6487    14.2221 </r>
       <r>     0.1953     1.4005    14.3748 </r>
       <r>     0.3044     0.6046    14.4408 </r>
       <r>     0.4134     3.9178    14.8680 </r>
       <r>     0.5225     3.6607    15.2672 </r>
       <r>     0.6315     1.8027    15.4638 </r>
       <r>     0.7406     5.8711    16.1041 </r>
       <r>     0.8496     5.1107    16.6614 </r>
       <r>     0.9587    17.3565    18.5542 </r>
       <r>     1.0677    11.8124    19.8424 </r>
       <r>     1.1768     1.4445    19.9999 </r>
       <r>     1.2858     0.0010    20.0000 </r>
       <r>     1.3949     0.1344    20.0147 </r>
       <r>     1.5039     5.8569    20.6534 </r>
       <r>     1.6130     8.6219    21.5936 </r>
       <r>     1.7221     2.5342    21.8700 </r>
       <r>     1.8311     9.3971    22.8948 </r>
       <r>     1.9402     5.5343    23.4983 </r>
       <r>     2.0492     0.4651    23.5490 </r>
       <r>     2.1583    10.0143    24.6411 </r>
       <r>     2.2673    16.8032    26.4736 </r>
       <r>     2.3764     6.6046    27.1938 </r>
       <r>     2.4854     4.1563    27.6471 </r>
       <r>     2.5945     3.0205    27.9765 </r>
       <r>     2.7035     0.2158    28.0000 </r>
       <r>     2.8126     0.0000    28.0000 </r>
       <r>     2.9216     0.0000    28.0000 </r>
       <r>     3.0307     0.0000    28.0000 </r>
       <r>     3.1397     0.0000    28.0000 </r>
       <r>     3.2488     0.0000    28.0000 </r>
       <r>     3.3579     0.0000    28.0000 </r>
       <r>     3.4669     0.0000    28.0000 </r>
       <r>     3.5760     0.0000    28.0000 </r>
       <r>     3.6850     0.0000    28.0000 </r>
       <r>     3.7941     0.0000    28.0000 </r>
       <r>     3.9031     0.0016    28.0002 </r>
       <r>     4.0122     0.6163    28.0674 </r>
       <r>     4.1212     0.5275    28.1249 </r>
       <r>     4.2303     0.0008    28.1250 </r>
       <r>     4.3393     0.0000    28.1250 </r>
       <r>     4.4484     0.0000    28.1250 </r>
       <r>     4.5574     0.0000    28.1250 </r>
       <r>     4.6665     0.0000    28.1250 </r>
       <r>     4.7755     0.0000    28.1250 </r>
       <r>     4.8846     0.0000    28.1250 </r>
       <r>     4.9936     0.0000    28.1250 </r>
       <r>     5.1027     0.0000    28.1250 </r>
       <r>     5.2118     0.0000    28.1250 </r>
       <r>     5.3208     0.0000    28.1250 </r>
       <r>     5.4299     0.0000    28.1250 </r>
       <r>     5.5389     0.0000    28.1250 </r>
       <r>     5.6480     0.0037    28.1254 </r>
       <r>     5.7570     2.1622    28.3612 </r>
       <r>     5.8661     2.4132    28.6244 </r>
       <r>     5.9751     0.0059    28.6250 </r>
       <r>     6.0842     0.0000    28.6250 </r>
       <r>     6.1932     0.0034    28.6254 </r>
       <r>     6.3023     1.6996    28.8107 </r>
       <r>     6.4113     1.7321    28.9996 </r>
       <r>     6.5204     0.0036    29.0000 </r>
       <r>     6.6294     0.0000    29.0000 </r>
       <r>     6.7385     0.0000    29.0000 </r>
       <r>     6.8475     0.0000    29.0000 </r>
       <r>     6.9566     0.0000    29.0000 </r>
       <r>     7.0657     0.0000    29.0000 </r>
       <r>     7.1747     0.0000    29.0000 </r>
       <r>     7.2838     0.0000    29.0000 </r>
       <r>     7.3928     0.0000    29.0000 </r>
       <r>     7.5019     0.0000    29.0000 </r>
       <r>     7.6109     0.0000    29.0000 </r>
       <r>     7.7200     0.0000    29.0000 </r>
       <r>     7.8290     0.0000    29.0000 </r>
       <r>     7.9381     0.0000    29.0000 </r>
       <r>     8.0471     0.0001    29.0000 </r>
       <r>     8.1562     0.6468    29.0705 </r>
       <r>     8.2652     3.8355    29.4888 </r>
       <r>     8.3743     0.2683    29.5181 </r>
       <r>     8.4833     3.0059    29.8459 </r>
       <r>     8.5924     0.6397    29.9156 </r>
       <r>     8.7015     0.7687    29.9995 </r>
       <r>     8.8105     0.0049    30.0000 </r>
       <r>     8.9196     0.0000    30.0000 </r>
       <r>     9.0286     0.0000    30.0000 </r>
       <r>     9.1377     0.0000    30.0000 </r>
       <r>     9.2467     0.0000    30.0000 </r>
       <r>     9.3558     0.0000    30.0000 </r>
       <r>     9.4648     0.0000    30.0000 </r>
       <r>     9.5739     0.0000    30.0000 </r>
       <r>     9.6829     0.0000    30.0000 </r>
       <r>     9.7920     0.6171    30.0673 </r>
       <r>     9.9010     5.9790    30.7193 </r>
       <r>    10.0101     0.2812    30.7500 </r>
       <r>    10.1191     0.0000    30.7500 </r>
       <r>    10.2282     0.0000    30.7500 </r>
       <r>    10.3372     0.0000    30.7500 </r>
       <r>    10.4463     0.0003    30.7500 </r>
       <r>    10.5554     1.9099    30.9583 </r>
       <r>    10.6644    10.3851    32.0908 </r>
       <r>    10.7735     2.7245    32.3880 </r>
       <r>    10.8825     2.1770    32.6254 </r>
       <r>    10.9916     2.5203    32.9002 </r>
       <r>    11.1006     2.0605    33.1249 </r>
       <r>    11.2097     1.5465    33.2936 </r>
       <r>    11.3187     1.8876    33.4994 </r>
       <r>    11.4278     0.0053    33.5000 </r>
       <r>    11.5368     0.1064    33.5116 </r>
       <r>    11.6459     2.9454    33.8328 </r>
       <r>    11.7549     0.3868    33.8750 </r>
       <r>    11.8640     0.0000    33.8750 </r>
       <r>    11.9730     0.0094    33.8760 </r>
       <r>    12.0821     3.0059    34.2038 </r>
       <r>    12.1912     5.7717    34.8333 </r>
       <r>    12.3002     2.2766    35.0815 </r>
       <r>    12.4093     0.4144    35.1267 </r>
       <r>    12.5183     5.9794    35.7788 </r>
       <r>    12.6274    13.9276    37.2976 </r>
[...]
        <r>  0.0002  0.0000  0.0000  0.0000  0.0000  0.0000  0.0000  0.0000  0.0000 </r>
        <r>  0.0000  0.0064  0.0109  0.0121  0.0000  0.0000  0.0000  0.0000  0.0000 </r>
        <r>  0.0000  0.0223  0.0051  0.0237  0.0000  0.0000  0.0000  0.0000  0.0000 </r>
        <r>  0.0000  0.0000  0.0000  0.0000  0.0000  0.0000  0.0000  0.0000  0.0000 </r>
       </set>
       <set comment="band 32">
        <r>  0.0000  0.0002  0.0003  0.0010  0.0000  0.0000  0.0001  0.0000  0.0001 </r>
        <r>  0.0135  0.0031  0.0044  0.0008  0.0000  0.0003  0.0011  0.0013  0.0004 </r>
        <r>  0.0063  0.0021  0.0033  0.0013  0.0013  0.0006  0.0001  0.0000  0.0010 </r>
        <r>  0.0387  0.0009  0.0003  0.0120  0.0002  0.0000  0.0009  0.0004  0.0023 </r>
        <r>  0.0386  0.0008  0.0004  0.0120  0.0002  0.0000  0.0010  0.0004  0.0023 </r>
        <r>  0.0068  0.0022  0.0032  0.0014  0.0014  0.0005  0.0000  0.0000  0.0010 </r>
        <r>  0.0127  0.0031  0.0042  0.0007  0.0000  0.0003  0.0011  0.0012  0.0004 </r>
        <r>  0.0000  0.0002  0.0003  0.0010  0.0000  0.0000  0.0001  0.0000  0.0001 </r>
        <r>  0.0067  0.0000  0.0000  0.0000  0.0000  0.0000  0.0000  0.0000  0.0000 </r>
        <r>  0.0034  0.0000  0.0000  0.0000  0.0000  0.0000  0.0000  0.0000  0.0000 </r>
        <r>  0.0000  0.0008  0.0005  0.0077  0.0000  0.0000  0.0000  0.0000  0.0000 </r>
        <r>  0.0191  0.0000  0.0000  0.0000  0.0000  0.0000  0.0000  0.0000  0.0000 </r>
        <r>  0.0000  0.0013  0.0571  0.0553  0.0000  0.0000  0.0000  0.0000  0.0000 </r>
        <r>  0.0000  0.0457  0.0026  0.0438  0.0000  0.0000  0.0000  0.0000  0.0000 </r>
        <r>  0.0000  0.0000  0.0000  0.0000  0.0000  0.0000  0.0000  0.0000  0.0000 </r>
       </set>
       <set comment="band 33">
        <r>  0.0040  0.0003  0.0003  0.0003  0.0002  0.0002  0.0000  0.0002  0.0000 </r>
        <r>  0.0042  0.0004  0.0200  0.0003  0.0001  0.0026  0.0002  0.0026  0.0000 </r>
        <r>  0.0041  0.0200  0.0004  0.0004  0.0026  0.0026  0.0001  0.0001  0.0002 </r>
        <r>  0.0039  0.0003  0.0003  0.0204  0.0026  0.0001  0.0001  0.0026  0.0002 </r>
        <r>  0.0039  0.0003  0.0003  0.0204  0.0026  0.0001  0.0001  0.0026  0.0002 </r>
        <r>  0.0042  0.0199  0.0004  0.0003  0.0026  0.0025  0.0001  0.0001  0.0002 </r>
        <r>  0.0041  0.0004  0.0201  0.0003  0.0001  0.0025  0.0002  0.0026  0.0000 </r>
        <r>  0.0040  0.0003  0.0003  0.0003  0.0002  0.0002  0.0000  0.0002  0.0000 </r>
        <r>  0.0059  0.0000  0.0000  0.0000  0.0000  0.0000  0.0000  0.0000  0.0000 </r>
        <r>  0.0058  0.0000  0.0000  0.0000  0.0000  0.0000  0.0000  0.0000  0.0000 </r>
        <r>  0.0000  0.0099  0.0099  0.0038  0.0000  0.0000  0.0000  0.0000  0.0000 </r>
        <r>  0.0060  0.0000  0.0000  0.0000  0.0000  0.0000  0.0000  0.0000  0.0000 </r>
        <r>  0.0000  0.0039  0.0097  0.0102  0.0000  0.0000  0.0000  0.0000  0.0000 </r>
        <r>  0.0000  0.0097  0.0039  0.0102  0.0000  0.0000  0.0000  0.0000  0.0000 </r>
        <r>  0.0600  0.0000  0.0000  0.0000  0.0000  0.0000  0.0000  0.0000  0.0000 </r>
       </set>
       <set comment="band 34">
        <r>  0.0374  0.0057  0.0057  0.0057  0.0008  0.0008  0.0000  0.0008  0.0000 </r>
        <r>  0.0031  0.0032  0.0021  0.0033  0.0007  0.0002  0.0019  0.0002  0.0000 </r>
        <r>  0.0032  0.0021  0.0033  0.0032  0.0002  0.0002  0.0005  0.0007  0.0014 </r>
        <r>  0.0031  0.0032  0.0032  0.0021  0.0002  0.0007  0.0005  0.0002  0.0014 </r>
        <r>  0.0032  0.0032  0.0033  0.0021  0.0002  0.0007  0.0005  0.0002  0.0014 </r>
        <r>  0.0031  0.0021  0.0032  0.0033  0.0002  0.0002  0.0005  0.0007  0.0014 </r>
        <r>  0.0032  0.0033  0.0020  0.0032  0.0007  0.0002  0.0019  0.0002  0.0000 </r>
        <r>  0.0374  0.0057  0.0057  0.0057  0.0008  0.0008  0.0000  0.0008  0.0000 </r>
        <r>  0.0000  0.0000  0.0142  0.0000  0.0000  0.0000  0.0000  0.0000  0.0000 </r>
        <r>  0.0000  0.0142  0.0000  0.0000  0.0000  0.0000  0.0000  0.0000  0.0000 </r>
        <r>  0.0371  0.0000  0.0000  0.0000  0.0000  0.0000  0.0000  0.0000  0.0000 </r>
        <r>  0.0000  0.0000  0.0000  0.0142  0.0000  0.0000  0.0000  0.0000  0.0000 </r>
        <r>  0.0371  0.0000  0.0000  0.0000  0.0000  0.0000  0.0000  0.0000  0.0000 </r>
        <r>  0.0371  0.0000  0.0000  0.0000  0.0000  0.0000  0.0000  0.0000  0.0000 </r>
        <r>  0.0000  0.0274  0.0275  0.0276  0.0000  0.0000  0.0000  0.0000  0.0000 </r>
       </set>
       <set comment="band 35">
        <r>  0.0000  0.0013  0.0055  0.0015  0.0051  0.0006  0.0005  0.0023  0.0000 </r>
        <r>  0.0005  0.0030  0.0040  0.0081  0.0055  0.0005  0.0009  0.0013  0.0000 </r>
        <r>  0.0000  0.0017  0.0000  0.0102  0.0068  0.0026  0.0001  0.0017  0.0007 </r>
        <r>  0.0000  0.0088  0.0006  0.0008  0.0074  0.0006  0.0003  0.0046  0.0005 </r>
        <r>  0.0005  0.0084  0.0021  0.0005  0.0078  0.0012  0.0001  0.0035  0.0005 </r>
        <r>  0.0007  0.0013  0.0005  0.0096  0.0072  0.0018  0.0000  0.0025  0.0007 </r>
        <r>  0.0005  0.0052  0.0039  0.0052  0.0056  0.0003  0.0009  0.0019  0.0000 </r>
        <r>  0.0000  0.0029  0.0055  0.0004  0.0051  0.0011  0.0005  0.0015  0.0000 </r>
        <r>  0.0183  0.0001  0.0000  0.0001  0.0000  0.0000  0.0000  0.0000  0.0000 </r>
        <r>  0.0067  0.0003  0.0000  0.0002  0.0000  0.0000  0.0000  0.0000  0.0000 </r>
        <r>  0.0004  0.0131  0.0000  0.0027  0.0000  0.0000  0.0000  0.0000  0.0000 </r>
        <r>  0.0028  0.0002  0.0000  0.0002  0.0000  0.0000  0.0000  0.0000  0.0000 </r>
        <r>  0.0004  0.0065  0.0021  0.0196  0.0000  0.0000  0.0000  0.0000  0.0000 </r>
        <r>  0.0000  0.0210  0.0175  0.0254  0.0000  0.0000  0.0000  0.0000  0.0000 </r>
        <r>  0.0000  0.0001  0.0000  0.0001  0.0000  0.0000  0.0000  0.0000  0.0000 </r>
       </set>
       <set comment="band 36">
        <r>  0.0000  0.0044  0.0000  0.0043  0.0002  0.0046  0.0000  0.0030  0.0005 </r>
        <r>  0.0002  0.0069  0.0001  0.0027  0.0000  0.0068  0.0000  0.0066  0.0007 </r>
        <r>  0.0008  0.0023  0.0105  0.0000  0.0004  0.0053  0.0005  0.0040  0.0002 </r>
        <r>  0.0007  0.0009  0.0101  0.0033  0.0000  0.0050  0.0004  0.0033  0.0004 </r>
        <r>  0.0002  0.0025  0.0078  0.0036  0.0001  0.0045  0.0006  0.0039  0.0003 </r>
        <r>  0.0001  0.0028  0.0097  0.0007  0.0009  0.0055  0.0007  0.0032  0.0001 </r>
        <r>  0.0003  0.0054  0.0000  0.0047  0.0002  0.0077  0.0000  0.0054  0.0006 </r>
        <r>  0.0000  0.0028  0.0004  0.0052  0.0000  0.0042  0.0000  0.0037  0.0006 </r>
        <r>  0.0003  0.0002  0.0003  0.0001  0.0000  0.0000  0.0000  0.0000  0.0000 </r>
        <r>  0.0119  0.0001  0.0003  0.0000  0.0000  0.0000  0.0000  0.0000  0.0000 </r>
        <r>  0.0001  0.0140  0.0271  0.0150  0.0000  0.0000  0.0000  0.0000  0.0000 </r>
        <r>  0.0157  0.0000  0.0002  0.0000  0.0000  0.0000  0.0000  0.0000  0.0000 </r>
        <r>  0.0002  0.0114  0.0250  0.0076  0.0000  0.0000  0.0000  0.0000  0.0000 </r>
        <r>  0.0005  0.0060  0.0003  0.0016  0.0000  0.0000  0.0000  0.0000  0.0000 </r>
        <r>  0.0000  0.0001  0.0001  0.0000  0.0000  0.0000  0.0000  0.0000  0.0000 </r>
       </set>
       <set comment="band 37">
        <r>  0.0000  0.0033  0.0014  0.0091  0.0007  0.0019  0.0003  0.0003  0.0008 </r>
        <r>  0.0052  0.0109  0.0004  0.0010  0.0003  0.0019  0.0000  0.0004  0.0008 </r>
        <r>  0.0077  0.0001  0.0100  0.0016  0.0000  0.0017  0.0007  0.0010  0.0000 </r>
        <r>  0.0257  0.0030  0.0059  0.0008  0.0015  0.0024  0.0000  0.0006  0.0001 </r>
        <r>  0.0257  0.0049  0.0042  0.0009  0.0004  0.0023  0.0001  0.0017  0.0001 </r>
        <r>  0.0074  0.0005  0.0108  0.0004  0.0003  0.0021  0.0007  0.0004  0.0001 </r>
        <r>  0.0055  0.0094  0.0001  0.0024  0.0008  0.0017  0.0001  0.0001  0.0007 </r>
        <r>  0.0000  0.0022  0.0025  0.0093  0.0002  0.0018  0.0002  0.0009  0.0009 </r>
        <r>  0.0001  0.0030  0.0056  0.0208  0.0000  0.0000  0.0000  0.0000  0.0000 </r>
        <r>  0.0001  0.0080  0.0016  0.0218  0.0000  0.0000  0.0000  0.0000  0.0000 </r>
        <r>  0.0452  0.0001  0.0000  0.0000  0.0000  0.0000  0.0000  0.0000  0.0000 </r>
        <r>  0.0000  0.0108  0.0086  0.0271  0.0000  0.0000  0.0000  0.0000  0.0000 </r>
        <r>  0.0133  0.0001  0.0001  0.0002  0.0000  0.0000  0.0000  0.0000  0.0000 </r>
        <r>  0.0094  0.0001  0.0002  0.0003  0.0000  0.0000  0.0000  0.0000  0.0000 </r>
        <r>  0.0000  0.0045  0.0032  0.0153  0.0000  0.0000  0.0000  0.0000  0.0000 </r>
       </set>
       <set comment="band 38">
        <r>  0.0000  0.0059  0.0081  0.0002  0.0012  0.0000  0.0008  0.0016  0.0003 </r>
        <r>  0.0207  0.0002  0.0005  0.0094  0.0023  0.0006  0.0002  0.0013  0.0001 </r>
        <r>  0.0178  0.0008  0.0005  0.0090  0.0026  0.0000  0.0001  0.0013  0.0003 </r>
        <r>  0.0001  0.0082  0.0046  0.0001  0.0008  0.0000  0.0008  0.0011  0.0002 </r>
        <r>  0.0001  0.0055  0.0068  0.0000  0.0014  0.0001  0.0006  0.0007  0.0004 </r>
        <r>  0.0183  0.0005  0.0000  0.0104  0.0013  0.0004  0.0000  0.0020  0.0004 </r>
        <r>  0.0201  0.0011  0.0010  0.0084  0.0015  0.0000  0.0001  0.0024  0.0003 </r>
        <r>  0.0000  0.0071  0.0066  0.0000  0.0018  0.0001  0.0009  0.0011  0.0002 </r>
        <r>  0.0001  0.0191  0.0215  0.0014  0.0000  0.0000  0.0000  0.0000  0.0000 </r>
        <r>  0.0000  0.0190  0.0204  0.0005  0.0000  0.0000  0.0000  0.0000  0.0000 </r>
        <r>  0.0001  0.0003  0.0003  0.0003  0.0000  0.0000  0.0000  0.0000  0.0000 </r>
        <r>  0.0002  0.0113  0.0136  0.0001  0.0000  0.0000  0.0000  0.0000  0.0000 </r>
        <r>  0.0317  0.0000  0.0002  0.0000  0.0000  0.0000  0.0000  0.0000  0.0000 </r>
        <r>  0.0358  0.0003  0.0001  0.0000  0.0000  0.0000  0.0000  0.0000  0.0000 </r>
        <r>  0.0000  0.0107  0.0121  0.0000  0.0000  0.0000  0.0000  0.0000  0.0000 </r>
       </set>
       <set comment="band 39">
        <r>  0.0784  0.0037  0.0036  0.0036  0.0008  0.0008  0.0000  0.0008  0.0000 </r>
        <r>  0.0125  0.0010  0.0003  0.0009  0.0000  0.0009  0.0012  0.0009  0.0000 </r>
        <r>  0.0129  0.0003  0.0010  0.0010  0.0009  0.0009  0.0003  0.0000  0.0009 </r>
        <r>  0.0128  0.0009  0.0010  0.0003  0.0009  0.0000  0.0003  0.0009  0.0009 </r>
        <r>  0.0127  0.0010  0.0010  0.0003  0.0009  0.0000  0.0003  0.0009  0.0009 </r>
        <r>  0.0125  0.0003  0.0010  0.0010  0.0009  0.0009  0.0003  0.0000  0.0009 </r>
        <r>  0.0129  0.0010  0.0003  0.0010  0.0000  0.0009  0.0012  0.0009  0.0000 </r>
        <r>  0.0786  0.0037  0.0038  0.0037  0.0008  0.0008  0.0000  0.0008  0.0000 </r>
        <r>  0.0064  0.0000  0.0000  0.0000  0.0000  0.0000  0.0000  0.0000  0.0000 </r>
        <r>  0.0064  0.0000  0.0000  0.0000  0.0000  0.0000  0.0000  0.0000  0.0000 </r>
        <r>  0.0000  0.0162  0.0162  0.0331  0.0000  0.0000  0.0000  0.0000  0.0000 </r>
        <r>  0.0064  0.0000  0.0000  0.0000  0.0000  0.0000  0.0000  0.0000  0.0000 </r>
        <r>  0.0000  0.0331  0.0163  0.0162  0.0000  0.0000  0.0000  0.0000  0.0000 </r>
        <r>  0.0000  0.0162  0.0331  0.0162  0.0000  0.0000  0.0000  0.0000  0.0000 </r>
        <r>  0.0244  0.0000  0.0000  0.0000  0.0000  0.0000  0.0000  0.0000  0.0000 </r>
       </set>
       <set comment="band 40">
        <r>  0.0405  0.0007  0.0007  0.0007  0.0022  0.0022  0.0000  0.0022  0.0000 </r>
        <r>  0.0013  0.0000  0.0003  0.0000  0.0071  0.0023  0.0000  0.0024  0.0000 </r>
        <r>  0.0013  0.0003  0.0000  0.0000  0.0024  0.0024  0.0000  0.0072  0.0000 </r>
        <r>  0.0014  0.0000  0.0000  0.0004  0.0024  0.0071  0.0000  0.0024  0.0000 </r>
        <r>  0.0013  0.0000  0.0000  0.0003  0.0024  0.0070  0.0000  0.0024  0.0000 </r>
        <r>  0.0012  0.0004  0.0000  0.0000  0.0024  0.0024  0.0000  0.0072  0.0000 </r>
        <r>  0.0013  0.0000  0.0003  0.0000  0.0072  0.0024  0.0000  0.0024  0.0000 </r>
        <r>  0.0402  0.0007  0.0007  0.0007  0.0022  0.0021  0.0000  0.0022  0.0000 </r>
        <r>  0.0000  0.0014  0.0759  0.0013  0.0000  0.0000  0.0000  0.0000  0.0000 </r>
        <r>  0.0000  0.0759  0.0014  0.0013  0.0000  0.0000  0.0000  0.0000  0.0000 </r>
        <r>  0.0014  0.0000  0.0000  0.0000  0.0000  0.0000  0.0000  0.0000  0.0000 </r>
        <r>  0.0000  0.0013  0.0013  0.0760  0.0000  0.0000  0.0000  0.0000  0.0000 </r>
        <r>  0.0014  0.0000  0.0000  0.0000  0.0000  0.0000  0.0000  0.0000  0.0000 </r>
        <r>  0.0014  0.0000  0.0000  0.0000  0.0000  0.0000  0.0000  0.0000  0.0000 </r>
        <r>  0.0000  0.0092  0.0092  0.0096  0.0000  0.0000  0.0000  0.0000  0.0000 </r>
       </set>
       <set comment="band 41">
        <r>  0.0000  0.0000  0.0000  0.0000  0.0078  0.0005  0.0000  0.0046  0.0000 </r>
        <r>  0.0307  0.0011  0.0005  0.0006  0.0035  0.0001  0.0001  0.0011  0.0000 </r>
        <r>  0.0179  0.0003  0.0010  0.0002  0.0039  0.0021  0.0000  0.0018  0.0001 </r>
        <r>  0.0020  0.0000  0.0004  0.0000  0.0062  0.0002  0.0000  0.0054  0.0000 </r>
        <r>  0.0017  0.0000  0.0004  0.0000  0.0061  0.0002  0.0000  0.0053  0.0000 </r>
        <r>  0.0171  0.0002  0.0009  0.0001  0.0038  0.0020  0.0000  0.0020  0.0001 </r>
        <r>  0.0305  0.0010  0.0005  0.0006  0.0032  0.0001  0.0001  0.0011  0.0000 </r>
        <r>  0.0000  0.0000  0.0000  0.0000  0.0080  0.0005  0.0000  0.0044  0.0000 </r>
        <r>  0.0000  0.0048  0.0002  0.0380  0.0000  0.0000  0.0000  0.0000  0.0000 </r>
        <r>  0.0000  0.0001  0.0028  0.0640  0.0000  0.0000  0.0000  0.0000  0.0000 </r>
        <r>  0.0001  0.0000  0.0000  0.0000  0.0000  0.0000  0.0000  0.0000  0.0000 </r>
        <r>  0.0000  0.0614  0.0337  0.0000  0.0000  0.0000  0.0000  0.0000  0.0000 </r>
        <r>  0.0012  0.0000  0.0000  0.0000  0.0000  0.0000  0.0000  0.0000  0.0000 </r>
        <r>  0.0021  0.0000  0.0000  0.0000  0.0000  0.0000  0.0000  0.0000  0.0000 </r>
        <r>  0.0000  0.0327  0.0574  0.0034  0.0000  0.0000  0.0000  0.0000  0.0000 </r>
       </set>
       <set comment="band 42">
        <r>  0.0000  0.0000  0.0000  0.0000  0.0007  0.0082  0.0000  0.0040  0.0000 </r>
        <r>  0.0028  0.0000  0.0000  0.0004  0.0003  0.0061  0.0000  0.0052  0.0001 </r>
        <r>  0.0154  0.0002  0.0001  0.0009  0.0023  0.0041  0.0001  0.0017  0.0000 </r>
        <r>  0.0315  0.0010  0.0007  0.0005  0.0001  0.0035  0.0001  0.0008  0.0001 </r>
        <r>  0.0313  0.0010  0.0006  0.0005  0.0001  0.0035  0.0000  0.0009  0.0001 </r>
        <r>  0.0161  0.0003  0.0001  0.0009  0.0024  0.0042  0.0001  0.0017  0.0000 </r>
        <r>  0.0026  0.0000  0.0000  0.0004  0.0003  0.0061  0.0000  0.0050  0.0001 </r>
        <r>  0.0000  0.0000  0.0000  0.0000  0.0007  0.0082  0.0000  0.0041  0.0000 </r>
        <r>  0.0000  0.0634  0.0000  0.0302  0.0000  0.0000  0.0000  0.0000  0.0000 </r>
        <r>  0.0000  0.0001  0.0652  0.0044  0.0000  0.0000  0.0000  0.0000  0.0000 </r>
        <r>  0.0022  0.0000  0.0000  0.0000  0.0000  0.0000  0.0000  0.0000  0.0000 </r>
        <r>  0.0000  0.0068  0.0346  0.0002  0.0000  0.0000  0.0000  0.0000  0.0000 </r>
        <r>  0.0011  0.0000  0.0000  0.0000  0.0000  0.0000  0.0000  0.0000  0.0000 </r>
        <r>  0.0002  0.0000  0.0000  0.0000  0.0000  0.0000  0.0000  0.0000  0.0000 </r>
        <r>  0.0000  0.0297  0.0051  0.0590  0.0000  0.0000  0.0000  0.0000  0.0000 </r>
       </set>
       <set comment="band 43">
        <r>  0.0000  0.0099  0.0102  0.0101  0.0033  0.0032  0.0000  0.0032  0.0000 </r>
        <r>  0.0009  0.0004  0.0018  0.0004  0.0107  0.0007  0.0001  0.0007  0.0000 </r>
        <r>  0.0011  0.0018  0.0003  0.0004  0.0006  0.0007  0.0000  0.0109  0.0001 </r>
        <r>  0.0010  0.0003  0.0004  0.0019  0.0007  0.0107  0.0000  0.0007  0.0001 </r>
        <r>  0.0010  0.0004  0.0004  0.0018  0.0007  0.0109  0.0000  0.0007  0.0001 </r>
        <r>  0.0008  0.0018  0.0004  0.0004  0.0007  0.0006  0.0000  0.0106  0.0001 </r>
        <r>  0.0011  0.0004  0.0018  0.0004  0.0108  0.0007  0.0001  0.0007  0.0000 </r>
        <r>  0.0000  0.0101  0.0098  0.0099  0.0032  0.0033  0.0000  0.0033  0.0000 </r>
        <r>  0.0002  0.0000  0.0000  0.0000  0.0000  0.0000  0.0000  0.0000  0.0000 </r>
        <r>  0.0002  0.0000  0.0000  0.0000  0.0000  0.0000  0.0000  0.0000  0.0000 </r>
        <r>  0.0000  0.0015  0.0015  0.0506  0.0000  0.0000  0.0000  0.0000  0.0000 </r>
        <r>  0.0002  0.0000  0.0000  0.0000  0.0000  0.0000  0.0000  0.0000  0.0000 </r>
        <r>  0.0000  0.0504  0.0016  0.0016  0.0000  0.0000  0.0000  0.0000  0.0000 </r>
        <r>  0.0000  0.0016  0.0504  0.0016  0.0000  0.0000  0.0000  0.0000  0.0000 </r>
        <r>  0.0004  0.0000  0.0000  0.0000  0.0000  0.0000  0.0000  0.0000  0.0000 </r>
       </set>
       <set comment="band 44">
        <r>  0.0034  0.0050  0.0049  0.0048  0.0051  0.0050  0.0000  0.0049  0.0000 </r>
        <r>  0.0085  0.0019  0.0020  0.0020  0.0037  0.0013  0.0000  0.0013  0.0000 </r>
        <r>  0.0079  0.0020  0.0018  0.0018  0.0012  0.0013  0.0000  0.0037  0.0000 </r>
        <r>  0.0059  0.0005  0.0004  0.0026  0.0071  0.0057  0.0000  0.0071  0.0001 </r>
        <r>  0.0089  0.0020  0.0017  0.0020  0.0013  0.0035  0.0000  0.0012  0.0000 </r>
        <r>  0.0065  0.0028  0.0004  0.0004  0.0071  0.0070  0.0000  0.0057  0.0001 </r>
        <r>  0.0058  0.0005  0.0027  0.0004  0.0058  0.0070  0.0001  0.0070  0.0000 </r>
        <r>  0.0196  0.0017  0.0018  0.0018  0.0010  0.0010  0.0000  0.0011  0.0000 </r>
        <r>  0.0000  0.0071  0.0054  0.0071  0.0000  0.0000  0.0000  0.0000  0.0000 </r>
        <r>  0.0000  0.0054  0.0070  0.0072  0.0000  0.0000  0.0000  0.0000  0.0000 </r>
        <r>  0.0000  0.0027  0.0028  0.0017  0.0000  0.0000  0.0000  0.0000  0.0000 </r>
        <r>  0.0000  0.0069  0.0070  0.0053  0.0000  0.0000  0.0000  0.0000  0.0000 </r>
        <r>  0.0000  0.0016  0.0025  0.0025  0.0000  0.0000  0.0000  0.0000  0.0000 </r>
        <r>  0.0000  0.0027  0.0017  0.0027  0.0000  0.0000  0.0000  0.0000  0.0000 </r>
        <r>  0.0000  0.0222  0.0223  0.0223  0.0000  0.0000  0.0000  0.0000  0.0000 </r>
       </set>
      </set>
     </set>
    </set>
   </array>
  </projected>
 </calculation>
 <structure name="finalpos" >
  <crystal>
   <varray name="basis" >
    <v>       0.00000000       4.24689300       4.24689300 </v>
    <v>       4.24689300       0.00000000       4.24689300 </v>
    <v>       4.24689300       4.24689300       0.00000000 </v>
   </varray>
   <i name="volume">    153.19477498 </i>
   <varray name="rec_basis" >
    <v>      -0.11773313       0.11773313       0.11773313 </v>
    <v>       0.11773313      -0.11773313       0.11773313 </v>
    <v>       0.11773313       0.11773313      -0.11773313 </v>
   </varray>
  </crystal>
  <varray name="positions" >
   <v>       0.00122452       0.00029007       0.99787256 </v>
   <v>       0.99189147       0.99205952       0.50700096 </v>
   <v>       0.99224144       0.50934091       0.98868811 </v>
   <v>       0.99293409       0.50882965       0.50640502 </v>
   <v>       0.50985470       0.99109015       0.98955360 </v>
   <v>       0.51022272       0.99103751       0.50681488 </v>
   <v>       0.51044011       0.50933912       0.98881355 </v>
   <v>       0.50129951       0.50030548       0.49800670 </v>
   <v>       0.25113814       0.25033951       0.74763657 </v>
   <v>       0.25140508       0.75068729       0.24776155 </v>
   <v>       0.25125960       0.75073757       0.74734856 </v>
   <v>       0.75112533       0.25017635       0.24790080 </v>
   <v>       0.75029627       0.25029473       0.74888626 </v>
   <v>       0.75224022       0.74920559       0.24795485 </v>
   <v>       0.75123482       0.75026156       0.74799105 </v>
  </varray>
 </structure>
</modeling>
