       N       E                     dE             d eps       ncg     rms          rms(c)
DAV:   1     0.861038467708E+04    0.86104E+04   -0.26882E+05  3840   0.123E+03
DAV:   2     0.893489504069E+03   -0.77169E+04   -0.71860E+04  3904   0.355E+02
DAV:   3    -0.148058276661E+04   -0.23741E+04   -0.23142E+04  4320   0.196E+02
DAV:   4    -0.167891595166E+04   -0.19833E+03   -0.19713E+03  5872   0.629E+01
DAV:   5    -0.168427291684E+04   -0.53570E+01   -0.53466E+01  5408   0.110E+01    0.168E+02
DAV:   6    -0.135290410224E+04    0.33137E+03   -0.18566E+03  5504   0.628E+01    0.546E+01
DAV:   7    -0.135878536627E+04   -0.58813E+01   -0.39889E+02  5632   0.385E+01    0.555E+01
DAV:   8    -0.135406674014E+04    0.47186E+01   -0.15465E+02  4688   0.252E+01    0.342E+01
DAV:   9    -0.134557984972E+04    0.84869E+01   -0.45140E+01  4560   0.164E+01    0.327E+00
DAV:  10    -0.134570525361E+04   -0.12540E+00   -0.25602E+00  4128   0.254E+00    0.315E+00
DAV:  11    -0.134556911580E+04    0.13614E+00   -0.13047E+00  5504   0.181E+00    0.193E+00
DAV:  12    -0.134555570910E+04    0.13407E-01   -0.42844E-01  3968   0.108E+00    0.122E+00
DAV:  13    -0.134554156453E+04    0.14145E-01   -0.33496E-02  5216   0.357E-01    0.776E-01
DAV:  14    -0.134553526605E+04    0.62985E-02   -0.31133E-02  4352   0.248E-01    0.336E-01
DAV:  15    -0.134553431624E+04    0.94981E-03   -0.65388E-03  5520   0.139E-01    0.201E-01
DAV:  16    -0.134553457793E+04   -0.26169E-03   -0.23371E-03  5520   0.991E-02    0.106E-01
DAV:  17    -0.134553454407E+04    0.33863E-04   -0.45107E-04  4608   0.471E-02    0.874E-02
DAV:  18    -0.134553449468E+04    0.49393E-04   -0.34491E-04  4560   0.331E-02    0.473E-02
DAV:  19    -0.134553448134E+04    0.13339E-04   -0.90168E-05  4960   0.170E-02    0.270E-02
DAV:  20    -0.134553447569E+04    0.56496E-05   -0.48716E-05  5280   0.146E-02    0.711E-03
DAV:  21    -0.134553448030E+04   -0.46111E-05   -0.21672E-05  4272   0.806E-03    0.980E-03
DAV:  22    -0.134553448100E+04   -0.70019E-06   -0.29708E-06  3456   0.363E-03
   1 F= -.13455345E+04 E0= -.13455345E+04  d E =-.134553E+04
