   15   15   20    2
  0.1021298E+02  0.6006014E-09  0.6006014E-09  0.6006014E-09  0.5000000E-15
  1.000000000000000E-004
  CAR 
 unknown system                          
     56      8     44
 
  0.0000000E+00  0.0000000E+00  0.0000000E+00  0.1250000E+00
    1      -14.357168    -14.357155   1.000000   1.000000
    2      -13.455949    -13.455939   1.000000   1.000000
    3      -12.937348    -12.937330   1.000000   1.000000
    4      -12.936556    -12.936539   1.000000   1.000000
    5      -12.936349    -12.936333   1.000000   1.000000
    6      -12.693383    -12.693367   1.000000   1.000000
    7      -12.692769    -12.692754   1.000000   1.000000
    8       -1.629894     -1.629860   1.000000   1.000000
    9       -1.629155     -1.629122   1.000000   1.000000
   10       -1.627872     -1.627841   1.000000   1.000000
   11       -1.291695     -1.291662   1.000000   1.000000
   12       -0.538833     -0.538833   1.000000   1.000000
   13       -0.538511     -0.538510   1.000000   1.000000
   14       -0.537344     -0.537342   1.000000   1.000000
   15        1.407038      1.407046   1.000000   1.000000
   16        1.409991      1.409999   1.000000   1.000000
   17        1.410376      1.410385   1.000000   1.000000
   18        1.605098      1.605120   1.000000   1.000000
   19        1.605689      1.605713   1.000000   1.000000
   20        1.605719      1.605743   1.000000   1.000000
   21        2.296250      2.296279   1.000000   1.000000
   22        2.296700      2.296729   1.000000   1.000000
   23        2.297985      2.298014   1.000000   1.000000
   24        2.458949      2.458953   1.000000   1.000000
   25        2.459358      2.459359   1.000000   1.000000
   26        2.673026      2.673030   1.000000   1.000000
   27        2.673897      2.673900   1.000000   1.000000
   28        2.674298      2.674302   1.000000   1.000000
   29        3.452523      3.451474   0.000000   0.000000
   30        8.729724      8.729698   0.000000   0.000000
   31       10.773845     10.773934   0.000000   0.000000
   32       10.774780     10.774867   0.000000   0.000000
   33       10.775083     10.775163   0.000000   0.000000
   34       11.300468     11.300034   0.000000   0.000000
   35       11.302199     11.301777   0.000000   0.000000
   36       11.303077     11.302662   0.000000   0.000000
   37       12.268880     12.268836   0.000000   0.000000
   38       12.269540     12.269493   0.000000   0.000000
   39       12.269766     12.269717   0.000000   0.000000
   40       12.523667     12.523654   0.000000   0.000000
   41       12.525397     12.525384   0.000000   0.000000
   42       12.662923     12.662941   0.000000   0.000000
   43       15.496420     15.491788   0.000000   0.000000
   44       15.498831     15.498004   0.000000   0.000000
 
  0.5000000E+00  0.0000000E+00  0.0000000E+00  0.1250000E+00
    1      -14.167111    -14.167102   1.000000   1.000000
    2      -13.408248    -13.408229   1.000000   1.000000
    3      -13.255904    -13.255892   1.000000   1.000000
    4      -12.826125    -12.826108   1.000000   1.000000
    5      -12.825040    -12.825024   1.000000   1.000000
    6      -12.823280    -12.823265   1.000000   1.000000
    7      -12.822291    -12.822274   1.000000   1.000000
    8       -1.145091     -1.145058   1.000000   1.000000
    9       -1.143525     -1.143492   1.000000   1.000000
   10       -0.916816     -0.916898   1.000000   1.000000
   11       -0.650610     -0.650578   1.000000   1.000000
   12       -0.194381     -0.194371   1.000000   1.000000
   13        0.012351      0.012353   1.000000   1.000000
   14        0.014594      0.014597   1.000000   1.000000
   15        0.465470      0.465429   1.000000   1.000000
   16        0.545677      0.545697   1.000000   1.000000
   17        1.098121      1.098138   1.000000   1.000000
   18        1.099765      1.099782   1.000000   1.000000
   19        1.168198      1.168227   1.000000   1.000000
   20        1.168969      1.168998   1.000000   1.000000
   21        1.548641      1.548648   1.000000   1.000000
   22        1.550981      1.550988   1.000000   1.000000
   23        1.889388      1.889386   1.000000   1.000000
   24        1.975722      1.975776   1.000000   1.000000
   25        2.409864      2.409871   1.000000   1.000000
   26        2.412580      2.412590   1.000000   1.000000
   27        2.514757      2.514766   1.000000   1.000000
   28        2.519095      2.519102   1.000000   1.000000
   29        5.217211      5.216181   0.000000   0.000000
   30        8.100897      8.100617   0.000000   0.000000
   31       10.358556     10.358207   0.000000   0.000000
   32       10.361608     10.361261   0.000000   0.000000
   33       10.850281     10.850282   0.000000   0.000000
   34       11.131873     11.131864   0.000000   0.000000
   35       12.581485     12.581592   0.000000   0.000000
   36       12.583249     12.583357   0.000000   0.000000
   37       12.705772     12.705718   0.000000   0.000000
   38       12.709768     12.709713   0.000000   0.000000
   39       13.783332     13.783388   0.000000   0.000000
   40       14.345967     14.345967   0.000000   0.000000
   41       14.372615     14.372623   0.000000   0.000000
   42       14.375013     14.375021   0.000000   0.000000
   43       14.949419     14.949430   0.000000   0.000000
   44       15.468294     15.467959   0.000000   0.000000
 
  0.0000000E+00  0.5000000E+00  0.0000000E+00  0.1250000E+00
    1      -14.166883    -14.166874   1.000000   1.000000
    2      -13.409770    -13.409754   1.000000   1.000000
    3      -13.254626    -13.254610   1.000000   1.000000
    4      -12.826084    -12.826070   1.000000   1.000000
    5      -12.825606    -12.825591   1.000000   1.000000
    6      -12.823317    -12.823300   1.000000   1.000000
    7      -12.821711    -12.821693   1.000000   1.000000
    8       -1.143697     -1.143664   1.000000   1.000000
    9       -1.142382     -1.142350   1.000000   1.000000
   10       -0.915588     -0.915670   1.000000   1.000000
   11       -0.652143     -0.652111   1.000000   1.000000
   12       -0.195282     -0.195272   1.000000   1.000000
   13        0.010956      0.010955   1.000000   1.000000
   14        0.013063      0.013064   1.000000   1.000000
   15        0.465455      0.465415   1.000000   1.000000
   16        0.544357      0.544377   1.000000   1.000000
   17        1.096529      1.096544   1.000000   1.000000
   18        1.098325      1.098342   1.000000   1.000000
   19        1.168261      1.168292   1.000000   1.000000
   20        1.171727      1.171760   1.000000   1.000000
   21        1.549486      1.549495   1.000000   1.000000
   22        1.552425      1.552432   1.000000   1.000000
   23        1.892111      1.892113   1.000000   1.000000
   24        1.973383      1.973433   1.000000   1.000000
   25        2.409286      2.409292   1.000000   1.000000
   26        2.411790      2.411792   1.000000   1.000000
   27        2.516419      2.516431   1.000000   1.000000
   28        2.519353      2.519366   1.000000   1.000000
   29        5.217453      5.216424   0.000000   0.000000
   30        8.101780      8.101498   0.000000   0.000000
   31       10.357527     10.357168   0.000000   0.000000
   32       10.360284     10.359945   0.000000   0.000000
   33       10.851896     10.851891   0.000000   0.000000
   34       11.129470     11.129473   0.000000   0.000000
   35       12.581635     12.581739   0.000000   0.000000
   36       12.584969     12.585067   0.000000   0.000000
   37       12.704567     12.704516   0.000000   0.000000
   38       12.711709     12.711656   0.000000   0.000000
   39       13.785397     13.785454   0.000000   0.000000
   40       14.346103     14.346107   0.000000   0.000000
   41       14.372219     14.372226   0.000000   0.000000
   42       14.374402     14.374410   0.000000   0.000000
   43       14.950854     14.950865   0.000000   0.000000
   44       15.466643     15.466614   0.000000   0.000000
 
  0.5000000E+00  0.5000000E+00  0.0000000E+00  0.1250000E+00
    1      -14.108135    -14.108127   1.000000   1.000000
    2      -13.424425    -13.424407   1.000000   1.000000
    3      -13.001136    -13.001119   1.000000   1.000000
    4      -13.000502    -13.000486   1.000000   1.000000
    5      -12.999190    -12.999173   1.000000   1.000000
    6      -12.982814    -12.982798   1.000000   1.000000
    7      -12.647523    -12.647508   1.000000   1.000000
    8       -0.955979     -0.956103   1.000000   1.000000
    9       -0.740584     -0.740557   1.000000   1.000000
   10       -0.740329     -0.740302   1.000000   1.000000
   11       -0.235278     -0.235252   1.000000   1.000000
   12       -0.075239     -0.075216   1.000000   1.000000
   13        0.032116      0.032095   1.000000   1.000000
   14        0.173538      0.173562   1.000000   1.000000
   15        0.173696      0.173721   1.000000   1.000000
   16        0.786952      0.786965   1.000000   1.000000
   17        0.787869      0.787882   1.000000   1.000000
   18        1.002909      1.002934   1.000000   1.000000
   19        1.003221      1.003245   1.000000   1.000000
   20        1.049263      1.049277   1.000000   1.000000
   21        1.192906      1.192928   1.000000   1.000000
   22        1.194641      1.194659   1.000000   1.000000
   23        1.800665      1.800670   1.000000   1.000000
   24        1.801313      1.801316   1.000000   1.000000
   25        2.289170      2.289187   1.000000   1.000000
   26        2.290540      2.290553   1.000000   1.000000
   27        2.296170      2.296194   1.000000   1.000000
   28        2.457010      2.457011   1.000000   1.000000
   29        5.729949      5.728865   0.000000   0.000000
   30        8.255828      8.255497   0.000000   0.000000
   31        9.665851      9.665509   0.000000   0.000000
   32        9.666232      9.665904   0.000000   0.000000
   33       11.378313     11.378366   0.000000   0.000000
   34       12.242593     12.242652   0.000000   0.000000
   35       12.286335     12.286333   0.000000   0.000000
   36       13.227025     13.227093   0.000000   0.000000
   37       13.227218     13.227286   0.000000   0.000000
   38       14.143069     14.142981   0.000000   0.000000
   39       14.194049     14.194185   0.000000   0.000000
   40       14.214324     14.214448   0.000000   0.000000
   41       14.215083     14.215213   0.000000   0.000000
   42       14.666358     14.666328   0.000000   0.000000
   43       14.917506     14.917497   0.000000   0.000000
   44       14.919396     14.919251   0.000000   0.000000
 
  0.0000000E+00  0.0000000E+00  0.5000000E+00  0.1250000E+00
    1      -14.166948    -14.166939   1.000000   1.000000
    2      -13.409333    -13.409317   1.000000   1.000000
    3      -13.254996    -13.254981   1.000000   1.000000
    4      -12.826251    -12.826237   1.000000   1.000000
    5      -12.825182    -12.825164   1.000000   1.000000
    6      -12.823452    -12.823437   1.000000   1.000000
    7      -12.821836    -12.821819   1.000000   1.000000
    8       -1.144166     -1.144133   1.000000   1.000000
    9       -1.142491     -1.142459   1.000000   1.000000
   10       -0.916023     -0.916104   1.000000   1.000000
   11       -0.651621     -0.651589   1.000000   1.000000
   12       -0.195207     -0.195196   1.000000   1.000000
   13        0.011391      0.011391   1.000000   1.000000
   14        0.013467      0.013467   1.000000   1.000000
   15        0.465367      0.465328   1.000000   1.000000
   16        0.544689      0.544708   1.000000   1.000000
   17        1.096741      1.096755   1.000000   1.000000
   18        1.098727      1.098743   1.000000   1.000000
   19        1.168010      1.168042   1.000000   1.000000
   20        1.171389      1.171419   1.000000   1.000000
   21        1.549239      1.549247   1.000000   1.000000
   22        1.552064      1.552074   1.000000   1.000000
   23        1.891560      1.891563   1.000000   1.000000
   24        1.973874      1.973925   1.000000   1.000000
   25        2.409165      2.409168   1.000000   1.000000
   26        2.412724      2.412729   1.000000   1.000000
   27        2.516281      2.516292   1.000000   1.000000
   28        2.518668      2.518679   1.000000   1.000000
   29        5.217406      5.216377   0.000000   0.000000
   30        8.101490      8.101210   0.000000   0.000000
   31       10.357679     10.357329   0.000000   0.000000
   32       10.360518     10.360170   0.000000   0.000000
   33       10.851574     10.851570   0.000000   0.000000
   34       11.129958     11.129960   0.000000   0.000000
   35       12.581512     12.581613   0.000000   0.000000
   36       12.584397     12.584498   0.000000   0.000000
   37       12.704902     12.704848   0.000000   0.000000
   38       12.711727     12.711673   0.000000   0.000000
   39       13.785261     13.785320   0.000000   0.000000
   40       14.346161     14.346165   0.000000   0.000000
   41       14.372449     14.372456   0.000000   0.000000
   42       14.374341     14.374348   0.000000   0.000000
   43       14.950675     14.950688   0.000000   0.000000
   44       15.466888     15.466803   0.000000   0.000000
 
  0.5000000E+00  0.0000000E+00  0.5000000E+00  0.1250000E+00
    1      -14.108079    -14.108072   1.000000   1.000000
    2      -13.424882    -13.424864   1.000000   1.000000
    3      -13.001738    -13.001720   1.000000   1.000000
    4      -13.000702    -13.000686   1.000000   1.000000
    5      -12.998351    -12.998334   1.000000   1.000000
    6      -12.982022    -12.982007   1.000000   1.000000
    7      -12.647953    -12.647937   1.000000   1.000000
    8       -0.957124     -0.957249   1.000000   1.000000
    9       -0.740967     -0.740939   1.000000   1.000000
   10       -0.740486     -0.740458   1.000000   1.000000
   11       -0.235673     -0.235646   1.000000   1.000000
   12       -0.073858     -0.073834   1.000000   1.000000
   13        0.032453      0.032433   1.000000   1.000000
   14        0.172908      0.172933   1.000000   1.000000
   15        0.173046      0.173072   1.000000   1.000000
   16        0.789361      0.789372   1.000000   1.000000
   17        0.789752      0.789766   1.000000   1.000000
   18        1.002209      1.002235   1.000000   1.000000
   19        1.003778      1.003803   1.000000   1.000000
   20        1.050174      1.050186   1.000000   1.000000
   21        1.193135      1.193157   1.000000   1.000000
   22        1.195391      1.195407   1.000000   1.000000
   23        1.798510      1.798512   1.000000   1.000000
   24        1.801284      1.801288   1.000000   1.000000
   25        2.285233      2.285251   1.000000   1.000000
   26        2.290012      2.290025   1.000000   1.000000
   27        2.298247      2.298271   1.000000   1.000000
   28        2.456710      2.456713   1.000000   1.000000
   29        5.729952      5.728868   0.000000   0.000000
   30        8.257176      8.256847   0.000000   0.000000
   31        9.664924      9.664594   0.000000   0.000000
   32        9.665082      9.664742   0.000000   0.000000
   33       11.379445     11.379499   0.000000   0.000000
   34       12.242485     12.242546   0.000000   0.000000
   35       12.287098     12.287095   0.000000   0.000000
   36       13.225879     13.225946   0.000000   0.000000
   37       13.226864     13.226931   0.000000   0.000000
   38       14.145155     14.145065   0.000000   0.000000
   39       14.192833     14.192966   0.000000   0.000000
   40       14.214621     14.214748   0.000000   0.000000
   41       14.216114     14.216244   0.000000   0.000000
   42       14.664689     14.664651   0.000000   0.000000
   43       14.916567     14.916645   0.000000   0.000000
   44       14.918790     14.918489   0.000000   0.000000
 
  0.0000000E+00  0.5000000E+00  0.5000000E+00  0.1250000E+00
    1      -14.108064    -14.108057   1.000000   1.000000
    2      -13.425004    -13.424986   1.000000   1.000000
    3      -13.001701    -13.001684   1.000000   1.000000
    4      -13.000532    -13.000515   1.000000   1.000000
    5      -12.998672    -12.998656   1.000000   1.000000
    6      -12.981685    -12.981671   1.000000   1.000000
    7      -12.648069    -12.648052   1.000000   1.000000
    8       -0.957468     -0.957592   1.000000   1.000000
    9       -0.742331     -0.742303   1.000000   1.000000
   10       -0.739290     -0.739264   1.000000   1.000000
   11       -0.235770     -0.235743   1.000000   1.000000
   12       -0.073421     -0.073397   1.000000   1.000000
   13        0.032586      0.032566   1.000000   1.000000
   14        0.172601      0.172626   1.000000   1.000000
   15        0.172905      0.172931   1.000000   1.000000
   16        0.787719      0.787728   1.000000   1.000000
   17        0.792637      0.792650   1.000000   1.000000
   18        1.002440      1.002465   1.000000   1.000000
   19        1.003696      1.003722   1.000000   1.000000
   20        1.050281      1.050293   1.000000   1.000000
   21        1.193276      1.193299   1.000000   1.000000
   22        1.195537      1.195552   1.000000   1.000000
   23        1.796918      1.796919   1.000000   1.000000
   24        1.802211      1.802215   1.000000   1.000000
   25        2.289640      2.289653   1.000000   1.000000
   26        2.289956      2.289972   1.000000   1.000000
   27        2.293187      2.293216   1.000000   1.000000
   28        2.456638      2.456641   1.000000   1.000000
   29        5.729962      5.728877   0.000000   0.000000
   30        8.257606      8.257278   0.000000   0.000000
   31        9.663485      9.663140   0.000000   0.000000
   32        9.665837      9.665508   0.000000   0.000000
   33       11.379808     11.379862   0.000000   0.000000
   34       12.242422     12.242482   0.000000   0.000000
   35       12.287338     12.287336   0.000000   0.000000
   36       13.225647     13.225716   0.000000   0.000000
   37       13.226727     13.226791   0.000000   0.000000
   38       14.145779     14.145689   0.000000   0.000000
   39       14.193686     14.193819   0.000000   0.000000
   40       14.213856     14.213987   0.000000   0.000000
   41       14.216064     14.216188   0.000000   0.000000
   42       14.665410     14.664087   0.000000   0.000000
   43       14.915932     14.915400   0.000000   0.000000
   44       14.920622     14.920568   0.000000   0.000000
 
  0.5000000E+00  0.5000000E+00  0.5000000E+00  0.1250000E+00
    1      -14.167058    -14.167049   1.000000   1.000000
    2      -13.408606    -13.408590   1.000000   1.000000
    3      -13.255598    -13.255583   1.000000   1.000000
    4      -12.825517    -12.825503   1.000000   1.000000
    5      -12.824350    -12.824335   1.000000   1.000000
    6      -12.823883    -12.823867   1.000000   1.000000
    7      -12.822965    -12.822947   1.000000   1.000000
    8       -1.144986     -1.144953   1.000000   1.000000
    9       -1.143382     -1.143350   1.000000   1.000000
   10       -0.916579     -0.916662   1.000000   1.000000
   11       -0.650946     -0.650912   1.000000   1.000000
   12       -0.194385     -0.194376   1.000000   1.000000
   13        0.012345      0.012346   1.000000   1.000000
   14        0.014714      0.014716   1.000000   1.000000
   15        0.465442      0.465401   1.000000   1.000000
   16        0.545279      0.545297   1.000000   1.000000
   17        1.098093      1.098107   1.000000   1.000000
   18        1.099375      1.099391   1.000000   1.000000
   19        1.168014      1.168043   1.000000   1.000000
   20        1.168137      1.168167   1.000000   1.000000
   21        1.548746      1.548754   1.000000   1.000000
   22        1.551499      1.551509   1.000000   1.000000
   23        1.889637      1.889640   1.000000   1.000000
   24        1.976132      1.976182   1.000000   1.000000
   25        2.409360      2.409365   1.000000   1.000000
   26        2.412486      2.412493   1.000000   1.000000
   27        2.515228      2.515242   1.000000   1.000000
   28        2.519727      2.519740   1.000000   1.000000
   29        5.216930      5.215906   0.000000   0.000000
   30        8.101167      8.100866   0.000000   0.000000
   31       10.358385     10.358046   0.000000   0.000000
   32       10.362155     10.361815   0.000000   0.000000
   33       10.850101     10.850089   0.000000   0.000000
   34       11.131757     11.131757   0.000000   0.000000
   35       12.581783     12.581885   0.000000   0.000000
   36       12.582961     12.583061   0.000000   0.000000
   37       12.705021     12.704972   0.000000   0.000000
   38       12.709543     12.709494   0.000000   0.000000
   39       13.782965     13.783021   0.000000   0.000000
   40       14.346109     14.346110   0.000000   0.000000
   41       14.372659     14.372668   0.000000   0.000000
   42       14.375123     14.375130   0.000000   0.000000
   43       14.949058     14.949068   0.000000   0.000000
   44       15.468006     15.467986   0.000000   0.000000
