   15   15   20    2
  0.1021298E+02  0.6006014E-09  0.6006014E-09  0.6006014E-09  0.5000000E-15
  1.000000000000000E-004
  CAR 
 unknown system                          
     56     16     44
 
  0.2500000E+00  0.2500000E+00  0.2500000E+00  0.6250000E-01
    1      -14.275438    -14.275387   1.000000   1.000000
    2      -13.467385    -13.467339   1.000000   1.000000
    3      -13.106699    -13.106659   1.000000   1.000000
    4      -12.940349    -12.940308   1.000000   1.000000
    5      -12.939726    -12.939685   1.000000   1.000000
    6      -12.768606    -12.768565   1.000000   1.000000
    7      -12.767982    -12.767941   1.000000   1.000000
    8       -1.429468     -1.429444   1.000000   1.000000
    9       -1.428503     -1.428478   1.000000   1.000000
   10       -1.293186     -1.293168   1.000000   1.000000
   11       -0.987264     -0.987240   1.000000   1.000000
   12       -0.668395     -0.668414   1.000000   1.000000
   13       -0.322379     -0.322364   1.000000   1.000000
   14       -0.321215     -0.321200   1.000000   1.000000
   15        0.949980      0.950015   1.000000   1.000000
   16        1.222488      1.222521   1.000000   1.000000
   17        1.224624      1.224657   1.000000   1.000000
   18        1.473268      1.473311   1.000000   1.000000
   19        1.475504      1.475547   1.000000   1.000000
   20        1.667132      1.667167   1.000000   1.000000
   21        1.708187      1.708168   1.000000   1.000000
   22        1.877909      1.877944   1.000000   1.000000
   23        1.878848      1.878883   1.000000   1.000000
   24        2.157437      2.157481   1.000000   1.000000
   25        2.371750      2.371781   1.000000   1.000000
   26        2.372213      2.372243   1.000000   1.000000
   27        2.566077      2.566108   1.000000   1.000000
   28        2.567990      2.568022   1.000000   1.000000
   29        4.303128      4.302516   0.000000   0.000000
   30        8.961892      8.961747   0.000000   0.000000
   31       10.003718     10.003610   0.000000   0.000000
   32       10.582661     10.582469   0.000000   0.000000
   33       10.586482     10.586289   0.000000   0.000000
   34       11.376010     11.375967   0.000000   0.000000
   35       11.605509     11.605488   0.000000   0.000000
   36       11.608668     11.608646   0.000000   0.000000
   37       12.609640     12.609592   0.000000   0.000000
   38       12.611138     12.611091   0.000000   0.000000
   39       13.097566     13.097553   0.000000   0.000000
   40       13.366141     13.366049   0.000000   0.000000
   41       13.537739     13.537686   0.000000   0.000000
   42       13.539102     13.539050   0.000000   0.000000
   43       15.251398     15.251454   0.000000   0.000000
   44       15.297020     15.297353   0.000000   0.000000
 
  0.2500000E+00  0.0000000E+00  0.0000000E+00  0.6250000E-01
    1      -14.275440    -14.275390   1.000000   1.000000
    2      -13.467366    -13.467320   1.000000   1.000000
    3      -13.106706    -13.106665   1.000000   1.000000
    4      -12.941007    -12.940967   1.000000   1.000000
    5      -12.939072    -12.939032   1.000000   1.000000
    6      -12.769303    -12.769262   1.000000   1.000000
    7      -12.767293    -12.767252   1.000000   1.000000
    8       -1.430331     -1.430306   1.000000   1.000000
    9       -1.427595     -1.427570   1.000000   1.000000
   10       -1.293217     -1.293199   1.000000   1.000000
   11       -0.987300     -0.987275   1.000000   1.000000
   12       -0.668247     -0.668265   1.000000   1.000000
   13       -0.323411     -0.323396   1.000000   1.000000
   14       -0.320408     -0.320393   1.000000   1.000000
   15        0.949982      0.950017   1.000000   1.000000
   16        1.220570      1.220603   1.000000   1.000000
   17        1.226859      1.226892   1.000000   1.000000
   18        1.473595      1.473638   1.000000   1.000000
   19        1.475262      1.475305   1.000000   1.000000
   20        1.666863      1.666898   1.000000   1.000000
   21        1.708445      1.708425   1.000000   1.000000
   22        1.876214      1.876248   1.000000   1.000000
   23        1.881033      1.881068   1.000000   1.000000
   24        2.157046      2.157090   1.000000   1.000000
   25        2.371247      2.371277   1.000000   1.000000
   26        2.372492      2.372523   1.000000   1.000000
   27        2.565788      2.565819   1.000000   1.000000
   28        2.567895      2.567926   1.000000   1.000000
   29        4.303282      4.302670   0.000000   0.000000
   30        8.961967      8.961825   0.000000   0.000000
   31       10.003779     10.003677   0.000000   0.000000
   32       10.581053     10.580858   0.000000   0.000000
   33       10.587616     10.587419   0.000000   0.000000
   34       11.376062     11.376022   0.000000   0.000000
   35       11.602367     11.602344   0.000000   0.000000
   36       11.611923     11.611900   0.000000   0.000000
   37       12.609878     12.609830   0.000000   0.000000
   38       12.611599     12.611550   0.000000   0.000000
   39       13.097343     13.097329   0.000000   0.000000
   40       13.366416     13.366328   0.000000   0.000000
   41       13.537323     13.537270   0.000000   0.000000
   42       13.539305     13.539252   0.000000   0.000000
   43       15.251406     15.251793   0.000000   0.000000
   44       15.297138     15.297189   0.000000   0.000000
 
  0.0000000E+00  0.0000000E+00 -0.2500000E+00  0.6250000E-01
    1      -14.275417    -14.275366   1.000000   1.000000
    2      -13.467450    -13.467404   1.000000   1.000000
    3      -13.106655    -13.106615   1.000000   1.000000
    4      -12.940679    -12.940639   1.000000   1.000000
    5      -12.939395    -12.939355   1.000000   1.000000
    6      -12.768960    -12.768919   1.000000   1.000000
    7      -12.767630    -12.767588   1.000000   1.000000
    8       -1.429510     -1.429486   1.000000   1.000000
    9       -1.427627     -1.427602   1.000000   1.000000
   10       -1.293759     -1.293741   1.000000   1.000000
   11       -0.987430     -0.987405   1.000000   1.000000
   12       -0.667971     -0.667990   1.000000   1.000000
   13       -0.322998     -0.322983   1.000000   1.000000
   14       -0.321221     -0.321207   1.000000   1.000000
   15        0.949227      0.949261   1.000000   1.000000
   16        1.221386      1.221419   1.000000   1.000000
   17        1.225469      1.225502   1.000000   1.000000
   18        1.473142      1.473185   1.000000   1.000000
   19        1.476830      1.476873   1.000000   1.000000
   20        1.667187      1.667222   1.000000   1.000000
   21        1.708155      1.708135   1.000000   1.000000
   22        1.876974      1.877009   1.000000   1.000000
   23        1.880136      1.880171   1.000000   1.000000
   24        2.156982      2.157026   1.000000   1.000000
   25        2.371141      2.371172   1.000000   1.000000
   26        2.372754      2.372785   1.000000   1.000000
   27        2.566646      2.566678   1.000000   1.000000
   28        2.567319      2.567351   1.000000   1.000000
   29        4.303355      4.302743   0.000000   0.000000
   30        8.961930      8.961789   0.000000   0.000000
   31       10.004145     10.004042   0.000000   0.000000
   32       10.581790     10.581594   0.000000   0.000000
   33       10.585727     10.585530   0.000000   0.000000
   34       11.375692     11.375651   0.000000   0.000000
   35       11.604385     11.604362   0.000000   0.000000
   36       11.610607     11.610585   0.000000   0.000000
   37       12.610299     12.610250   0.000000   0.000000
   38       12.611404     12.611357   0.000000   0.000000
   39       13.097450     13.097435   0.000000   0.000000
   40       13.367446     13.367358   0.000000   0.000000
   41       13.537655     13.537602   0.000000   0.000000
   42       13.538845     13.538793   0.000000   0.000000
   43       15.251372     15.251361   0.000000   0.000000
   44       15.297348     15.297267   0.000000   0.000000
 
  0.0000000E+00  0.2500000E+00  0.0000000E+00  0.6250000E-01
    1      -14.275409    -14.275358   1.000000   1.000000
    2      -13.467480    -13.467433   1.000000   1.000000
    3      -13.106636    -13.106596   1.000000   1.000000
    4      -12.940386    -12.940345   1.000000   1.000000
    5      -12.939688    -12.939648   1.000000   1.000000
    6      -12.768651    -12.768610   1.000000   1.000000
    7      -12.767936    -12.767894   1.000000   1.000000
    8       -1.428970     -1.428946   1.000000   1.000000
    9       -1.428028     -1.428003   1.000000   1.000000
   10       -1.293871     -1.293853   1.000000   1.000000
   11       -0.987396     -0.987372   1.000000   1.000000
   12       -0.667908     -0.667926   1.000000   1.000000
   13       -0.322606     -0.322592   1.000000   1.000000
   14       -0.321762     -0.321747   1.000000   1.000000
   15        0.949154      0.949189   1.000000   1.000000
   16        1.222143      1.222176   1.000000   1.000000
   17        1.224603      1.224636   1.000000   1.000000
   18        1.473220      1.473263   1.000000   1.000000
   19        1.476932      1.476975   1.000000   1.000000
   20        1.667230      1.667265   1.000000   1.000000
   21        1.708103      1.708083   1.000000   1.000000
   22        1.877794      1.877828   1.000000   1.000000
   23        1.879334      1.879368   1.000000   1.000000
   24        2.156964      2.157008   1.000000   1.000000
   25        2.371436      2.371466   1.000000   1.000000
   26        2.372399      2.372429   1.000000   1.000000
   27        2.566509      2.566541   1.000000   1.000000
   28        2.567548      2.567579   1.000000   1.000000
   29        4.303369      4.302757   0.000000   0.000000
   30        8.961973      8.961831   0.000000   0.000000
   31       10.004181     10.004078   0.000000   0.000000
   32       10.582436     10.582236   0.000000   0.000000
   33       10.584973     10.584781   0.000000   0.000000
   34       11.375631     11.375591   0.000000   0.000000
   35       11.605977     11.605955   0.000000   0.000000
   36       11.609112     11.609088   0.000000   0.000000
   37       12.610456     12.610409   0.000000   0.000000
   38       12.611145     12.611096   0.000000   0.000000
   39       13.097463     13.097449   0.000000   0.000000
   40       13.367591     13.367503   0.000000   0.000000
   41       13.537719     13.537666   0.000000   0.000000
   42       13.538755     13.538703   0.000000   0.000000
   43       15.251460     15.252031   0.000000   0.000000
   44       15.297348     15.298392   0.000000   0.000000
 
 -0.2500000E+00  0.2500000E+00  0.2500000E+00  0.6250000E-01
    1      -14.137754    -14.137697   1.000000   1.000000
    2      -13.422443    -13.422403   1.000000   1.000000
    3      -13.238395    -13.238355   1.000000   1.000000
    4      -12.983552    -12.983511   1.000000   1.000000
    5      -12.961375    -12.961334   1.000000   1.000000
    6      -12.863268    -12.863227   1.000000   1.000000
    7      -12.733650    -12.733608   1.000000   1.000000
    8       -0.981220     -0.981220   1.000000   1.000000
    9       -0.977326     -0.977303   1.000000   1.000000
   10       -0.837634     -0.837657   1.000000   1.000000
   11       -0.501284     -0.501270   1.000000   1.000000
   12       -0.324801     -0.324779   1.000000   1.000000
   13       -0.147100     -0.147075   1.000000   1.000000
   14        0.154767      0.154788   1.000000   1.000000
   15        0.409536      0.409563   1.000000   1.000000
   16        0.612068      0.612094   1.000000   1.000000
   17        0.652762      0.652779   1.000000   1.000000
   18        1.022589      1.022620   1.000000   1.000000
   19        1.230464      1.230501   1.000000   1.000000
   20        1.289434      1.289465   1.000000   1.000000
   21        1.542183      1.542219   1.000000   1.000000
   22        1.546951      1.546987   1.000000   1.000000
   23        1.745022      1.745053   1.000000   1.000000
   24        1.920355      1.920384   1.000000   1.000000
   25        2.077477      2.077519   1.000000   1.000000
   26        2.265745      2.265774   1.000000   1.000000
   27        2.321629      2.321660   1.000000   1.000000
   28        2.428800      2.428830   1.000000   1.000000
   29        5.396991      5.396324   0.000000   0.000000
   30        8.547719      8.547516   0.000000   0.000000
   31        9.482353      9.482142   0.000000   0.000000
   32        9.942244      9.942038   0.000000   0.000000
   33       11.050712     11.050683   0.000000   0.000000
   34       11.917108     11.917085   0.000000   0.000000
   35       12.562737     12.562741   0.000000   0.000000
   36       12.797457     12.797450   0.000000   0.000000
   37       12.870489     12.870497   0.000000   0.000000
   38       13.568951     13.568924   0.000000   0.000000
   39       13.738603     13.738555   0.000000   0.000000
   40       14.369666     14.369674   0.000000   0.000000
   41       14.508396     14.508372   0.000000   0.000000
   42       14.512996     14.512973   0.000000   0.000000
   43       14.777318     14.777324   0.000000   0.000000
   44       14.980303     14.978068   0.000000   0.000000
 
  0.2500000E+00 -0.2500000E+00  0.2500000E+00  0.6250000E-01
    1      -14.137711    -14.137655   1.000000   1.000000
    2      -13.422607    -13.422567   1.000000   1.000000
    3      -13.238344    -13.238304   1.000000   1.000000
    4      -12.983470    -12.983430   1.000000   1.000000
    5      -12.961259    -12.961218   1.000000   1.000000
    6      -12.863469    -12.863428   1.000000   1.000000
    7      -12.733576    -12.733535   1.000000   1.000000
    8       -0.979655     -0.979660   1.000000   1.000000
    9       -0.976979     -0.976951   1.000000   1.000000
   10       -0.838256     -0.838280   1.000000   1.000000
   11       -0.501665     -0.501652   1.000000   1.000000
   12       -0.324939     -0.324917   1.000000   1.000000
   13       -0.148760     -0.148735   1.000000   1.000000
   14        0.154376      0.154397   1.000000   1.000000
   15        0.410392      0.410419   1.000000   1.000000
   16        0.612159      0.612185   1.000000   1.000000
   17        0.652824      0.652842   1.000000   1.000000
   18        1.023318      1.023349   1.000000   1.000000
   19        1.229141      1.229178   1.000000   1.000000
   20        1.289666      1.289697   1.000000   1.000000
   21        1.542314      1.542347   1.000000   1.000000
   22        1.545305      1.545343   1.000000   1.000000
   23        1.746734      1.746766   1.000000   1.000000
   24        1.920424      1.920453   1.000000   1.000000
   25        2.076830      2.076873   1.000000   1.000000
   26        2.265892      2.265921   1.000000   1.000000
   27        2.321352      2.321382   1.000000   1.000000
   28        2.430066      2.430097   1.000000   1.000000
   29        5.397121      5.396454   0.000000   0.000000
   30        8.547078      8.546875   0.000000   0.000000
   31        9.482863      9.482651   0.000000   0.000000
   32        9.942190      9.941984   0.000000   0.000000
   33       11.051048     11.051018   0.000000   0.000000
   34       11.916317     11.916294   0.000000   0.000000
   35       12.562710     12.562714   0.000000   0.000000
   36       12.797539     12.797531   0.000000   0.000000
   37       12.870962     12.870970   0.000000   0.000000
   38       13.568653     13.568626   0.000000   0.000000
   39       13.737273     13.737225   0.000000   0.000000
   40       14.370536     14.370545   0.000000   0.000000
   41       14.510771     14.510747   0.000000   0.000000
   42       14.513886     14.513864   0.000000   0.000000
   43       14.779514     14.779525   0.000000   0.000000
   44       14.980252     14.977329   0.000000   0.000000
 
  0.2500000E+00  0.2500000E+00 -0.2500000E+00  0.6250000E-01
    1      -14.137746    -14.137690   1.000000   1.000000
    2      -13.422290    -13.422250   1.000000   1.000000
    3      -13.238493    -13.238453   1.000000   1.000000
    4      -12.983117    -12.983077   1.000000   1.000000
    5      -12.961931    -12.961890   1.000000   1.000000
    6      -12.863686    -12.863645   1.000000   1.000000
    7      -12.733173    -12.733132   1.000000   1.000000
    8       -0.980050     -0.980055   1.000000   1.000000
    9       -0.976985     -0.976957   1.000000   1.000000
   10       -0.837337     -0.837361   1.000000   1.000000
   11       -0.501920     -0.501907   1.000000   1.000000
   12       -0.324717     -0.324695   1.000000   1.000000
   13       -0.146237     -0.146213   1.000000   1.000000
   14        0.153378      0.153398   1.000000   1.000000
   15        0.407724      0.407751   1.000000   1.000000
   16        0.611429      0.611455   1.000000   1.000000
   17        0.652395      0.652413   1.000000   1.000000
   18        1.021283      1.021314   1.000000   1.000000
   19        1.232308      1.232345   1.000000   1.000000
   20        1.288389      1.288421   1.000000   1.000000
   21        1.543053      1.543091   1.000000   1.000000
   22        1.545618      1.545651   1.000000   1.000000
   23        1.746635      1.746666   1.000000   1.000000
   24        1.919553      1.919583   1.000000   1.000000
   25        2.078884      2.078927   1.000000   1.000000
   26        2.265751      2.265780   1.000000   1.000000
   27        2.322951      2.322983   1.000000   1.000000
   28        2.428661      2.428691   1.000000   1.000000
   29        5.396926      5.396259   0.000000   0.000000
   30        8.548131      8.547928   0.000000   0.000000
   31        9.481311      9.481100   0.000000   0.000000
   32        9.942707      9.942502   0.000000   0.000000
   33       11.049898     11.049869   0.000000   0.000000
   34       11.917279     11.917254   0.000000   0.000000
   35       12.563101     12.563104   0.000000   0.000000
   36       12.797630     12.797622   0.000000   0.000000
   37       12.870923     12.870933   0.000000   0.000000
   38       13.570258     13.570231   0.000000   0.000000
   39       13.737857     13.737808   0.000000   0.000000
   40       14.369808     14.369815   0.000000   0.000000
   41       14.508729     14.508705   0.000000   0.000000
   42       14.511558     14.511537   0.000000   0.000000
   43       14.777112     14.777116   0.000000   0.000000
   44       14.980683     14.980846   0.000000   0.000000
 
  0.2500000E+00  0.0000000E+00  0.5000000E+00  0.6250000E-01
    1      -14.137720    -14.137664   1.000000   1.000000
    2      -13.422561    -13.422521   1.000000   1.000000
    3      -13.238328    -13.238288   1.000000   1.000000
    4      -12.983488    -12.983448   1.000000   1.000000
    5      -12.961346    -12.961305   1.000000   1.000000
    6      -12.863403    -12.863362   1.000000   1.000000
    7      -12.733577    -12.733536   1.000000   1.000000
    8       -0.980438     -0.980438   1.000000   1.000000
    9       -0.976432     -0.976409   1.000000   1.000000
   10       -0.838252     -0.838275   1.000000   1.000000
   11       -0.501540     -0.501527   1.000000   1.000000
   12       -0.324866     -0.324844   1.000000   1.000000
   13       -0.148540     -0.148515   1.000000   1.000000
   14        0.154382      0.154403   1.000000   1.000000
   15        0.410221      0.410248   1.000000   1.000000
   16        0.611952      0.611978   1.000000   1.000000
   17        0.653062      0.653079   1.000000   1.000000
   18        1.023172      1.023203   1.000000   1.000000
   19        1.229132      1.229169   1.000000   1.000000
   20        1.289660      1.289691   1.000000   1.000000
   21        1.542334      1.542368   1.000000   1.000000
   22        1.545435      1.545472   1.000000   1.000000
   23        1.746473      1.746504   1.000000   1.000000
   24        1.920585      1.920615   1.000000   1.000000
   25        2.077186      2.077228   1.000000   1.000000
   26        2.266175      2.266204   1.000000   1.000000
   27        2.321062      2.321092   1.000000   1.000000
   28        2.429698      2.429729   1.000000   1.000000
   29        5.397074      5.396407   0.000000   0.000000
   30        8.547265      8.547060   0.000000   0.000000
   31        9.482783      9.482580   0.000000   0.000000
   32        9.942020      9.941808   0.000000   0.000000
   33       11.050969     11.050939   0.000000   0.000000
   34       11.916530     11.916507   0.000000   0.000000
   35       12.562862     12.562866   0.000000   0.000000
   36       12.797494     12.797487   0.000000   0.000000
   37       12.870802     12.870811   0.000000   0.000000
   38       13.568814     13.568786   0.000000   0.000000
   39       13.737228     13.737180   0.000000   0.000000
   40       14.370555     14.370563   0.000000   0.000000
   41       14.509578     14.509556   0.000000   0.000000
   42       14.514698     14.514676   0.000000   0.000000
   43       14.779319     14.779339   0.000000   0.000000
   44       14.979887     14.980214   0.000000   0.000000
 
 -0.2500000E+00  0.5000000E+00  0.5000000E+00  0.6250000E-01
    1      -14.137744    -14.137687   1.000000   1.000000
    2      -13.422485    -13.422445   1.000000   1.000000
    3      -13.238350    -13.238310   1.000000   1.000000
    4      -12.983543    -12.983503   1.000000   1.000000
    5      -12.961366    -12.961325   1.000000   1.000000
    6      -12.863274    -12.863233   1.000000   1.000000
    7      -12.733655    -12.733613   1.000000   1.000000
    8       -0.981055     -0.981055   1.000000   1.000000
    9       -0.977406     -0.977383   1.000000   1.000000
   10       -0.837808     -0.837832   1.000000   1.000000
   11       -0.501217     -0.501205   1.000000   1.000000
   12       -0.324717     -0.324695   1.000000   1.000000
   13       -0.147273     -0.147248   1.000000   1.000000
   14        0.154994      0.155014   1.000000   1.000000
   15        0.409804      0.409831   1.000000   1.000000
   16        0.611949      0.611975   1.000000   1.000000
   17        0.652654      0.652672   1.000000   1.000000
   18        1.022439      1.022470   1.000000   1.000000
   19        1.229730      1.229767   1.000000   1.000000
   20        1.289522      1.289553   1.000000   1.000000
   21        1.542079      1.542114   1.000000   1.000000
   22        1.547000      1.547036   1.000000   1.000000
   23        1.745114      1.745145   1.000000   1.000000
   24        1.920659      1.920688   1.000000   1.000000
   25        2.077609      2.077651   1.000000   1.000000
   26        2.266015      2.266044   1.000000   1.000000
   27        2.321154      2.321185   1.000000   1.000000
   28        2.429209      2.429240   1.000000   1.000000
   29        5.396831      5.396165   0.000000   0.000000
   30        8.547699      8.547487   0.000000   0.000000
   31        9.482499      9.482295   0.000000   0.000000
   32        9.942381      9.942175   0.000000   0.000000
   33       11.050549     11.050517   0.000000   0.000000
   34       11.917166     11.917144   0.000000   0.000000
   35       12.562792     12.562797   0.000000   0.000000
   36       12.797246     12.797239   0.000000   0.000000
   37       12.870317     12.870325   0.000000   0.000000
   38       13.568750     13.568723   0.000000   0.000000
   39       13.738284     13.738237   0.000000   0.000000
   40       14.369966     14.369974   0.000000   0.000000
   41       14.507974     14.507950   0.000000   0.000000
   42       14.513787     14.513763   0.000000   0.000000
   43       14.777231     14.777240   0.000000   0.000000
   44       14.981239     14.981362   0.000000   0.000000
 
  0.2500000E+00  0.5000000E+00  0.0000000E+00  0.6250000E-01
    1      -14.137731    -14.137675   1.000000   1.000000
    2      -13.422354    -13.422314   1.000000   1.000000
    3      -13.238438    -13.238398   1.000000   1.000000
    4      -12.983119    -12.983079   1.000000   1.000000
    5      -12.961907    -12.961866   1.000000   1.000000
    6      -12.863697    -12.863656   1.000000   1.000000
    7      -12.733175    -12.733134   1.000000   1.000000
    8       -0.980516     -0.980517   1.000000   1.000000
    9       -0.976388     -0.976363   1.000000   1.000000
   10       -0.837310     -0.837334   1.000000   1.000000
   11       -0.501991     -0.501978   1.000000   1.000000
   12       -0.324642     -0.324620   1.000000   1.000000
   13       -0.146207     -0.146182   1.000000   1.000000
   14        0.153116      0.153136   1.000000   1.000000
   15        0.407516      0.407543   1.000000   1.000000
   16        0.611236      0.611262   1.000000   1.000000
   17        0.652586      0.652603   1.000000   1.000000
   18        1.021368      1.021398   1.000000   1.000000
   19        1.232319      1.232357   1.000000   1.000000
   20        1.288530      1.288561   1.000000   1.000000
   21        1.542959      1.542998   1.000000   1.000000
   22        1.545508      1.545540   1.000000   1.000000
   23        1.746709      1.746740   1.000000   1.000000
   24        1.919692      1.919721   1.000000   1.000000
   25        2.079153      2.079195   1.000000   1.000000
   26        2.266012      2.266041   1.000000   1.000000
   27        2.322553      2.322583   1.000000   1.000000
   28        2.428480      2.428511   1.000000   1.000000
   29        5.396897      5.396230   0.000000   0.000000
   30        8.548423      8.548217   0.000000   0.000000
   31        9.481253      9.481049   0.000000   0.000000
   32        9.942382      9.942170   0.000000   0.000000
   33       11.049924     11.049894   0.000000   0.000000
   34       11.917321     11.917299   0.000000   0.000000
   35       12.563250     12.563254   0.000000   0.000000
   36       12.797618     12.797611   0.000000   0.000000
   37       12.870951     12.870958   0.000000   0.000000
   38       13.570306     13.570278   0.000000   0.000000
   39       13.737636     13.737589   0.000000   0.000000
   40       14.369934     14.369942   0.000000   0.000000
   41       14.507669     14.507647   0.000000   0.000000
   42       14.512356     14.512332   0.000000   0.000000
   43       14.777081     14.777083   0.000000   0.000000
   44       14.980584     14.979925   0.000000   0.000000
 
  0.0000000E+00  0.5000000E+00 -0.2500000E+00  0.6250000E-01
    1      -14.137705    -14.137648   1.000000   1.000000
    2      -13.422606    -13.422566   1.000000   1.000000
    3      -13.238415    -13.238375   1.000000   1.000000
    4      -12.983531    -12.983491   1.000000   1.000000
    5      -12.961023    -12.960982   1.000000   1.000000
    6      -12.863494    -12.863453   1.000000   1.000000
    7      -12.733650    -12.733609   1.000000   1.000000
    8       -0.980817     -0.980822   1.000000   1.000000
    9       -0.976255     -0.976227   1.000000   1.000000
   10       -0.838168     -0.838192   1.000000   1.000000
   11       -0.501680     -0.501667   1.000000   1.000000
   12       -0.324894     -0.324872   1.000000   1.000000
   13       -0.147455     -0.147430   1.000000   1.000000
   14        0.153818      0.153838   1.000000   1.000000
   15        0.409338      0.409365   1.000000   1.000000
   16        0.611809      0.611835   1.000000   1.000000
   17        0.653299      0.653317   1.000000   1.000000
   18        1.023211      1.023242   1.000000   1.000000
   19        1.230243      1.230281   1.000000   1.000000
   20        1.289756      1.289788   1.000000   1.000000
   21        1.541875      1.541909   1.000000   1.000000
   22        1.545139      1.545176   1.000000   1.000000
   23        1.747235      1.747267   1.000000   1.000000
   24        1.920386      1.920415   1.000000   1.000000
   25        2.077581      2.077623   1.000000   1.000000
   26        2.265744      2.265773   1.000000   1.000000
   27        2.321170      2.321201   1.000000   1.000000
   28        2.429053      2.429084   1.000000   1.000000
   29        5.397012      5.396345   0.000000   0.000000
   30        8.548081      8.547876   0.000000   0.000000
   31        9.482810      9.482607   0.000000   0.000000
   32        9.940779      9.940566   0.000000   0.000000
   33       11.051157     11.051127   0.000000   0.000000
   34       11.916912     11.916891   0.000000   0.000000
   35       12.563026     12.563029   0.000000   0.000000
   36       12.797241     12.797233   0.000000   0.000000
   37       12.871028     12.871037   0.000000   0.000000
   38       13.569185     13.569158   0.000000   0.000000
   39       13.737372     13.737325   0.000000   0.000000
   40       14.370082     14.370089   0.000000   0.000000
   41       14.509307     14.509285   0.000000   0.000000
   42       14.513028     14.513006   0.000000   0.000000
   43       14.778833     14.778840   0.000000   0.000000
   44       14.979780     14.980023   0.000000   0.000000
 
  0.5000000E+00  0.0000000E+00 -0.2500000E+00  0.6250000E-01
    1      -14.137757    -14.137700   1.000000   1.000000
    2      -13.422340    -13.422300   1.000000   1.000000
    3      -13.238515    -13.238475   1.000000   1.000000
    4      -12.983490    -12.983450   1.000000   1.000000
    5      -12.961358    -12.961318   1.000000   1.000000
    6      -12.863385    -12.863344   1.000000   1.000000
    7      -12.733577    -12.733536   1.000000   1.000000
    8       -0.981788     -0.981790   1.000000   1.000000
    9       -0.976657     -0.976632   1.000000   1.000000
   10       -0.837701     -0.837725   1.000000   1.000000
   11       -0.501389     -0.501376   1.000000   1.000000
   12       -0.324644     -0.324622   1.000000   1.000000
   13       -0.145978     -0.145953   1.000000   1.000000
   14        0.154019      0.154040   1.000000   1.000000
   15        0.408666      0.408693   1.000000   1.000000
   16        0.611674      0.611700   1.000000   1.000000