 vasp.5.4.1 05Feb16 (build Mar 31 2016 13:39:20) complex                        
  
 executed on           IFC91_ompi date 2018.04.12  14:18:38
 running on   36 total cores
 distrk:  each k-point on   36 cores,    1 groups
 distr:  one band on NCORES_PER_BAND=   9 cores,    4 groups


--------------------------------------------------------------------------------------------------------


 INCAR:
 POTCAR:    PAW_PBE Mg 13Apr2007                  
 POTCAR:    PAW_PBE O 08Apr2002                   
 POTCAR:    PAW_PBE Mg 13Apr2007                  
   VRHFIN =Mg: s2p0                                                             
   LEXCH  = PE                                                                  
   EATOM  =    23.0369 eV,    1.6932 Ry                                         
                                                                                
   TITEL  = PAW_PBE Mg 13Apr2007                                                
   LULTRA =        F    use ultrasoft PP ?                                      
   IUNSCR =        1    unscreen: 0-lin 1-nonlin 2-no                           
   RPACOR =    1.500    partial core radius                                     
   POMASS =   24.305; ZVAL   =    2.000    mass and valenz                      
   RCORE  =    2.000    outmost cutoff radius                                   
   RWIGS  =    2.880; RWIGS  =    1.524    wigner-seitz radius (au A)           
   ENMAX  =  126.143; ENMIN  =   94.607 eV                                      
   RCLOC  =    1.506    cutoff for local pot                                    
   LCOR   =        T    correct aug charges                                     
   LPAW   =        T    paw PP                                                  
   EAUG   =  454.734                                                            
   DEXC   =    0.000                                                            
   RMAX   =    2.045    core radius for proj-oper                               
   RAUG   =    1.300    factor for augmentation sphere                          
   RDEP   =    2.025    radius for radial grids                                 
   RDEPT  =    1.942    core radius for aug-charge                              
                                                                                
   Atomic configuration                                                         
    6 entries                                                                   
     n  l   j            E        occ.                                          
     1  0  0.50     -1259.6230   2.0000                                         
     2  0  0.50       -79.8442   2.0000                                         
     2  1  1.50       -46.6121   6.0000                                         
     3  0  0.50        -4.7055   2.0000                                         
     3  1  0.50        -1.3660   0.0000                                         
     3  2  1.50        -1.3606   0.0000                                         
   Description                                                                  
     l       E           TYP  RCUT    TYP  RCUT                                 
     0     -4.7054661     23  2.000                                             
     0     27.2116520     23  2.000                                             
     1      1.3605826     23  2.000                                             
     1     27.2116520     23  2.000                                             
     2     -1.3605826     23  2.000                                             
  local pseudopotential read in
  partial core-charges read in
  partial kinetic energy density read in
  atomic valenz-charges read in
  non local Contribution for L=           0  read in
    real space projection operators read in
  non local Contribution for L=           0  read in
    real space projection operators read in
  non local Contribution for L=           1  read in
    real space projection operators read in
  non local Contribution for L=           1  read in
    real space projection operators read in
  non local Contribution for L=           2  read in
    real space projection operators read in
    PAW grid and wavefunctions read in
 
   number of l-projection  operators is LMAX  =           5
   number of lm-projection operators is LMMAX =          13
 
 POTCAR:    PAW_PBE O 08Apr2002                   
   VRHFIN =O: s2p4                                                              
   LEXCH  = PE                                                                  
   EATOM  =   432.3788 eV,   31.7789 Ry                                         
                                                                                
   TITEL  = PAW_PBE O 08Apr2002                                                 
   LULTRA =        F    use ultrasoft PP ?                                      
   IUNSCR =        1    unscreen: 0-lin 1-nonlin 2-no                           
   RPACOR =    1.200    partial core radius                                     
   POMASS =   16.000; ZVAL   =    6.000    mass and valenz                      
   RCORE  =    1.520    outmost cutoff radius                                   
   RWIGS  =    1.550; RWIGS  =    0.820    wigner-seitz radius (au A)           
   ENMAX  =  400.000; ENMIN  =  300.000 eV                                      
   ICORE  =        2    local potential                                         
   LCOR   =        T    correct aug charges                                     
   LPAW   =        T    paw PP                                                  
   EAUG   =  605.392                                                            
   DEXC   =    0.000                                                            
   RMAX   =    1.553    core radius for proj-oper                               
   RAUG   =    1.300    factor for augmentation sphere                          
   RDEP   =    1.550    radius for radial grids                                 
   RDEPT  =    1.329    core radius for aug-charge                              
                                                                                
   Atomic configuration                                                         
    4 entries                                                                   
     n  l   j            E        occ.                                          
     1  0  0.50      -514.6923   2.0000                                         
     2  0  0.50       -23.9615   2.0000                                         
     2  1  0.50        -9.0305   4.0000                                         
     3  2  1.50        -9.5241   0.0000                                         
   Description                                                                  
     l       E           TYP  RCUT    TYP  RCUT                                 
     0    -23.9615318     23  1.200                                             
     0     -9.5240782     23  1.200                                             
     1     -9.0304911     23  1.520                                             
     1      8.1634956     23  1.520                                             
     2     -9.5240782      7  1.500                                             
  local pseudopotential read in
  partial core-charges read in
  partial kinetic energy density read in
  kinetic energy density of atom read in
  atomic valenz-charges read in
  non local Contribution for L=           0  read in
    real space projection operators read in
  non local Contribution for L=           0  read in
    real space projection operators read in
  non local Contribution for L=           1  read in
    real space projection operators read in
  non local Contribution for L=           1  read in
    real space projection operators read in
    PAW grid and wavefunctions read in
 
   number of l-projection  operators is LMAX  =           4
   number of lm-projection operators is LMMAX =           8
 
 Optimization of the real space projectors (new method)

 maximal supplied QI-value         = 18.90
 optimisation between [QCUT,QGAM] = [ 10.20, 20.41] = [ 29.16,116.64] Ry 
 Optimized for a Real-space Cutoff    1.30 Angstroem

   l    n(q)    QCUT    max X(q) W(low)/X(q) W(high)/X(q)  e(spline) 
   0      8    10.205    28.265    0.22E-03    0.17E-03    0.53E-07
   0      8    10.205    10.429    0.17E-03    0.15E-03    0.43E-07
   1      7    10.205    13.073    0.71E-04    0.41E-03    0.76E-07
   1      7    10.205     9.625    0.71E-04    0.33E-03    0.63E-07
   2      7    10.205     4.652    0.24E-03    0.41E-03    0.55E-07
 Optimization of the real space projectors (new method)

 maximal supplied QI-value         = 24.76
 optimisation between [QCUT,QGAM] = [ 10.15, 20.30] = [ 28.85,115.39] Ry 
 Optimized for a Real-space Cutoff    1.38 Angstroem

   l    n(q)    QCUT    max X(q) W(low)/X(q) W(high)/X(q)  e(spline) 
   0      8    10.150    20.381    0.22E-03    0.32E-03    0.29E-06
   0      8    10.150    15.268    0.23E-03    0.35E-03    0.30E-06
   1      8    10.150     5.964    0.46E-03    0.53E-03    0.21E-06
   1      8    10.150     5.382    0.38E-03    0.45E-03    0.19E-06
  PAW_PBE Mg 13Apr2007                  :
 energy of atom  1       EATOM=  -23.0369
 kinetic energy error for atom=    0.0001 (will be added to EATOM!!)
  PAW_PBE O 08Apr2002                   :
 energy of atom  2       EATOM= -432.3788
 kinetic energy error for atom=    0.1156 (will be added to EATOM!!)
 
 
 POSCAR: Mg8 O7                                  
  positions in direct lattice
  velocities in cartesian coordinates
 exchange correlation table for  LEXCH =        8
   RHO(1)=    0.500       N(1)  =     2000
   RHO(2)=  100.500       N(2)  =     4000
 


--------------------------------------------------------------------------------------------------------


 ion  position               nearest neighbor table
   1  0.001  0.000  0.000-  11 2.12  13 2.12  14 2.12   9 2.12  10 2.12  12 2.13   7 3.00   3 3.00
                             2 3.00   6 3.00   5 3.01   4 3.01   5 3.01   4 3.01   6 3.01   3 3.01
   2  0.985  0.983  0.517-  15 1.99  10 2.12  11 2.13  13 2.13  12 2.13   6 2.81   4 2.81   5 2.81
                             3 2.81   1 3.00   8 3.00   8 3.01   1 3.01   3 3.19   5 3.20   4 3.20
   3  0.984  0.515  0.985-  15 1.99  12 2.12  14 2.13   9 2.13  11 2.13   7 2.81   2 2.81   4 2.81
                             5 2.81   1 3.00   8 3.00   8 3.01   1 3.01   5 3.19   4 3.19   2 3.19
   4  0.985  0.516  0.516-  15 1.99  14 2.13   9 2.13  13 2.13  10 2.13   2 2.81   7 2.81   6 2.81
                             3 2.81   8 3.01   1 3.01   1 3.01   8 3.01   3 3.19   6 3.19   7 3.20
   5  0.517  0.984  0.984-  15 1.99  10 2.13  13 2.13  14 2.13   9 2.13   7 2.81   2 2.81   6 2.81
                             3 2.81   1 3.01   8 3.01   8 3.01   1 3.01   3 3.19   6 3.19   2 3.20
   6  0.517  0.985  0.516-  15 1.99  12 2.12   9 2.13  14 2.13  11 2.13   2 2.81   7 2.81   4 2.81
                             5 2.81   8 3.00   1 3.00   1 3.01   8 3.01   5 3.19   4 3.19   7 3.20
   7  0.517  0.517  0.984-  15 1.98  11 2.12  13 2.13  12 2.13  10 2.13   3 2.81   5 2.81   6 2.81
                             4 2.81   1 3.00   8 3.00   8 3.01   1 3.01   4 3.20   6 3.20   5 3.20
   8  0.501  0.500  0.500-  11 2.12  10 2.12  14 2.12   9 2.12  13 2.12  12 2.12   2 3.00   7 3.00
                             3 3.00   6 3.00   4 3.01   5 3.01   5 3.01   4 3.01   6 3.01   3 3.01
   9  0.251  0.250  0.750-   8 2.12   1 2.12   6 2.13   4 2.13   3 2.13   5 2.13
  10  0.251  0.751  0.251-   8 2.12   2 2.12   1 2.12   5 2.13   4 2.13   7 2.13
  11  0.251  0.750  0.751-   7 2.12   1 2.12   8 2.12   2 2.13   3 2.13   6 2.13
  12  0.751  0.250  0.250-   6 2.12   3 2.12   8 2.12   1 2.13   7 2.13   2 2.13
  13  0.751  0.250  0.750-   1 2.12   8 2.12   4 2.13   5 2.13   7 2.13   2 2.13
  14  0.751  0.750  0.250-   1 2.12   8 2.12   4 2.13   6 2.13   5 2.13   3 2.13
  15  0.751  0.750  0.750-   7 1.98   2 1.99   3 1.99   6 1.99   5 1.99   4 1.99
 
  LATTYP: Found a face centered cubic cell.
 ALAT       =     8.4937860000
  
  Lattice vectors:
  
 A1 = (   0.0000000000,   4.2468930000,   4.2468930000)
 A2 = (   4.2468930000,   0.0000000000,   4.2468930000)
 A3 = (   4.2468930000,   4.2468930000,   0.0000000000)


Analysis of symmetry for initial positions (statically):
=====================================================================
 Subroutine PRICEL returns:
 Original cell was already a primitive cell.
 

 Routine SETGRP: Setting up the symmetry group for a 
 face centered cubic supercell.


 Subroutine GETGRP returns: Found  1 space group operations
 (whereof  1 operations were pure point group operations)
 out of a pool of 48 trial point group operations.


The static configuration has the point symmetry C_1 .


Analysis of symmetry for dynamics (positions and initial velocities):
=====================================================================
 Subroutine PRICEL returns:
 Original cell was already a primitive cell.
 

 Routine SETGRP: Setting up the symmetry group for a 
 face centered cubic supercell.


 Subroutine GETGRP returns: Found  1 space group operations
 (whereof  1 operations were pure point group operations)
 out of a pool of 48 trial point group operations.


The dynamic configuration has the point symmetry C_1 .


Analysis of structural, dynamic, and magnetic symmetry:
=====================================================================
 Subroutine PRICEL returns:
 Original cell was already a primitive cell.
 

 Routine SETGRP: Setting up the symmetry group for a 
 face centered cubic supercell.


 Subroutine GETGRP returns: Found  1 space group operations
 (whereof  1 operations were pure point group operations)
 out of a pool of 48 trial point group operations.


The magnetic configuration has the point symmetry C_1 .


 Subroutine INISYM returns: Found  1 space group operations
 (whereof  1 operations are pure point group operations),
 and found     1 'primitive' translations

 
 
 KPOINTS: k-point mesh                            

Automatic generation of k-mesh.
Space group operators:
 irot       det(A)        alpha          n_x          n_y          n_z        tau_x        tau_y        tau_z
    1     1.000000     0.000000     1.000000     0.000000     0.000000     0.000000     0.000000     0.000000
 
 Subroutine IBZKPT returns following result:
 ===========================================
 
 Found     16 irreducible k-points:
 
 Following reciprocal coordinates:
            Coordinates               Weight
  0.250000  0.250000  0.250000     24.000000
  0.250000  0.000000  0.000000     24.000000
  0.000000  0.000000 -0.250000     24.000000
  0.000000  0.250000  0.000000     24.000000
 -0.250000  0.250000  0.250000     24.000000
  0.250000 -0.250000  0.250000     24.000000
  0.250000  0.250000 -0.250000     24.000000
  0.250000  0.000000  0.500000     24.000000
 -0.250000  0.500000  0.500000     24.000000
  0.250000  0.500000  0.000000     24.000000
  0.000000  0.500000 -0.250000     24.000000
  0.500000  0.000000 -0.250000     24.000000
  0.500000  0.500000  0.250000     24.000000
  0.500000 -0.250000  0.500000     24.000000
  0.000000  0.250000  0.500000     24.000000
  0.500000  0.250000  0.000000     24.000000
 
 Following cartesian coordinates:
            Coordinates               Weight
  0.029433  0.029433  0.029433     24.000000
 -0.029433  0.029433  0.029433     24.000000
 -0.029433 -0.029433  0.029433     24.000000
  0.029433 -0.029433  0.029433     24.000000
  0.088300 -0.029433 -0.029433     24.000000
 -0.029433  0.088300 -0.029433     24.000000
 -0.029433 -0.029433  0.088300     24.000000
  0.029433  0.088300 -0.029433     24.000000
  0.147166 -0.029433 -0.029433     24.000000
  0.029433 -0.029433  0.088300     24.000000
  0.029433 -0.088300  0.088300     24.000000
 -0.088300  0.029433  0.088300     24.000000
  0.029433  0.029433  0.088300     24.000000
 -0.029433  0.147166 -0.029433     24.000000
  0.088300  0.029433 -0.029433     24.000000
 -0.029433  0.029433  0.088300     24.000000
 


--------------------------------------------------------------------------------------------------------




 Dimension of arrays:
   k-points           NKPTS =     16   k-points in BZ     NKDIM =     16   number of bands    NBANDS=     44
   number of dos      NEDOS =    301   number of ions     NIONS =     15
   non local maximal  LDIM  =      5   non local SUM 2l+1 LMDIM =     13
   total plane-waves  NPLWV =  27000
   max r-space proj   IRMAX =   1992   max aug-charges    IRDMAX=   7686
   dimension x,y,z NGX =    30 NGY =   30 NGZ =   30
   dimension x,y,z NGXF=    60 NGYF=   60 NGZF=   60
   support grid    NGXF=    60 NGYF=   60 NGZF=   60
   ions per type =               8   7
 NGX,Y,Z   is equivalent  to a cutoff of   8.30,  8.30,  8.30 a.u.
 NGXF,Y,Z  is equivalent  to a cutoff of  16.61, 16.61, 16.61 a.u.


 I would recommend the setting:
   dimension x,y,z NGX =    29 NGY =   29 NGZ =   29
 SYSTEM =  unknown system                          
 POSCAR =  Mg8 O7                                  

 Startparameter for this run:
   NWRITE =      2    write-flag & timer
   PREC   = n         normal or accurate (medium, high low for compatibility)
   ISTART =      0    job   : 0-new  1-cont  2-samecut
   ICHARG =      2    charge: 1-file 2-atom 10-const
   ISPIN  =      2    spin polarized calculation?
   LNONCOLLINEAR =      F non collinear calculations
   LSORBIT =      F    spin-orbit coupling
   INIWAV =      1    electr: 0-lowe 1-rand  2-diag
   LASPH  =      T    aspherical Exc in radial PAW
   METAGGA=      F    non-selfconsistent MetaGGA calc.

 Electronic Relaxation 1
   ENCUT  =  400.0 eV  29.40 Ry    5.42 a.u.   9.79  9.79  9.79*2*pi/ulx,y,z
   ENINI  =  400.0     initial cutoff
   ENAUG  =  605.4 eV  augmentation charge cutoff
   NELM   =    100;   NELMIN=  4; NELMDL=  0     # of ELM steps 
   EDIFF  = 0.1E-05   stopping-criterion for ELM
   LREAL  =      T    real-space projection
   NLSPLINE    = F    spline interpolate recip. space projectors
   LCOMPAT=      F    compatible to vasp.4.4
   GGA_COMPAT  = T    GGA compatible to vasp.4.4-vasp.4.6
   LMAXPAW     = -100 max onsite density
   LMAXMIX     =    2 max onsite mixed and CHGCAR
   VOSKOWN=      0    Vosko Wilk Nusair interpolation
   ROPT   =   -0.00050  -0.00050
 Ionic relaxation
   EDIFFG = -.5E-01   stopping-criterion for IOM
   NSW    =     20    number of steps for IOM
   NBLOCK =      1;   KBLOCK =     20    inner block; outer block 
   IBRION =      2    ionic relax: 0-MD 1-quasi-New 2-CG
   NFREE  =      1    steps in history (QN), initial steepest desc. (CG)
   ISIF   =      2    stress and relaxation
   IWAVPR =     11    prediction:  0-non 1-charg 2-wave 3-comb
   ISYM   =      2    0-nonsym 1-usesym 2-fastsym
   LCORR  =      T    Harris-Foulkes like correction to forces

   POTIM  = 0.5000    time-step for ionic-motion
   TEIN   =    0.0    initial temperature
   TEBEG  =    0.0;   TEEND  =   0.0 temperature during run
   SMASS  =  -3.00    Nose mass-parameter (am)
   estimated Nose-frequenzy (Omega)   =  0.10E-29 period in steps =****** mass=  -0.824E-27a.u.
   SCALEE = 1.0000    scale energy and forces
   NPACO  =    256;   APACO  = 16.0  distance and # of slots for P.C.
   PSTRESS=    0.0 pullay stress

  Mass of Ions in am
   POMASS =  24.30 16.00
  Ionic Valenz
   ZVAL   =   2.00  6.00
  Atomic Wigner-Seitz radii
   RWIGS  =  -1.00 -1.00
  virtual crystal weights 
   VCA    =   1.00  1.00
   NELECT =      56.0000    total number of electrons
   NUPDOWN=      -1.0000    fix difference up-down

 DOS related values:
   EMIN   =  10.00;   EMAX   =-10.00  energy-range for DOS
   EFERMI =   0.00
   ISMEAR =     0;   SIGMA  =   0.05  broadening in eV -4-tet -1-fermi 0-gaus

 Electronic relaxation 2 (details)
   IALGO  =     38    algorithm
   LDIAG  =      T    sub-space diagonalisation (order eigenvalues)
   LSUBROT=      F    optimize rotation matrix (better conditioning)
   TURBO    =      0    0=normal 1=particle mesh
   IRESTART =      0    0=no restart 2=restart with 2 vectors
   NREBOOT  =      0    no. of reboots
   NMIN     =      0    reboot dimension
   EREF     =   0.00    reference energy to select bands
   IMIX   =      4    mixing-type and parameters
     AMIX     =   0.40;   BMIX     =  1.00
     AMIX_MAG =   1.60;   BMIX_MAG =  1.00
     AMIN     =   0.10
     WC   =   100.;   INIMIX=   1;  MIXPRE=   1;  MAXMIX= -45

 Intra band minimization:
   WEIMIN = 0.0010     energy-eigenvalue tresh-hold
   EBREAK =  0.57E-08  absolut break condition
   DEPER  =   0.30     relativ break condition  

   TIME   =   0.40     timestep for ELM

  volume/ion in A,a.u.               =      10.21        68.92
  Fermi-wavevector in a.u.,A,eV,Ry     =   1.170549  2.212016 18.642492  1.370184
  Thomas-Fermi vector in A             =   2.307006
 
 Write flags
   LWAVE  =      F    write WAVECAR
   LCHARG =      F    write CHGCAR
   LVTOT  =      F    write LOCPOT, total local potential
   LVHAR  =      F    write LOCPOT, Hartree potential only
   LELF   =      F    write electronic localiz. function (ELF)
   LORBIT =     12    0 simple, 1 ext, 2 COOP (PROOUT)


 Dipole corrections
   LMONO  =      F    monopole corrections only (constant potential shift)
   LDIPOL =      F    correct potential (dipole corrections)
   IDIPOL =      0    1-x, 2-y, 3-z, 4-all directions 
   EPSILON=  1.0000000 bulk dielectric constant

 Exchange correlation treatment:
   GGA     =    --    GGA type
   LEXCH   =     8    internal setting for exchange type
   VOSKOWN=      0    Vosko Wilk Nusair interpolation
   LHFCALC =     F    Hartree Fock is set to
   LHFONE  =     F    Hartree Fock one center treatment
   AEXX    =    0.0000 exact exchange contribution

 Linear response parameters
   LEPSILON=     F    determine dielectric tensor
   LRPA    =     F    only Hartree local field effects (RPA)
   LNABLA  =     F    use nabla operator in PAW spheres
   LVEL    =     F    velocity operator in full k-point grid
   LINTERFAST=   F  fast interpolation
   KINTER  =     0    interpolate to denser k-point grid
   CSHIFT  =0.1000    complex shift for real part using Kramers Kronig
   OMEGAMAX=  -1.0    maximum frequency
   DEG_THRESHOLD= 0.2000000E-02 threshold for treating states as degnerate
   RTIME   =    0.100 relaxation time in fs

 Orbital magnetization related:
   ORBITALMAG=     F  switch on orbital magnetization
   LCHIMAG   =     F  perturbation theory with respect to B field
   DQ        =  0.001000  dq finite difference perturbation B field



--------------------------------------------------------------------------------------------------------


 conjugate gradient relaxation of ions
 charge density and potential will be updated during run
 spin polarized calculation
 Variant of blocked Davidson
 Davidson routine will perform the subspace rotation
 perform sub-space diagonalisation
    after iterative eigenvector-optimisation
 modified Broyden-mixing scheme, WC =      100.0
 initial mixing is a Kerker type mixing with AMIX =  0.4000 and BMIX =      1.0000
 Hartree-type preconditioning will be used
 using additional bands           16
 real space projection scheme for non local part
 use partial core corrections
 calculate Harris-corrections to forces 
   (improved forces if not selfconsistent)
 use gradient corrections 
 use of overlap-Matrix (Vanderbilt PP)
 Gauss-broadening in eV      SIGMA  =   0.05


--------------------------------------------------------------------------------------------------------


  energy-cutoff  :      400.00
  volume of cell :      153.19
      direct lattice vectors                 reciprocal lattice vectors
     0.000000000  4.246893000  4.246893000    -0.117733129  0.117733129  0.117733129
     4.246893000  0.000000000  4.246893000     0.117733129 -0.117733129  0.117733129
     4.246893000  4.246893000  0.000000000     0.117733129  0.117733129 -0.117733129

  length of vectors
     6.006013679  6.006013679  6.006013679     0.203919761  0.203919761  0.203919761


 
 k-points in units of 2pi/SCALE and weight: k-point mesh                            
   0.02943328  0.02943328  0.02943328       0.062
  -0.02943328  0.02943328  0.02943328       0.062
  -0.02943328 -0.02943328  0.02943328       0.062
   0.02943328 -0.02943328  0.02943328       0.062
   0.08829985 -0.02943328 -0.02943328       0.062
  -0.02943328  0.08829985 -0.02943328       0.062
  -0.02943328 -0.02943328  0.08829985       0.062
   0.02943328  0.08829985 -0.02943328       0.062
   0.14716641 -0.02943328 -0.02943328       0.062
   0.02943328 -0.02943328  0.08829985       0.062
   0.02943328 -0.08829985  0.08829985       0.062
  -0.08829985  0.02943328  0.08829985       0.062
   0.02943328  0.02943328  0.08829985       0.062
  -0.02943328  0.14716641 -0.02943328       0.062
   0.08829985  0.02943328 -0.02943328       0.062
  -0.02943328  0.02943328  0.08829985       0.062
 
 k-points in reciprocal lattice and weights: k-point mesh                            
   0.25000000  0.25000000  0.25000000       0.062
   0.25000000  0.00000000  0.00000000       0.062
   0.00000000  0.00000000 -0.25000000       0.062
   0.00000000  0.25000000  0.00000000       0.062
  -0.25000000  0.25000000  0.25000000       0.062
   0.25000000 -0.25000000  0.25000000       0.062
   0.25000000  0.25000000 -0.25000000       0.062
   0.25000000  0.00000000  0.50000000       0.062
  -0.25000000  0.50000000  0.50000000       0.062
   0.25000000  0.50000000  0.00000000       0.062
   0.00000000  0.50000000 -0.25000000       0.062
   0.50000000  0.00000000 -0.25000000       0.062
   0.50000000  0.50000000  0.25000000       0.062
   0.50000000 -0.25000000  0.50000000       0.062
   0.00000000  0.25000000  0.50000000       0.062
   0.50000000  0.25000000  0.00000000       0.062
 
 position of ions in fractional coordinates (direct lattice) 
   0.00114096  0.00000358  0.00017097
   0.98524502  0.98346250  0.51701013
   0.98448846  0.51526431  0.98503554
   0.98509103  0.51607031  0.51611058
   0.51685995  0.98438421  0.98447053
   0.51748346  0.98481775  0.51571491
   0.51675824  0.51695920  0.98366170
   0.50090855  0.50031582  0.50046973
   0.25110138  0.25010750  0.74990133
   0.25091127  0.75090910  0.25055092
   0.25110212  0.74957310  0.75101109
   0.75075472  0.25023665  0.25036968
   0.75107375  0.25019212  0.75040180
   0.75114599  0.75009018  0.25040340
   0.75092211  0.75009967  0.75047269
 
 position of ions in cartesian coordinates  (Angst):
   0.00074130  0.00557160  0.00486075
   6.37234668  6.37991689  8.36089019
   6.37161291  8.36435769  6.36928953
   4.38356179  6.37544257  6.37527159
   8.36151543  6.37598991  6.37562332
   6.37260166  4.38788291  6.38011248
   6.37297641  6.37212294  4.39008735
   4.25022913  4.25274641  4.25209277
   4.24693049  4.25115140  2.12858046
   4.25309358  2.12965629  4.25462393
   6.37282052  4.25586757  4.24976059
   2.12602156  4.25166823  4.25110326
   4.24941528  6.37660597  4.25226898
   4.24898915  4.25347309  6.37558939
   6.37277025  6.37626308  6.37467889
 


--------------------------------------------------------------------------------------------------------


 k-point  1 :   0.2500 0.2500 0.2500  plane waves:    2782
 k-point  2 :   0.2500 0.0000 0.0000  plane waves:    2782
 k-point  3 :   0.0000 0.0000-0.2500  plane waves:    2782
 k-point  4 :   0.0000 0.2500 0.0000  plane waves:    2782
 k-point  5 :  -0.2500 0.2500 0.2500  plane waves:    2788
 k-point  6 :   0.2500-0.2500 0.2500  plane waves:    2788
 k-point  7 :   0.2500 0.2500-0.2500  plane waves:    2788
 k-point  8 :   0.2500 0.0000 0.5000  plane waves:    2788
 k-point  9 :  -0.2500 0.5000 0.5000  plane waves:    2788
 k-point 10 :   0.2500 0.5000 0.0000  plane waves:    2788
 k-point 11 :   0.0000 0.5000-0.2500  plane waves:    2788
 k-point 12 :   0.5000 0.0000-0.2500  plane waves:    2788
 k-point 13 :   0.5000 0.5000 0.2500  plane waves:    2788
 k-point 14 :   0.5000-0.2500 0.5000  plane waves:    2788
 k-point 15 :   0.0000 0.2500 0.5000  plane waves:    2788
 k-point 16 :   0.5000 0.2500 0.0000  plane waves:    2788

 maximum and minimum number of plane-waves per node :       326      286

 maximum number of plane-waves:      2788
 maximum index in each direction: 
   IXMAX=   10   IYMAX=   10   IZMAX=   10
   IXMIN=  -10   IYMIN=  -10   IZMIN=  -10

 WARNING: aliasing errors must be expected set NGX to  42 to avoid them
 WARNING: aliasing errors must be expected set NGY to  42 to avoid them
 WARNING: aliasing errors must be expected set NGZ to  42 to avoid them
 aliasing errors are usually negligible using standard VASP settings
 and one can safely disregard these warnings

 real space projection operators:
  total allocation   :       2121.41 KBytes
  max/ min on nodes  :        304.27        195.10


 parallel 3D FFT for wavefunctions:
    minimum data exchange during FFTs selected (reduces bandwidth)
 parallel 3D FFT for charge:
    minimum data exchange during FFTs selected (reduces bandwidth)


 total amount of memory used by VASP on root node    34047. kBytes
========================================================================

   base      :      30000. kBytes
   nonlr-proj:        865. kBytes
   fftplans  :        353. kBytes
   grid      :        883. kBytes
   one-center:         32. kBytes
   wavefun   :       1914. kBytes
 
     INWAV:  cpu time    0.0000: real time    0.0003
 Broyden mixing: mesh for mixing (old mesh)
   NGX = 19   NGY = 19   NGZ = 19
  (NGX  = 60   NGY  = 60   NGZ  = 60)
  gives a total of   6859 points

 initial charge density was supplied:
 charge density of overlapping atoms calculated
 number of electron      58.0000000 magnetization      15.0000000
 keeping initial charge density in first step


--------------------------------------------------------------------------------------------------------


 Maximum index for non-local projection operator          285
 Maximum index for augmentation-charges          421 (set IRDMAX)


--------------------------------------------------------------------------------------------------------


 First call to EWALD:  gamma=   0.331
 Maximum number of real-space cells 3x 3x 3
 Maximum number of reciprocal cells 3x 3x 3

 FEWALD executed in parallel
    FEWALD:  cpu time    0.0000: real time    0.0013


----------------------------------------- Iteration    1(   1)  ---------------------------------------


    POTLOK:  cpu time    0.0120: real time    0.0099
    SETDIJ:  cpu time    0.3560: real time    0.3579
     EDDAV:  cpu time    0.6320: real time    0.6422
       DOS:  cpu time    0.0040: real time    0.0014
    --------------------------------------------
      LOOP:  cpu time    1.0040: real time    1.0139

 eigenvalue-minimisations  :  2928
 total energy-change (2. order) : 0.2238160E+03  (-0.2344122E+04)
 number of electron      58.0000000 magnetization      15.0000000
 augmentation part       58.0000000 magnetization      15.0000000

 Free energy of the ion-electron system (eV)
  ---------------------------------------------------
  alpha Z        PSCENC =       129.53385374
  Ewald energy   TEWEN  =     -2351.71725729
  -Hartree energ DENC   =      -985.55621539
  -exchange      EXHF   =         0.00000000
  -V(xc)+E(xc)   XCENC  =      -189.39221592
  PAW double counting   =      2946.27252624    -2543.92834819
  entropy T*S    EENTRO =        -0.00365550
  eigenvalues    EBANDS =         8.47070992
  atomic energy  EATOM  =      3210.13655998
  Solvation  Ediel_sol  =         0.00000000
  ---------------------------------------------------
  free energy    TOTEN  =       223.81595759 eV

  energy without entropy =      223.81961309  energy(sigma->0) =      223.81778534


--------------------------------------------------------------------------------------------------------




----------------------------------------- Iteration    1(   2)  ---------------------------------------


     EDDAV:  cpu time    0.6600: real time    0.6645
       DOS:  cpu time    0.0040: real time    0.0004
    --------------------------------------------
      LOOP:  cpu time    0.6640: real time    0.6702

 eigenvalue-minimisations  :  3528
 total energy-change (2. order) :-0.3051387E+03  (-0.2949639E+03)
 number of electron      58.0000000 magnetization      15.0000000
 augmentation part       58.0000000 magnetization      15.0000000

 Free energy of the ion-electron system (eV)
  ---------------------------------------------------
  alpha Z        PSCENC =       129.53385374
  Ewald energy   TEWEN  =     -2351.71725729
  -Hartree energ DENC   =      -985.55621539
  -exchange      EXHF   =         0.00000000
  -V(xc)+E(xc)   XCENC  =      -189.39221592
  PAW double counting   =      2946.27252624    -2543.92834819
  entropy T*S    EENTRO =        -0.00000000
  eigenvalues    EBANDS =      -296.67167887
  atomic energy  EATOM  =      3210.13655998
  Solvation  Ediel_sol  =         0.00000000
  ---------------------------------------------------
  free energy    TOTEN  =       -81.32277570 eV

  energy without entropy =      -81.32277570  energy(sigma->0) =      -81.32277570


--------------------------------------------------------------------------------------------------------




----------------------------------------- Iteration    1(   3)  ---------------------------------------


     EDDAV:  cpu time    0.6520: real time    0.6543
       DOS:  cpu time    0.0000: real time    0.0004
    --------------------------------------------
      LOOP:  cpu time    0.6520: real time    0.6576

 eigenvalue-minimisations  :  3484
 total energy-change (2. order) :-0.1819566E+02  (-0.1811080E+02)
 number of electron      58.0000000 magnetization      15.0000000
 augmentation part       58.0000000 magnetization      15.0000000

 Free energy of the ion-electron system (eV)
  ---------------------------------------------------
  alpha Z        PSCENC =       129.53385374
  Ewald energy   TEWEN  =     -2351.71725729
  -Hartree energ DENC   =      -985.55621539
  -exchange      EXHF   =         0.00000000
  -V(xc)+E(xc)   XCENC  =      -189.39221592
  PAW double counting   =      2946.27252624    -2543.92834819
  entropy T*S    EENTRO =        -0.00000000
  eigenvalues    EBANDS =      -314.86733931
  atomic energy  EATOM  =      3210.13655998
  Solvation  Ediel_sol  =         0.00000000
  ---------------------------------------------------
  free energy    TOTEN  =       -99.51843614 eV

  energy without entropy =      -99.51843614  energy(sigma->0) =      -99.51843614


--------------------------------------------------------------------------------------------------------




----------------------------------------- Iteration    1(   4)  ---------------------------------------


     EDDAV:  cpu time    0.6680: real time    0.6738
       DOS:  cpu time    0.0000: real time    0.0004
    --------------------------------------------
      LOOP:  cpu time    0.6680: real time    0.6772

 eigenvalue-minimisations  :  3496
 total energy-change (2. order) :-0.1220187E+00  (-0.1218935E+00)
 number of electron      58.0000000 magnetization      15.0000000
 augmentation part       58.0000000 magnetization      15.0000000

 Free energy of the ion-electron system (eV)
  ---------------------------------------------------
  alpha Z        PSCENC =       129.53385374
  Ewald energy   TEWEN  =     -2351.71725729
  -Hartree energ DENC   =      -985.55621539
  -exchange      EXHF   =         0.00000000
  -V(xc)+E(xc)   XCENC  =      -189.39221592
  PAW double counting   =      2946.27252624    -2543.92834819
  entropy T*S    EENTRO =        -0.00000000
  eigenvalues    EBANDS =      -314.98935804
  atomic energy  EATOM  =      3210.13655998
  Solvation  Ediel_sol  =         0.00000000
  ---------------------------------------------------
  free energy    TOTEN  =       -99.64045487 eV

  energy without entropy =      -99.64045487  energy(sigma->0) =      -99.64045487


--------------------------------------------------------------------------------------------------------




----------------------------------------- Iteration    1(   5)  ---------------------------------------


     EDDAV:  cpu time    0.6560: real time    0.6583
       DOS:  cpu time    0.0000: real time    0.0004
    CHARGE:  cpu time    0.0160: real time    0.0171
    MIXING:  cpu time    0.0000: real time    0.0008
    --------------------------------------------
      LOOP:  cpu time    0.6760: real time    0.6793

 eigenvalue-minimisations  :  3460
 total energy-change (2. order) :-0.7834750E-03  (-0.7831753E-03)
 number of electron      55.9999831 magnetization       0.0852594
 augmentation part        5.5499330 magnetization       0.1388172

 Broyden mixing:
  rms(total) = 0.27037E+01    rms(broyden)= 0.26982E+01
  rms(prec ) = 0.46300E+01
  weight for this iteration     100.00

 Free energy of the ion-electron system (eV)
  ---------------------------------------------------
  alpha Z        PSCENC =       129.53385374
  Ewald energy   TEWEN  =     -2351.71725729
  -Hartree energ DENC   =      -985.55621539
  -exchange      EXHF   =         0.00000000
  -V(xc)+E(xc)   XCENC  =      -189.39221592
  PAW double counting   =      2946.27252624    -2543.92834819
  entropy T*S    EENTRO =        -0.00000000
  eigenvalues    EBANDS =      -314.99014152
  atomic energy  EATOM  =      3210.13655998
  Solvation  Ediel_sol  =         0.00000000
  ---------------------------------------------------
  free energy    TOTEN  =       -99.64123835 eV

  energy without entropy =      -99.64123835  energy(sigma->0) =      -99.64123835


--------------------------------------------------------------------------------------------------------




----------------------------------------- Iteration    1(   6)  ---------------------------------------


    POTLOK:  cpu time    0.0080: real time    0.0107
    SETDIJ:  cpu time    0.3520: real time    0.3531
     EDDAV:  cpu time    0.6160: real time    0.6151
       DOS:  cpu time    0.0000: real time    0.0004
    CHARGE:  cpu time    0.0160: real time    0.0155
    MIXING:  cpu time    0.0000: real time    0.0003
    --------------------------------------------
      LOOP:  cpu time    0.9960: real time    0.9982

 eigenvalue-minimisations  :  3232
 total energy-change (2. order) : 0.5447440E+01  (-0.3721535E+01)
 number of electron      55.9999863 magnetization       0.0046329
 augmentation part        4.5811079 magnetization      -0.1021925

 Broyden mixing:
  rms(total) = 0.77113E+00    rms(broyden)= 0.76974E+00
  rms(prec ) = 0.12028E+01
  weight for this iteration     100.00

 eigenvalues of (default mixing * dielectric matrix)
  average eigenvalue GAMMA=   0.8292
  0.8292

 Free energy of the ion-electron system (eV)
  ---------------------------------------------------
  alpha Z        PSCENC =       129.53385374
  Ewald energy   TEWEN  =     -2351.71725729
  -Hartree energ DENC   =     -1125.86828187
  -exchange      EXHF   =         0.00000000
  -V(xc)+E(xc)   XCENC  =      -188.43247037
  PAW double counting   =      3470.43326359    -3070.31999012
  entropy T*S    EENTRO =        -0.00000000
  eigenvalues    EBANDS =      -167.95947593
  atomic energy  EATOM  =      3210.13655998
  Solvation  Ediel_sol  =         0.00000000
  ---------------------------------------------------
  free energy    TOTEN  =       -94.19379827 eV

  energy without entropy =      -94.19379827  energy(sigma->0) =      -94.19379827


--------------------------------------------------------------------------------------------------------




----------------------------------------- Iteration    1(   7)  ---------------------------------------


    POTLOK:  cpu time    0.0080: real time    0.0104
    SETDIJ:  cpu time    0.3560: real time    0.3553
     EDDAV:  cpu time    0.6520: real time    0.6565
       DOS:  cpu time    0.0000: real time    0.0004
    CHARGE:  cpu time    0.0160: real time    0.0155
    MIXING:  cpu time    0.0000: real time    0.0003
    --------------------------------------------
      LOOP:  cpu time    1.0320: real time    1.0410

 eigenvalue-minimisations  :  3496
 total energy-change (2. order) : 0.1358152E+00  (-0.1266968E+00)
 number of electron      55.9999863 magnetization      -0.0028108
 augmentation part        4.5677623 magnetization      -0.0116422

 Broyden mixing:
  rms(total) = 0.40332E+00    rms(broyden)= 0.40323E+00
  rms(prec ) = 0.72870E+00
  weight for this iteration     100.00

 eigenvalues of (default mixing * dielectric matrix)
  average eigenvalue GAMMA=   0.9666
  0.9666  0.9666

 Free energy of the ion-electron system (eV)
  ---------------------------------------------------
  alpha Z        PSCENC =       129.53385374
  Ewald energy   TEWEN  =     -2351.71725729
  -Hartree energ DENC   =     -1131.60117258
  -exchange      EXHF   =         0.00000000
  -V(xc)+E(xc)   XCENC  =      -188.18308505
  PAW double counting   =      3643.98955405    -3243.58610037
  entropy T*S    EENTRO =        -0.00000000
  eigenvalues    EBANDS =      -162.63033556
  atomic energy  EATOM  =      3210.13655998
  Solvation  Ediel_sol  =         0.00000000
  ---------------------------------------------------
  free energy    TOTEN  =       -94.05798307 eV

  energy without entropy =      -94.05798307  energy(sigma->0) =      -94.05798307


--------------------------------------------------------------------------------------------------------




----------------------------------------- Iteration    1(   8)  ---------------------------------------


    POTLOK:  cpu time    0.0120: real time    0.0085
    SETDIJ:  cpu time    0.3560: real time    0.3572
     EDDAV:  cpu time    0.6480: real time    0.6512
       DOS:  cpu time    0.0000: real time    0.0004
    CHARGE:  cpu time    0.0160: real time    0.0165
    MIXING:  cpu time    0.0000: real time    0.0003
    --------------------------------------------
      LOOP:  cpu time    1.0320: real time    1.0371

 eigenvalue-minimisations  :  3384
 total energy-change (2. order) : 0.2650313E+00  (-0.2790348E-01)
 number of electron      55.9999862 magnetization      -0.0019482
 augmentation part        4.5870613 magnetization      -0.0029868

 Broyden mixing:
  rms(total) = 0.14723E+00    rms(broyden)= 0.14713E+00
  rms(prec ) = 0.25852E+00
  weight for this iteration     100.00

 eigenvalues of (default mixing * dielectric matrix)
  average eigenvalue GAMMA=   1.2689
  2.0679  0.9142  0.8245

 Free energy of the ion-electron system (eV)
  ---------------------------------------------------
  alpha Z        PSCENC =       129.53385374
  Ewald energy   TEWEN  =     -2351.71725729
  -Hartree energ DENC   =     -1139.21662313
  -exchange      EXHF   =         0.00000000
  -V(xc)+E(xc)   XCENC  =      -187.57617352
  PAW double counting   =      3840.60818266    -3439.92150426
  entropy T*S    EENTRO =        -0.00000000
  eigenvalues    EBANDS =      -155.63998997
  atomic energy  EATOM  =      3210.13655998
  Solvation  Ediel_sol  =         0.00000000
  ---------------------------------------------------
  free energy    TOTEN  =       -93.79295179 eV

  energy without entropy =      -93.79295179  energy(sigma->0) =      -93.79295179


--------------------------------------------------------------------------------------------------------




----------------------------------------- Iteration    1(   9)  ---------------------------------------


    POTLOK:  cpu time    0.0080: real time    0.0098
    SETDIJ:  cpu time    0.3560: real time    0.3550
     EDDAV:  cpu time    0.6680: real time    0.6700
       DOS:  cpu time    0.0040: real time    0.0004
    CHARGE:  cpu time    0.0160: real time    0.0161
    MIXING:  cpu time    0.0000: real time    0.0008
    --------------------------------------------
      LOOP:  cpu time    1.0520: real time    1.0563

 eigenvalue-minimisations  :  3624
 total energy-change (2. order) : 0.2326549E-01  (-0.5910807E-02)
 number of electron      55.9999862 magnetization      -0.0004632
 augmentation part        4.5752312 magnetization       0.0010065

 Broyden mixing:
  rms(total) = 0.56826E-01    rms(broyden)= 0.56746E-01
  rms(prec ) = 0.67987E-01
  weight for this iteration     100.00

 eigenvalues of (default mixing * dielectric matrix)
  average eigenvalue GAMMA=   1.2428
  2.4003  0.9595  0.9595  0.6518

 Free energy of the ion-electron system (eV)
  ---------------------------------------------------
  alpha Z        PSCENC =       129.53385374
  Ewald energy   TEWEN  =     -2351.71725729
  -Hartree energ DENC   =     -1145.76027514
  -exchange      EXHF   =         0.00000000
  -V(xc)+E(xc)   XCENC  =      -187.06964532
  PAW double counting   =      3922.17682076    -3521.42409671
  entropy T*S    EENTRO =        -0.00000000
  eigenvalues    EBANDS =      -149.64564633
  atomic energy  EATOM  =      3210.13655998
  Solvation  Ediel_sol  =         0.00000000
  ---------------------------------------------------
  free energy    TOTEN  =       -93.76968630 eV

  energy without entropy =      -93.76968630  energy(sigma->0) =      -93.76968630


--------------------------------------------------------------------------------------------------------




----------------------------------------- Iteration    1(  10)  ---------------------------------------


    POTLOK:  cpu time    0.0080: real time    0.0089
    SETDIJ:  cpu time    0.3560: real time    0.3573
     EDDAV:  cpu time    0.6360: real time    0.6357
       DOS:  cpu time    0.0000: real time    0.0004
    CHARGE:  cpu time    0.0160: real time    0.0153
    MIXING:  cpu time    0.0000: real time    0.0004
    --------------------------------------------
      LOOP:  cpu time    1.0160: real time    1.0208

 eigenvalue-minimisations  :  3364
 total energy-change (2. order) : 0.9944369E-03  (-0.3531823E-03)
 number of electron      55.9999863 magnetization       0.0006350
 augmentation part        4.5700665 magnetization       0.0019316

 Broyden mixing:
  rms(total) = 0.21922E-01    rms(broyden)= 0.21912E-01
  rms(prec ) = 0.32560E-01
  weight for this iteration     100.00

 eigenvalues of (default mixing * dielectric matrix)
  average eigenvalue GAMMA=   1.2646
  2.4976  1.3572  0.9145  0.9145  0.6389

 Free energy of the ion-electron system (eV)
  ---------------------------------------------------
  alpha Z        PSCENC =       129.53385374
  Ewald energy   TEWEN  =     -2351.71725729
  -Hartree energ DENC   =     -1146.39803953
  -exchange      EXHF   =         0.00000000
  -V(xc)+E(xc)   XCENC  =      -187.02778919
  PAW double counting   =      3911.32426323    -3510.58773586
  entropy T*S    EENTRO =        -0.00000000
  eigenvalues    EBANDS =      -149.03254695
  atomic energy  EATOM  =      3210.13655998
  Solvation  Ediel_sol  =         0.00000000
  ---------------------------------------------------
  free energy    TOTEN  =       -93.76869186 eV

  energy without entropy =      -93.76869186  energy(sigma->0) =      -93.76869186


--------------------------------------------------------------------------------------------------------




----------------------------------------- Iteration    1(  11)  ---------------------------------------


    POTLOK:  cpu time    0.0080: real time    0.0089
    SETDIJ:  cpu time    0.3600: real time    0.3594
     EDDAV:  cpu time    0.6560: real time    0.6532
       DOS:  cpu time    0.0000: real time    0.0004
    CHARGE:  cpu time    0.0160: real time    0.0155
    MIXING:  cpu time    0.0000: real time    0.0004
    --------------------------------------------
      LOOP:  cpu time    1.0400: real time    1.0409

 eigenvalue-minimisations  :  3444
 total energy-change (2. order) :-0.4547179E-03  (-0.9460326E-04)
 number of electron      55.9999863 magnetization       0.0000225
 augmentation part        4.5709311 magnetization      -0.0007190

 Broyden mixing:
  rms(total) = 0.80165E-02    rms(broyden)= 0.80133E-02
  rms(prec ) = 0.13237E-01
  weight for this iteration     100.00

 eigenvalues of (default mixing * dielectric matrix)
  average eigenvalue GAMMA=   1.3723
  2.7065  2.1750  0.9754  0.9754  0.7692  0.6322

 Free energy of the ion-electron system (eV)
  ---------------------------------------------------
  alpha Z        PSCENC =       129.53385374
  Ewald energy   TEWEN  =     -2351.71725729
  -Hartree energ DENC   =     -1146.34014807
  -exchange      EXHF   =         0.00000000
  -V(xc)+E(xc)   XCENC  =      -187.03430334
  PAW double counting   =      3893.65810297    -3492.93047859
  entropy T*S    EENTRO =        -0.00000000
  eigenvalues    EBANDS =      -149.07547598
  atomic energy  EATOM  =      3210.13655998
  Solvation  Ediel_sol  =         0.00000000
  ---------------------------------------------------
  free energy    TOTEN  =       -93.76914658 eV

  energy without entropy =      -93.76914658  energy(sigma->0) =      -93.76914658


--------------------------------------------------------------------------------------------------------




----------------------------------------- Iteration    1(  12)  ---------------------------------------


    POTLOK:  cpu time    0.0080: real time    0.0086
    SETDIJ:  cpu time    0.3560: real time    0.3570
     EDDAV:  cpu time    0.6560: real time    0.6575
       DOS:  cpu time    0.0040: real time    0.0004
    CHARGE:  cpu time    0.0160: real time    0.0165
    MIXING:  cpu time    0.0000: real time    0.0004
    --------------------------------------------
      LOOP:  cpu time    1.0400: real time    1.0435

 eigenvalue-minimisations  :  3456
 total energy-change (2. order) :-0.1379376E-03  (-0.2691094E-04)
 number of electron      55.9999863 magnetization      -0.0000448
 augmentation part        4.5716606 magnetization      -0.0001926

 Broyden mixing:
  rms(total) = 0.28428E-02    rms(broyden)= 0.28409E-02
  rms(prec ) = 0.45749E-02
  weight for this iteration     100.00

 eigenvalues of (default mixing * dielectric matrix)
  average eigenvalue GAMMA=   1.3331
  2.7287  2.3925  1.0411  0.9435  0.8699  0.7258  0.6301

 Free energy of the ion-electron system (eV)
  ---------------------------------------------------
  alpha Z        PSCENC =       129.53385374
  Ewald energy   TEWEN  =     -2351.71725729
  -Hartree energ DENC   =     -1146.38886944
  -exchange      EXHF   =         0.00000000
  -V(xc)+E(xc)   XCENC  =      -187.03273382
  PAW double counting   =      3887.54468146    -3486.81906925
  entropy T*S    EENTRO =        -0.00000000
  eigenvalues    EBANDS =      -149.02644989
  atomic energy  EATOM  =      3210.13655998
  Solvation  Ediel_sol  =         0.00000000
  ---------------------------------------------------
  free energy    TOTEN  =       -93.76928452 eV

  energy without entropy =      -93.76928452  energy(sigma->0) =      -93.76928452


--------------------------------------------------------------------------------------------------------




----------------------------------------- Iteration    1(  13)  ---------------------------------------


    POTLOK:  cpu time    0.0080: real time    0.0082
    SETDIJ:  cpu time    0.3560: real time    0.3571
     EDDAV:  cpu time    0.6360: real time    0.6356
       DOS:  cpu time    0.0000: real time    0.0004
    CHARGE:  cpu time    0.0160: real time    0.0153
    MIXING:  cpu time    0.0000: real time    0.0004
    --------------------------------------------
      LOOP:  cpu time    1.0160: real time    1.0201

 eigenvalue-minimisations  :  3344
 total energy-change (2. order) :-0.2444762E-04  (-0.7592131E-05)
 number of electron      55.9999863 magnetization       0.0000393
 augmentation part        4.5712590 magnetization       0.0000100

 Broyden mixing:
  rms(total) = 0.13187E-02    rms(broyden)= 0.13183E-02
  rms(prec ) = 0.23416E-02
  weight for this iteration     100.00

 eigenvalues of (default mixing * dielectric matrix)
  average eigenvalue GAMMA=   1.2966
  2.7984  2.4353  0.9408  0.9408  0.9705  0.9705  0.6288  0.6877

 Free energy of the ion-electron system (eV)
  ---------------------------------------------------
  alpha Z        PSCENC =       129.53385374
  Ewald energy   TEWEN  =     -2351.71725729
  -Hartree energ DENC   =     -1146.45902451
  -exchange      EXHF   =         0.00000000
  -V(xc)+E(xc)   XCENC  =      -187.03003398
  PAW double counting   =      3886.36525823    -3485.64177483
  entropy T*S    EENTRO =        -0.00000000
  eigenvalues    EBANDS =      -148.95689031
  atomic energy  EATOM  =      3210.13655998
  Solvation  Ediel_sol  =         0.00000000
  ---------------------------------------------------
  free energy    TOTEN  =       -93.76930896 eV

  energy without entropy =      -93.76930896  energy(sigma->0) =      -93.76930896


--------------------------------------------------------------------------------------------------------




----------------------------------------- Iteration    1(  14)  ---------------------------------------


    POTLOK:  cpu time    0.0080: real time    0.0083
    SETDIJ:  cpu time    0.3600: real time    0.3579
     EDDAV:  cpu time    0.6360: real time    0.6383
       DOS:  cpu time    0.0000: real time    0.0004
    CHARGE:  cpu time    0.0160: real time    0.0153
    MIXING:  cpu time    0.0000: real time    0.0005
    --------------------------------------------
      LOOP:  cpu time    1.0200: real time    1.0237

 eigenvalue-minimisations  :  3380
 total energy-change (2. order) :-0.4508142E-05  (-0.8378875E-06)
 number of electron      55.9999863 magnetization       0.0000089
 augmentation part        4.5710730 magnetization      -0.0000550

 Broyden mixing:
  rms(total) = 0.75812E-03    rms(broyden)= 0.75793E-03
  rms(prec ) = 0.12958E-02
  weight for this iteration     100.00

 eigenvalues of (default mixing * dielectric matrix)
  average eigenvalue GAMMA=   1.3460
  2.9313  2.4299  1.7358  1.0726  0.9131  0.9131  0.8144  0.6280  0.6755

 Free energy of the ion-electron system (eV)
  ---------------------------------------------------
  alpha Z        PSCENC =       129.53385374
  Ewald energy   TEWEN  =     -2351.71725729
  -Hartree energ DENC   =     -1146.46881581
  -exchange      EXHF   =         0.00000000
  -V(xc)+E(xc)   XCENC  =      -187.03084797
  PAW double counting   =      3886.11838732    -3485.39551484
  entropy T*S    EENTRO =        -0.00000000
  eigenvalues    EBANDS =      -148.94567860
  atomic energy  EATOM  =      3210.13655998
  Solvation  Ediel_sol  =         0.00000000
  ---------------------------------------------------
  free energy    TOTEN  =       -93.76931347 eV

  energy without entropy =      -93.76931347  energy(sigma->0) =      -93.76931347


--------------------------------------------------------------------------------------------------------




----------------------------------------- Iteration    1(  15)  ---------------------------------------


    POTLOK:  cpu time    0.0080: real time    0.0088
    SETDIJ:  cpu time    0.3600: real time    0.3575
     EDDAV:  cpu time    0.6240: real time    0.6248
       DOS:  cpu time    0.0000: real time    0.0004
    CHARGE:  cpu time    0.0160: real time    0.0168
    MIXING:  cpu time    0.0000: real time    0.0006
    --------------------------------------------
      LOOP:  cpu time    1.0080: real time    1.0120

 eigenvalue-minimisations  :  3264
 total energy-change (2. order) :-0.2509577E-05  (-0.5467575E-06)
 number of electron      55.9999863 magnetization      -0.0000016
 augmentation part        4.5710948 magnetization       0.0000092

 Broyden mixing:
  rms(total) = 0.44070E-03    rms(broyden)= 0.44045E-03
  rms(prec ) = 0.72883E-03
  weight for this iteration     100.00

 eigenvalues of (default mixing * dielectric matrix)
  average eigenvalue GAMMA=   1.3517
  3.0452  2.5251  2.2534  0.9838  0.9838  0.8540  0.8540  0.7274  0.6280  0.6623

 Free energy of the ion-electron system (eV)
  ---------------------------------------------------
  alpha Z        PSCENC =       129.53385374
  Ewald energy   TEWEN  =     -2351.71725729
  -Hartree energ DENC   =     -1146.47535839
  -exchange      EXHF   =         0.00000000
  -V(xc)+E(xc)   XCENC  =      -187.03228628
  PAW double counting   =      3886.47259695    -3485.74946997
  entropy T*S    EENTRO =        -0.00000000
  eigenvalues    EBANDS =      -148.93795473
  atomic energy  EATOM  =      3210.13655998
  Solvation  Ediel_sol  =         0.00000000
  ---------------------------------------------------
  free energy    TOTEN  =       -93.76931598 eV

  energy without entropy =      -93.76931598  energy(sigma->0) =      -93.76931598


--------------------------------------------------------------------------------------------------------




----------------------------------------- Iteration    1(  16)  ---------------------------------------


    POTLOK:  cpu time    0.0080: real time    0.0083
    SETDIJ:  cpu time    0.3600: real time    0.3570
     EDDAV:  cpu time    0.5080: real time    0.5090
       DOS:  cpu time    0.0000: real time    0.0004
    --------------------------------------------
      LOOP:  cpu time    0.8760: real time    0.8776

 eigenvalue-minimisations  :  2340
 total energy-change (2. order) : 0.1513381E-06  (-0.4221776E-07)
 number of electron      55.9999863 magnetization      -0.0000016
 augmentation part        4.5710948 magnetization       0.0000092

 Free energy of the ion-electron system (eV)
  ---------------------------------------------------
  alpha Z        PSCENC =       129.53385374
  Ewald energy   TEWEN  =     -2351.71725729
  -Hartree energ DENC   =     -1146.47762332
  -exchange      EXHF   =         0.00000000
  -V(xc)+E(xc)   XCENC  =      -187.03237020
  PAW double counting   =      3886.59796110    -3485.87476673
  entropy T*S    EENTRO =        -0.00000000
  eigenvalues    EBANDS =      -148.93567311
  atomic energy  EATOM  =      3210.13655998
  Solvation  Ediel_sol  =         0.00000000
  ---------------------------------------------------
  free energy    TOTEN  =       -93.76931583 eV

  energy without entropy =      -93.76931583  energy(sigma->0) =      -93.76931583


--------------------------------------------------------------------------------------------------------




 average (electrostatic) potential at core
  the test charge radii are     1.0714  0.7215
  (the norm of the test charge is              1.0000)
       1 -34.5904       2 -35.5220       3 -35.5259       4 -35.5273       5 -35.5261
       6 -35.5246       7 -35.5182       8 -34.5906       9 -70.0742      10 -70.0735
      11 -70.0733      12 -70.0740      13 -70.0741      14 -70.0744      15 -70.4927
 
 
 
 E-fermi :   2.8022     XC(G=0): -10.4006     alpha+bet :-12.2710


 spin component 1

 k-point     1 :       0.2500    0.2500    0.2500
  band No.  band energies     occupation 
      1     -14.2754      1.00000
      2     -13.4674      1.00000
      3     -13.1067      1.00000
      4     -12.9403      1.00000
      5     -12.9397      1.00000
      6     -12.7686      1.00000
      7     -12.7680      1.00000
      8      -1.4295      1.00000
      9      -1.4285      1.00000
     10      -1.2932      1.00000
     11      -0.9873      1.00000
     12      -0.6684      1.00000
     13      -0.3224      1.00000
     14      -0.3212      1.00000
     15       0.9500      1.00000
     16       1.2225      1.00000
     17       1.2246      1.00000
     18       1.4733      1.00000
     19       1.4755      1.00000
     20       1.6671      1.00000
     21       1.7082      1.00000
     22       1.8779      1.00000
     23       1.8788      1.00000
     24       2.1574      1.00000
     25       2.3718      1.00000
     26       2.3722      1.00000
     27       2.5661      1.00000
     28       2.5680      1.00000
     29       4.3031      0.00000
     30       8.9619      0.00000
     31      10.0037      0.00000
     32      10.5827      0.00000
     33      10.5865      0.00000
     34      11.3760      0.00000
     35      11.6055      0.00000
     36      11.6087      0.00000
     37      12.6096      0.00000
     38      12.6111      0.00000
     39      13.0976      0.00000
     40      13.3661      0.00000
     41      13.5377      0.00000
     42      13.5391      0.00000
     43      15.2514      0.00000
     44      15.2970      0.00000

 k-point     2 :       0.2500    0.0000    0.0000
  band No.  band energies     occupation 
      1     -14.2754      1.00000
      2     -13.4674      1.00000
      3     -13.1067      1.00000
      4     -12.9410      1.00000
      5     -12.9391      1.00000
      6     -12.7693      1.00000
      7     -12.7673      1.00000
      8      -1.4303      1.00000
      9      -1.4276      1.00000
     10      -1.2932      1.00000
     11      -0.9873      1.00000
     12      -0.6682      1.00000
     13      -0.3234      1.00000
     14      -0.3204      1.00000
     15       0.9500      1.00000
     16       1.2206      1.00000
     17       1.2269      1.00000
     18       1.4736      1.00000
     19       1.4753      1.00000
     20       1.6669      1.00000
     21       1.7084      1.00000
     22       1.8762      1.00000
     23       1.8810      1.00000
     24       2.1570      1.00000
     25       2.3712      1.00000
     26       2.3725      1.00000
     27       2.5658      1.00000
     28       2.5679      1.00000
     29       4.3033      0.00000
     30       8.9620      0.00000
     31      10.0038      0.00000
     32      10.5811      0.00000
     33      10.5876      0.00000
     34      11.3761      0.00000
     35      11.6024      0.00000
     36      11.6119      0.00000
     37      12.6099      0.00000
     38      12.6116      0.00000
     39      13.0973      0.00000
     40      13.3664      0.00000
     41      13.5373      0.00000
     42      13.5393      0.00000
     43      15.2514      0.00000
     44      15.2971      0.00000

 k-point     3 :       0.0000    0.0000   -0.2500
  band No.  band energies     occupation 
      1     -14.2754      1.00000
      2     -13.4675      1.00000
      3     -13.1067      1.00000
      4     -12.9407      1.00000
      5     -12.9394      1.00000
      6     -12.7690      1.00000
      7     -12.7676      1.00000
      8      -1.4295      1.00000
      9      -1.4276      1.00000
     10      -1.2938      1.00000
     11      -0.9874      1.00000
     12      -0.6680      1.00000
     13      -0.3230      1.00000
     14      -0.3212      1.00000
     15       0.9492      1.00000
     16       1.2214      1.00000
     17       1.2255      1.00000
     18       1.4731      1.00000
     19       1.4768      1.00000
     20       1.6672      1.00000
     21       1.7082      1.00000
     22       1.8770      1.00000
     23       1.8801      1.00000
     24       2.1570      1.00000
     25       2.3711      1.00000
     26       2.3728      1.00000
     27       2.5666      1.00000
     28       2.5673      1.00000
     29       4.3034      0.00000
     30       8.9619      0.00000
     31      10.0041      0.00000
     32      10.5818      0.00000
     33      10.5857      0.00000
     34      11.3757      0.00000
     35      11.6044      0.00000
     36      11.6106      0.00000
     37      12.6103      0.00000
     38      12.6114      0.00000
     39      13.0974      0.00000
     40      13.3674      0.00000
     41      13.5377      0.00000
     42      13.5388      0.00000
     43      15.2514      0.00000
     44      15.2973      0.00000

 k-point     4 :       0.0000    0.2500    0.0000
  band No.  band energies     occupation 
      1     -14.2754      1.00000
      2     -13.4675      1.00000
      3     -13.1066      1.00000
      4     -12.9404      1.00000
      5     -12.9397      1.00000
      6     -12.7687      1.00000
      7     -12.7679      1.00000
      8      -1.4290      1.00000
      9      -1.4280      1.00000
     10      -1.2939      1.00000
     11      -0.9874      1.00000
     12      -0.6679      1.00000
     13      -0.3226      1.00000
     14      -0.3218      1.00000
     15       0.9492      1.00000
     16       1.2221      1.00000
     17       1.2246      1.00000
     18       1.4732      1.00000
     19       1.4769      1.00000
     20       1.6672      1.00000
     21       1.7081      1.00000
     22       1.8778      1.00000
     23       1.8793      1.00000
     24       2.1570      1.00000
     25       2.3714      1.00000
     26       2.3724      1.00000
     27       2.5665      1.00000
     28       2.5675      1.00000
     29       4.3034      0.00000
     30       8.9620      0.00000
     31      10.0042      0.00000
     32      10.5824      0.00000
     33      10.5850      0.00000
     34      11.3756      0.00000
     35      11.6060      0.00000
     36      11.6091      0.00000
     37      12.6105      0.00000
     38      12.6111      0.00000
     39      13.0975      0.00000
     40      13.3676      0.00000
     41      13.5377      0.00000
     42      13.5388      0.00000
     43      15.2515      0.00000
     44      15.2973      0.00000

 k-point     5 :      -0.2500    0.2500    0.2500
  band No.  band energies     occupation 
      1     -14.1378      1.00000
      2     -13.4224      1.00000
      3     -13.2384      1.00000
      4     -12.9836      1.00000
      5     -12.9614      1.00000
      6     -12.8633      1.00000
      7     -12.7336      1.00000
      8      -0.9812      1.00000
      9      -0.9773      1.00000
     10      -0.8376      1.00000
     11      -0.5013      1.00000
     12      -0.3248      1.00000
     13      -0.1471      1.00000
     14       0.1548      1.00000
     15       0.4095      1.00000
     16       0.6121      1.00000
     17       0.6528      1.00000
     18       1.0226      1.00000
     19       1.2305      1.00000
     20       1.2894      1.00000
     21       1.5422      1.00000
     22       1.5470      1.00000
     23       1.7450      1.00000
     24       1.9204      1.00000
     25       2.0775      1.00000
     26       2.2657      1.00000
     27       2.3216      1.00000
     28       2.4288      1.00000
     29       5.3970      0.00000
     30       8.5477      0.00000
     31       9.4824      0.00000
     32       9.9422      0.00000
     33      11.0507      0.00000
     34      11.9171      0.00000
     35      12.5627      0.00000
     36      12.7975      0.00000
     37      12.8705      0.00000
     38      13.5690      0.00000
     39      13.7386      0.00000
     40      14.3697      0.00000
     41      14.5084      0.00000
     42      14.5130      0.00000
     43      14.7773      0.00000
     44      14.9803      0.00000

 k-point     6 :       0.2500   -0.2500    0.2500
  band No.  band energies     occupation 
      1     -14.1377      1.00000
      2     -13.4226      1.00000
      3     -13.2383      1.00000
      4     -12.9835      1.00000
      5     -12.9613      1.00000
      6     -12.8635      1.00000
      7     -12.7336      1.00000
      8      -0.9797      1.00000
      9      -0.9770      1.00000
     10      -0.8383      1.00000
     11      -0.5017      1.00000
     12      -0.3249      1.00000
     13      -0.1488      1.00000
     14       0.1544      1.00000
     15       0.4104      1.00000
     16       0.6122      1.00000
     17       0.6528      1.00000
     18       1.0233      1.00000
     19       1.2291      1.00000
     20       1.2897      1.00000
     21       1.5423      1.00000
     22       1.5453      1.00000
     23       1.7467      1.00000
     24       1.9204      1.00000
     25       2.0768      1.00000
     26       2.2659      1.00000
     27       2.3214      1.00000
     28       2.4301      1.00000
     29       5.3971      0.00000
     30       8.5471      0.00000
     31       9.4829      0.00000
     32       9.9422      0.00000
     33      11.0510      0.00000
     34      11.9163      0.00000
     35      12.5627      0.00000
     36      12.7975      0.00000
     37      12.8710      0.00000
     38      13.5687      0.00000
     39      13.7373      0.00000
     40      14.3705      0.00000
     41      14.5108      0.00000
     42      14.5139      0.00000
     43      14.7795      0.00000
     44      14.9803      0.00000

 k-point     7 :       0.2500    0.2500   -0.2500
  band No.  band energies     occupation 
      1     -14.1377      1.00000
      2     -13.4223      1.00000
      3     -13.2385      1.00000
      4     -12.9831      1.00000
      5     -12.9619      1.00000
      6     -12.8637      1.00000
      7     -12.7332      1.00000
      8      -0.9801      1.00000
      9      -0.9770      1.00000
     10      -0.8373      1.00000
     11      -0.5019      1.00000
     12      -0.3247      1.00000
     13      -0.1462      1.00000
     14       0.1534      1.00000
     15       0.4077      1.00000
     16       0.6114      1.00000
     17       0.6524      1.00000
     18       1.0213      1.00000
     19       1.2323      1.00000
     20       1.2884      1.00000
     21       1.5431      1.00000
     22       1.5456      1.00000
     23       1.7466      1.00000
     24       1.9196      1.00000
     25       2.0789      1.00000
     26       2.2658      1.00000
     27       2.3230      1.00000
     28       2.4287      1.00000
     29       5.3969      0.00000
     30       8.5481      0.00000
     31       9.4813      0.00000
     32       9.9427      0.00000
     33      11.0499      0.00000
     34      11.9173      0.00000
     35      12.5631      0.00000
     36      12.7976      0.00000
     37      12.8709      0.00000
     38      13.5703      0.00000
     39      13.7379      0.00000
     40      14.3698      0.00000
     41      14.5087      0.00000
     42      14.5116      0.00000
     43      14.7771      0.00000
     44      14.9807      0.00000

 k-point     8 :       0.2500    0.0000    0.5000
  band No.  band energies     occupation 
      1     -14.1377      1.00000
      2     -13.4226      1.00000
      3     -13.2383      1.00000
      4     -12.9835      1.00000
      5     -12.9613      1.00000
      6     -12.8634      1.00000
      7     -12.7336      1.00000
      8      -0.9804      1.00000
      9      -0.9764      1.00000
     10      -0.8383      1.00000
     11      -0.5015      1.00000
     12      -0.3249      1.00000
     13      -0.1485      1.00000
     14       0.1544      1.00000
     15       0.4102      1.00000
     16       0.6120      1.00000
     17       0.6531      1.00000
     18       1.0232      1.00000
     19       1.2291      1.00000
     20       1.2897      1.00000
     21       1.5423      1.00000
     22       1.5454      1.00000
     23       1.7465      1.00000
     24       1.9206      1.00000
     25       2.0772      1.00000
     26       2.2662      1.00000
     27       2.3211      1.00000
     28       2.4297      1.00000
     29       5.3971      0.00000
     30       8.5473      0.00000
     31       9.4828      0.00000
     32       9.9420      0.00000
     33      11.0510      0.00000
     34      11.9165      0.00000
     35      12.5629      0.00000
     36      12.7975      0.00000
     37      12.8708      0.00000
     38      13.5688      0.00000
     39      13.7372      0.00000
     40      14.3706      0.00000
     41      14.5096      0.00000
     42      14.5147      0.00000
     43      14.7793      0.00000
     44      14.9799      0.00000

 k-point     9 :      -0.2500    0.5000    0.5000
  band No.  band energies     occupation 
      1     -14.1377      1.00000
      2     -13.4225      1.00000
      3     -13.2383      1.00000
      4     -12.9835      1.00000
      5     -12.9614      1.00000
      6     -12.8633      1.00000
      7     -12.7337      1.00000
      8      -0.9811      1.00000
      9      -0.9774      1.00000
     10      -0.8378      1.00000
     11      -0.5012      1.00000
     12      -0.3247      1.00000
     13      -0.1473      1.00000
     14       0.1550      1.00000
     15       0.4098      1.00000
     16       0.6119      1.00000
     17       0.6527      1.00000
     18       1.0224      1.00000
     19       1.2297      1.00000
     20       1.2895      1.00000
     21       1.5421      1.00000
     22       1.5470      1.00000
     23       1.7451      1.00000
     24       1.9207      1.00000
     25       2.0776      1.00000
     26       2.2660      1.00000
     27       2.3212      1.00000
     28       2.4292      1.00000
     29       5.3968      0.00000
     30       8.5477      0.00000
     31       9.4825      0.00000
     32       9.9424      0.00000
     33      11.0505      0.00000
     34      11.9172      0.00000
     35      12.5628      0.00000
     36      12.7972      0.00000
     37      12.8703      0.00000
     38      13.5688      0.00000
     39      13.7383      0.00000
     40      14.3700      0.00000
     41      14.5080      0.00000
     42      14.5138      0.00000
     43      14.7772      0.00000
     44      14.9812      0.00000

 k-point    10 :       0.2500    0.5000    0.0000
  band No.  band energies     occupation 
      1     -14.1377      1.00000
      2     -13.4224      1.00000
      3     -13.2384      1.00000
      4     -12.9831      1.00000
      5     -12.9619      1.00000
      6     -12.8637      1.00000
      7     -12.7332      1.00000
      8      -0.9805      1.00000
      9      -0.9764      1.00000
     10      -0.8373      1.00000
     11      -0.5020      1.00000
     12      -0.3246      1.00000
     13      -0.1462      1.00000
     14       0.1531      1.00000
     15       0.4075      1.00000
     16       0.6112      1.00000
     17       0.6526      1.00000
     18       1.0214      1.00000
     19       1.2323      1.00000
     20       1.2885      1.00000
     21       1.5430      1.00000
     22       1.5455      1.00000
     23       1.7467      1.00000
     24       1.9197      1.00000
     25       2.0792      1.00000
     26       2.2660      1.00000
     27       2.3226      1.00000
     28       2.4285      1.00000
     29       5.3969      0.00000
     30       8.5484      0.00000
     31       9.4813      0.00000
     32       9.9424      0.00000
     33      11.0499      0.00000
     34      11.9173      0.00000
     35      12.5632      0.00000
     36      12.7976      0.00000
     37      12.8710      0.00000
     38      13.5703      0.00000
     39      13.7376      0.00000
     40      14.3699      0.00000
     41      14.5077      0.00000
     42      14.5124      0.00000
     43      14.7771      0.00000
     44      14.9806      0.00000

 k-point    11 :       0.0000    0.5000   -0.2500
  band No.  band energies     occupation 
      1     -14.1377      1.00000
      2     -13.4226      1.00000
      3     -13.2384      1.00000
      4     -12.9835      1.00000
      5     -12.9610      1.00000
      6     -12.8635      1.00000
      7     -12.7337      1.00000
      8      -0.9808      1.00000
      9      -0.9763      1.00000
     10      -0.8382      1.00000
     11      -0.5017      1.00000
     12      -0.3249      1.00000
     13      -0.1475      1.00000
     14       0.1538      1.00000
     15       0.4093      1.00000
     16       0.6118      1.00000
     17       0.6533      1.00000
     18       1.0232      1.00000
     19       1.2302      1.00000
     20       1.2898      1.00000
     21       1.5419      1.00000
     22       1.5451      1.00000
     23       1.7472      1.00000
     24       1.9204      1.00000
     25       2.0776      1.00000
     26       2.2657      1.00000
     27       2.3212      1.00000
     28       2.4291      1.00000
     29       5.3970      0.00000
     30       8.5481      0.00000
     31       9.4828      0.00000
     32       9.9408      0.00000
     33      11.0512      0.00000
     34      11.9169      0.00000
     35      12.5630      0.00000
     36      12.7972      0.00000
     37      12.8710      0.00000
     38      13.5692      0.00000
     39      13.7374      0.00000
     40      14.3701      0.00000
     41      14.5093      0.00000
     42      14.5130      0.00000
     43      14.7788      0.00000
     44      14.9798      0.00000

 k-point    12 :       0.5000    0.0000   -0.2500
  band No.  band energies     occupation 
      1     -14.1378      1.00000
      2     -13.4223      1.00000
      3     -13.2385      1.00000
      4     -12.9835      1.00000
      5     -12.9614      1.00000
      6     -12.8634      1.00000
      7     -12.7336      1.00000
      8      -0.9818      1.00000
      9      -0.9767      1.00000
     10      -0.8377      1.00000
     11      -0.5014      1.00000
     12      -0.3246      1.00000
     13      -0.1460      1.00000
     14       0.1540      1.00000
     15       0.4087      1.00000
     16       0.6117      1.00000
     17       0.6530      1.00000
     18       1.0221      1.00000
     19       1.2311      1.00000
     20       1.2892      1.00000
     21       1.5439      1.00000
     22       1.5447      1.00000
     23       1.7459      1.00000
     24       1.9202      1.00000
     25       2.0784      1.00000
     26       2.2657      1.00000
     27       2.3215      1.00000
     28       2.4284      1.00000
     29       5.3969      0.00000
     30       8.5483      0.00000
     31       9.4823      0.00000
     32       9.9415      0.00000
     33      11.0504      0.00000
     34      11.9179      0.00000
     35      12.5632      0.00000
     36      12.7969      0.00000
     37      12.8706      0.00000
     38      13.5696      0.00000
     39      13.7381      0.00000
     40      14.3695      0.00000
     41      14.5071      0.00000
     42      14.5127      0.00000
     43      14.7767      0.00000
     44      14.9798      0.00000

 k-point    13 :       0.5000    0.5000    0.2500
  band No.  band energies     occupation 
      1     -14.1378      1.00000
      2     -13.4221      1.00000
      3     -13.2386      1.00000
      4     -12.9831      1.00000
      5     -12.9619      1.00000
      6     -12.8637      1.00000
      7     -12.7332      1.00000
      8      -0.9799      1.00000
      9      -0.9770      1.00000
     10      -0.8386      1.00000
     11      -0.5014      1.00000
     12      -0.3244      1.00000
     13      -0.1475      1.00000
     14       0.1542      1.00000
     15       0.4105      1.00000
     16       0.6122      1.00000
     17       0.6520      1.00000
     18       1.0215      1.00000
     19       1.2285      1.00000
     20       1.2887      1.00000
     21       1.5431      1.00000
     22       1.5454      1.00000
     23       1.7470      1.00000
     24       1.9203      1.00000
     25       2.0785      1.00000
     26       2.2661      1.00000
     27       2.3209      1.00000
     28       2.4309      1.00000
     29       5.3968      0.00000
     30       8.5467      0.00000
     31       9.4829      0.00000
     32       9.9434      0.00000
     33      11.0495      0.00000
     34      11.9179      0.00000
     35      12.5634      0.00000
     36      12.7963      0.00000
     37      12.8707      0.00000
     38      13.5691      0.00000
     39      13.7362      0.00000
     40      14.3707      0.00000
     41      14.5093      0.00000
     42      14.5144      0.00000
     43      14.7776      0.00000
     44      14.9803      0.00000

 k-point    14 :       0.5000   -0.2500    0.5000
  band No.  band energies     occupation 
      1     -14.1378      1.00000
      2     -13.4224      1.00000
      3     -13.2386      1.00000
      4     -12.9835      1.00000
      5     -12.9613      1.00000
      6     -12.8635      1.00000
[...]
     43      14.7762      0.00000
     44      14.9810      0.00000

 k-point    15 :       0.0000    0.2500    0.5000
  band No.  band energies     occupation 
      1     -14.1377      1.00000
      2     -13.4225      1.00000
      3     -13.2384      1.00000
      4     -12.9835      1.00000
      5     -12.9610      1.00000
      6     -12.8634      1.00000
      7     -12.7336      1.00000
      8      -0.9809      1.00000
      9      -0.9762      1.00000
     10      -0.8383      1.00000
     11      -0.5016      1.00000
     12      -0.3249      1.00000
     13      -0.1474      1.00000
     14       0.1539      1.00000
     15       0.4096      1.00000
     16       0.6119      1.00000
     17       0.6533      1.00000
     18       1.0232      1.00000
     19       1.2301      1.00000
     20       1.2898      1.00000
     21       1.5417      1.00000
     22       1.5454      1.00000
     23       1.7473      1.00000
     24       1.9204      1.00000
     25       2.0776      1.00000
     26       2.2658      1.00000
     27       2.3213      1.00000
     28       2.4290      1.00000
     29       5.3963      0.00000
     30       8.5477      0.00000
     31       9.4827      0.00000
     32       9.9406      0.00000
     33      11.0511      0.00000
     34      11.9170      0.00000
     35      12.5630      0.00000
     36      12.7971      0.00000
     37      12.8710      0.00000
     38      13.5692      0.00000
     39      13.7373      0.00000
     40      14.3701      0.00000
     41      14.5097      0.00000
     42      14.5128      0.00000
     43      14.7789      0.00000
     44      14.9793      0.00000

 k-point    16 :       0.5000    0.2500    0.0000
  band No.  band energies     occupation 
      1     -14.1377      1.00000
      2     -13.4220      1.00000
      3     -13.2386      1.00000
      4     -12.9831      1.00000
      5     -12.9619      1.00000
      6     -12.8636      1.00000
      7     -12.7331      1.00000
      8      -0.9803      1.00000
      9      -0.9764      1.00000
     10      -0.8387      1.00000
     11      -0.5015      1.00000
     12      -0.3244      1.00000
     13      -0.1476      1.00000
     14       0.1539      1.00000
     15       0.4107      1.00000
     16       0.6123      1.00000
     17       0.6523      1.00000
     18       1.0219      1.00000
     19       1.2284      1.00000
     20       1.2888      1.00000
     21       1.5429      1.00000
     22       1.5454      1.00000
     23       1.7471      1.00000
     24       1.9202      1.00000
     25       2.0784      1.00000
     26       2.2661      1.00000
     27       2.3208      1.00000
     28       2.4307      1.00000
     29       5.3963      0.00000
     30       8.5464      0.00000
     31       9.4829      0.00000
     32       9.9429      0.00000
     33      11.0497      0.00000
     34      11.9178      0.00000
     35      12.5634      0.00000
     36      12.7963      0.00000
     37      12.8708      0.00000
     38      13.5692      0.00000
     39      13.7361      0.00000
     40      14.3706      0.00000
     41      14.5093      0.00000
     42      14.5146      0.00000
     43      14.7781      0.00000
     44      14.9793      0.00000


--------------------------------------------------------------------------------------------------------


 soft charge-density along one line, spin component           1
         0         1         2         3         4         5         6         7         8         9
 total charge-density along one line
 
 soft charge-density along one line, spin component           2
         0         1         2         3         4         5         6         7         8         9
 total charge-density along one line
 
 pseudopotential strength for first ion, spin component:           1
  2.966   9.411   0.000   0.000  -0.000   0.000   0.000   0.000
  9.411  29.712   0.000   0.000   0.000   0.000   0.000   0.000
  0.000   0.000   7.320  -0.000   0.000  10.575  -0.000   0.000
  0.000   0.000  -0.000   7.320   0.000  -0.000  10.575   0.000
 -0.000   0.000   0.000   0.000   7.320   0.000   0.000  10.575
  0.000   0.000  10.575  -0.000   0.000  14.506  -0.000   0.000
  0.000   0.000  -0.000  10.575   0.000  -0.000  14.506   0.000
  0.000   0.000   0.000   0.000  10.575   0.000   0.000  14.506
  0.000   0.000   0.000  -0.000   0.000   0.000  -0.000   0.000
 -0.000  -0.000   0.000   0.000  -0.000   0.000   0.000  -0.000
  0.000   0.000  -0.000   0.000  -0.000  -0.000   0.000  -0.000
  0.000   0.000  -0.000   0.000   0.000  -0.000   0.000   0.000
  0.000   0.000  -0.000   0.000   0.000  -0.000   0.000   0.000
 pseudopotential strength for first ion, spin component:           2
  2.966   9.411   0.000   0.000  -0.000   0.000   0.000   0.000
  9.411  29.712   0.000   0.000   0.000   0.000   0.000   0.000
  0.000   0.000   7.320  -0.000   0.000  10.575  -0.000   0.000
  0.000   0.000  -0.000   7.320   0.000  -0.000  10.575   0.000
 -0.000   0.000   0.000   0.000   7.320   0.000   0.000  10.575
  0.000   0.000  10.575  -0.000   0.000  14.506  -0.000   0.000
  0.000   0.000  -0.000  10.575   0.000  -0.000  14.506   0.000
  0.000   0.000   0.000   0.000  10.575   0.000   0.000  14.506
  0.000   0.000   0.000  -0.000   0.000   0.000  -0.000   0.000
 -0.000  -0.000   0.000   0.000  -0.000   0.000   0.000  -0.000
  0.000   0.000  -0.000   0.000  -0.000  -0.000   0.000  -0.000
  0.000   0.000  -0.000   0.000   0.000  -0.000   0.000   0.000
  0.000   0.000  -0.000   0.000   0.000  -0.000   0.000   0.000
 total augmentation occupancy for first ion, spin component:           1
  0.939  -0.045  -0.000  -0.000  -0.001   0.000   0.000   0.000  -0.000   0.000   0.000  -0.000  -0.000
 -0.045   0.002   0.000   0.000   0.000  -0.000  -0.000  -0.000   0.000  -0.000  -0.000   0.000   0.000
 -0.000   0.000   0.108   0.000  -0.000  -0.012  -0.000   0.000   0.000   0.000   0.000  -0.000   0.000
 -0.000   0.000   0.000   0.108  -0.000  -0.000  -0.012   0.000  -0.000  -0.000  -0.000   0.000  -0.000
 -0.001   0.000  -0.000  -0.000   0.108   0.000   0.000  -0.012   0.000  -0.000   0.000  -0.000  -0.000
  0.000  -0.000  -0.012  -0.000   0.000   0.001   0.000  -0.000  -0.000  -0.000  -0.000   0.000  -0.000
  0.000  -0.000  -0.000  -0.012   0.000   0.000   0.001  -0.000   0.000   0.000   0.000  -0.000   0.000
  0.000  -0.000   0.000   0.000  -0.012  -0.000  -0.000   0.001  -0.000   0.000  -0.000   0.000   0.000
 -0.000   0.000   0.000  -0.000   0.000  -0.000   0.000  -0.000   0.011  -0.000   0.000  -0.000  -0.000
  0.000  -0.000   0.000  -0.000  -0.000  -0.000   0.000   0.000  -0.000   0.011  -0.000  -0.000  -0.000
  0.000  -0.000   0.000  -0.000   0.000  -0.000   0.000  -0.000   0.000  -0.000   0.046  -0.000   0.000
 -0.000   0.000  -0.000   0.000  -0.000   0.000  -0.000   0.000  -0.000  -0.000  -0.000   0.011   0.000
 -0.000   0.000   0.000  -0.000  -0.000  -0.000   0.000   0.000  -0.000  -0.000   0.000   0.000   0.046
 total augmentation occupancy for first ion, spin component:           2
  0.000   0.000  -0.000  -0.000  -0.000   0.000   0.000   0.000  -0.000   0.000   0.000   0.000   0.000
  0.000  -0.000   0.000   0.000   0.000  -0.000  -0.000  -0.000  -0.000  -0.000  -0.000  -0.000  -0.000
 -0.000   0.000   0.000   0.000   0.000   0.000  -0.000  -0.000  -0.000  -0.000   0.000   0.000   0.000
 -0.000   0.000   0.000   0.000   0.000  -0.000   0.000  -0.000   0.000   0.000   0.000   0.000   0.000
 -0.000   0.000   0.000   0.000   0.000  -0.000  -0.000   0.000  -0.000   0.000   0.000   0.000  -0.000
  0.000  -0.000   0.000  -0.000  -0.000  -0.000  -0.000   0.000   0.000   0.000  -0.000  -0.000   0.000
  0.000  -0.000  -0.000   0.000  -0.000  -0.000  -0.000   0.000  -0.000  -0.000  -0.000  -0.000  -0.000
  0.000  -0.000  -0.000  -0.000   0.000   0.000   0.000  -0.000   0.000  -0.000  -0.000  -0.000   0.000
 -0.000  -0.000  -0.000   0.000  -0.000   0.000  -0.000   0.000   0.000   0.000   0.000   0.000   0.000
  0.000  -0.000  -0.000   0.000   0.000   0.000  -0.000  -0.000   0.000   0.000  -0.000  -0.000   0.000
  0.000  -0.000   0.000   0.000   0.000  -0.000  -0.000  -0.000   0.000  -0.000  -0.000   0.000  -0.000
  0.000  -0.000   0.000   0.000   0.000  -0.000  -0.000  -0.000   0.000  -0.000   0.000   0.000  -0.000
  0.000  -0.000   0.000   0.000  -0.000   0.000  -0.000   0.000   0.000   0.000  -0.000  -0.000  -0.000


------------------------ aborting loop because EDIFF is reached ----------------------------------------


 


 total charge     
 
# of ion     s       p       d       tot
----------------------------------------
  1        0.136   0.161   0.069   0.365
  2        0.145   0.161   0.067   0.373
  3        0.145   0.161   0.066   0.373
  4        0.145   0.161   0.066   0.372
  5        0.145   0.161   0.066   0.373
  6        0.145   0.161   0.066   0.373
  7        0.145   0.162   0.067   0.374
  8        0.136   0.160   0.069   0.365
  9        1.568   3.503   0.000   5.070
 10        1.568   3.502   0.000   5.070
 11        1.568   3.502   0.000   5.070
 12        1.568   3.502   0.000   5.070
 13        1.568   3.502   0.000   5.070
 14        1.568   3.503   0.000   5.070
 15        1.569   3.630   0.000   5.200
------------------------------------------------
tot       12.117  25.933   0.537  38.588
 


 magnetization (x)
 
# of ion     s       p       d       tot
----------------------------------------
  1        0.000   0.000   0.000   0.000
  2       -0.000  -0.000  -0.000  -0.000
  3       -0.000  -0.000  -0.000  -0.000
  4       -0.000  -0.000  -0.000  -0.000
  5       -0.000  -0.000  -0.000  -0.000
  6       -0.000  -0.000  -0.000  -0.000
  7       -0.000  -0.000  -0.000  -0.000
  8        0.000   0.000   0.000   0.000
  9        0.000   0.000   0.000   0.000
 10        0.000   0.000   0.000   0.000
 11        0.000   0.000   0.000   0.000
 12        0.000   0.000   0.000   0.000
 13        0.000   0.000   0.000   0.000
 14        0.000   0.000   0.000   0.000
 15        0.000   0.000   0.000   0.000
------------------------------------------------
tot       -0.000   0.000  -0.000   0.000
 
    CHARGE:  cpu time    0.0160: real time    0.0165
    FORLOC:  cpu time    0.0000: real time    0.0006
    FORNL :  cpu time    0.1080: real time    0.1082
    STRESS:  cpu time    0.3200: real time    0.3183
    FORCOR:  cpu time    0.0080: real time    0.0082
    FORHAR:  cpu time    0.0000: real time    0.0014
    MIXING:  cpu time    0.0000: real time    0.0006
    OFIELD:  cpu time    0.0000: real time    0.0000

  FORCE on cell =-STRESS in cart. coord.  units (eV):
  Direction    XX          YY          ZZ          XY          YZ          ZX
  --------------------------------------------------------------------------------------
  Alpha Z   129.53385   129.53385   129.53385
  Ewald    -784.15901  -784.02873  -783.53448    -0.01359    -0.07689    -0.00830
  Hartree   382.14259   382.14890   382.17440    -0.00435    -0.00976    -0.00341
  E(xc)    -253.01759  -253.01927  -253.02566    -0.00110    -0.00081    -0.00110
  Local    -394.06024  -394.18903  -394.67846     0.02577     0.09531     0.01980
  n-local  -126.34618  -126.33706  -126.29792     0.00289     0.00014     0.00238
  augment    47.21567    47.21537    47.21342     0.00116     0.00176     0.00107
  Kinetic   983.07348   983.07207   983.06554     0.00997     0.01966     0.00892
  Fock        0.00000     0.00000     0.00000     0.00000     0.00000     0.00000
  -------------------------------------------------------------------------------------
  Total     -15.61743   -15.60391   -15.54931     0.02077     0.02941     0.01938
  in kB    -163.33388  -163.19242  -162.62147     0.21719     0.30756     0.20268
  external pressure =     -163.05 kB  Pullay stress =        0.00 kB


 VOLUME and BASIS-vectors are now :
 -----------------------------------------------------------------------------
  energy-cutoff  :      400.00
  volume of cell :      153.19
      direct lattice vectors                 reciprocal lattice vectors
     0.000000000  4.246893000  4.246893000    -0.117733129  0.117733129  0.117733129
     4.246893000  0.000000000  4.246893000     0.117733129 -0.117733129  0.117733129
     4.246893000  4.246893000  0.000000000     0.117733129  0.117733129 -0.117733129

  length of vectors
     6.006013679  6.006013679  6.006013679     0.203919761  0.203919761  0.203919761


 FORCES acting on ions
    electron-ion (+dipol)            ewald-force                    non-local-force                 convergence-correction
 -----------------------------------------------------------------------------------------------
   -.597E-01 -.278E-01 -.131E-01   0.489E-01 0.230E-01 0.975E-02   0.217E-01 0.445E-02 0.605E-03   0.184E-05 -.121E-06 0.117E-05
   -.171E+00 0.125E+00 -.375E+02   0.146E+00 -.106E+00 0.349E+02   0.336E-01 -.308E-01 0.270E+01   -.793E-06 -.147E-05 0.159E-03
   0.339E-01 -.376E+02 -.238E+00   -.270E-01 0.349E+02 0.210E+00   -.242E-02 0.268E+01 0.565E-01   -.116E-05 0.158E-03 -.271E-05
   0.376E+02 -.912E-02 -.127E+00   -.349E+02 0.911E-02 0.109E+00   -.267E+01 0.699E-02 0.254E-01   -.156E-03 -.598E-06 -.168E-05
   -.375E+02 0.201E-01 -.108E+00   0.349E+02 -.153E-01 0.930E-01   0.267E+01 -.111E-02 0.200E-01   0.158E-03 -.975E-06 -.819E-06
   0.883E-01 0.376E+02 0.351E+00   -.743E-01 -.349E+02 -.299E+00   -.154E-01 -.268E+01 -.742E-01   -.628E-06 -.157E-03 0.582E-06
   -.136E+00 -.294E+00 0.376E+02   0.116E+00 0.250E+00 -.349E+02   0.287E-01 0.681E-01 -.271E+01   -.156E-05 -.166E-06 -.157E-03
   0.423E-01 -.161E-01 0.824E-04   -.366E-01 0.126E-01 -.120E-02   -.118E-01 0.210E-02 -.342E-02   -.151E-06 0.688E-06 0.745E-06
   0.169E-01 0.135E+00 -.875E-02   -.525E-02 -.124E+00 0.131E-01   -.297E-02 -.104E-01 -.605E-02   -.103E-04 0.877E-05 -.258E-04
   -.104E+00 0.833E-02 -.138E+00   0.593E-01 -.110E-01 0.111E+00   0.319E-01 0.342E-03 0.215E-01   0.249E-04 -.412E-05 0.220E-04
   -.132E-01 0.406E-02 0.201E+00   0.468E-02 -.443E-01 -.196E+00   0.753E-02 0.277E-01 -.249E-02   0.348E-05 0.357E-04 0.272E-04
   -.160E-01 0.263E-01 0.411E-02   0.641E-02 -.117E-01 -.225E-01   0.802E-02 -.124E-01 0.234E-01   -.151E-04 -.936E-05 0.370E-05
   0.192E+00 0.199E-01 0.985E-01   -.171E+00 -.220E-01 -.917E-01   -.306E-01 -.115E-02 -.118E-01   0.264E-04 0.128E-04 0.229E-04
   0.542E-01 -.201E-01 0.681E-02   -.707E-01 -.103E-01 -.252E-02   0.165E-01 0.296E-01 -.668E-02   0.474E-04 0.177E-04 0.696E-06
   -.310E-01 -.635E-01 -.127E+00   0.279E-01 0.620E-01 0.138E+00   0.158E-02 0.166E-02 0.265E-02   -.839E-05 -.358E-04 -.355E-04
 -----------------------------------------------------------------------------------------------
   -.773E-01 -.788E-01 -.219E-01   -.405E-14 0.148E-14 0.847E-14   0.874E-01 0.851E-01 0.296E-01   0.678E-04 0.241E-04 0.141E-04
 
 
 POSITION                                       TOTAL-FORCE (eV/Angst)
 -----------------------------------------------------------------------------------
      0.00074      0.00557      0.00486         0.010253     -0.000846     -0.003286
      6.37235      6.37992      8.36089         0.007927     -0.011432      0.024513
      6.37161      8.36436      6.36929         0.003756      0.003731      0.027653
      4.38356      6.37544      6.37527         0.003562      0.006560      0.006937
      8.36152      6.37599      6.37562        -0.001714      0.003205      0.004098
      6.37260      4.38788      6.38011        -0.002068     -0.005102     -0.022672
      6.37298      6.37212      4.39009         0.008150      0.023999     -0.035950
      4.25023      4.25275      4.25209        -0.006701     -0.001825     -0.005049
      4.24693      4.25115      2.12858         0.007981      0.000657     -0.002203
      4.25309      2.12966      4.25462        -0.013582     -0.002711     -0.005471
      6.37282      4.25587      4.24976        -0.001689     -0.012923      0.002173
      2.12602      4.25167      4.25110        -0.002241      0.001781      0.004445
      4.24942      6.37661      4.25227        -0.010848     -0.003633     -0.005472
      4.24899      4.25347      6.37559        -0.000601     -0.001180     -0.002892
      6.37277      6.37626      6.37468        -0.002186     -0.000280      0.013175
 -----------------------------------------------------------------------------------
    total drift:                                0.010110      0.006279      0.007686


--------------------------------------------------------------------------------------------------------



  FREE ENERGIE OF THE ION-ELECTRON SYSTEM (eV)
  ---------------------------------------------------
  free  energy   TOTEN  =       -93.76931583 eV

  energy  without entropy=      -93.76931583  energy(sigma->0) =      -93.76931583
 


--------------------------------------------------------------------------------------------------------


    POTLOK:  cpu time    0.3720: real time    0.3708


--------------------------------------------------------------------------------------------------------




--------------------------------------------------------------------------------------------------------


  
 reached required accuracy - stopping structural energy minimisation
     LOOP+:  cpu time   15.9800: real time   16.0690
    4ORBIT:  cpu time    0.0000: real time    0.0000
 


 total charge     
 
# of ion     s       p       d       tot
----------------------------------------
  1        0.136   0.161   0.069   0.365
  2        0.145   0.161   0.067   0.373
  3        0.145   0.161   0.066   0.373
  4        0.145   0.161   0.066   0.372
  5        0.145   0.161   0.066   0.373
  6        0.145   0.161   0.066   0.373
  7        0.145   0.162   0.067   0.374
  8        0.136   0.160   0.069   0.365
  9        1.568   3.503   0.000   5.070
 10        1.568   3.502   0.000   5.070
 11        1.568   3.502   0.000   5.070
 12        1.568   3.502   0.000   5.070
 13        1.568   3.502   0.000   5.070
 14        1.568   3.503   0.000   5.070
 15        1.569   3.630   0.000   5.200
------------------------------------------------
tot       12.117  25.933   0.537  38.588
 


 magnetization (x)
 
# of ion     s       p       d       tot
----------------------------------------
  1        0.000   0.000   0.000   0.000
  2       -0.000  -0.000  -0.000  -0.000
  3       -0.000  -0.000  -0.000  -0.000
  4       -0.000  -0.000  -0.000  -0.000
  5       -0.000  -0.000  -0.000  -0.000
  6       -0.000  -0.000  -0.000  -0.000
  7       -0.000  -0.000  -0.000  -0.000
  8        0.000   0.000   0.000   0.000
  9        0.000   0.000   0.000   0.000
 10        0.000   0.000   0.000   0.000
 11        0.000   0.000   0.000   0.000
 12        0.000   0.000   0.000   0.000
 13        0.000   0.000   0.000   0.000
 14        0.000   0.000   0.000   0.000
 15        0.000   0.000   0.000   0.000
------------------------------------------------
tot       -0.000   0.000  -0.000   0.000
 

 total amount of memory used by VASP on root node    34047. kBytes
========================================================================

   base      :      30000. kBytes
   nonlr-proj:        865. kBytes
   fftplans  :        353. kBytes
   grid      :        883. kBytes
   one-center:         32. kBytes
   wavefun   :       1914. kBytes
 
  
  
 General timing and accounting informations for this job:
 ========================================================
  
                  Total CPU time used (sec):       17.228
                            User time (sec):       16.992
                          System time (sec):        0.236
                         Elapsed time (sec):       17.608
  
                   Maximum memory used (kb):       79056.
                   Average memory used (kb):           0.
  
                          Minor page faults:        14000
                          Major page faults:           10
                 Voluntary context switches:         2112
