 vasp.5.4.1 05Feb16 (build Mar 31 2016 13:39:20) complex                        
  
 executed on           IFC91_ompi date 2018.04.28  12:52:11
 running on   16 total cores
 distrk:  each k-point on   16 cores,    1 groups
 distr:  one band on NCORES_PER_BAND=   4 cores,    4 groups


--------------------------------------------------------------------------------------------------------


 INCAR:
 POTCAR:    PAW_PBE Mg 13Apr2007                  
 POTCAR:    PAW_PBE O 08Apr2002                   
 POTCAR:    PAW_PBE Mg 13Apr2007                  
   VRHFIN =Mg: s2p0                                                             
   LEXCH  = PE                                                                  
   EATOM  =    23.0369 eV,    1.6932 Ry                                         
                                                                                
   TITEL  = PAW_PBE Mg 13Apr2007                                                
   LULTRA =        F    use ultrasoft PP ?                                      
   IUNSCR =        1    unscreen: 0-lin 1-nonlin 2-no                           
   RPACOR =    1.500    partial core radius                                     
   POMASS =   24.305; ZVAL   =    2.000    mass and valenz                      
   RCORE  =    2.000    outmost cutoff radius                                   
   RWIGS  =    2.880; RWIGS  =    1.524    wigner-seitz radius (au A)           
   ENMAX  =  126.143; ENMIN  =   94.607 eV                                      
   RCLOC  =    1.506    cutoff for local pot                                    
   LCOR   =        T    correct aug charges                                     
   LPAW   =        T    paw PP                                                  
   EAUG   =  454.734                                                            
   DEXC   =    0.000                                                            
   RMAX   =    2.045    core radius for proj-oper                               
   RAUG   =    1.300    factor for augmentation sphere                          
   RDEP   =    2.025    radius for radial grids                                 
   RDEPT  =    1.942    core radius for aug-charge                              
                                                                                
   Atomic configuration                                                         
    6 entries                                                                   
     n  l   j            E        occ.                                          
     1  0  0.50     -1259.6230   2.0000                                         
     2  0  0.50       -79.8442   2.0000                                         
     2  1  1.50       -46.6121   6.0000                                         
     3  0  0.50        -4.7055   2.0000                                         
     3  1  0.50        -1.3660   0.0000                                         
     3  2  1.50        -1.3606   0.0000                                         
   Description                                                                  
     l       E           TYP  RCUT    TYP  RCUT                                 
     0     -4.7054661     23  2.000                                             
     0     27.2116520     23  2.000                                             
     1      1.3605826     23  2.000                                             
     1     27.2116520     23  2.000                                             
     2     -1.3605826     23  2.000                                             
  local pseudopotential read in
  partial core-charges read in
  partial kinetic energy density read in
  atomic valenz-charges read in
  non local Contribution for L=           0  read in
    real space projection operators read in
  non local Contribution for L=           0  read in
    real space projection operators read in
  non local Contribution for L=           1  read in
    real space projection operators read in
  non local Contribution for L=           1  read in
    real space projection operators read in
  non local Contribution for L=           2  read in
    real space projection operators read in
    PAW grid and wavefunctions read in
 
   number of l-projection  operators is LMAX  =           5
   number of lm-projection operators is LMMAX =          13
 
 POTCAR:    PAW_PBE O 08Apr2002                   
   VRHFIN =O: s2p4                                                              
   LEXCH  = PE                                                                  
   EATOM  =   432.3788 eV,   31.7789 Ry                                         
                                                                                
   TITEL  = PAW_PBE O 08Apr2002                                                 
   LULTRA =        F    use ultrasoft PP ?                                      
   IUNSCR =        1    unscreen: 0-lin 1-nonlin 2-no                           
   RPACOR =    1.200    partial core radius                                     
   POMASS =   16.000; ZVAL   =    6.000    mass and valenz                      
   RCORE  =    1.520    outmost cutoff radius                                   
   RWIGS  =    1.550; RWIGS  =    0.820    wigner-seitz radius (au A)           
   ENMAX  =  400.000; ENMIN  =  300.000 eV                                      
   ICORE  =        2    local potential                                         
   LCOR   =        T    correct aug charges                                     
   LPAW   =        T    paw PP                                                  
   EAUG   =  605.392                                                            
   DEXC   =    0.000                                                            
   RMAX   =    1.553    core radius for proj-oper                               
   RAUG   =    1.300    factor for augmentation sphere                          
   RDEP   =    1.550    radius for radial grids                                 
   RDEPT  =    1.329    core radius for aug-charge                              
                                                                                
   Atomic configuration                                                         
    4 entries                                                                   
     n  l   j            E        occ.                                          
     1  0  0.50      -514.6923   2.0000                                         
     2  0  0.50       -23.9615   2.0000                                         
     2  1  0.50        -9.0305   4.0000                                         
     3  2  1.50        -9.5241   0.0000                                         
   Description                                                                  
     l       E           TYP  RCUT    TYP  RCUT                                 
     0    -23.9615318     23  1.200                                             
     0     -9.5240782     23  1.200                                             
     1     -9.0304911     23  1.520                                             
     1      8.1634956     23  1.520                                             
     2     -9.5240782      7  1.500                                             
  local pseudopotential read in
  partial core-charges read in
  partial kinetic energy density read in
  kinetic energy density of atom read in
  atomic valenz-charges read in
  non local Contribution for L=           0  read in
    real space projection operators read in
  non local Contribution for L=           0  read in
    real space projection operators read in
  non local Contribution for L=           1  read in
    real space projection operators read in
  non local Contribution for L=           1  read in
    real space projection operators read in
    PAW grid and wavefunctions read in
 
   number of l-projection  operators is LMAX  =           4
   number of lm-projection operators is LMMAX =           8
 
 Optimization of the real space projectors (new method)

 maximal supplied QI-value         = 18.90
 optimisation between [QCUT,QGAM] = [ 10.20, 20.41] = [ 29.16,116.64] Ry 
 Optimized for a Real-space Cutoff    1.30 Angstroem

   l    n(q)    QCUT    max X(q) W(low)/X(q) W(high)/X(q)  e(spline) 
   0      8    10.205    28.265    0.22E-03    0.17E-03    0.53E-07
   0      8    10.205    10.429    0.17E-03    0.15E-03    0.43E-07
   1      7    10.205    13.073    0.71E-04    0.41E-03    0.76E-07
   1      7    10.205     9.625    0.71E-04    0.33E-03    0.63E-07
   2      7    10.205     4.652    0.24E-03    0.41E-03    0.55E-07
 Optimization of the real space projectors (new method)

 maximal supplied QI-value         = 24.76
 optimisation between [QCUT,QGAM] = [ 10.15, 20.30] = [ 28.85,115.39] Ry 
 Optimized for a Real-space Cutoff    1.38 Angstroem

   l    n(q)    QCUT    max X(q) W(low)/X(q) W(high)/X(q)  e(spline) 
   0      8    10.150    20.381    0.22E-03    0.32E-03    0.29E-06
   0      8    10.150    15.268    0.23E-03    0.35E-03    0.30E-06
   1      8    10.150     5.964    0.46E-03    0.53E-03    0.21E-06
   1      8    10.150     5.382    0.38E-03    0.45E-03    0.19E-06
  PAW_PBE Mg 13Apr2007                  :
 energy of atom  1       EATOM=  -23.0369
 kinetic energy error for atom=    0.0001 (will be added to EATOM!!)
  PAW_PBE O 08Apr2002                   :
 energy of atom  2       EATOM= -432.3788
 kinetic energy error for atom=    0.1156 (will be added to EATOM!!)
 
 
 POSCAR: Mg8 O7                                  
  positions in direct lattice
  velocities in cartesian coordinates
 exchange correlation table for  LEXCH =        8
   RHO(1)=    0.500       N(1)  =     2000
   RHO(2)=  100.500       N(2)  =     4000
 


--------------------------------------------------------------------------------------------------------


 ion  position               nearest neighbor table
   1  0.001  1.000  0.000-  11 2.12  13 2.12  14 2.12   9 2.12  10 2.12  12 2.13   2 3.00   7 3.00
                             3 3.00   6 3.00   5 3.01   4 3.01   5 3.01   4 3.01   6 3.01   3 3.01
   2  0.985  0.983  0.517-  15 1.98  10 2.12  11 2.13  13 2.13  12 2.13   6 2.81   5 2.81   4 2.81
                             3 2.81   1 3.00   8 3.00   8 3.01   1 3.01   3 3.20   4 3.20   5 3.20
   3  0.984  0.516  0.985-  15 1.99  12 2.12  14 2.13   9 2.13  11 2.13   7 2.80   2 2.81   4 2.81
                             5 2.81   1 3.00   8 3.00   8 3.01   1 3.01   5 3.20   4 3.20   2 3.20
   4  0.985  0.516  0.516-  15 1.99  14 2.13   9 2.13  13 2.13  10 2.13   7 2.81   2 2.81   6 2.81
                             3 2.81   8 3.01   1 3.01   1 3.01   8 3.01   3 3.20   6 3.20   2 3.20
   5  0.517  0.984  0.984-  15 1.99  10 2.13  13 2.13  14 2.13   9 2.13   7 2.81   2 2.81   6 2.81
                             3 2.81   1 3.01   8 3.01   8 3.01   1 3.01   3 3.20   6 3.20   2 3.20
   6  0.518  0.985  0.516-  15 1.99  12 2.12   9 2.13  14 2.13  11 2.13   2 2.81   7 2.81   4 2.81
                             5 2.81   8 3.00   1 3.00   1 3.01   8 3.01   5 3.20   4 3.20   7 3.20
   7  0.517  0.517  0.983-  15 1.98  11 2.12  13 2.13  12 2.13  10 2.13   3 2.80   5 2.81   4 2.81
                             6 2.81   1 3.00   8 3.00   8 3.01   1 3.01   6 3.20   4 3.20   5 3.20
   8  0.501  0.500  0.500-  11 2.12  10 2.12  14 2.12   9 2.12  13 2.12  12 2.12   2 3.00   7 3.00
                             3 3.00   6 3.00   4 3.01   5 3.01   5 3.01   4 3.01   6 3.01   3 3.01
   9  0.251  0.250  0.750-   8 2.12   1 2.12   6 2.13   4 2.13   5 2.13   3 2.13
  10  0.251  0.751  0.251-   8 2.12   1 2.12   2 2.12   5 2.13   4 2.13   7 2.13
  11  0.251  0.750  0.751-   1 2.12   7 2.12   8 2.12   2 2.13   3 2.13   6 2.13
  12  0.751  0.250  0.250-   6 2.12   3 2.12   8 2.12   1 2.13   7 2.13   2 2.13
  13  0.751  0.250  0.750-   1 2.12   8 2.12   4 2.13   5 2.13   7 2.13   2 2.13
  14  0.751  0.750  0.250-   1 2.12   8 2.12   4 2.13   6 2.13   3 2.13   5 2.13
  15  0.751  0.750  0.750-   7 1.98   2 1.98   6 1.99   3 1.99   5 1.99   4 1.99
 
  LATTYP: Found a face centered cubic cell.
 ALAT       =     8.4937860000
  
  Lattice vectors:
  
 A1 = (   0.0000000000,   4.2468930000,   4.2468930000)
 A2 = (   4.2468930000,   0.0000000000,   4.2468930000)
 A3 = (   4.2468930000,   4.2468930000,   0.0000000000)


Analysis of symmetry for initial positions (statically):
=====================================================================
 Subroutine PRICEL returns:
 Original cell was already a primitive cell.
 

 Routine SETGRP: Setting up the symmetry group for a 
 face centered cubic supercell.


 Subroutine GETGRP returns: Found  1 space group operations
 (whereof  1 operations were pure point group operations)
 out of a pool of 48 trial point group operations.


The static configuration has the point symmetry C_1 .


Analysis of symmetry for dynamics (positions and initial velocities):
=====================================================================
 Subroutine PRICEL returns:
 Original cell was already a primitive cell.
 

 Routine SETGRP: Setting up the symmetry group for a 
 face centered cubic supercell.


 Subroutine GETGRP returns: Found  1 space group operations
 (whereof  1 operations were pure point group operations)
 out of a pool of 48 trial point group operations.


The dynamic configuration has the point symmetry C_1 .


Analysis of structural, dynamic, and magnetic symmetry:
=====================================================================
 Subroutine PRICEL returns:
 Original cell was already a primitive cell.
 

 Routine SETGRP: Setting up the symmetry group for a 
 face centered cubic supercell.


 Subroutine GETGRP returns: Found  1 space group operations
 (whereof  1 operations were pure point group operations)
 out of a pool of 48 trial point group operations.


The magnetic configuration has the point symmetry C_1 .


 Subroutine INISYM returns: Found  1 space group operations
 (whereof  1 operations are pure point group operations),
 and found     1 'primitive' translations

 
 
 KPOINTS: k-point mesh                            

Automatic generation of k-mesh.
Space group operators:
 irot       det(A)        alpha          n_x          n_y          n_z        tau_x        tau_y        tau_z
    1     1.000000     0.000000     1.000000     0.000000     0.000000     0.000000     0.000000     0.000000
 
 Subroutine IBZKPT returns following result:
 ===========================================
 
 Found      8 irreducible k-points:
 
 Following reciprocal coordinates:
            Coordinates               Weight
  0.000000  0.000000  0.000000      1.000000
  0.500000  0.000000  0.000000      1.000000
  0.000000  0.500000  0.000000      1.000000
  0.500000  0.500000  0.000000      1.000000
  0.000000  0.000000  0.500000      1.000000
  0.500000  0.000000  0.500000      1.000000
  0.000000  0.500000  0.500000      1.000000
  0.500000  0.500000  0.500000      1.000000
 
 Following cartesian coordinates:
            Coordinates               Weight
  0.000000  0.000000  0.000000      1.000000
 -0.058867  0.058867  0.058867      1.000000
  0.058867 -0.058867  0.058867      1.000000
  0.000000  0.000000  0.117733      1.000000
  0.058867  0.058867 -0.058867      1.000000
  0.000000  0.117733  0.000000      1.000000
  0.117733  0.000000  0.000000      1.000000
  0.058867  0.058867  0.058867      1.000000
 


--------------------------------------------------------------------------------------------------------




 Dimension of arrays:
   k-points           NKPTS =      8   k-points in BZ     NKDIM =      8   number of bands    NBANDS=     44
   number of dos      NEDOS =    301   number of ions     NIONS =     15
   non local maximal  LDIM  =      5   non local SUM 2l+1 LMDIM =     13
   total plane-waves  NPLWV =  27000
   max r-space proj   IRMAX =   1992   max aug-charges    IRDMAX=   7686
   dimension x,y,z NGX =    30 NGY =   30 NGZ =   30
   dimension x,y,z NGXF=    60 NGYF=   60 NGZF=   60
   support grid    NGXF=    60 NGYF=   60 NGZF=   60
   ions per type =               8   7
 NGX,Y,Z   is equivalent  to a cutoff of   8.30,  8.30,  8.30 a.u.
 NGXF,Y,Z  is equivalent  to a cutoff of  16.61, 16.61, 16.61 a.u.


 I would recommend the setting:
   dimension x,y,z NGX =    29 NGY =   29 NGZ =   29
 SYSTEM =  unknown system                          
 POSCAR =  Mg8 O7                                  

 Startparameter for this run:
   NWRITE =      2    write-flag & timer
   PREC   = n         normal or accurate (medium, high low for compatibility)
   ISTART =      0    job   : 0-new  1-cont  2-samecut
   ICHARG =      2    charge: 1-file 2-atom 10-const
   ISPIN  =      2    spin polarized calculation?
   LNONCOLLINEAR =      F non collinear calculations
   LSORBIT =      F    spin-orbit coupling
   INIWAV =      1    electr: 0-lowe 1-rand  2-diag
   LASPH  =      T    aspherical Exc in radial PAW
   METAGGA=      F    non-selfconsistent MetaGGA calc.

 Electronic Relaxation 1
   ENCUT  =  400.0 eV  29.40 Ry    5.42 a.u.   9.79  9.79  9.79*2*pi/ulx,y,z
   ENINI  =  400.0     initial cutoff
   ENAUG  =  605.4 eV  augmentation charge cutoff
   NELM   =    100;   NELMIN=  4; NELMDL=  0     # of ELM steps 
   EDIFF  = 0.1E-05   stopping-criterion for ELM
   LREAL  =      T    real-space projection
   NLSPLINE    = F    spline interpolate recip. space projectors
   LCOMPAT=      F    compatible to vasp.4.4
   GGA_COMPAT  = T    GGA compatible to vasp.4.4-vasp.4.6
   LMAXPAW     = -100 max onsite density
   LMAXMIX     =    2 max onsite mixed and CHGCAR
   VOSKOWN=      0    Vosko Wilk Nusair interpolation
   ROPT   =   -0.00050  -0.00050
 Ionic relaxation
   EDIFFG = -.5E-01   stopping-criterion for IOM
   NSW    =     20    number of steps for IOM
   NBLOCK =      1;   KBLOCK =     20    inner block; outer block 
   IBRION =      2    ionic relax: 0-MD 1-quasi-New 2-CG
   NFREE  =      1    steps in history (QN), initial steepest desc. (CG)
   ISIF   =      2    stress and relaxation
   IWAVPR =     11    prediction:  0-non 1-charg 2-wave 3-comb
   ISYM   =      2    0-nonsym 1-usesym 2-fastsym
   LCORR  =      T    Harris-Foulkes like correction to forces

   POTIM  = 0.5000    time-step for ionic-motion
   TEIN   =    0.0    initial temperature
   TEBEG  =    0.0;   TEEND  =   0.0 temperature during run
   SMASS  =  -3.00    Nose mass-parameter (am)
   estimated Nose-frequenzy (Omega)   =  0.10E-29 period in steps =****** mass=  -0.824E-27a.u.
   SCALEE = 1.0000    scale energy and forces
   NPACO  =    256;   APACO  = 16.0  distance and # of slots for P.C.
   PSTRESS=    0.0 pullay stress

  Mass of Ions in am
   POMASS =  24.30 16.00
  Ionic Valenz
   ZVAL   =   2.00  6.00
  Atomic Wigner-Seitz radii
   RWIGS  =  -1.00 -1.00
  virtual crystal weights 
   VCA    =   1.00  1.00
   NELECT =      56.0000    total number of electrons
   NUPDOWN=      -1.0000    fix difference up-down

 DOS related values:
   EMIN   =  10.00;   EMAX   =-10.00  energy-range for DOS
   EFERMI =   0.00
   ISMEAR =     0;   SIGMA  =   0.05  broadening in eV -4-tet -1-fermi 0-gaus

 Electronic relaxation 2 (details)
   IALGO  =     38    algorithm
   LDIAG  =      T    sub-space diagonalisation (order eigenvalues)
   LSUBROT=      F    optimize rotation matrix (better conditioning)
   TURBO    =      0    0=normal 1=particle mesh
   IRESTART =      0    0=no restart 2=restart with 2 vectors
   NREBOOT  =      0    no. of reboots
   NMIN     =      0    reboot dimension
   EREF     =   0.00    reference energy to select bands
   IMIX   =      4    mixing-type and parameters
     AMIX     =   0.40;   BMIX     =  1.00
     AMIX_MAG =   1.60;   BMIX_MAG =  1.00
     AMIN     =   0.10
     WC   =   100.;   INIMIX=   1;  MIXPRE=   1;  MAXMIX= -45

 Intra band minimization:
   WEIMIN = 0.0010     energy-eigenvalue tresh-hold
   EBREAK =  0.57E-08  absolut break condition
   DEPER  =   0.30     relativ break condition  

   TIME   =   0.40     timestep for ELM

  volume/ion in A,a.u.               =      10.21        68.92
  Fermi-wavevector in a.u.,A,eV,Ry     =   1.170549  2.212016 18.642492  1.370184
  Thomas-Fermi vector in A             =   2.307006
 
 Write flags
   LWAVE  =      F    write WAVECAR
   LCHARG =      F    write CHGCAR
   LVTOT  =      F    write LOCPOT, total local potential
   LVHAR  =      F    write LOCPOT, Hartree potential only
   LELF   =      F    write electronic localiz. function (ELF)
   LORBIT =     12    0 simple, 1 ext, 2 COOP (PROOUT)


 Dipole corrections
   LMONO  =      F    monopole corrections only (constant potential shift)
   LDIPOL =      F    correct potential (dipole corrections)
   IDIPOL =      0    1-x, 2-y, 3-z, 4-all directions 
   EPSILON=  1.0000000 bulk dielectric constant

 Exchange correlation treatment:
   GGA     =    --    GGA type
   LEXCH   =     8    internal setting for exchange type
   VOSKOWN=      0    Vosko Wilk Nusair interpolation
   LHFCALC =     F    Hartree Fock is set to
   LHFONE  =     F    Hartree Fock one center treatment
   AEXX    =    0.0000 exact exchange contribution

 Linear response parameters
   LEPSILON=     F    determine dielectric tensor
   LRPA    =     F    only Hartree local field effects (RPA)
   LNABLA  =     F    use nabla operator in PAW spheres
   LVEL    =     F    velocity operator in full k-point grid
   LINTERFAST=   F  fast interpolation
   KINTER  =     0    interpolate to denser k-point grid
   CSHIFT  =0.1000    complex shift for real part using Kramers Kronig
   OMEGAMAX=  -1.0    maximum frequency
   DEG_THRESHOLD= 0.2000000E-02 threshold for treating states as degnerate
   RTIME   =    0.100 relaxation time in fs

 Orbital magnetization related:
   ORBITALMAG=     F  switch on orbital magnetization
   LCHIMAG   =     F  perturbation theory with respect to B field
   DQ        =  0.001000  dq finite difference perturbation B field



--------------------------------------------------------------------------------------------------------


 conjugate gradient relaxation of ions
 charge density and potential will be updated during run
 spin polarized calculation
 Variant of blocked Davidson
 Davidson routine will perform the subspace rotation
 perform sub-space diagonalisation
    after iterative eigenvector-optimisation
 modified Broyden-mixing scheme, WC =      100.0
 initial mixing is a Kerker type mixing with AMIX =  0.4000 and BMIX =      1.0000
 Hartree-type preconditioning will be used
 using additional bands           16
 real space projection scheme for non local part
 use partial core corrections
 calculate Harris-corrections to forces 
   (improved forces if not selfconsistent)
 use gradient corrections 
 use of overlap-Matrix (Vanderbilt PP)
 Gauss-broadening in eV      SIGMA  =   0.05


--------------------------------------------------------------------------------------------------------


  energy-cutoff  :      400.00
  volume of cell :      153.19
      direct lattice vectors                 reciprocal lattice vectors
     0.000000000  4.246893000  4.246893000    -0.117733129  0.117733129  0.117733129
     4.246893000  0.000000000  4.246893000     0.117733129 -0.117733129  0.117733129
     4.246893000  4.246893000  0.000000000     0.117733129  0.117733129 -0.117733129

  length of vectors
     6.006013679  6.006013679  6.006013679     0.203919761  0.203919761  0.203919761


 
 k-points in units of 2pi/SCALE and weight: k-point mesh                            
   0.00000000  0.00000000  0.00000000       0.125
  -0.05886656  0.05886656  0.05886656       0.125
   0.05886656 -0.05886656  0.05886656       0.125
   0.00000000  0.00000000  0.11773313       0.125
   0.05886656  0.05886656 -0.05886656       0.125
   0.00000000  0.11773313  0.00000000       0.125
   0.11773313  0.00000000  0.00000000       0.125
   0.05886656  0.05886656  0.05886656       0.125
 
 k-points in reciprocal lattice and weights: k-point mesh                            
   0.00000000  0.00000000  0.00000000       0.125
   0.50000000  0.00000000  0.00000000       0.125
   0.00000000  0.50000000  0.00000000       0.125
   0.50000000  0.50000000  0.00000000       0.125
   0.00000000  0.00000000  0.50000000       0.125
   0.50000000  0.00000000  0.50000000       0.125
   0.00000000  0.50000000  0.50000000       0.125
   0.50000000  0.50000000  0.50000000       0.125
 
 position of ions in fractional coordinates (direct lattice) 
   0.00117440  0.99996761  0.00014486
   0.98493692  0.98330499  0.51719101
   0.98424558  0.51552984  0.98480926
   0.98489023  0.51627412  0.51635692
   0.51707846  0.98415824  0.98425076
   0.51769874  0.98456572  0.51598023
   0.51710143  0.51708995  0.98348275
   0.50088311  0.50035537  0.50048862
   0.25110075  0.25012251  0.74987623
   0.25092260  0.75094564  0.25053805
   0.25107257  0.74956326  0.75101508
   0.75074863  0.25024046  0.25035775
   0.75108382  0.25017813  0.75038707
   0.75115884  0.75009171  0.25041056
   0.75089093  0.75009843  0.75046586
 
 position of ions in cartesian coordinates  (Angst):
   4.24737065  0.00560275  4.25174298
   6.37244600  6.37937661  8.35891281
   6.37177961  8.36236521  6.36938573
   4.38547351  6.37563600  6.37528437
   8.35962240  6.37598455  6.37559166
   6.37265810  4.38992396  6.37995641
   6.37277167  6.37282042  4.39210011
   4.25047733  4.25271858  4.25215269
   4.24688765  4.25104214  2.12864158
   4.25319409  2.12964973  4.25482722
   6.37279569  4.25575904  4.24959332
   2.12598705  4.25159168  4.25109355
   4.24929336  6.37658621  4.25225235
   4.24902607  4.25355805  6.37565046
   6.37273596  6.37610162  6.37454120
 


--------------------------------------------------------------------------------------------------------


 k-point  1 :   0.0000 0.0000 0.0000  plane waves:    2733
 k-point  2 :   0.5000 0.0000 0.0000  plane waves:    2788
 k-point  3 :   0.0000 0.5000 0.0000  plane waves:    2788
 k-point  4 :   0.5000 0.5000 0.0000  plane waves:    2778
 k-point  5 :   0.0000 0.0000 0.5000  plane waves:    2788
 k-point  6 :   0.5000 0.0000 0.5000  plane waves:    2778
 k-point  7 :   0.0000 0.5000 0.5000  plane waves:    2778
 k-point  8 :   0.5000 0.5000 0.5000  plane waves:    2788

 maximum and minimum number of plane-waves per node :       715      668

 maximum number of plane-waves:      2788
 maximum index in each direction: 
   IXMAX=    9   IYMAX=    9   IZMAX=    9
   IXMIN=  -10   IYMIN=  -10   IZMIN=  -10

 WARNING: aliasing errors must be expected set NGX to  40 to avoid them
 WARNING: aliasing errors must be expected set NGY to  40 to avoid them
 WARNING: aliasing errors must be expected set NGZ to  40 to avoid them
 aliasing errors are usually negligible using standard VASP settings
 and one can safely disregard these warnings

 real space projection operators:
  total allocation   :       2121.61 KBytes
  max/ min on nodes  :        570.77        490.40


 parallel 3D FFT for wavefunctions:
    minimum data exchange during FFTs selected (reduces bandwidth)
 parallel 3D FFT for charge:
    minimum data exchange during FFTs selected (reduces bandwidth)


 total amount of memory used by VASP on root node    35878. kBytes
========================================================================

   base      :      30000. kBytes
   nonlr-proj:       1200. kBytes
   fftplans  :        708. kBytes
   grid      :       1766. kBytes
   one-center:         64. kBytes
   wavefun   :       2140. kBytes
 
     INWAV:  cpu time    0.0000: real time    0.0000
 Broyden mixing: mesh for mixing (old mesh)
   NGX = 19   NGY = 19   NGZ = 19
  (NGX  = 60   NGY  = 60   NGZ  = 60)
  gives a total of   6859 points

 initial charge density was supplied:
 charge density of overlapping atoms calculated
 number of electron      58.0000000 magnetization      15.0000000
 keeping initial charge density in first step


--------------------------------------------------------------------------------------------------------


 Maximum index for non-local projection operator          525
 Maximum index for augmentation-charges          534 (set IRDMAX)


--------------------------------------------------------------------------------------------------------


 First call to EWALD:  gamma=   0.331
 Maximum number of real-space cells 3x 3x 3
 Maximum number of reciprocal cells 3x 3x 3

 FEWALD executed in parallel
    FEWALD:  cpu time    0.0000: real time    0.0017


----------------------------------------- Iteration    1(   1)  ---------------------------------------


    POTLOK:  cpu time    0.0200: real time    0.0212
    SETDIJ:  cpu time    0.6880: real time    0.6881
     EDDAV:  cpu time    0.4640: real time    0.4691
       DOS:  cpu time    0.0040: real time    0.0005
    --------------------------------------------
      LOOP:  cpu time    1.1801: real time    1.1825

 eigenvalue-minimisations  :  1488
 total energy-change (2. order) : 0.2162229E+03  (-0.2343116E+04)
 number of electron      58.0000000 magnetization      15.0000000
 augmentation part       58.0000000 magnetization      15.0000000

 Free energy of the ion-electron system (eV)
  ---------------------------------------------------
  alpha Z        PSCENC =       129.53385374
  Ewald energy   TEWEN  =     -2351.30433313
  -Hartree energ DENC   =      -985.78274630
  -exchange      EXHF   =         0.00000000
  -V(xc)+E(xc)   XCENC  =      -189.38816649
  PAW double counting   =      2946.27252624    -2543.92834819
  entropy T*S    EENTRO =        -0.00282359
  eigenvalues    EBANDS =         0.68633144
  atomic energy  EATOM  =      3210.13655998
  Solvation  Ediel_sol  =         0.00000000
  ---------------------------------------------------
  free energy    TOTEN  =       216.22285370 eV

  energy without entropy =      216.22567729  energy(sigma->0) =      216.22426550


--------------------------------------------------------------------------------------------------------




----------------------------------------- Iteration    1(   2)  ---------------------------------------


     EDDAV:  cpu time    0.5280: real time    0.5297
       DOS:  cpu time    0.0000: real time    0.0002
    --------------------------------------------
      LOOP:  cpu time    0.5280: real time    0.5327

 eigenvalue-minimisations  :  1764
 total energy-change (2. order) :-0.2980241E+03  (-0.2882951E+03)
 number of electron      58.0000000 magnetization      15.0000000
 augmentation part       58.0000000 magnetization      15.0000000

 Free energy of the ion-electron system (eV)
  ---------------------------------------------------
  alpha Z        PSCENC =       129.53385374
  Ewald energy   TEWEN  =     -2351.30433313
  -Hartree energ DENC   =      -985.78274630
  -exchange      EXHF   =         0.00000000
  -V(xc)+E(xc)   XCENC  =      -189.38816649
  PAW double counting   =      2946.27252624    -2543.92834819
  entropy T*S    EENTRO =        -0.00000000
  eigenvalues    EBANDS =      -297.34063978
  atomic energy  EATOM  =      3210.13655998
  Solvation  Ediel_sol  =         0.00000000
  ---------------------------------------------------
  free energy    TOTEN  =       -81.80129393 eV

  energy without entropy =      -81.80129393  energy(sigma->0) =      -81.80129393


--------------------------------------------------------------------------------------------------------




----------------------------------------- Iteration    1(   3)  ---------------------------------------


     EDDAV:  cpu time    0.5200: real time    0.5214
       DOS:  cpu time    0.0000: real time    0.0002
    --------------------------------------------
      LOOP:  cpu time    0.5200: real time    0.5245

 eigenvalue-minimisations  :  1720
 total energy-change (2. order) :-0.1767981E+02  (-0.1759094E+02)
 number of electron      58.0000000 magnetization      15.0000000
 augmentation part       58.0000000 magnetization      15.0000000

 Free energy of the ion-electron system (eV)
  ---------------------------------------------------
  alpha Z        PSCENC =       129.53385374
  Ewald energy   TEWEN  =     -2351.30433313
  -Hartree energ DENC   =      -985.78274630
  -exchange      EXHF   =         0.00000000
  -V(xc)+E(xc)   XCENC  =      -189.38816649
  PAW double counting   =      2946.27252624    -2543.92834819
  entropy T*S    EENTRO =        -0.00000000
  eigenvalues    EBANDS =      -315.02044566
  atomic energy  EATOM  =      3210.13655998
  Solvation  Ediel_sol  =         0.00000000
  ---------------------------------------------------
  free energy    TOTEN  =       -99.48109980 eV

  energy without entropy =      -99.48109980  energy(sigma->0) =      -99.48109980


--------------------------------------------------------------------------------------------------------




----------------------------------------- Iteration    1(   4)  ---------------------------------------


     EDDAV:  cpu time    0.5200: real time    0.5212
       DOS:  cpu time    0.0000: real time    0.0002
    --------------------------------------------
      LOOP:  cpu time    0.5200: real time    0.5248

 eigenvalue-minimisations  :  1732
 total energy-change (2. order) :-0.1185844E+00  (-0.1184824E+00)
 number of electron      58.0000000 magnetization      15.0000000
 augmentation part       58.0000000 magnetization      15.0000000

 Free energy of the ion-electron system (eV)
  ---------------------------------------------------
  alpha Z        PSCENC =       129.53385374
  Ewald energy   TEWEN  =     -2351.30433313
  -Hartree energ DENC   =      -985.78274630
  -exchange      EXHF   =         0.00000000
  -V(xc)+E(xc)   XCENC  =      -189.38816649
  PAW double counting   =      2946.27252624    -2543.92834819
  entropy T*S    EENTRO =        -0.00000000
  eigenvalues    EBANDS =      -315.13903001
  atomic energy  EATOM  =      3210.13655998
  Solvation  Ediel_sol  =         0.00000000
  ---------------------------------------------------
  free energy    TOTEN  =       -99.59968416 eV

  energy without entropy =      -99.59968416  energy(sigma->0) =      -99.59968416


--------------------------------------------------------------------------------------------------------




----------------------------------------- Iteration    1(   5)  ---------------------------------------


     EDDAV:  cpu time    0.5200: real time    0.5220
       DOS:  cpu time    0.0000: real time    0.0002
    CHARGE:  cpu time    0.0200: real time    0.0186
    MIXING:  cpu time    0.0000: real time    0.0007
    --------------------------------------------
      LOOP:  cpu time    0.5400: real time    0.5446

 eigenvalue-minimisations  :  1732
 total energy-change (2. order) :-0.7998974E-03  (-0.7998083E-03)
 number of electron      55.9999831 magnetization       0.0852594
 augmentation part        5.5532463 magnetization       0.1386196

 Broyden mixing:
  rms(total) = 0.27056E+01    rms(broyden)= 0.27001E+01
  rms(prec ) = 0.46341E+01
  weight for this iteration     100.00

 Free energy of the ion-electron system (eV)
  ---------------------------------------------------
  alpha Z        PSCENC =       129.53385374
  Ewald energy   TEWEN  =     -2351.30433313
  -Hartree energ DENC   =      -985.78274630
  -exchange      EXHF   =         0.00000000
  -V(xc)+E(xc)   XCENC  =      -189.38816649
  PAW double counting   =      2946.27252624    -2543.92834819
  entropy T*S    EENTRO =        -0.00000000
  eigenvalues    EBANDS =      -315.13982991
  atomic energy  EATOM  =      3210.13655998
  Solvation  Ediel_sol  =         0.00000000
  ---------------------------------------------------
  free energy    TOTEN  =       -99.60048405 eV

  energy without entropy =      -99.60048405  energy(sigma->0) =      -99.60048405


--------------------------------------------------------------------------------------------------------




----------------------------------------- Iteration    1(   6)  ---------------------------------------


    POTLOK:  cpu time    0.0200: real time    0.0204
    SETDIJ:  cpu time    0.6920: real time    0.6908
     EDDAV:  cpu time    0.4680: real time    0.4727
       DOS:  cpu time    0.0000: real time    0.0002
    CHARGE:  cpu time    0.0200: real time    0.0185
    MIXING:  cpu time    0.0000: real time    0.0006
    --------------------------------------------
      LOOP:  cpu time    1.2001: real time    1.2064

 eigenvalue-minimisations  :  1528
 total energy-change (2. order) : 0.5499271E+01  (-0.3798960E+01)
 number of electron      55.9999862 magnetization       0.0044791
 augmentation part        4.5919709 magnetization      -0.1013892

 Broyden mixing:
  rms(total) = 0.77114E+00    rms(broyden)= 0.76976E+00
  rms(prec ) = 0.12087E+01
  weight for this iteration     100.00

 eigenvalues of (default mixing * dielectric matrix)
  average eigenvalue GAMMA=   0.8295
  0.8295

 Free energy of the ion-electron system (eV)
  ---------------------------------------------------
  alpha Z        PSCENC =       129.53385374
  Ewald energy   TEWEN  =     -2351.30433313
  -Hartree energ DENC   =     -1126.26024357
  -exchange      EXHF   =         0.00000000
  -V(xc)+E(xc)   XCENC  =      -188.41537744
  PAW double counting   =      3471.54165169    -3071.43293076
  entropy T*S    EENTRO =        -0.00000000
  eigenvalues    EBANDS =      -167.90039388
  atomic energy  EATOM  =      3210.13655998
  Solvation  Ediel_sol  =         0.00000000
  ---------------------------------------------------
  free energy    TOTEN  =       -94.10121337 eV

  energy without entropy =      -94.10121337  energy(sigma->0) =      -94.10121337


--------------------------------------------------------------------------------------------------------




----------------------------------------- Iteration    1(   7)  ---------------------------------------


    POTLOK:  cpu time    0.0200: real time    0.0202
    SETDIJ:  cpu time    0.6880: real time    0.6897
     EDDAV:  cpu time    0.4960: real time    0.4975
       DOS:  cpu time    0.0000: real time    0.0002
    CHARGE:  cpu time    0.0200: real time    0.0184
    MIXING:  cpu time    0.0000: real time    0.0006
    --------------------------------------------
      LOOP:  cpu time    1.2241: real time    1.2300

 eigenvalue-minimisations  :  1632
 total energy-change (2. order) : 0.1594699E+00  (-0.1138475E+00)
 number of electron      55.9999862 magnetization      -0.0030431
 augmentation part        4.5796356 magnetization      -0.0117499

 Broyden mixing:
  rms(total) = 0.40380E+00    rms(broyden)= 0.40371E+00
  rms(prec ) = 0.73487E+00
  weight for this iteration     100.00

 eigenvalues of (default mixing * dielectric matrix)
  average eigenvalue GAMMA=   0.9683
  0.9683  0.9683

 Free energy of the ion-electron system (eV)
  ---------------------------------------------------
  alpha Z        PSCENC =       129.53385374
  Ewald energy   TEWEN  =     -2351.30433313
  -Hartree energ DENC   =     -1132.46729145
  -exchange      EXHF   =         0.00000000
  -V(xc)+E(xc)   XCENC  =      -188.13712311
  PAW double counting   =      3647.05019678    -3246.66815346
  entropy T*S    EENTRO =        -0.00000000
  eigenvalues    EBANDS =      -162.08545283
  atomic energy  EATOM  =      3210.13655998
  Solvation  Ediel_sol  =         0.00000000
  ---------------------------------------------------
  free energy    TOTEN  =       -93.94174347 eV

  energy without entropy =      -93.94174347  energy(sigma->0) =      -93.94174347


--------------------------------------------------------------------------------------------------------




----------------------------------------- Iteration    1(   8)  ---------------------------------------


    POTLOK:  cpu time    0.0200: real time    0.0202
    SETDIJ:  cpu time    0.6880: real time    0.6894
     EDDAV:  cpu time    0.5000: real time    0.4986
       DOS:  cpu time    0.0000: real time    0.0003
    CHARGE:  cpu time    0.0160: real time    0.0185
    MIXING:  cpu time    0.0000: real time    0.0006
    --------------------------------------------
      LOOP:  cpu time    1.2241: real time    1.2309

 eigenvalue-minimisations  :  1632
 total energy-change (2. order) : 0.2725478E+00  (-0.2779867E-01)
 number of electron      55.9999862 magnetization      -0.0017947
 augmentation part        4.5956984 magnetization      -0.0031097

 Broyden mixing:
  rms(total) = 0.14802E+00    rms(broyden)= 0.14792E+00
  rms(prec ) = 0.26000E+00
  weight for this iteration     100.00

 eigenvalues of (default mixing * dielectric matrix)
  average eigenvalue GAMMA=   1.2724
  2.0755  0.9176  0.8241

 Free energy of the ion-electron system (eV)
  ---------------------------------------------------
  alpha Z        PSCENC =       129.53385374
  Ewald energy   TEWEN  =     -2351.30433313
  -Hartree energ DENC   =     -1140.95685951
  -exchange      EXHF   =         0.00000000
  -V(xc)+E(xc)   XCENC  =      -187.47257609
  PAW double counting   =      3848.42313454    -3447.77254859
  entropy T*S    EENTRO =        -0.00000000
  eigenvalues    EBANDS =      -154.25642658
  atomic energy  EATOM  =      3210.13655998
  Solvation  Ediel_sol  =         0.00000000
  ---------------------------------------------------
  free energy    TOTEN  =       -93.66919563 eV

  energy without entropy =      -93.66919563  energy(sigma->0) =      -93.66919563


--------------------------------------------------------------------------------------------------------




----------------------------------------- Iteration    1(   9)  ---------------------------------------


    POTLOK:  cpu time    0.0240: real time    0.0202
    SETDIJ:  cpu time    0.6840: real time    0.6892
     EDDAV:  cpu time    0.5280: real time    0.5273
       DOS:  cpu time    0.0000: real time    0.0003
    CHARGE:  cpu time    0.0200: real time    0.0184
    MIXING:  cpu time    0.0000: real time    0.0006
    --------------------------------------------
      LOOP:  cpu time    1.2561: real time    1.2588

 eigenvalue-minimisations  :  1748
 total energy-change (2. order) : 0.2392459E-01  (-0.6003110E-02)
 number of electron      55.9999862 magnetization      -0.0004306
 augmentation part        4.5858064 magnetization       0.0005341

 Broyden mixing:
  rms(total) = 0.57359E-01    rms(broyden)= 0.57278E-01
  rms(prec ) = 0.69990E-01
  weight for this iteration     100.00

 eigenvalues of (default mixing * dielectric matrix)
  average eigenvalue GAMMA=   1.2470
  2.4164  0.9602  0.9602  0.6514

 Free energy of the ion-electron system (eV)
  ---------------------------------------------------
  alpha Z        PSCENC =       129.53385374
  Ewald energy   TEWEN  =     -2351.30433313
  -Hartree energ DENC   =     -1147.49597675
  -exchange      EXHF   =         0.00000000
  -V(xc)+E(xc)   XCENC  =      -186.96932420
  PAW double counting   =      3929.28315971    -3528.57016742
  entropy T*S    EENTRO =        -0.00000000
  eigenvalues    EBANDS =      -148.25904298
  atomic energy  EATOM  =      3210.13655998
  Solvation  Ediel_sol  =         0.00000000
  ---------------------------------------------------
  free energy    TOTEN  =       -93.64527104 eV

  energy without entropy =      -93.64527104  energy(sigma->0) =      -93.64527104


--------------------------------------------------------------------------------------------------------




----------------------------------------- Iteration    1(  10)  ---------------------------------------


    POTLOK:  cpu time    0.0200: real time    0.0202
    SETDIJ:  cpu time    0.6840: real time    0.6880
     EDDAV:  cpu time    0.5000: real time    0.4984
       DOS:  cpu time    0.0000: real time    0.0002
    CHARGE:  cpu time    0.0160: real time    0.0185
    MIXING:  cpu time    0.0000: real time    0.0006
    --------------------------------------------
      LOOP:  cpu time    1.2201: real time    1.2292

 eigenvalue-minimisations  :  1632
 total energy-change (2. order) : 0.9209435E-03  (-0.3846488E-03)
 number of electron      55.9999862 magnetization       0.0005627
 augmentation part        4.5808305 magnetization       0.0017022

 Broyden mixing:
  rms(total) = 0.22625E-01    rms(broyden)= 0.22610E-01
  rms(prec ) = 0.34656E-01
  weight for this iteration     100.00

 eigenvalues of (default mixing * dielectric matrix)
  average eigenvalue GAMMA=   1.2672
  2.5084  1.3541  0.9173  0.9173  0.6387

 Free energy of the ion-electron system (eV)
  ---------------------------------------------------
  alpha Z        PSCENC =       129.53385374
  Ewald energy   TEWEN  =     -2351.30433313
  -Hartree energ DENC   =     -1148.16418664
  -exchange      EXHF   =         0.00000000
  -V(xc)+E(xc)   XCENC  =      -186.92766710
  PAW double counting   =      3918.48752367    -3517.79105123
  entropy T*S    EENTRO =        -0.00000000
  eigenvalues    EBANDS =      -147.61504939
  atomic energy  EATOM  =      3210.13655998
  Solvation  Ediel_sol  =         0.00000000
  ---------------------------------------------------
  free energy    TOTEN  =       -93.64435010 eV

  energy without entropy =      -93.64435010  energy(sigma->0) =      -93.64435010


--------------------------------------------------------------------------------------------------------




----------------------------------------- Iteration    1(  11)  ---------------------------------------


    POTLOK:  cpu time    0.0200: real time    0.0202
    SETDIJ:  cpu time    0.6880: real time    0.6882
     EDDAV:  cpu time    0.5240: real time    0.5270
       DOS:  cpu time    0.0000: real time    0.0003
    CHARGE:  cpu time    0.0160: real time    0.0184
    MIXING:  cpu time    0.0000: real time    0.0007
    --------------------------------------------
      LOOP:  cpu time    1.2521: real time    1.2580

 eigenvalue-minimisations  :  1744
 total energy-change (2. order) :-0.6008757E-03  (-0.8376486E-04)
 number of electron      55.9999862 magnetization       0.0000621
 augmentation part        4.5816101 magnetization      -0.0005851

 Broyden mixing:
  rms(total) = 0.85235E-02    rms(broyden)= 0.85200E-02
  rms(prec ) = 0.14055E-01
  weight for this iteration     100.00

 eigenvalues of (default mixing * dielectric matrix)
  average eigenvalue GAMMA=   1.3950
  2.7816  2.2403  0.9751  0.9751  0.7660  0.6321

 Free energy of the ion-electron system (eV)
  ---------------------------------------------------
  alpha Z        PSCENC =       129.53385374
  Ewald energy   TEWEN  =     -2351.30433313
  -Hartree energ DENC   =     -1148.15575679
  -exchange      EXHF   =         0.00000000
  -V(xc)+E(xc)   XCENC  =      -186.93483241
  PAW double counting   =      3900.29565937    -3499.60979048
  entropy T*S    EENTRO =        -0.00000000
  eigenvalues    EBANDS =      -147.60631126
  atomic energy  EATOM  =      3210.13655998
  Solvation  Ediel_sol  =         0.00000000
  ---------------------------------------------------
  free energy    TOTEN  =       -93.64495097 eV

  energy without entropy =      -93.64495097  energy(sigma->0) =      -93.64495097


--------------------------------------------------------------------------------------------------------




----------------------------------------- Iteration    1(  12)  ---------------------------------------


    POTLOK:  cpu time    0.0200: real time    0.0202
    SETDIJ:  cpu time    0.6880: real time    0.6884
     EDDAV:  cpu time    0.5200: real time    0.5198
       DOS:  cpu time    0.0000: real time    0.0003
    CHARGE:  cpu time    0.0160: real time    0.0184
    MIXING:  cpu time    0.0040: real time    0.0007
    --------------------------------------------
      LOOP:  cpu time    1.2481: real time    1.2508

 eigenvalue-minimisations  :  1704
 total energy-change (2. order) :-0.2125876E-03  (-0.3443158E-04)
 number of electron      55.9999862 magnetization      -0.0000211
 augmentation part        4.5821889 magnetization      -0.0001536

 Broyden mixing:
  rms(total) = 0.27402E-02    rms(broyden)= 0.27378E-02
  rms(prec ) = 0.43827E-02
  weight for this iteration     100.00

 eigenvalues of (default mixing * dielectric matrix)
  average eigenvalue GAMMA=   1.3422
  2.8105  2.4113  0.9934  0.9884  0.8466  0.7161  0.6293

 Free energy of the ion-electron system (eV)
  ---------------------------------------------------
  alpha Z        PSCENC =       129.53385374
  Ewald energy   TEWEN  =     -2351.30433313
  -Hartree energ DENC   =     -1148.22049654
  -exchange      EXHF   =         0.00000000
  -V(xc)+E(xc)   XCENC  =      -186.93544941
  PAW double counting   =      3892.03594321    -3491.35447115
  entropy T*S    EENTRO =        -0.00000000
  eigenvalues    EBANDS =      -147.53677027
  atomic energy  EATOM  =      3210.13655998
  Solvation  Ediel_sol  =         0.00000000
  ---------------------------------------------------
  free energy    TOTEN  =       -93.64516356 eV

  energy without entropy =      -93.64516356  energy(sigma->0) =      -93.64516356


--------------------------------------------------------------------------------------------------------




----------------------------------------- Iteration    1(  13)  ---------------------------------------


    POTLOK:  cpu time    0.0200: real time    0.0202
    SETDIJ:  cpu time    0.6880: real time    0.6901
     EDDAV:  cpu time    0.5120: real time    0.5140
       DOS:  cpu time    0.0000: real time    0.0003
    CHARGE:  cpu time    0.0200: real time    0.0184
    MIXING:  cpu time    0.0000: real time    0.0008
    --------------------------------------------
      LOOP:  cpu time    1.2401: real time    1.2468

 eigenvalue-minimisations  :  1688
 total energy-change (2. order) :-0.2070446E-04  (-0.4583902E-05)
 number of electron      55.9999862 magnetization       0.0000336
 augmentation part        4.5818487 magnetization      -0.0000006

 Broyden mixing:
  rms(total) = 0.13094E-02    rms(broyden)= 0.13091E-02
  rms(prec ) = 0.23734E-02
  weight for this iteration     100.00

 eigenvalues of (default mixing * dielectric matrix)
  average eigenvalue GAMMA=   1.3228
  2.8446  2.4608  1.0469  1.0180  1.0180  0.8735  0.6287  0.6918

 Free energy of the ion-electron system (eV)
  ---------------------------------------------------
  alpha Z        PSCENC =       129.53385374
  Ewald energy   TEWEN  =     -2351.30433313
  -Hartree energ DENC   =     -1148.27652198
  -exchange      EXHF   =         0.00000000
  -V(xc)+E(xc)   XCENC  =      -186.93379825
  PAW double counting   =      3891.64169733    -3490.96155794
  entropy T*S    EENTRO =        -0.00000000
  eigenvalues    EBANDS =      -147.48108402
  atomic energy  EATOM  =      3210.13655998
  Solvation  Ediel_sol  =         0.00000000
  ---------------------------------------------------
  free energy    TOTEN  =       -93.64518426 eV

  energy without entropy =      -93.64518426  energy(sigma->0) =      -93.64518426


--------------------------------------------------------------------------------------------------------




----------------------------------------- Iteration    1(  14)  ---------------------------------------


    POTLOK:  cpu time    0.0200: real time    0.0202
    SETDIJ:  cpu time    0.6880: real time    0.6891
     EDDAV:  cpu time    0.4880: real time    0.4895
       DOS:  cpu time    0.0000: real time    0.0003
    CHARGE:  cpu time    0.0160: real time    0.0184
    MIXING:  cpu time    0.0040: real time    0.0008
    --------------------------------------------
      LOOP:  cpu time    1.2161: real time    1.2212

 eigenvalue-minimisations  :  1584
 total energy-change (2. order) :-0.1022851E-04  (-0.1621565E-05)
 number of electron      55.9999862 magnetization       0.0000034
 augmentation part        4.5815278 magnetization      -0.0000367

 Broyden mixing:
  rms(total) = 0.91691E-03    rms(broyden)= 0.91648E-03
  rms(prec ) = 0.14644E-02
  weight for this iteration     100.00

 eigenvalues of (default mixing * dielectric matrix)
  average eigenvalue GAMMA=   1.3889
  3.0345  2.4865  2.1085  1.0173  0.9431  0.8244  0.7960  0.6280  0.6618

 Free energy of the ion-electron system (eV)
  ---------------------------------------------------
  alpha Z        PSCENC =       129.53385374
  Ewald energy   TEWEN  =     -2351.30433313
  -Hartree energ DENC   =     -1148.30794022
  -exchange      EXHF   =         0.00000000
  -V(xc)+E(xc)   XCENC  =      -186.93465434
  PAW double counting   =      3891.84211345    -3491.16250101
  entropy T*S    EENTRO =        -0.00000000
  eigenvalues    EBANDS =      -147.44829296
  atomic energy  EATOM  =      3210.13655998
  Solvation  Ediel_sol  =         0.00000000
  ---------------------------------------------------
  free energy    TOTEN  =       -93.64519449 eV

  energy without entropy =      -93.64519449  energy(sigma->0) =      -93.64519449


--------------------------------------------------------------------------------------------------------




----------------------------------------- Iteration    1(  15)  ---------------------------------------


    POTLOK:  cpu time    0.0200: real time    0.0202
    SETDIJ:  cpu time    0.6880: real time    0.6892
     EDDAV:  cpu time    0.4920: real time    0.4951
       DOS:  cpu time    0.0000: real time    0.0002
    --------------------------------------------
      LOOP:  cpu time    1.2001: real time    1.2074

 eigenvalue-minimisations  :  1600
 total energy-change (2. order) :-0.7771523E-06  (-0.3501007E-06)
 number of electron      55.9999862 magnetization       0.0000034
 augmentation part        4.5815278 magnetization      -0.0000367

 Free energy of the ion-electron system (eV)
  ---------------------------------------------------
  alpha Z        PSCENC =       129.53385374
  Ewald energy   TEWEN  =     -2351.30433313
  -Hartree energ DENC   =     -1148.30485609
  -exchange      EXHF   =         0.00000000
  -V(xc)+E(xc)   XCENC  =      -186.93605144
  PAW double counting   =      3892.25077398    -3491.57055944
  entropy T*S    EENTRO =        -0.00000000
  eigenvalues    EBANDS =      -147.45058287
  atomic energy  EATOM  =      3210.13655998
  Solvation  Ediel_sol  =         0.00000000
  ---------------------------------------------------
  free energy    TOTEN  =       -93.64519527 eV

  energy without entropy =      -93.64519527  energy(sigma->0) =      -93.64519527


--------------------------------------------------------------------------------------------------------




 average (electrostatic) potential at core
  the test charge radii are     1.0714  0.7215
  (the norm of the test charge is              1.0000)
       1 -34.5752       2 -35.5301       3 -35.5344       4 -35.5357       5 -35.5346
       6 -35.5326       7 -35.5265       8 -34.5754       9 -70.0270      10 -70.0260
      11 -70.0253      12 -70.0274      13 -70.0271      14 -70.0272      15 -70.4853
 
 
 
 E-fermi :   2.9861     XC(G=0): -10.3916     alpha+bet :-12.2710


 spin component 1

 k-point     1 :       0.0000    0.0000    0.0000
  band No.  band energies     occupation 
      1     -14.3572      1.00000
      2     -13.4559      1.00000
      3     -12.9373      1.00000
      4     -12.9366      1.00000
      5     -12.9363      1.00000
      6     -12.6934      1.00000
      7     -12.6928      1.00000
      8      -1.6299      1.00000
      9      -1.6292      1.00000
     10      -1.6279      1.00000
     11      -1.2917      1.00000
     12      -0.5388      1.00000
     13      -0.5385      1.00000
     14      -0.5373      1.00000
     15       1.4070      1.00000
     16       1.4100      1.00000
     17       1.4104      1.00000
     18       1.6051      1.00000
     19       1.6057      1.00000
     20       1.6057      1.00000
     21       2.2963      1.00000
     22       2.2967      1.00000
     23       2.2980      1.00000
     24       2.4589      1.00000
     25       2.4594      1.00000
     26       2.6730      1.00000
     27       2.6739      1.00000
     28       2.6743      1.00000
     29       3.4525      0.00000
     30       8.7297      0.00000
     31      10.7738      0.00000
     32      10.7748      0.00000
     33      10.7751      0.00000
     34      11.3005      0.00000
     35      11.3022      0.00000
     36      11.3031      0.00000
     37      12.2689      0.00000
     38      12.2695      0.00000
     39      12.2698      0.00000
     40      12.5237      0.00000
     41      12.5254      0.00000
     42      12.6629      0.00000
     43      15.4964      0.00000
     44      15.4988      0.00000

 k-point     2 :       0.5000    0.0000    0.0000
  band No.  band energies     occupation 
      1     -14.1671      1.00000
      2     -13.4082      1.00000
      3     -13.2559      1.00000
      4     -12.8261      1.00000
      5     -12.8250      1.00000
      6     -12.8233      1.00000
      7     -12.8223      1.00000
      8      -1.1451      1.00000
      9      -1.1435      1.00000
     10      -0.9168      1.00000
     11      -0.6506      1.00000
     12      -0.1944      1.00000
     13       0.0124      1.00000
     14       0.0146      1.00000
     15       0.4655      1.00000
     16       0.5457      1.00000
     17       1.0981      1.00000
     18       1.0998      1.00000
     19       1.1682      1.00000
     20       1.1690      1.00000
     21       1.5486      1.00000
     22       1.5510      1.00000
     23       1.8894      1.00000
     24       1.9757      1.00000
     25       2.4099      1.00000
     26       2.4126      1.00000
     27       2.5148      1.00000
     28       2.5191      1.00000
     29       5.2172      0.00000
     30       8.1009      0.00000
     31      10.3586      0.00000
     32      10.3616      0.00000
     33      10.8503      0.00000
     34      11.1319      0.00000
     35      12.5815      0.00000
     36      12.5832      0.00000
     37      12.7058      0.00000
     38      12.7098      0.00000
     39      13.7833      0.00000
     40      14.3460      0.00000
     41      14.3726      0.00000
     42      14.3750      0.00000
     43      14.9494      0.00000
     44      15.4683      0.00000

 k-point     3 :       0.0000    0.5000    0.0000
  band No.  band energies     occupation 
      1     -14.1669      1.00000
      2     -13.4098      1.00000
      3     -13.2546      1.00000
      4     -12.8261      1.00000
      5     -12.8256      1.00000
      6     -12.8233      1.00000
      7     -12.8217      1.00000
      8      -1.1437      1.00000
      9      -1.1424      1.00000
     10      -0.9156      1.00000
     11      -0.6521      1.00000
     12      -0.1953      1.00000
     13       0.0110      1.00000
     14       0.0131      1.00000
     15       0.4655      1.00000
     16       0.5444      1.00000
     17       1.0965      1.00000
     18       1.0983      1.00000
     19       1.1683      1.00000
     20       1.1717      1.00000
     21       1.5495      1.00000
     22       1.5524      1.00000
     23       1.8921      1.00000
     24       1.9734      1.00000
     25       2.4093      1.00000
     26       2.4118      1.00000
     27       2.5164      1.00000
     28       2.5194      1.00000
     29       5.2175      0.00000
     30       8.1018      0.00000
     31      10.3575      0.00000
     32      10.3603      0.00000
     33      10.8519      0.00000
     34      11.1295      0.00000
     35      12.5816      0.00000
     36      12.5850      0.00000
     37      12.7046      0.00000
     38      12.7117      0.00000
     39      13.7854      0.00000
     40      14.3461      0.00000
     41      14.3722      0.00000
     42      14.3744      0.00000
     43      14.9509      0.00000
     44      15.4666      0.00000

 k-point     4 :       0.5000    0.5000    0.0000
  band No.  band energies     occupation 
      1     -14.1081      1.00000
      2     -13.4244      1.00000
      3     -13.0011      1.00000
      4     -13.0005      1.00000
      5     -12.9992      1.00000
      6     -12.9828      1.00000
      7     -12.6475      1.00000
      8      -0.9560      1.00000
      9      -0.7406      1.00000
     10      -0.7403      1.00000
     11      -0.2353      1.00000
     12      -0.0752      1.00000
     13       0.0321      1.00000
     14       0.1735      1.00000
     15       0.1737      1.00000
     16       0.7870      1.00000
     17       0.7879      1.00000
     18       1.0029      1.00000
     19       1.0032      1.00000
     20       1.0493      1.00000
     21       1.1929      1.00000
     22       1.1946      1.00000
     23       1.8007      1.00000
     24       1.8013      1.00000
     25       2.2892      1.00000
     26       2.2905      1.00000
     27       2.2962      1.00000
     28       2.4570      1.00000
     29       5.7299      0.00000
     30       8.2558      0.00000
     31       9.6659      0.00000
     32       9.6662      0.00000
     33      11.3783      0.00000
     34      12.2426      0.00000
     35      12.2863      0.00000
     36      13.2270      0.00000
     37      13.2272      0.00000
     38      14.1431      0.00000
     39      14.1940      0.00000
     40      14.2143      0.00000
     41      14.2151      0.00000
     42      14.6664      0.00000
     43      14.9175      0.00000
     44      14.9194      0.00000

 k-point     5 :       0.0000    0.0000    0.5000
  band No.  band energies     occupation 
      1     -14.1669      1.00000
      2     -13.4093      1.00000
      3     -13.2550      1.00000
      4     -12.8263      1.00000
      5     -12.8252      1.00000
      6     -12.8235      1.00000
      7     -12.8218      1.00000
      8      -1.1442      1.00000
      9      -1.1425      1.00000
     10      -0.9160      1.00000
     11      -0.6516      1.00000
     12      -0.1952      1.00000
     13       0.0114      1.00000
     14       0.0135      1.00000
     15       0.4654      1.00000
     16       0.5447      1.00000
     17       1.0967      1.00000
     18       1.0987      1.00000
     19       1.1680      1.00000
     20       1.1714      1.00000
     21       1.5492      1.00000
     22       1.5521      1.00000
     23       1.8916      1.00000
     24       1.9739      1.00000
     25       2.4092      1.00000
     26       2.4127      1.00000
     27       2.5163      1.00000
     28       2.5187      1.00000
     29       5.2174      0.00000
     30       8.1015      0.00000
     31      10.3577      0.00000
     32      10.3605      0.00000
     33      10.8516      0.00000
     34      11.1300      0.00000
     35      12.5815      0.00000
     36      12.5844      0.00000
     37      12.7049      0.00000
     38      12.7117      0.00000
     39      13.7853      0.00000
     40      14.3462      0.00000
     41      14.3724      0.00000
     42      14.3743      0.00000
     43      14.9507      0.00000
     44      15.4669      0.00000

 k-point     6 :       0.5000    0.0000    0.5000
  band No.  band energies     occupation 
      1     -14.1081      1.00000
      2     -13.4249      1.00000
      3     -13.0017      1.00000
      4     -13.0007      1.00000
      5     -12.9984      1.00000
      6     -12.9820      1.00000
      7     -12.6480      1.00000
      8      -0.9571      1.00000
      9      -0.7410      1.00000
     10      -0.7405      1.00000
     11      -0.2357      1.00000
     12      -0.0739      1.00000
     13       0.0325      1.00000
     14       0.1729      1.00000
     15       0.1730      1.00000
     16       0.7894      1.00000
     17       0.7898      1.00000
     18       1.0022      1.00000
     19       1.0038      1.00000
     20       1.0502      1.00000
     21       1.1931      1.00000
     22       1.1954      1.00000
     23       1.7985      1.00000
     24       1.8013      1.00000
     25       2.2852      1.00000
     26       2.2900      1.00000
     27       2.2982      1.00000
     28       2.4567      1.00000
     29       5.7300      0.00000
     30       8.2572      0.00000
     31       9.6649      0.00000
     32       9.6651      0.00000
     33      11.3794      0.00000
     34      12.2425      0.00000
     35      12.2871      0.00000
     36      13.2259      0.00000
     37      13.2269      0.00000
     38      14.1452      0.00000
     39      14.1928      0.00000
     40      14.2146      0.00000
     41      14.2161      0.00000
     42      14.6647      0.00000
     43      14.9166      0.00000
     44      14.9188      0.00000

 k-point     7 :       0.0000    0.5000    0.5000
  band No.  band energies     occupation 
      1     -14.1081      1.00000
      2     -13.4250      1.00000
      3     -13.0017      1.00000
      4     -13.0005      1.00000
      5     -12.9987      1.00000
      6     -12.9817      1.00000
      7     -12.6481      1.00000
      8      -0.9575      1.00000
      9      -0.7423      1.00000
     10      -0.7393      1.00000
     11      -0.2358      1.00000
     12      -0.0734      1.00000
     13       0.0326      1.00000
     14       0.1726      1.00000
     15       0.1729      1.00000
     16       0.7877      1.00000
     17       0.7926      1.00000
     18       1.0024      1.00000
     19       1.0037      1.00000
     20       1.0503      1.00000
     21       1.1933      1.00000
     22       1.1955      1.00000
     23       1.7969      1.00000
     24       1.8022      1.00000
     25       2.2896      1.00000
     26       2.2900      1.00000
     27       2.2932      1.00000
     28       2.4566      1.00000
     29       5.7300      0.00000
     30       8.2576      0.00000
     31       9.6635      0.00000
     32       9.6658      0.00000
     33      11.3798      0.00000
     34      12.2424      0.00000
     35      12.2873      0.00000
     36      13.2256      0.00000
     37      13.2267      0.00000
     38      14.1458      0.00000
     39      14.1937      0.00000
     40      14.2139      0.00000
     41      14.2161      0.00000
     42      14.6654      0.00000
     43      14.9159      0.00000
     44      14.9206      0.00000

 k-point     8 :       0.5000    0.5000    0.5000
  band No.  band energies     occupation 
      1     -14.1671      1.00000
      2     -13.4086      1.00000
      3     -13.2556      1.00000
      4     -12.8255      1.00000
      5     -12.8244      1.00000
      6     -12.8239      1.00000
      7     -12.8230      1.00000
      8      -1.1450      1.00000
      9      -1.1434      1.00000
     10      -0.9166      1.00000
     11      -0.6509      1.00000
     12      -0.1944      1.00000
     13       0.0123      1.00000
     14       0.0147      1.00000
     15       0.4654      1.00000
     16       0.5453      1.00000
     17       1.0981      1.00000
     18       1.0994      1.00000
     19       1.1680      1.00000
     20       1.1681      1.00000
     21       1.5487      1.00000
     22       1.5515      1.00000
     23       1.8896      1.00000
     24       1.9761      1.00000
     25       2.4094      1.00000
     26       2.4125      1.00000
     27       2.5152      1.00000
     28       2.5197      1.00000
     29       5.2169      0.00000
     30       8.1012      0.00000
     31      10.3584      0.00000
     32      10.3622      0.00000
     33      10.8501      0.00000
     34      11.1318      0.00000
     35      12.5818      0.00000
     36      12.5830      0.00000
     37      12.7050      0.00000
     38      12.7095      0.00000
     39      13.7830      0.00000
     40      14.3461      0.00000
     41      14.3727      0.00000
     42      14.3751      0.00000
     43      14.9491      0.00000
     44      15.4680      0.00000

 spin component 2

 k-point     1 :       0.0000    0.0000    0.0000
  band No.  band energies     occupation 
      1     -14.3572      1.00000
      2     -13.4559      1.00000
      3     -12.9373      1.00000
      4     -12.9365      1.00000
      5     -12.9363      1.00000
      6     -12.6934      1.00000
      7     -12.6928      1.00000
      8      -1.6299      1.00000
      9      -1.6291      1.00000
     10      -1.6278      1.00000
     11      -1.2917      1.00000
     12      -0.5388      1.00000
     13      -0.5385      1.00000
     14      -0.5373      1.00000
     15       1.4070      1.00000
     16       1.4100      1.00000
     17       1.4104      1.00000
     18       1.6051      1.00000
     19       1.6057      1.00000
     20       1.6057      1.00000
     21       2.2963      1.00000
     22       2.2967      1.00000
     23       2.2980      1.00000
     24       2.4590      1.00000
     25       2.4594      1.00000
     26       2.6730      1.00000
     27       2.6739      1.00000
     28       2.6743      1.00000
     29       3.4515      0.00000
     30       8.7297      0.00000
     31      10.7739      0.00000
     32      10.7749      0.00000
     33      10.7752      0.00000
     34      11.3000      0.00000
     35      11.3018      0.00000
     36      11.3027      0.00000
     37      12.2688      0.00000
     38      12.2695      0.00000
     39      12.2697      0.00000
     40      12.5237      0.00000
     41      12.5254      0.00000
     42      12.6629      0.00000
     43      15.4918      0.00000
     44      15.4980      0.00000

 k-point     2 :       0.5000    0.0000    0.0000
  band No.  band energies     occupation 
      1     -14.1671      1.00000
      2     -13.4082      1.00000
      3     -13.2559      1.00000
      4     -12.8261      1.00000
      5     -12.8250      1.00000
      6     -12.8233      1.00000
      7     -12.8223      1.00000
      8      -1.1451      1.00000
      9      -1.1435      1.00000
     10      -0.9169      1.00000
     11      -0.6506      1.00000
     12      -0.1944      1.00000
     13       0.0124      1.00000
     14       0.0146      1.00000
     15       0.4654      1.00000
     16       0.5457      1.00000
     17       1.0981      1.00000
     18       1.0998      1.00000
     19       1.1682      1.00000
     20       1.1690      1.00000
     21       1.5486      1.00000
     22       1.5510      1.00000
     23       1.8894      1.00000
     24       1.9758      1.00000
     25       2.4099      1.00000
     26       2.4126      1.00000
     27       2.5148      1.00000
     28       2.5191      1.00000
     29       5.2162      0.00000
     30       8.1006      0.00000
     31      10.3582      0.00000
     32      10.3613      0.00000
     33      10.8503      0.00000
     34      11.1319      0.00000
     35      12.5816      0.00000
     36      12.5834      0.00000
     37      12.7057      0.00000
     38      12.7097      0.00000
     39      13.7834      0.00000
     40      14.3460      0.00000
     41      14.3726      0.00000
     42      14.3750      0.00000
     43      14.9494      0.00000
     44      15.4680      0.00000

 k-point     3 :       0.0000    0.5000    0.0000
  band No.  band energies     occupation 
      1     -14.1669      1.00000
      2     -13.4098      1.00000
      3     -13.2546      1.00000
      4     -12.8261      1.00000
      5     -12.8256      1.00000
      6     -12.8233      1.00000
      7     -12.8217      1.00000
      8      -1.1437      1.00000
      9      -1.1424      1.00000
     10      -0.9157      1.00000
     11      -0.6521      1.00000
     12      -0.1953      1.00000
     13       0.0110      1.00000
     14       0.0131      1.00000
     15       0.4654      1.00000
     16       0.5444      1.00000
     17       1.0965      1.00000
     18       1.0983      1.00000
     19       1.1683      1.00000
     20       1.1718      1.00000
     21       1.5495      1.00000
     22       1.5524      1.00000
     23       1.8921      1.00000
     24       1.9734      1.00000
     25       2.4093      1.00000
     26       2.4118      1.00000
     27       2.5164      1.00000
     28       2.5194      1.00000
     29       5.2164      0.00000
     30       8.1015      0.00000
     31      10.3572      0.00000
     32      10.3599      0.00000
     33      10.8519      0.00000
     34      11.1295      0.00000
     35      12.5817      0.00000
     36      12.5851      0.00000
     37      12.7045      0.00000
     38      12.7117      0.00000
     39      13.7855      0.00000
     40      14.3461      0.00000
     41      14.3722      0.00000
     42      14.3744      0.00000
     43      14.9509      0.00000
     44      15.4666      0.00000

 k-point     4 :       0.5000    0.5000    0.0000
  band No.  band energies     occupation 
      1     -14.1081      1.00000
      2     -13.4244      1.00000
      3     -13.0011      1.00000
      4     -13.0005      1.00000
      5     -12.9992      1.00000
      6     -12.9828      1.00000
      7     -12.6475      1.00000
      8      -0.9561      1.00000
      9      -0.7406      1.00000
     10      -0.7403      1.00000
     11      -0.2353      1.00000
     12      -0.0752      1.00000
     13       0.0321      1.00000
     14       0.1736      1.00000
     15       0.1737      1.00000
     16       0.7870      1.00000
     17       0.7879      1.00000
     18       1.0029      1.00000
     19       1.0032      1.00000
     20       1.0493      1.00000
     21       1.1929      1.00000
     22       1.1947      1.00000
     23       1.8007      1.00000
     24       1.8013      1.00000
     25       2.2892      1.00000
     26       2.2906      1.00000
     27       2.2962      1.00000
     28       2.4570      1.00000
     29       5.7289      0.00000
     30       8.2555      0.00000
     31       9.6655      0.00000
     32       9.6659      0.00000
     33      11.3784      0.00000
     34      12.2427      0.00000
     35      12.2863      0.00000
     36      13.2271      0.00000
     37      13.2273      0.00000
     38      14.1430      0.00000
     39      14.1942      0.00000
     40      14.2144      0.00000
     41      14.2152      0.00000
     42      14.6663      0.00000
     43      14.9175      0.00000
     44      14.9193      0.00000

 k-point     5 :       0.0000    0.0000    0.5000
  band No.  band energies     occupation 
      1     -14.1669      1.00000
      2     -13.4093      1.00000
      3     -13.2550      1.00000
      4     -12.8262      1.00000
      5     -12.8252      1.00000
      6     -12.8234      1.00000
      7     -12.8218      1.00000
      8      -1.1441      1.00000
      9      -1.1425      1.00000
     10      -0.9161      1.00000
     11      -0.6516      1.00000
     12      -0.1952      1.00000
     13       0.0114      1.00000
     14       0.0135      1.00000
     15       0.4653      1.00000
     16       0.5447      1.00000
     17       1.0968      1.00000
     18       1.0987      1.00000
     19       1.1680      1.00000
     20       1.1714      1.00000
     21       1.5492      1.00000
     22       1.5521      1.00000
     23       1.8916      1.00000
     24       1.9739      1.00000
     25       2.4092      1.00000
     26       2.4127      1.00000
     27       2.5163      1.00000
     28       2.5187      1.00000
     29       5.2164      0.00000
     30       8.1012      0.00000
     31      10.3573      0.00000
     32      10.3602      0.00000
     33      10.8516      0.00000
     34      11.1300      0.00000
     35      12.5816      0.00000
     36      12.5845      0.00000
     37      12.7048      0.00000
     38      12.7117      0.00000
     39      13.7853      0.00000
     40      14.3462      0.00000
     41      14.3725      0.00000
     42      14.3743      0.00000
     43      14.9507      0.00000
     44      15.4668      0.00000

 k-point     6 :       0.5000    0.0000    0.5000
  band No.  band energies     occupation 
      1     -14.1081      1.00000
      2     -13.4249      1.00000
      3     -13.0017      1.00000
      4     -13.0007      1.00000
      5     -12.9983      1.00000
      6     -12.9820      1.00000
      7     -12.6479      1.00000
      8      -0.9572      1.00000
      9      -0.7409      1.00000
     10      -0.7405      1.00000
     11      -0.2356      1.00000
     12      -0.0738      1.00000
     13       0.0324      1.00000
     14       0.1729      1.00000
     15       0.1731      1.00000
     16       0.7894      1.00000
     17       0.7898      1.00000
     18       1.0022      1.00000
     19       1.0038      1.00000
     20       1.0502      1.00000
     21       1.1932      1.00000
     22       1.1954      1.00000
     23       1.7985      1.00000
     24       1.8013      1.00000
     25       2.2853      1.00000
     26       2.2900      1.00000
     27       2.2983      1.00000
     28       2.4567      1.00000
     29       5.7289      0.00000
     30       8.2568      0.00000
     31       9.6646      0.00000
     32       9.6647      0.00000
     33      11.3795      0.00000
     34      12.2425      0.00000
     35      12.2871      0.00000
     36      13.2259      0.00000
     37      13.2269      0.00000
     38      14.1451      0.00000
     39      14.1930      0.00000
     40      14.2147      0.00000
     41      14.2162      0.00000
     42      14.6647      0.00000
     43      14.9166      0.00000
     44      14.9185      0.00000

 k-point     7 :       0.0000    0.5000    0.5000
  band No.  band energies     occupation 
      1     -14.1081      1.00000
      2     -13.4250      1.00000
      3     -13.0017      1.00000
      4     -13.0005      1.00000
      5     -12.9987      1.00000
      6     -12.9817      1.00000
      7     -12.6481      1.00000
      8      -0.9576      1.00000
      9      -0.7423      1.00000
     10      -0.7393      1.00000
     11      -0.2357      1.00000
     12      -0.0734      1.00000
     13       0.0326      1.00000
     14       0.1726      1.00000
     15       0.1729      1.00000
     16       0.7877      1.00000
     17       0.7927      1.00000
     18       1.0025      1.00000
     19       1.0037      1.00000
     20       1.0503      1.00000
     21       1.1933      1.00000
     22       1.1956      1.00000
     23       1.7969      1.00000
     24       1.8022      1.00000
     25       2.2897      1.00000
     26       2.2900      1.00000
     27       2.2932      1.00000
     28       2.4566      1.00000
     29       5.7289      0.00000
     30       8.2573      0.00000
     31       9.6631      0.00000
     32       9.6655      0.00000
     33      11.3799      0.00000
     34      12.2425      0.00000
     35      12.2873      0.00000
     36      13.2257      0.00000
     37      13.2268      0.00000
     38      14.1457      0.00000
     39      14.1938      0.00000
     40      14.2140      0.00000
     41      14.2162      0.00000
     42      14.6641      0.00000
     43      14.9154      0.00000
     44      14.9206      0.00000

 k-point     8 :       0.5000    0.5000    0.5000
  band No.  band energies     occupation 
      1     -14.1670      1.00000
      2     -13.4086      1.00000
      3     -13.2556      1.00000
      4     -12.8255      1.00000
      5     -12.8243      1.00000
      6     -12.8239      1.00000
      7     -12.8229      1.00000
      8      -1.1450      1.00000
      9      -1.1433      1.00000
     10      -0.9167      1.00000
     11      -0.6509      1.00000
     12      -0.1944      1.00000
     13       0.0123      1.00000
     14       0.0147      1.00000
     15       0.4654      1.00000
     16       0.5453      1.00000
     17       1.0981      1.00000
     18       1.0994      1.00000
     19       1.1680      1.00000
     20       1.1682      1.00000
     21       1.5488      1.00000
     22       1.5515      1.00000
     23       1.8896      1.00000
     24       1.9762      1.00000
     25       2.4094      1.00000
     26       2.4125      1.00000
     27       2.5152      1.00000
     28       2.5197      1.00000
     29       5.2159      0.00000
     30       8.1009      0.00000
     31      10.3580      0.00000
     32      10.3618      0.00000
     33      10.8501      0.00000
     34      11.1318      0.00000
     35      12.5819      0.00000
     36      12.5831      0.00000
     37      12.7050      0.00000
     38      12.7095      0.00000
     39      13.7830      0.00000
     40      14.3461      0.00000
     41      14.3727      0.00000
     42      14.3751      0.00000
     43      14.9491      0.00000
     44      15.4680      0.00000


--------------------------------------------------------------------------------------------------------


 soft charge-density along one line, spin component           1
         0         1         2         3         4         5         6         7         8         9
 total charge-density along one line
 
 soft charge-density along one line, spin component           2
         0         1         2         3         4         5         6         7         8         9
 total charge-density along one line
 
 pseudopotential strength for first ion, spin component:           1
  2.966   9.410   0.000   0.000   0.000   0.000   0.000   0.000
  9.410  29.709   0.000   0.000   0.000   0.000   0.000   0.000
  0.000   0.000   7.321  -0.000   0.000  10.575  -0.000   0.000
  0.000   0.000  -0.000   7.321   0.000  -0.000  10.575   0.000
  0.000   0.000   0.000   0.000   7.321   0.000   0.000  10.575
  0.000   0.000  10.575  -0.000   0.000  14.506  -0.000   0.000
  0.000   0.000  -0.000  10.575   0.000  -0.000  14.506   0.000
  0.000   0.000   0.000   0.000  10.575   0.000   0.000  14.506
  0.000   0.000   0.000  -0.000   0.000   0.000  -0.000   0.000
 -0.000  -0.000   0.000   0.000  -0.000   0.000   0.000  -0.000
  0.000   0.000  -0.000   0.000  -0.000  -0.000   0.000  -0.000
  0.000   0.000  -0.000   0.000   0.000  -0.000   0.000   0.000
  0.000  -0.000  -0.000   0.000   0.000  -0.000   0.000   0.000
 pseudopotential strength for first ion, spin component:           2
  2.966   9.410   0.000   0.000   0.000   0.000   0.000   0.000
  9.410  29.709   0.000   0.000   0.000   0.000   0.000   0.000
  0.000   0.000   7.321  -0.000   0.000  10.575  -0.000   0.000
  0.000   0.000  -0.000   7.321   0.000  -0.000  10.575   0.000
  0.000   0.000   0.000   0.000   7.321   0.000   0.000  10.575
  0.000   0.000  10.575  -0.000   0.000  14.506  -0.000   0.000
  0.000   0.000  -0.000  10.575   0.000  -0.000  14.506   0.000
  0.000   0.000   0.000   0.000  10.575   0.000   0.000  14.506
  0.000   0.000   0.000  -0.000   0.000   0.000  -0.000   0.000
 -0.000  -0.000   0.000   0.000  -0.000   0.000   0.000  -0.000
  0.000   0.000  -0.000   0.000  -0.000  -0.000   0.000  -0.000
  0.000   0.000  -0.000   0.000   0.000  -0.000   0.000   0.000
  0.000  -0.000  -0.000   0.000   0.000  -0.000   0.000   0.000
 total augmentation occupancy for first ion, spin component:           1
  0.936  -0.045  -0.000  -0.000  -0.001   0.000   0.000   0.000  -0.000   0.000   0.000  -0.000  -0.000
 -0.045   0.002   0.000   0.000   0.000  -0.000  -0.000  -0.000   0.000  -0.000  -0.000   0.000   0.000
 -0.000   0.000   0.108   0.000   0.000  -0.012  -0.000   0.000   0.000   0.000   0.000  -0.001   0.000
 -0.000   0.000   0.000   0.108  -0.000  -0.000  -0.012   0.000  -0.001  -0.000  -0.000   0.000  -0.000
 -0.001   0.000   0.000  -0.000   0.108  -0.000   0.000  -0.012   0.000  -0.001   0.000  -0.000  -0.000
  0.000  -0.000  -0.012  -0.000  -0.000   0.001   0.000  -0.000  -0.000  -0.000  -0.000   0.000  -0.000
  0.000  -0.000  -0.000  -0.012   0.000   0.000   0.001  -0.000   0.000   0.000   0.000  -0.000   0.000
  0.000  -0.000   0.000   0.000  -0.012  -0.000  -0.000   0.001  -0.000   0.000  -0.000   0.000   0.000
 -0.000   0.000   0.000  -0.001   0.000  -0.000   0.000  -0.000   0.011  -0.000   0.000   0.000  -0.000
  0.000  -0.000   0.000  -0.000  -0.001  -0.000   0.000   0.000  -0.000   0.011  -0.000   0.000  -0.000
  0.000  -0.000   0.000  -0.000   0.000  -0.000   0.000  -0.000   0.000  -0.000   0.047  -0.000   0.000
 -0.000   0.000  -0.001   0.000  -0.000   0.000  -0.000   0.000   0.000   0.000  -0.000   0.011   0.000
 -0.000   0.000   0.000  -0.000  -0.000  -0.000   0.000   0.000  -0.000  -0.000   0.000   0.000   0.047
 total augmentation occupancy for first ion, spin component:           2
  0.000  -0.000  -0.000   0.000   0.000   0.000  -0.000  -0.000   0.000  -0.000  -0.000  -0.000   0.000
 -0.000   0.000   0.000  -0.000  -0.000  -0.000   0.000   0.000   0.000   0.000   0.000   0.000  -0.000
 -0.000   0.000   0.000  -0.000  -0.000  -0.000   0.000   0.000   0.000  -0.000   0.000   0.000   0.000
  0.000  -0.000  -0.000   0.000  -0.000   0.000  -0.000   0.000   0.000  -0.000   0.000   0.000  -0.000
  0.000  -0.000  -0.000  -0.000   0.000   0.000   0.000  -0.000  -0.000   0.000  -0.000   0.000   0.000
  0.000  -0.000  -0.000   0.000   0.000   0.000  -0.000  -0.000  -0.000   0.000  -0.000  -0.000  -0.000
 -0.000   0.000   0.000  -0.000   0.000  -0.000   0.000  -0.000   0.000   0.000  -0.000   0.000  -0.000
 -0.000   0.000   0.000   0.000  -0.000  -0.000  -0.000   0.000   0.000  -0.000   0.000   0.000  -0.000
  0.000   0.000   0.000   0.000  -0.000  -0.000   0.000   0.000   0.000  -0.000  -0.000  -0.000  -0.000
 -0.000   0.000  -0.000  -0.000   0.000   0.000   0.000  -0.000  -0.000   0.000  -0.000   0.000   0.000
 -0.000   0.000   0.000   0.000  -0.000  -0.000  -0.000   0.000  -0.000  -0.000   0.000  -0.000  -0.000
 -0.000   0.000   0.000   0.000   0.000  -0.000   0.000   0.000  -0.000   0.000  -0.000   0.000  -0.000
  0.000  -0.000   0.000  -0.000   0.000  -0.000  -0.000  -0.000  -0.000   0.000  -0.000  -0.000   0.000


------------------------ aborting loop because EDIFF is reached ----------------------------------------


 


 total charge     
 
# of ion     s       p       d       tot
----------------------------------------
  1        0.135   0.160   0.069   0.365
  2        0.144   0.162   0.067   0.373
  3        0.144   0.161   0.067   0.372
  4        0.144   0.161   0.067   0.372
  5        0.144   0.161   0.067   0.372
  6        0.144   0.161   0.067   0.373
  7        0.144   0.162   0.067   0.373
  8        0.135   0.160   0.069   0.365
  9        1.566   3.507   0.000   5.073
 10        1.566   3.507   0.000   5.073
 11        1.566   3.507   0.000   5.073
 12        1.566   3.507   0.000   5.073
 13        1.566   3.507   0.000   5.073
 14        1.566   3.507   0.000   5.073
 15        1.569   3.635   0.000   5.203
------------------------------------------------
tot       12.101  25.966   0.540  38.607
 


 magnetization (x)
 
# of ion     s       p       d       tot
----------------------------------------
  1        0.000   0.000   0.000   0.000
  2       -0.000  -0.000   0.000  -0.000
  3       -0.000  -0.000   0.000  -0.000
  4       -0.000  -0.000   0.000  -0.000
  5       -0.000  -0.000   0.000  -0.000
  6       -0.000  -0.000   0.000  -0.000
  7       -0.000  -0.000   0.000  -0.000
  8        0.000   0.000  -0.000   0.000
  9        0.000   0.000   0.000   0.000
 10        0.000   0.000   0.000   0.000
 11        0.000   0.000   0.000   0.000
 12        0.000   0.000   0.000   0.000
 13        0.000   0.000   0.000   0.000
 14        0.000   0.000   0.000   0.000
 15        0.000  -0.000   0.000  -0.000
------------------------------------------------
tot        0.000   0.000   0.000   0.000
 
    CHARGE:  cpu time    0.0200: real time    0.0183
    FORLOC:  cpu time    0.0000: real time    0.0014
    FORNL :  cpu time    0.1280: real time    0.1271
    STRESS:  cpu time    0.3840: real time    0.3848
    FORCOR:  cpu time    0.0200: real time    0.0212
    FORHAR:  cpu time    0.0040: real time    0.0030
    MIXING:  cpu time    0.0000: real time    0.0009
    OFIELD:  cpu time    0.0000: real time    0.0000

  FORCE on cell =-STRESS in cart. coord.  units (eV):
  Direction    XX          YY          ZZ          XY          YZ          ZX
  --------------------------------------------------------------------------------------
  Alpha Z   129.53385   129.53385   129.53385
  Ewald    -784.03407  -783.88456  -783.39066    -0.01626    -0.11363     0.00345
  Hartree   382.74544   382.75282   382.77817    -0.00456    -0.01509    -0.00158
  E(xc)    -253.11136  -253.11329  -253.11974    -0.00111    -0.00072    -0.00115
  Local    -394.82982  -394.97767  -395.46656     0.02881     0.13666     0.00684
  n-local  -126.69683  -126.69112  -126.64985     0.00356    -0.00350     0.00293
  augment    47.31176    47.31135    47.30934     0.00120     0.00212     0.00098
  Kinetic   983.47805   983.47596   983.46927     0.01042     0.02494     0.00736
  Fock        0.00000     0.00000     0.00000     0.00000     0.00000     0.00000
  -------------------------------------------------------------------------------------
  Total     -15.60298   -15.59266   -15.53618     0.02205     0.03078     0.01884
  in kB    -163.18270  -163.07483  -162.48406     0.23064     0.32195     0.19705
  external pressure =     -162.91 kB  Pullay stress =        0.00 kB


 VOLUME and BASIS-vectors are now :
 -----------------------------------------------------------------------------
  energy-cutoff  :      400.00
  volume of cell :      153.19
      direct lattice vectors                 reciprocal lattice vectors
     0.000000000  4.246893000  4.246893000    -0.117733129  0.117733129  0.117733129
     4.246893000  0.000000000  4.246893000     0.117733129 -0.117733129  0.117733129
     4.246893000  4.246893000  0.000000000     0.117733129  0.117733129 -0.117733129

  length of vectors
     6.006013679  6.006013679  6.006013679     0.203919761  0.203919761  0.203919761


 FORCES acting on ions
    electron-ion (+dipol)            ewald-force                    non-local-force                 convergence-correction
 -----------------------------------------------------------------------------------------------
   -.672E-01 -.287E-01 -.177E-01   0.538E-01 0.248E-01 0.135E-01   0.246E-01 0.446E-02 0.111E-02   0.263E-04 -.484E-04 0.169E-04
   -.165E+00 0.101E+00 -.377E+02   0.140E+00 -.832E-01 0.350E+02   0.324E-01 -.249E-01 0.274E+01   0.457E-04 -.244E-04 0.349E-03
   0.422E-01 -.377E+02 -.228E+00   -.340E-01 0.350E+02 0.203E+00   -.492E-02 0.272E+01 0.543E-01   -.177E-04 0.347E-03 -.268E-04
   0.377E+02 0.963E-03 -.135E+00   -.350E+02 0.344E-03 0.116E+00   -.271E+01 0.462E-02 0.274E-01   -.345E-03 0.188E-04 -.473E-04
   -.377E+02 0.193E-01 -.118E+00   0.349E+02 -.146E-01 0.999E-01   0.271E+01 0.581E-04 0.224E-01   0.346E-03 -.164E-04 0.473E-04
   0.907E-01 0.377E+02 0.350E+00   -.763E-01 -.350E+02 -.299E+00   -.164E-01 -.272E+01 -.734E-01   0.178E-04 -.348E-03 0.283E-04
   -.148E+00 -.249E+00 0.378E+02   0.127E+00 0.209E+00 -.350E+02   0.301E-01 0.593E-01 -.275E+01   -.487E-04 0.258E-04 -.349E-03
   0.534E-01 -.184E-01 -.166E-02   -.444E-01 0.142E-01 0.251E-03   -.154E-01 0.252E-02 -.350E-02   -.256E-04 0.463E-04 -.186E-04
   0.183E-01 0.137E+00 -.421E-02   -.293E-02 -.119E+00 0.987E-02   -.724E-02 -.172E-01 -.788E-02   -.800E-05 -.646E-04 0.588E-05
   -.109E+00 0.147E-01 -.140E+00   0.606E-01 -.172E-01 0.108E+00   0.361E-01 0.356E-03 0.266E-01   0.917E-04 0.469E-05 0.437E-04
   -.156E-01 -.230E-01 0.197E+00   0.646E-02 -.164E-01 -.189E+00   0.840E-02 0.292E-01 -.501E-02   0.116E-04 0.440E-04 -.617E-04
   -.183E-01 0.291E-01 0.361E-02   0.843E-02 -.858E-02 -.251E-01   0.876E-02 -.183E-01 0.262E-01   -.502E-05 -.428E-04 0.266E-04
   0.190E+00 0.250E-01 0.994E-01   -.167E+00 -.269E-01 -.900E-01   -.329E-01 -.111E-02 -.140E-01   0.731E-05 0.280E-04 -.157E-04
   0.609E-01 -.213E-01 0.111E-01   -.747E-01 -.890E-02 -.537E-02   0.132E-01 0.293E-01 -.868E-02   -.309E-04 0.158E-04 0.368E-04
   -.330E-01 -.699E-01 -.131E+00   0.299E-01 0.690E-01 0.144E+00   0.220E-02 0.387E-02 0.240E-02   -.125E-04 -.769E-05 -.456E-04
 -----------------------------------------------------------------------------------------------
   -.708E-01 -.587E-01 -.193E-01   0.232E-14 -.151E-13 0.730E-14   0.792E-01 0.730E-01 0.308E-01   0.532E-04 -.217E-04 -.108E-04
 
 
 POSITION                                       TOTAL-FORCE (eV/Angst)
 -----------------------------------------------------------------------------------
      4.24737      0.00560      4.25174         0.010611     -0.000481     -0.003838
      6.37245      6.37938      8.35891         0.006687     -0.007685      0.026019
      6.37178      8.36237      6.36939         0.002746      0.005489      0.028415
      4.38547      6.37564      6.37528         0.003046      0.004989      0.008059
      8.35962      6.37598      6.37559        -0.001250      0.003811      0.003950
      6.37266      4.38992      6.37996        -0.002495     -0.005348     -0.023201
      6.37277      6.37282      4.39210         0.008516      0.018612     -0.037216
      4.25048      4.25272      4.25215        -0.006988     -0.002551     -0.005697
      4.24689      4.25104      2.12864         0.007514     -0.000064     -0.002978
      4.25319      2.12965      4.25483        -0.012852     -0.003116     -0.005693
      6.37280      4.25576      4.24959        -0.001264     -0.011077      0.002216
      2.12599      4.25159      4.25109        -0.001710      0.001290      0.003981
      4.24929      6.37659      4.25225        -0.010059     -0.003950     -0.005397
      4.24903      4.25356      6.37565        -0.001100     -0.001897     -0.003675
      6.37274      6.37610      6.37454        -0.001403      0.001978      0.015055
 -----------------------------------------------------------------------------------
    total drift:                                0.008420      0.014284      0.011496


--------------------------------------------------------------------------------------------------------



  FREE ENERGIE OF THE ION-ELECTRON SYSTEM (eV)
  ---------------------------------------------------
  free  energy   TOTEN  =       -93.64519527 eV

  energy  without entropy=      -93.64519527  energy(sigma->0) =      -93.64519527
 


--------------------------------------------------------------------------------------------------------


    POTLOK:  cpu time    0.7000: real time    0.7007


--------------------------------------------------------------------------------------------------------




--------------------------------------------------------------------------------------------------------


  
 reached required accuracy - stopping structural energy minimisation
     LOOP+:  cpu time   17.5091: real time   17.6042
    4ORBIT:  cpu time    0.0000: real time    0.0000
 


 total charge     
 
# of ion     s       p       d       tot
----------------------------------------
  1        0.135   0.160   0.069   0.365
  2        0.144   0.162   0.067   0.373
  3        0.144   0.161   0.067   0.372
  4        0.144   0.161   0.067   0.372
  5        0.144   0.161   0.067   0.372
  6        0.144   0.161   0.067   0.373
  7        0.144   0.162   0.067   0.373
  8        0.135   0.160   0.069   0.365
  9        1.566   3.507   0.000   5.073
 10        1.566   3.507   0.000   5.073
 11        1.566   3.507   0.000   5.073
 12        1.566   3.507   0.000   5.073
 13        1.566   3.507   0.000   5.073
 14        1.566   3.507   0.000   5.073
 15        1.569   3.635   0.000   5.203
------------------------------------------------
tot       12.101  25.966   0.540  38.607
 


 magnetization (x)
 
# of ion     s       p       d       tot
----------------------------------------
  1        0.000   0.000   0.000   0.000
  2       -0.000  -0.000   0.000  -0.000
  3       -0.000  -0.000   0.000  -0.000
  4       -0.000  -0.000   0.000  -0.000
  5       -0.000  -0.000   0.000  -0.000
  6       -0.000  -0.000   0.000  -0.000
  7       -0.000  -0.000   0.000  -0.000
  8        0.000   0.000  -0.000   0.000
  9        0.000   0.000   0.000   0.000
 10        0.000   0.000   0.000   0.000
 11        0.000   0.000   0.000   0.000
 12        0.000   0.000   0.000   0.000
 13        0.000   0.000   0.000   0.000
 14        0.000   0.000   0.000   0.000
 15        0.000  -0.000   0.000  -0.000
------------------------------------------------
tot        0.000   0.000   0.000   0.000
 

 total amount of memory used by VASP on root node    35878. kBytes
========================================================================

   base      :      30000. kBytes
   nonlr-proj:       1200. kBytes
   fftplans  :        708. kBytes
   grid      :       1766. kBytes
   one-center:         64. kBytes
   wavefun   :       2140. kBytes
 
  
  
 General timing and accounting informations for this job:
 ========================================================
  
                  Total CPU time used (sec):       18.605
                            User time (sec):       18.433
                          System time (sec):        0.172
                         Elapsed time (sec):       18.840
  
                   Maximum memory used (kb):       37016.
                   Average memory used (kb):           0.
  
                          Minor page faults:         9912
                          Major page faults:           10
                 Voluntary context switches:          998
