<?xml version="1.0" encoding="ISO-8859-1"?>
<modeling>
 <generator>
  <i name="program" type="string">vasp </i>
  <i name="version" type="string">5.4.1  </i>
  <i name="subversion" type="string">05Feb16 (build Mar 31 2016 13:39:20) complex                          parallel </i>
  <i name="platform" type="string">IFC91_ompi </i>
  <i name="date" type="string">2018 04 28 </i>
  <i name="time" type="string">12:52:11 </i>
 </generator>
 <incar>
  <i type="string" name="PREC">n</i>
  <i type="string" name="ALGO"> N</i>
  <i type="int" name="ISPIN">     2</i>
  <i type="int" name="NELM">   100</i>
  <i type="int" name="NELMIN">     4</i>
  <i type="int" name="IBRION">     2</i>
  <i name="EDIFF">      0.00000100</i>
  <i name="EDIFFG">     -0.05000000</i>
  <i type="int" name="NSW">    20</i>
  <i type="int" name="ISIF">     2</i>
  <i name="ENCUT">    400.00000000</i>
  <i name="NELECT">     56.00000000</i>
  <i type="string" name="LREAL"> A</i>
  <i type="int" name="ISMEAR">     0</i>
  <i name="SIGMA">      0.05000000</i>
  <i type="logical" name="LWAVE"> F  </i>
  <i type="logical" name="LCHARG"> F  </i>
  <i type="logical" name="LORBIT"> F  </i>
  <i type="logical" name="LASPH"> T  </i>
  <v type="int" name="KPOINT_BSE">    -1     0     0     0</v>
  <i type="int" name="NELM">   100</i>
  <i type="logical" name="LASPH"> T  </i>
 </incar>
 <kpoints>
  <generation param="Gamma">
   <v type="int" name="divisions">       2        2        2 </v>
   <v name="usershift">      0.00000000       0.00000000       0.00000000 </v>
   <v name="genvec1">      0.50000000       0.00000000       0.00000000 </v>
   <v name="genvec2">      0.00000000       0.50000000       0.00000000 </v>
   <v name="genvec3">      0.00000000       0.00000000       0.50000000 </v>
   <v name="shift">      0.00000000       0.00000000       0.00000000 </v>
  </generation>
  <varray name="kpointlist" >
   <v>       0.00000000       0.00000000       0.00000000 </v>
   <v>       0.50000000       0.00000000       0.00000000 </v>
   <v>       0.00000000       0.50000000       0.00000000 </v>
   <v>       0.50000000       0.50000000       0.00000000 </v>
   <v>       0.00000000       0.00000000       0.50000000 </v>
   <v>       0.50000000       0.00000000       0.50000000 </v>
   <v>       0.00000000       0.50000000       0.50000000 </v>
   <v>       0.50000000       0.50000000       0.50000000 </v>
  </varray>
  <varray name="weights" >
   <v>       0.12500000 </v>
   <v>       0.12500000 </v>
   <v>       0.12500000 </v>
   <v>       0.12500000 </v>
   <v>       0.12500000 </v>
   <v>       0.12500000 </v>
   <v>       0.12500000 </v>
   <v>       0.12500000 </v>
  </varray>
 </kpoints>
 <parameters>
  <separator name="general" >
   <i type="string" name="SYSTEM">unknown system</i>
   <i type="logical" name="LCOMPAT"> F  </i>
  </separator>
  <separator name="electronic" >
   <i type="string" name="PREC">n</i>
   <i name="ENMAX">    400.00000000</i>
   <i name="ENAUG">    605.39200000</i>
   <i name="EDIFF">      0.00000100</i>
   <i type="int" name="IALGO">    38</i>
   <i type="int" name="IWAVPR">    11</i>
   <i type="int" name="NBANDS">    44</i>
   <i name="NELECT">     56.00000000</i>
   <i type="int" name="TURBO">     0</i>
   <i type="int" name="IRESTART">     0</i>
   <i type="int" name="NREBOOT">     0</i>
   <i type="int" name="NMIN">     0</i>
   <i name="EREF">      0.00000000</i>
   <separator name="electronic smearing" >
    <i type="int" name="ISMEAR">     0</i>
    <i name="SIGMA">      0.05000000</i>
    <i name="KSPACING">      0.50000000</i>
    <i type="logical" name="KGAMMA"> T  </i>
   </separator>
   <separator name="electronic projectors" >
    <i type="logical" name="LREAL"> T  </i>
    <v name="ROPT">     -0.00050000     -0.00050000</v>
    <i type="int" name="LMAXPAW">  -100</i>
    <i type="int" name="LMAXMIX">     2</i>
    <i type="logical" name="NLSPLINE"> F  </i>
   </separator>
   <separator name="electronic startup" >
    <i type="int" name="ISTART">     0</i>
    <i type="int" name="ICHARG">     2</i>
    <i type="int" name="INIWAV">     1</i>
   </separator>
   <separator name="electronic spin" >
    <i type="int" name="ISPIN">     2</i>
    <i type="logical" name="LNONCOLLINEAR"> F  </i>
    <v name="MAGMOM">      1.00000000      1.00000000      1.00000000      1.00000000      1.00000000      1.00000000      1.00000000      1.00000000      1.00000000      1.00000000      1.00000000      1.00000000      1.00000000      1.00000000      1.00000000</v>
    <i name="NUPDOWN">     -1.00000000</i>
    <i type="logical" name="LSORBIT"> F  </i>
    <v name="SAXIS">      0.00000000      0.00000000      1.00000000</v>
    <i type="logical" name="LSPIRAL"> F  </i>
    <v name="QSPIRAL">      0.00000000      0.00000000      0.00000000</v>
    <i type="logical" name="LZEROZ"> F  </i>
   </separator>
   <separator name="electronic exchange-correlation" >
    <i type="logical" name="LASPH"> T  </i>
    <i type="logical" name="LMETAGGA"> F  </i>
   </separator>
   <separator name="electronic convergence" >
    <i type="int" name="NELM">   100</i>
    <i type="int" name="NELMDL">     0</i>
    <i type="int" name="NELMIN">     4</i>
    <i name="ENINI">    400.00000000</i>
    <separator name="electronic convergence detail" >
     <i type="logical" name="LDIAG"> T  </i>
     <i type="logical" name="LSUBROT"> F  </i>
     <i name="WEIMIN">      0.00100000</i>
     <i name="EBREAK">      0.00000001</i>
     <i name="DEPER">      0.30000000</i>
     <i type="int" name="NRMM">     4</i>
     <i name="TIME">      0.40000000</i>
    </separator>
   </separator>
   <separator name="electronic mixer" >
    <i name="AMIX">      0.40000000</i>
    <i name="BMIX">      1.00000000</i>
    <i name="AMIN">      0.10000000</i>
    <i name="AMIX_MAG">      1.60000000</i>
    <i name="BMIX_MAG">      1.00000000</i>
    <separator name="electronic mixer details" >
     <i type="int" name="IMIX">     4</i>
     <i type="logical" name="MIXFIRST"> F  </i>
     <i type="int" name="MAXMIX">   -45</i>
     <i name="WC">    100.00000000</i>
     <i type="int" name="INIMIX">     1</i>
     <i type="int" name="MIXPRE">     1</i>
     <i type="int" name="MREMOVE">     5</i>
    </separator>
   </separator>
   <separator name="electronic dipolcorrection" >
    <i type="logical" name="LDIPOL"> F  </i>
    <i type="logical" name="LMONO"> F  </i>
    <i type="int" name="IDIPOL">     0</i>
    <i name="EPSILON">      1.00000000</i>
    <v name="DIPOL">   -100.00000000   -100.00000000   -100.00000000</v>
    <i name="EFIELD">      0.00000000</i>
   </separator>
  </separator>
  <separator name="grids" >
   <i type="int" name="NGX">    30</i>
   <i type="int" name="NGY">    30</i>
   <i type="int" name="NGZ">    30</i>
   <i type="int" name="NGXF">    60</i>
   <i type="int" name="NGYF">    60</i>
   <i type="int" name="NGZF">    60</i>
   <i type="logical" name="ADDGRID"> F  </i>
  </separator>
  <separator name="ionic" >
   <i type="int" name="NSW">    20</i>
   <i type="int" name="IBRION">     2</i>
   <i type="int" name="ISIF">     2</i>
   <i name="PSTRESS">      0.00000000</i>
   <i name="EDIFFG">     -0.05000000</i>
   <i type="int" name="NFREE">     1</i>
   <i name="POTIM">      0.50000000</i>
   <i name="SMASS">     -3.00000000</i>
   <i name="SCALEE">      1.00000000</i>
  </separator>
  <separator name="ionic md" >
   <i name="TEBEG">      0.00010000</i>
   <i name="TEEND">      0.00010000</i>
   <i type="int" name="NBLOCK">     1</i>
   <i type="int" name="KBLOCK">    20</i>
   <i type="int" name="NPACO">   256</i>
   <i name="APACO">     16.00000000</i>
  </separator>
  <separator name="symmetry" >
   <i type="int" name="ISYM">     2</i>
   <i name="SYMPREC">      0.00001000</i>
  </separator>
  <separator name="dos" >
   <i type="logical" name="LORBIT"> F  </i>
   <v name="RWIGS">     -1.00000000     -1.00000000</v>
   <i type="int" name="NEDOS">   301</i>
   <i name="EMIN">     10.00000000</i>
   <i name="EMAX">    -10.00000000</i>
   <i name="EFERMI">      0.00000000</i>
  </separator>
  <separator name="writing" >
   <i type="int" name="NWRITE">     2</i>
   <i type="logical" name="LWAVE"> F  </i>
   <i type="logical" name="LCHARG"> F  </i>
   <i type="logical" name="LPARD"> F  </i>
   <i type="logical" name="LVTOT"> F  </i>
   <i type="logical" name="LVHAR"> F  </i>
   <i type="logical" name="LELF"> F  </i>
   <i type="logical" name="LOPTICS"> F  </i>
   <v name="STM">      0.00000000      0.00000000      0.00000000      0.00000000      0.00000000      0.00000000      0.00000000</v>
  </separator>
  <separator name="performance" >
   <i type="int" name="NPAR">     4</i>
   <i type="int" name="NSIM">     4</i>
   <i type="int" name="NBLK">    -1</i>
   <i type="logical" name="LPLANE"> T  </i>
   <i type="logical" name="LSCALAPACK"> T  </i>
   <i type="logical" name="LSCAAWARE"> F  </i>
   <i type="logical" name="LSCALU"> F  </i>
   <i type="logical" name="LASYNC"> F  </i>
   <i type="logical" name="LORBITALREAL"> F  </i>
  </separator>
  <separator name="miscellaneous" >
   <i type="int" name="IDIOT">     3</i>
   <i type="logical" name="LMUSIC"> F  </i>
   <v name="POMASS">     24.30500000     16.00000000</v>
   <v name="DARWINR">      0.00000000      0.00000000</v>
   <v name="DARWINV">      1.00000000      1.00000000</v>
   <i type="logical" name="LCORR"> T  </i>
  </separator>
  <i type="logical" name="GGA_COMPAT"> T  </i>
  <i type="logical" name="LBERRY"> F  </i>
  <i type="int" name="ICORELEVEL">     0</i>
  <i type="logical" name="LDAU"> F  </i>
  <i type="int" name="I_CONSTRAINED_M">     0</i>
  <separator name="electronic exchange-correlation" >
   <i type="string" name="GGA">--</i>
   <i type="int" name="VOSKOWN">     0</i>
   <i type="logical" name="LHFCALC"> F  </i>
   <i type="string" name="PRECFOCK"></i>
   <i type="logical" name="LSYMGRAD"> F  </i>
   <i type="logical" name="LHFONE"> F  </i>
   <i type="logical" name="LRHFCALC"> F  </i>
   <i type="logical" name="LTHOMAS"> F  </i>
   <i type="logical" name="LMODELHF"> F  </i>
   <i name="ENCUT4O">     -1.00000000</i>
   <i type="int" name="EXXOEP">     0</i>
   <i type="int" name="FOURORBIT">     0</i>
   <i name="AEXX">      0.00000000</i>
   <i name="HFALPHA">      0.00000000</i>
   <i name="MCALPHA">      0.00000000</i>
   <i name="ALDAX">      1.00000000</i>
   <i name="AGGAX">      1.00000000</i>
   <i name="ALDAC">      1.00000000</i>
   <i name="AGGAC">      1.00000000</i>
   <i type="int" name="NKREDX">     1</i>
   <i type="int" name="NKREDY">     1</i>
   <i type="int" name="NKREDZ">     1</i>
   <i type="logical" name="SHIFTRED"> F  </i>
   <i type="logical" name="ODDONLY"> F  </i>
   <i type="logical" name="EVENONLY"> F  </i>
   <i type="int" name="LMAXFOCK">     0</i>
   <i type="int" name="NMAXFOCKAE">     0</i>
   <i type="logical" name="LFOCKAEDFT"> F  </i>
   <i name="HFSCREEN">      0.00000000</i>
   <i name="HFSCREENC">      0.00000000</i>
   <i type="int" name="NBANDSGWLOW">     0</i>
  </separator>
  <separator name="vdW DFT" >
   <i type="logical" name="LUSE_VDW"> F  </i>
   <i name="Zab_VDW">     -0.84910000</i>
   <i name="PARAM1">      0.12340000</i>
   <i name="PARAM2">      1.00000000</i>
   <i name="PARAM3">      0.00000000</i>
  </separator>
  <separator name="model GW" >
   <i type="int" name="MODEL_GW">     0</i>
   <i name="MODEL_EPS0">      6.12779100</i>
   <i name="MODEL_ALPHA">      1.00000000</i>
  </separator>
  <separator name="linear response parameters" >
   <i type="logical" name="LEPSILON"> F  </i>
   <i type="logical" name="LRPA"> F  </i>
   <i type="logical" name="LNABLA"> F  </i>
   <i type="logical" name="LVEL"> F  </i>
   <i type="int" name="KINTER">     0</i>
   <i name="CSHIFT">      0.10000000</i>
   <i name="OMEGAMAX">     -1.00000000</i>
   <i name="DEG_THRESHOLD">      0.00200000</i>
  </separator>
  <separator name="orbital magnetization" >
   <i type="logical" name="NUCIND"> F  </i>
   <v name="MAGPOS">      0.00000000      0.00000000      0.00000000</v>
   <i type="logical" name="LNICSALL"> T  </i>
   <i type="logical" name="ORBITALMAG"> F  </i>
   <i type="logical" name="LMAGBLOCH"> F  </i>
   <i type="logical" name="LCHIMAG"> F  </i>
   <i type="logical" name="LGAUGE"> T  </i>
   <i type="int" name="MAGATOM">     0</i>
   <v name="MAGDIPOL">      0.00000000      0.00000000      0.00000000</v>
   <v name="AVECCONST">      0.00000000      0.00000000      0.00000000</v>
  </separator>
  <separator name="response functions" >
   <i type="logical" name="LADDER"> F  </i>
   <i type="logical" name="LFXC"> F  </i>
   <i type="logical" name="LHARTREE"> T  </i>
   <i type="int" name="IBSE">     0</i>
   <v type="int" name="KPOINT">    -1     0     0     0</v>
   <i type="logical" name="LTCTE"> F  </i>
   <i type="logical" name="LTETE"> F  </i>
   <i type="logical" name="LTRIPLET"> F  </i>
   <i type="logical" name="LFXCEPS"> F  </i>
   <i type="logical" name="LFXHEG"> F  </i>
   <i type="int" name="NATURALO">     0</i>
   <i type="logical" name="L2ORDER"> F  </i>
   <i type="logical" name="LUSEW"> F  </i>
   <i name="ENCUTGW">     -2.00000000</i>
   <i name="ENCUTGWSOFT">     -2.00000000</i>
   <i name="ENCUTLF">     -1.00000000</i>
   <i type="int" name="LMAXMP2">    -1</i>
   <i name="SCISSOR">      0.00000000</i>
   <i type="int" name="NOMEGA">     0</i>
   <i type="int" name="NOMEGAR">     0</i>
   <i type="int" name="NBANDSGW">    -1</i>
   <i type="int" name="NBANDSO">    -1</i>
   <i type="int" name="NBANDSV">    -1</i>
   <i type="int" name="NELM">   100</i>
   <i type="int" name="NELMHF">     1</i>
   <i type="int" name="DIM">     3</i>
   <i type="int" name="ANTIRES">     0</i>
   <i name="OMEGAMAX">    -30.00000000</i>
   <i name="OMEGAMIN">    -30.00000000</i>
   <i name="OMEGATL">   -200.00000000</i>
   <i type="int" name="OMEGAGRID">     0</i>
   <i name="CSHIFT">     -0.10000000</i>
   <i type="logical" name="SELFENERGY"> F  </i>
   <i type="logical" name="LSPECTRAL"> F  </i>
   <i type="logical" name="LSPECTRALGW"> F  </i>
   <i type="logical" name="LSINGLES"> F  </i>
   <i type="logical" name="LFERMIGW"> F  </i>
   <i type="logical" name="ODDONLYGW"> F  </i>
   <i type="logical" name="EVENONLYGW"> F  </i>
   <i type="int" name="NKREDLFX">     1</i>
   <i type="int" name="NKREDLFY">     1</i>
   <i type="int" name="NKREDLFZ">     1</i>
   <i type="int" name="MAXMEM">  1800</i>
   <i type="int" name="TELESCOPE">     0</i>
   <i type="int" name="TAUPAR">     1</i>
   <i type="int" name="OMEGAPAR">    -1</i>
   <i name="LAMBDA">      1.00000000</i>
  </separator>
  <separator name="External order field" >
   <i name="OFIELD_KAPPA">      0.00000000</i>
   <v name="OFIELD_K">      0.00000000      0.00000000      0.00000000</v>
   <i name="OFIELD_Q6_NEAR">      0.00000000</i>
   <i name="OFIELD_Q6_FAR">      0.00000000</i>
   <i name="OFIELD_A">      0.00000000</i>
  </separator>
 </parameters>
 <atominfo>
  <atoms>      15 </atoms>
  <types>       2 </types>
  <array name="atoms" >
   <dimension dim="1">ion</dimension>
   <field type="string">element</field>
   <field type="int">atomtype</field>
   <set>
    <rc><c>Mg</c><c>   1</c></rc>
    <rc><c>Mg</c><c>   1</c></rc>
    <rc><c>Mg</c><c>   1</c></rc>
    <rc><c>Mg</c><c>   1</c></rc>
    <rc><c>Mg</c><c>   1</c></rc>
    <rc><c>Mg</c><c>   1</c></rc>
    <rc><c>Mg</c><c>   1</c></rc>
    <rc><c>Mg</c><c>   1</c></rc>
    <rc><c>O </c><c>   2</c></rc>
    <rc><c>O </c><c>   2</c></rc>
    <rc><c>O </c><c>   2</c></rc>
    <rc><c>O </c><c>   2</c></rc>
    <rc><c>O </c><c>   2</c></rc>
    <rc><c>O </c><c>   2</c></rc>
    <rc><c>O </c><c>   2</c></rc>
   </set>
  </array>
  <array name="atomtypes" >
   <dimension dim="1">type</dimension>
   <field type="int">atomspertype</field>
   <field type="string">element</field>
   <field>mass</field>
   <field>valence</field>
   <field type="string">pseudopotential</field>
   <set>
    <rc><c>   8</c><c>Mg</c><c>     24.30500000</c><c>      2.00000000</c><c>  PAW_PBE Mg 13Apr2007                  </c></rc>
    <rc><c>   7</c><c>O </c><c>     16.00000000</c><c>      6.00000000</c><c>  PAW_PBE O 08Apr2002                   </c></rc>
   </set>
  </array>
 </atominfo>
 <structure name="initialpos" >
  <crystal>
   <varray name="basis" >
    <v>       0.00000000       4.24689300       4.24689300 </v>
    <v>       4.24689300       0.00000000       4.24689300 </v>
    <v>       4.24689300       4.24689300       0.00000000 </v>
   </varray>
   <i name="volume">    153.19477498 </i>
   <varray name="rec_basis" >
    <v>      -0.11773313       0.11773313       0.11773313 </v>
    <v>       0.11773313      -0.11773313       0.11773313 </v>
    <v>       0.11773313       0.11773313      -0.11773313 </v>
   </varray>
  </crystal>
  <varray name="positions" >
   <v>       0.00117440       0.99996761       0.00014486 </v>
   <v>       0.98493692       0.98330499       0.51719101 </v>
   <v>       0.98424558       0.51552984       0.98480926 </v>
   <v>       0.98489023       0.51627412       0.51635692 </v>
   <v>       0.51707846       0.98415824       0.98425076 </v>
   <v>       0.51769874       0.98456572       0.51598023 </v>
   <v>       0.51710143       0.51708995       0.98348275 </v>
   <v>       0.50088311       0.50035537       0.50048862 </v>
   <v>       0.25110075       0.25012251       0.74987623 </v>
   <v>       0.25092260       0.75094564       0.25053805 </v>
   <v>       0.25107257       0.74956326       0.75101508 </v>
   <v>       0.75074863       0.25024046       0.25035775 </v>
   <v>       0.75108382       0.25017813       0.75038707 </v>
   <v>       0.75115884       0.75009171       0.25041056 </v>
   <v>       0.75089093       0.75009843       0.75046586 </v>
  </varray>
 </structure>
 <calculation>
  <scstep>
   <time name="dav">    0.46    0.47</time>
   <time name="total">    1.18    1.18</time>
   <energy>
    <i name="alphaZ">    129.53385374 </i>
    <i name="ewald">  -2351.30433313 </i>
    <i name="hartreedc">   -985.78274630 </i>
    <i name="XCdc">   -189.38816649 </i>
    <i name="pawpsdc">   2946.27252624 </i>
    <i name="pawaedc">  -2543.92834819 </i>
    <i name="eentropy">     -0.00282359 </i>
    <i name="bandstr">      0.68633144 </i>
    <i name="atom">   3210.13655998 </i>
    <i name="e_fr_energy">    216.22285370 </i>
    <i name="e_wo_entrp">    216.22567729 </i>
    <i name="e_0_energy">    216.22426550 </i>
   </energy>
  </scstep>
  <scstep>
   <time name="dav">    0.53    0.53</time>
   <time name="total">    0.53    0.53</time>
   <energy>
    <i name="e_fr_energy">    -81.80129393 </i>
    <i name="e_wo_entrp">    -81.80129393 </i>
    <i name="e_0_energy">    -81.80129393 </i>
   </energy>
  </scstep>
  <scstep>
   <time name="dav">    0.52    0.52</time>
   <time name="total">    0.52    0.52</time>
   <energy>
    <i name="e_fr_energy">    -99.48109980 </i>
    <i name="e_wo_entrp">    -99.48109980 </i>
    <i name="e_0_energy">    -99.48109980 </i>
   </energy>
  </scstep>
  <scstep>
   <time name="dav">    0.52    0.52</time>
   <time name="total">    0.52    0.52</time>
   <energy>
    <i name="e_fr_energy">    -99.59968416 </i>
    <i name="e_wo_entrp">    -99.59968416 </i>
    <i name="e_0_energy">    -99.59968416 </i>
   </energy>
  </scstep>
  <scstep>
   <time name="dav">    0.52    0.52</time>
   <time name="total">    0.54    0.54</time>
   <energy>
    <i name="e_fr_energy">    -99.60048405 </i>
    <i name="e_wo_entrp">    -99.60048405 </i>
    <i name="e_0_energy">    -99.60048405 </i>
   </energy>
  </scstep>
  <scstep>
   <time name="dav">    0.47    0.47</time>
   <time name="total">    1.20    1.21</time>
   <energy>
    <i name="e_fr_energy">    -94.10121337 </i>
    <i name="e_wo_entrp">    -94.10121337 </i>
    <i name="e_0_energy">    -94.10121337 </i>
   </energy>
  </scstep>
  <scstep>
   <time name="dav">    0.50    0.50</time>
   <time name="total">    1.22    1.23</time>
   <energy>
    <i name="e_fr_energy">    -93.94174347 </i>
    <i name="e_wo_entrp">    -93.94174347 </i>
    <i name="e_0_energy">    -93.94174347 </i>
   </energy>
  </scstep>
  <scstep>
   <time name="dav">    0.50    0.50</time>
   <time name="total">    1.22    1.23</time>
   <energy>
    <i name="e_fr_energy">    -93.66919563 </i>
    <i name="e_wo_entrp">    -93.66919563 </i>
    <i name="e_0_energy">    -93.66919563 </i>
   </energy>
  </scstep>
  <scstep>
   <time name="dav">    0.53    0.53</time>
   <time name="total">    1.26    1.26</time>
   <energy>
    <i name="e_fr_energy">    -93.64527104 </i>
    <i name="e_wo_entrp">    -93.64527104 </i>
    <i name="e_0_energy">    -93.64527104 </i>
   </energy>
  </scstep>
  <scstep>
   <time name="dav">    0.50    0.50</time>
   <time name="total">    1.22    1.23</time>
   <energy>
    <i name="e_fr_energy">    -93.64435010 </i>
    <i name="e_wo_entrp">    -93.64435010 </i>
    <i name="e_0_energy">    -93.64435010 </i>
   </energy>
  </scstep>
  <scstep>
   <time name="dav">    0.52    0.53</time>
   <time name="total">    1.25    1.26</time>
   <energy>
    <i name="e_fr_energy">    -93.64495097 </i>
    <i name="e_wo_entrp">    -93.64495097 </i>
    <i name="e_0_energy">    -93.64495097 </i>
   </energy>
  </scstep>
  <scstep>
   <time name="dav">    0.52    0.52</time>
   <time name="total">    1.25    1.25</time>
   <energy>
    <i name="e_fr_energy">    -93.64516356 </i>
    <i name="e_wo_entrp">    -93.64516356 </i>
    <i name="e_0_energy">    -93.64516356 </i>
   </energy>
  </scstep>
  <scstep>
   <time name="dav">    0.51    0.51</time>
   <time name="total">    1.24    1.25</time>
   <energy>
    <i name="e_fr_energy">    -93.64518426 </i>
    <i name="e_wo_entrp">    -93.64518426 </i>
    <i name="e_0_energy">    -93.64518426 </i>
   </energy>
  </scstep>
  <scstep>
   <time name="dav">    0.49    0.49</time>
   <time name="total">    1.22    1.22</time>
   <energy>
    <i name="e_fr_energy">    -93.64519449 </i>
    <i name="e_wo_entrp">    -93.64519449 </i>
    <i name="e_0_energy">    -93.64519449 </i>
   </energy>
  </scstep>
  <scstep>
   <time name="dav">    0.49    0.50</time>
   <time name="total">    1.20    1.21</time>
   <energy>
    <i name="alphaZ">    129.53385374 </i>
    <i name="ewald">  -2351.30433313 </i>
    <i name="hartreedc">  -1148.30485609 </i>
    <i name="XCdc">   -186.93605144 </i>
    <i name="pawpsdc">   3892.25077398 </i>
    <i name="pawaedc">  -3491.57055944 </i>
    <i name="eentropy">     -0.00000000 </i>
    <i name="bandstr">   -147.45058287 </i>
    <i name="atom">   3210.13655998 </i>
    <i name="e_fr_energy">    -93.64519527 </i>
    <i name="e_wo_entrp">    -93.64519527 </i>
    <i name="e_0_energy">    -93.64519527 </i>
   </energy>
  </scstep>
  <structure>
   <crystal>
    <varray name="basis" >
     <v>       0.00000000       4.24689300       4.24689300 </v>
     <v>       4.24689300       0.00000000       4.24689300 </v>
     <v>       4.24689300       4.24689300       0.00000000 </v>
    </varray>
    <i name="volume">    153.19477498 </i>
    <varray name="rec_basis" >
     <v>      -0.11773313       0.11773313       0.11773313 </v>
     <v>       0.11773313      -0.11773313       0.11773313 </v>
     <v>       0.11773313       0.11773313      -0.11773313 </v>
    </varray>
   </crystal>
   <varray name="positions" >
    <v>       0.00117440       0.99996761       0.00014486 </v>
    <v>       0.98493692       0.98330499       0.51719101 </v>
    <v>       0.98424558       0.51552984       0.98480926 </v>
    <v>       0.98489023       0.51627412       0.51635692 </v>
    <v>       0.51707846       0.98415824       0.98425076 </v>
    <v>       0.51769874       0.98456572       0.51598023 </v>
    <v>       0.51710143       0.51708995       0.98348275 </v>
    <v>       0.50088311       0.50035537       0.50048862 </v>
    <v>       0.25110075       0.25012251       0.74987623 </v>
    <v>       0.25092260       0.75094564       0.25053805 </v>
    <v>       0.25107257       0.74956326       0.75101508 </v>
    <v>       0.75074863       0.25024046       0.25035775 </v>
    <v>       0.75108382       0.25017813       0.75038707 </v>
    <v>       0.75115884       0.75009171       0.25041056 </v>
    <v>       0.75089093       0.75009843       0.75046586 </v>
   </varray>
  </structure>
  <varray name="forces" >
   <v>       0.01061136      -0.00048070      -0.00383783 </v>
   <v>       0.00668692      -0.00768466       0.02601865 </v>
   <v>       0.00274589       0.00548942       0.02841486 </v>
   <v>       0.00304610       0.00498924       0.00805936 </v>
   <v>      -0.00125020       0.00381051       0.00395048 </v>
   <v>      -0.00249455      -0.00534838      -0.02320141 </v>
   <v>       0.00851630       0.01861212      -0.03721599 </v>
   <v>      -0.00698835      -0.00255110      -0.00569741 </v>
   <v>       0.00751426      -0.00006386      -0.00297774 </v>
   <v>      -0.01285176      -0.00311618      -0.00569257 </v>
   <v>      -0.00126362      -0.01107722       0.00221580 </v>
   <v>      -0.00170998       0.00129030       0.00398061 </v>
   <v>      -0.01005949      -0.00395005      -0.00539677 </v>
   <v>      -0.00109987      -0.00189715      -0.00367532 </v>
   <v>      -0.00140301       0.00197771       0.01505527 </v>
  </varray>
  <varray name="stress" >
   <v>    -163.18270275       0.23064479       0.19705487 </v>
   <v>       0.23064481    -163.07482805       0.32195397 </v>
   <v>       0.19705496       0.32195363    -162.48405730 </v>
  </varray>
  <energy>
   <i name="e_fr_energy">    -93.64519527 </i>
   <i name="e_wo_entrp">    -93.64519527 </i>
   <i name="e_0_energy">     -0.00000000 </i>
  </energy>
  <time name="totalsc">   17.51   17.60</time>
  <eigenvalues>
   <array>
    <dimension dim="1">band</dimension>
    <dimension dim="2">kpoint</dimension>
    <dimension dim="3">spin</dimension>
    <field>eigene</field>
    <field>occ</field>
    <set>
     <set comment="spin 1">
      <set comment="kpoint 1">
       <r>  -14.3572    1.0000 </r>
       <r>  -13.4559    1.0000 </r>
       <r>  -12.9373    1.0000 </r>
       <r>  -12.9366    1.0000 </r>
       <r>  -12.9363    1.0000 </r>
       <r>  -12.6934    1.0000 </r>
       <r>  -12.6928    1.0000 </r>
       <r>   -1.6299    1.0000 </r>
       <r>   -1.6292    1.0000 </r>
       <r>   -1.6279    1.0000 </r>
       <r>   -1.2917    1.0000 </r>
       <r>   -0.5388    1.0000 </r>
       <r>   -0.5385    1.0000 </r>
       <r>   -0.5373    1.0000 </r>
       <r>    1.4070    1.0000 </r>
       <r>    1.4100    1.0000 </r>
       <r>    1.4104    1.0000 </r>
       <r>    1.6051    1.0000 </r>
       <r>    1.6057    1.0000 </r>
       <r>    1.6057    1.0000 </r>
       <r>    2.2963    1.0000 </r>
       <r>    2.2967    1.0000 </r>
       <r>    2.2980    1.0000 </r>
       <r>    2.4589    1.0000 </r>
       <r>    2.4594    1.0000 </r>
       <r>    2.6730    1.0000 </r>
       <r>    2.6739    1.0000 </r>
       <r>    2.6743    1.0000 </r>
       <r>    3.4525    0.0000 </r>
       <r>    8.7297    0.0000 </r>
       <r>   10.7738    0.0000 </r>
       <r>   10.7748    0.0000 </r>
       <r>   10.7751    0.0000 </r>
       <r>   11.3005    0.0000 </r>
       <r>   11.3022    0.0000 </r>
       <r>   11.3031    0.0000 </r>
       <r>   12.2689    0.0000 </r>
       <r>   12.2695    0.0000 </r>
       <r>   12.2698    0.0000 </r>
       <r>   12.5237    0.0000 </r>
       <r>   12.5254    0.0000 </r>
       <r>   12.6629    0.0000 </r>
       <r>   15.4964    0.0000 </r>
       <r>   15.4988    0.0000 </r>
      </set>
      <set comment="kpoint 2">
       <r>  -14.1671    1.0000 </r>
       <r>  -13.4082    1.0000 </r>
       <r>  -13.2559    1.0000 </r>
       <r>  -12.8261    1.0000 </r>
       <r>  -12.8250    1.0000 </r>
       <r>  -12.8233    1.0000 </r>
       <r>  -12.8223    1.0000 </r>
       <r>   -1.1451    1.0000 </r>
       <r>   -1.1435    1.0000 </r>
       <r>   -0.9168    1.0000 </r>
       <r>   -0.6506    1.0000 </r>
       <r>   -0.1944    1.0000 </r>
       <r>    0.0124    1.0000 </r>
       <r>    0.0146    1.0000 </r>
       <r>    0.4655    1.0000 </r>
       <r>    0.5457    1.0000 </r>
       <r>    1.0981    1.0000 </r>
       <r>    1.0998    1.0000 </r>
       <r>    1.1682    1.0000 </r>
       <r>    1.1690    1.0000 </r>
       <r>    1.5486    1.0000 </r>
       <r>    1.5510    1.0000 </r>
       <r>    1.8894    1.0000 </r>
       <r>    1.9757    1.0000 </r>
       <r>    2.4099    1.0000 </r>
       <r>    2.4126    1.0000 </r>
       <r>    2.5148    1.0000 </r>
       <r>    2.5191    1.0000 </r>
       <r>    5.2172    0.0000 </r>
       <r>    8.1009    0.0000 </r>
       <r>   10.3586    0.0000 </r>
       <r>   10.3616    0.0000 </r>
       <r>   10.8503    0.0000 </r>
       <r>   11.1319    0.0000 </r>
       <r>   12.5815    0.0000 </r>
       <r>   12.5832    0.0000 </r>
       <r>   12.7058    0.0000 </r>
       <r>   12.7098    0.0000 </r>
       <r>   13.7833    0.0000 </r>
       <r>   14.3460    0.0000 </r>
       <r>   14.3726    0.0000 </r>
       <r>   14.3750    0.0000 </r>
       <r>   14.9494    0.0000 </r>
       <r>   15.4683    0.0000 </r>
      </set>
      <set comment="kpoint 3">
       <r>  -14.1669    1.0000 </r>
       <r>  -13.4098    1.0000 </r>
       <r>  -13.2546    1.0000 </r>
       <r>  -12.8261    1.0000 </r>
       <r>  -12.8256    1.0000 </r>
       <r>  -12.8233    1.0000 </r>
       <r>  -12.8217    1.0000 </r>
       <r>   -1.1437    1.0000 </r>
       <r>   -1.1424    1.0000 </r>
       <r>   -0.9156    1.0000 </r>
       <r>   -0.6521    1.0000 </r>
       <r>   -0.1953    1.0000 </r>
       <r>    0.0110    1.0000 </r>
       <r>    0.0131    1.0000 </r>
       <r>    0.4655    1.0000 </r>
       <r>    0.5444    1.0000 </r>
       <r>    1.0965    1.0000 </r>
       <r>    1.0983    1.0000 </r>
       <r>    1.1683    1.0000 </r>
       <r>    1.1717    1.0000 </r>
       <r>    1.5495    1.0000 </r>
       <r>    1.5524    1.0000 </r>
       <r>    1.8921    1.0000 </r>
       <r>    1.9734    1.0000 </r>
       <r>    2.4093    1.0000 </r>
       <r>    2.4118    1.0000 </r>
       <r>    2.5164    1.0000 </r>
       <r>    2.5194    1.0000 </r>
       <r>    5.2175    0.0000 </r>
       <r>    8.1018    0.0000 </r>
       <r>   10.3575    0.0000 </r>
       <r>   10.3603    0.0000 </r>
       <r>   10.8519    0.0000 </r>
       <r>   11.1295    0.0000 </r>
       <r>   12.5816    0.0000 </r>
       <r>   12.5850    0.0000 </r>
       <r>   12.7046    0.0000 </r>
       <r>   12.7117    0.0000 </r>
       <r>   13.7854    0.0000 </r>
       <r>   14.3461    0.0000 </r>
       <r>   14.3722    0.0000 </r>
       <r>   14.3744    0.0000 </r>
       <r>   14.9509    0.0000 </r>
       <r>   15.4666    0.0000 </r>
      </set>
      <set comment="kpoint 4">
       <r>  -14.1081    1.0000 </r>
       <r>  -13.4244    1.0000 </r>
       <r>  -13.0011    1.0000 </r>
       <r>  -13.0005    1.0000 </r>
       <r>  -12.9992    1.0000 </r>
       <r>  -12.9828    1.0000 </r>
       <r>  -12.6475    1.0000 </r>
       <r>   -0.9560    1.0000 </r>
       <r>   -0.7406    1.0000 </r>
       <r>   -0.7403    1.0000 </r>
       <r>   -0.2353    1.0000 </r>
       <r>   -0.0752    1.0000 </r>
       <r>    0.0321    1.0000 </r>
       <r>    0.1735    1.0000 </r>
       <r>    0.1737    1.0000 </r>
       <r>    0.7870    1.0000 </r>
       <r>    0.7879    1.0000 </r>
       <r>    1.0029    1.0000 </r>
       <r>    1.0032    1.0000 </r>
       <r>    1.0493    1.0000 </r>
       <r>    1.1929    1.0000 </r>
       <r>    1.1946    1.0000 </r>
       <r>    1.8007    1.0000 </r>
       <r>    1.8013    1.0000 </r>
       <r>    2.2892    1.0000 </r>
       <r>    2.2905    1.0000 </r>
       <r>    2.2962    1.0000 </r>
       <r>    2.4570    1.0000 </r>
       <r>    5.7299    0.0000 </r>
       <r>    8.2558    0.0000 </r>
       <r>    9.6659    0.0000 </r>
       <r>    9.6662    0.0000 </r>
       <r>   11.3783    0.0000 </r>
       <r>   12.2426    0.0000 </r>
       <r>   12.2863    0.0000 </r>
       <r>   13.2270    0.0000 </r>
       <r>   13.2272    0.0000 </r>
       <r>   14.1431    0.0000 </r>
       <r>   14.1940    0.0000 </r>
       <r>   14.2143    0.0000 </r>
       <r>   14.2151    0.0000 </r>
       <r>   14.6664    0.0000 </r>
       <r>   14.9175    0.0000 </r>
       <r>   14.9194    0.0000 </r>
      </set>
      <set comment="kpoint 5">
       <r>  -14.1669    1.0000 </r>
       <r>  -13.4093    1.0000 </r>
       <r>  -13.2550    1.0000 </r>
       <r>  -12.8263    1.0000 </r>
       <r>  -12.8252    1.0000 </r>
       <r>  -12.8235    1.0000 </r>
       <r>  -12.8218    1.0000 </r>
       <r>   -1.1442    1.0000 </r>
       <r>   -1.1425    1.0000 </r>
       <r>   -0.9160    1.0000 </r>
       <r>   -0.6516    1.0000 </r>
       <r>   -0.1952    1.0000 </r>
       <r>    0.0114    1.0000 </r>
       <r>    0.0135    1.0000 </r>
       <r>    0.4654    1.0000 </r>
       <r>    0.5447    1.0000 </r>
       <r>    1.0967    1.0000 </r>
       <r>    1.0987    1.0000 </r>
       <r>    1.1680    1.0000 </r>
       <r>    1.1714    1.0000 </r>
       <r>    1.5492    1.0000 </r>
       <r>    1.5521    1.0000 </r>
       <r>    1.8916    1.0000 </r>
       <r>    1.9739    1.0000 </r>
       <r>    2.4092    1.0000 </r>
       <r>    2.4127    1.0000 </r>
       <r>    2.5163    1.0000 </r>
       <r>    2.5187    1.0000 </r>
       <r>    5.2174    0.0000 </r>
       <r>    8.1015    0.0000 </r>
       <r>   10.3577    0.0000 </r>
       <r>   10.3605    0.0000 </r>
       <r>   10.8516    0.0000 </r>
       <r>   11.1300    0.0000 </r>
       <r>   12.5815    0.0000 </r>
       <r>   12.5844    0.0000 </r>
       <r>   12.7049    0.0000 </r>
       <r>   12.7117    0.0000 </r>
       <r>   13.7853    0.0000 </r>
       <r>   14.3462    0.0000 </r>
       <r>   14.3724    0.0000 </r>
       <r>   14.3743    0.0000 </r>
       <r>   14.9507    0.0000 </r>
       <r>   15.4669    0.0000 </r>
      </set>
      <set comment="kpoint 6">
       <r>  -14.1081    1.0000 </r>
       <r>  -13.4249    1.0000 </r>
       <r>  -13.0017    1.0000 </r>
       <r>  -13.0007    1.0000 </r>
       <r>  -12.9984    1.0000 </r>
       <r>  -12.9820    1.0000 </r>
       <r>  -12.6480    1.0000 </r>
       <r>   -0.9571    1.0000 </r>
       <r>   -0.7410    1.0000 </r>
       <r>   -0.7405    1.0000 </r>
       <r>   -0.2357    1.0000 </r>
       <r>   -0.0739    1.0000 </r>
       <r>    0.0325    1.0000 </r>
       <r>    0.1729    1.0000 </r>
       <r>    0.1730    1.0000 </r>
       <r>    0.7894    1.0000 </r>
       <r>    0.7898    1.0000 </r>
       <r>    1.0022    1.0000 </r>
       <r>    1.0038    1.0000 </r>
       <r>    1.0502    1.0000 </r>
       <r>    1.1931    1.0000 </r>
       <r>    1.1954    1.0000 </r>
       <r>    1.7985    1.0000 </r>
       <r>    1.8013    1.0000 </r>
       <r>    2.2852    1.0000 </r>
       <r>    2.2900    1.0000 </r>
       <r>    2.2982    1.0000 </r>
       <r>    2.4567    1.0000 </r>
       <r>    5.7300    0.0000 </r>
       <r>    8.2572    0.0000 </r>
       <r>    9.6649    0.0000 </r>
       <r>    9.6651    0.0000 </r>
       <r>   11.3794    0.0000 </r>
       <r>   12.2425    0.0000 </r>
       <r>   12.2871    0.0000 </r>
       <r>   13.2259    0.0000 </r>
       <r>   13.2269    0.0000 </r>
       <r>   14.1452    0.0000 </r>
       <r>   14.1928    0.0000 </r>
       <r>   14.2146    0.0000 </r>
       <r>   14.2161    0.0000 </r>
       <r>   14.6647    0.0000 </r>
       <r>   14.9166    0.0000 </r>
       <r>   14.9188    0.0000 </r>
      </set>
      <set comment="kpoint 7">
       <r>  -14.1081    1.0000 </r>
       <r>  -13.4250    1.0000 </r>
       <r>  -13.0017    1.0000 </r>
       <r>  -13.0005    1.0000 </r>
       <r>  -12.9987    1.0000 </r>
       <r>  -12.9817    1.0000 </r>
       <r>  -12.6481    1.0000 </r>
       <r>   -0.9575    1.0000 </r>
       <r>   -0.7423    1.0000 </r>
       <r>   -0.7393    1.0000 </r>
       <r>   -0.2358    1.0000 </r>
       <r>   -0.0734    1.0000 </r>
       <r>    0.0326    1.0000 </r>
       <r>    0.1726    1.0000 </r>
       <r>    0.1729    1.0000 </r>
       <r>    0.7877    1.0000 </r>
       <r>    0.7926    1.0000 </r>
       <r>    1.0024    1.0000 </r>
       <r>    1.0037    1.0000 </r>
       <r>    1.0503    1.0000 </r>
       <r>    1.1933    1.0000 </r>
       <r>    1.1955    1.0000 </r>
       <r>    1.7969    1.0000 </r>
       <r>    1.8022    1.0000 </r>
       <r>    2.2896    1.0000 </r>
       <r>    2.2900    1.0000 </r>
       <r>    2.2932    1.0000 </r>
       <r>    2.4566    1.0000 </r>
       <r>    5.7300    0.0000 </r>
       <r>    8.2576    0.0000 </r>
       <r>    9.6635    0.0000 </r>
       <r>    9.6658    0.0000 </r>
       <r>   11.3798    0.0000 </r>
       <r>   12.2424    0.0000 </r>
       <r>   12.2873    0.0000 </r>
       <r>   13.2256    0.0000 </r>
       <r>   13.2267    0.0000 </r>
       <r>   14.1458    0.0000 </r>
       <r>   14.1937    0.0000 </r>
       <r>   14.2139    0.0000 </r>
       <r>   14.2161    0.0000 </r>
       <r>   14.6654    0.0000 </r>
       <r>   14.9159    0.0000 </r>
       <r>   14.9206    0.0000 </r>
      </set>
      <set comment="kpoint 8">
       <r>  -14.1671    1.0000 </r>
       <r>  -13.4086    1.0000 </r>
       <r>  -13.2556    1.0000 </r>
       <r>  -12.8255    1.0000 </r>
       <r>  -12.8244    1.0000 </r>
       <r>  -12.8239    1.0000 </r>
       <r>  -12.8230    1.0000 </r>
       <r>   -1.1450    1.0000 </r>
       <r>   -1.1434    1.0000 </r>
       <r>   -0.9166    1.0000 </r>
       <r>   -0.6509    1.0000 </r>
       <r>   -0.1944    1.0000 </r>
       <r>    0.0123    1.0000 </r>
       <r>    0.0147    1.0000 </r>
       <r>    0.4654    1.0000 </r>
       <r>    0.5453    1.0000 </r>
       <r>    1.0981    1.0000 </r>
       <r>    1.0994    1.0000 </r>
       <r>    1.1680    1.0000 </r>
       <r>    1.1681    1.0000 </r>
       <r>    1.5487    1.0000 </r>
       <r>    1.5515    1.0000 </r>
       <r>    1.8896    1.0000 </r>
       <r>    1.9761    1.0000 </r>
       <r>    2.4094    1.0000 </r>
       <r>    2.4125    1.0000 </r>
       <r>    2.5152    1.0000 </r>
       <r>    2.5197    1.0000 </r>
       <r>    5.2169    0.0000 </r>
       <r>    8.1012    0.0000 </r>
       <r>   10.3584    0.0000 </r>
       <r>   10.3622    0.0000 </r>
       <r>   10.8501    0.0000 </r>
       <r>   11.1318    0.0000 </r>
       <r>   12.5818    0.0000 </r>
       <r>   12.5830    0.0000 </r>
       <r>   12.7050    0.0000 </r>
       <r>   12.7095    0.0000 </r>
       <r>   13.7830    0.0000 </r>
       <r>   14.3461    0.0000 </r>
       <r>   14.3727    0.0000 </r>
       <r>   14.3751    0.0000 </r>
       <r>   14.9491    0.0000 </r>
       <r>   15.4680    0.0000 </r>
      </set>
     </set>
     <set comment="spin 2">
      <set comment="kpoint 1">
       <r>  -14.3572    1.0000 </r>
       <r>  -13.4559    1.0000 </r>
       <r>  -12.9373    1.0000 </r>
       <r>  -12.9365    1.0000 </r>
       <r>  -12.9363    1.0000 </r>
       <r>  -12.6934    1.0000 </r>
       <r>  -12.6928    1.0000 </r>
       <r>   -1.6299    1.0000 </r>
       <r>   -1.6291    1.0000 </r>
       <r>   -1.6278    1.0000 </r>
       <r>   -1.2917    1.0000 </r>
       <r>   -0.5388    1.0000 </r>
       <r>   -0.5385    1.0000 </r>
       <r>   -0.5373    1.0000 </r>
       <r>    1.4070    1.0000 </r>
       <r>    1.4100    1.0000 </r>
       <r>    1.4104    1.0000 </r>
       <r>    1.6051    1.0000 </r>
       <r>    1.6057    1.0000 </r>
       <r>    1.6057    1.0000 </r>
       <r>    2.2963    1.0000 </r>
       <r>    2.2967    1.0000 </r>
       <r>    2.2980    1.0000 </r>
       <r>    2.4590    1.0000 </r>
       <r>    2.4594    1.0000 </r>
       <r>    2.6730    1.0000 </r>
       <r>    2.6739    1.0000 </r>
       <r>    2.6743    1.0000 </r>
       <r>    3.4515    0.0000 </r>
       <r>    8.7297    0.0000 </r>
       <r>   10.7739    0.0000 </r>
       <r>   10.7749    0.0000 </r>
       <r>   10.7752    0.0000 </r>
       <r>   11.3000    0.0000 </r>
       <r>   11.3018    0.0000 </r>
       <r>   11.3027    0.0000 </r>
       <r>   12.2688    0.0000 </r>
       <r>   12.2695    0.0000 </r>
       <r>   12.2697    0.0000 </r>
       <r>   12.5237    0.0000 </r>
       <r>   12.5254    0.0000 </r>
       <r>   12.6629    0.0000 </r>
       <r>   15.4918    0.0000 </r>
       <r>   15.4980    0.0000 </r>
      </set>
      <set comment="kpoint 2">
       <r>  -14.1671    1.0000 </r>
       <r>  -13.4082    1.0000 </r>
       <r>  -13.2559    1.0000 </r>
       <r>  -12.8261    1.0000 </r>
       <r>  -12.8250    1.0000 </r>
       <r>  -12.8233    1.0000 </r>
       <r>  -12.8223    1.0000 </r>
       <r>   -1.1451    1.0000 </r>
       <r>   -1.1435    1.0000 </r>
       <r>   -0.9169    1.0000 </r>
       <r>   -0.6506    1.0000 </r>
       <r>   -0.1944    1.0000 </r>
       <r>    0.0124    1.0000 </r>
       <r>    0.0146    1.0000 </r>
       <r>    0.4654    1.0000 </r>
       <r>    0.5457    1.0000 </r>
       <r>    1.0981    1.0000 </r>
       <r>    1.0998    1.0000 </r>
       <r>    1.1682    1.0000 </r>
       <r>    1.1690    1.0000 </r>
       <r>    1.5486    1.0000 </r>
       <r>    1.5510    1.0000 </r>
       <r>    1.8894    1.0000 </r>
       <r>    1.9758    1.0000 </r>
       <r>    2.4099    1.0000 </r>
       <r>    2.4126    1.0000 </r>
       <r>    2.5148    1.0000 </r>
       <r>    2.5191    1.0000 </r>
       <r>    5.2162    0.0000 </r>
       <r>    8.1006    0.0000 </r>
       <r>   10.3582    0.0000 </r>
       <r>   10.3613    0.0000 </r>
       <r>   10.8503    0.0000 </r>
       <r>   11.1319    0.0000 </r>
       <r>   12.5816    0.0000 </r>
       <r>   12.5834    0.0000 </r>
       <r>   12.7057    0.0000 </r>
       <r>   12.7097    0.0000 </r>
       <r>   13.7834    0.0000 </r>
       <r>   14.3460    0.0000 </r>
       <r>   14.3726    0.0000 </r>
       <r>   14.3750    0.0000 </r>
       <r>   14.9494    0.0000 </r>
       <r>   15.4680    0.0000 </r>
      </set>
      <set comment="kpoint 3">
       <r>  -14.1669    1.0000 </r>
       <r>  -13.4098    1.0000 </r>
       <r>  -13.2546    1.0000 </r>
       <r>  -12.8261    1.0000 </r>
       <r>  -12.8256    1.0000 </r>
       <r>  -12.8233    1.0000 </r>
       <r>  -12.8217    1.0000 </r>
       <r>   -1.1437    1.0000 </r>
       <r>   -1.1424    1.0000 </r>
       <r>   -0.9157    1.0000 </r>
       <r>   -0.6521    1.0000 </r>
       <r>   -0.1953    1.0000 </r>
       <r>    0.0110    1.0000 </r>
       <r>    0.0131    1.0000 </r>
       <r>    0.4654    1.0000 </r>
       <r>    0.5444    1.0000 </r>
       <r>    1.0965    1.0000 </r>
       <r>    1.0983    1.0000 </r>
       <r>    1.1683    1.0000 </r>
       <r>    1.1718    1.0000 </r>
       <r>    1.5495    1.0000 </r>
       <r>    1.5524    1.0000 </r>
       <r>    1.8921    1.0000 </r>
       <r>    1.9734    1.0000 </r>
       <r>    2.4093    1.0000 </r>
       <r>    2.4118    1.0000 </r>
       <r>    2.5164    1.0000 </r>
       <r>    2.5194    1.0000 </r>
       <r>    5.2164    0.0000 </r>
       <r>    8.1015    0.0000 </r>
       <r>   10.3572    0.0000 </r>
       <r>   10.3599    0.0000 </r>
       <r>   10.8519    0.0000 </r>
       <r>   11.1295    0.0000 </r>
       <r>   12.5817    0.0000 </r>
       <r>   12.5851    0.0000 </r>
       <r>   12.7045    0.0000 </r>
       <r>   12.7117    0.0000 </r>
       <r>   13.7855    0.0000 </r>
       <r>   14.3461    0.0000 </r>
       <r>   14.3722    0.0000 </r>
       <r>   14.3744    0.0000 </r>
       <r>   14.9509    0.0000 </r>
       <r>   15.4666    0.0000 </r>
      </set>
      <set comment="kpoint 4">
       <r>  -14.1081    1.0000 </r>
       <r>  -13.4244    1.0000 </r>
       <r>  -13.0011    1.0000 </r>
       <r>  -13.0005    1.0000 </r>
       <r>  -12.9992    1.0000 </r>
       <r>  -12.9828    1.0000 </r>
       <r>  -12.6475    1.0000 </r>
       <r>   -0.9561    1.0000 </r>
       <r>   -0.7406    1.0000 </r>
       <r>   -0.7403    1.0000 </r>
       <r>   -0.2353    1.0000 </r>
       <r>   -0.0752    1.0000 </r>
       <r>    0.0321    1.0000 </r>
       <r>    0.1736    1.0000 </r>
       <r>    0.1737    1.0000 </r>
       <r>    0.7870    1.0000 </r>
       <r>    0.7879    1.0000 </r>
       <r>    1.0029    1.0000 </r>
       <r>    1.0032    1.0000 </r>
       <r>    1.0493    1.0000 </r>
       <r>    1.1929    1.0000 </r>
       <r>    1.1947    1.0000 </r>
       <r>    1.8007    1.0000 </r>
       <r>    1.8013    1.0000 </r>
       <r>    2.2892    1.0000 </r>
       <r>    2.2906    1.0000 </r>
       <r>    2.2962    1.0000 </r>
       <r>    2.4570    1.0000 </r>
       <r>    5.7289    0.0000 </r>
       <r>    8.2555    0.0000 </r>
       <r>    9.6655    0.0000 </r>
       <r>    9.6659    0.0000 </r>
       <r>   11.3784    0.0000 </r>
       <r>   12.2427    0.0000 </r>
       <r>   12.2863    0.0000 </r>
       <r>   13.2271    0.0000 </r>
       <r>   13.2273    0.0000 </r>
       <r>   14.1430    0.0000 </r>
       <r>   14.1942    0.0000 </r>
       <r>   14.2144    0.0000 </r>
       <r>   14.2152    0.0000 </r>
       <r>   14.6663    0.0000 </r>
       <r>   14.9175    0.0000 </r>
       <r>   14.9193    0.0000 </r>
      </set>
      <set comment="kpoint 5">
       <r>  -14.1669    1.0000 </r>
       <r>  -13.4093    1.0000 </r>
       <r>  -13.2550    1.0000 </r>
       <r>  -12.8262    1.0000 </r>
       <r>  -12.8252    1.0000 </r>
       <r>  -12.8234    1.0000 </r>
       <r>  -12.8218    1.0000 </r>
       <r>   -1.1441    1.0000 </r>
       <r>   -1.1425    1.0000 </r>
       <r>   -0.9161    1.0000 </r>
       <r>   -0.6516    1.0000 </r>
       <r>   -0.1952    1.0000 </r>
       <r>    0.0114    1.0000 </r>
       <r>    0.0135    1.0000 </r>
       <r>    0.4653    1.0000 </r>
       <r>    0.5447    1.0000 </r>
       <r>    1.0968    1.0000 </r>
       <r>    1.0987    1.0000 </r>
       <r>    1.1680    1.0000 </r>
       <r>    1.1714    1.0000 </r>
       <r>    1.5492    1.0000 </r>
       <r>    1.5521    1.0000 </r>
       <r>    1.8916    1.0000 </r>
       <r>    1.9739    1.0000 </r>
       <r>    2.4092    1.0000 </r>
       <r>    2.4127    1.0000 </r>
       <r>    2.5163    1.0000 </r>
       <r>    2.5187    1.0000 </r>
       <r>    5.2164    0.0000 </r>
       <r>    8.1012    0.0000 </r>
       <r>   10.3573    0.0000 </r>
       <r>   10.3602    0.0000 </r>
       <r>   10.8516    0.0000 </r>
       <r>   11.1300    0.0000 </r>
       <r>   12.5816    0.0000 </r>
       <r>   12.5845    0.0000 </r>
       <r>   12.7048    0.0000 </r>
       <r>   12.7117    0.0000 </r>
       <r>   13.7853    0.0000 </r>
       <r>   14.3462    0.0000 </r>
       <r>   14.3725    0.0000 </r>
       <r>   14.3743    0.0000 </r>
       <r>   14.9507    0.0000 </r>
       <r>   15.4668    0.0000 </r>
      </set>
      <set comment="kpoint 6">
       <r>  -14.1081    1.0000 </r>
       <r>  -13.4249    1.0000 </r>
       <r>  -13.0017    1.0000 </r>
       <r>  -13.0007    1.0000 </r>
       <r>  -12.9983    1.0000 </r>
       <r>  -12.9820    1.0000 </r>
       <r>  -12.6479    1.0000 </r>
       <r>   -0.9572    1.0000 </r>
       <r>   -0.7409    1.0000 </r>
       <r>   -0.7405    1.0000 </r>
       <r>   -0.2356    1.0000 </r>
       <r>   -0.0738    1.0000 </r>
       <r>    0.0324    1.0000 </r>
       <r>    0.1729    1.0000 </r>
       <r>    0.1731    1.0000 </r>
       <r>    0.7894    1.0000 </r>
       <r>    0.7898    1.0000 </r>
       <r>    1.0022    1.0000 </r>
       <r>    1.0038    1.0000 </r>
       <r>    1.0502    1.0000 </r>
       <r>    1.1932    1.0000 </r>
       <r>    1.1954    1.0000 </r>
       <r>    1.7985    1.0000 </r>
       <r>    1.8013    1.0000 </r>
       <r>    2.2853    1.0000 </r>
       <r>    2.2900    1.0000 </r>
       <r>    2.2983    1.0000 </r>
       <r>    2.4567    1.0000 </r>
       <r>    5.7289    0.0000 </r>
       <r>    8.2568    0.0000 </r>
       <r>    9.6646    0.0000 </r>
       <r>    9.6647    0.0000 </r>
       <r>   11.3795    0.0000 </r>
       <r>   12.2425    0.0000 </r>
       <r>   12.2871    0.0000 </r>
       <r>   13.2259    0.0000 </r>
       <r>   13.2269    0.0000 </r>
       <r>   14.1451    0.0000 </r>
       <r>   14.1930    0.0000 </r>
       <r>   14.2147    0.0000 </r>
       <r>   14.2162    0.0000 </r>
       <r>   14.6647    0.0000 </r>
       <r>   14.9166    0.0000 </r>
       <r>   14.9185    0.0000 </r>
      </set>
      <set comment="kpoint 7">
       <r>  -14.1081    1.0000 </r>
       <r>  -13.4250    1.0000 </r>
       <r>  -13.0017    1.0000 </r>
       <r>  -13.0005    1.0000 </r>
       <r>  -12.9987    1.0000 </r>
       <r>  -12.9817    1.0000 </r>
       <r>  -12.6481    1.0000 </r>
       <r>   -0.9576    1.0000 </r>
       <r>   -0.7423    1.0000 </r>
       <r>   -0.7393    1.0000 </r>
       <r>   -0.2357    1.0000 </r>
       <r>   -0.0734    1.0000 </r>
       <r>    0.0326    1.0000 </r>
       <r>    0.1726    1.0000 </r>
       <r>    0.1729    1.0000 </r>
       <r>    0.7877    1.0000 </r>
       <r>    0.7927    1.0000 </r>
       <r>    1.0025    1.0000 </r>
       <r>    1.0037    1.0000 </r>
       <r>    1.0503    1.0000 </r>
       <r>    1.1933    1.0000 </r>
       <r>    1.1956    1.0000 </r>
       <r>    1.7969    1.0000 </r>
       <r>    1.8022    1.0000 </r>
       <r>    2.2897    1.0000 </r>
       <r>    2.2900    1.0000 </r>
       <r>    2.2932    1.0000 </r>
       <r>    2.4566    1.0000 </r>
       <r>    5.7289    0.0000 </r>
       <r>    8.2573    0.0000 </r>
       <r>    9.6631    0.0000 </r>
       <r>    9.6655    0.0000 </r>
       <r>   11.3799    0.0000 </r>
       <r>   12.2425    0.0000 </r>
       <r>   12.2873    0.0000 </r>
       <r>   13.2257    0.0000 </r>
       <r>   13.2268    0.0000 </r>
       <r>   14.1457    0.0000 </r>
       <r>   14.1938    0.0000 </r>
       <r>   14.2140    0.0000 </r>
       <r>   14.2162    0.0000 </r>
       <r>   14.6641    0.0000 </r>
       <r>   14.9154    0.0000 </r>
       <r>   14.9206    0.0000 </r>
      </set>
      <set comment="kpoint 8">
       <r>  -14.1670    1.0000 </r>
       <r>  -13.4086    1.0000 </r>
       <r>  -13.2556    1.0000 </r>
       <r>  -12.8255    1.0000 </r>
       <r>  -12.8243    1.0000 </r>
       <r>  -12.8239    1.0000 </r>
       <r>  -12.8229    1.0000 </r>
       <r>   -1.1450    1.0000 </r>
       <r>   -1.1433    1.0000 </r>
       <r>   -0.9167    1.0000 </r>
       <r>   -0.6509    1.0000 </r>
       <r>   -0.1944    1.0000 </r>
       <r>    0.0123    1.0000 </r>
       <r>    0.0147    1.0000 </r>
       <r>    0.4654    1.0000 </r>
       <r>    0.5453    1.0000 </r>
       <r>    1.0981    1.0000 </r>
       <r>    1.0994    1.0000 </r>
       <r>    1.1680    1.0000 </r>
       <r>    1.1682    1.0000 </r>
       <r>    1.5488    1.0000 </r>
       <r>    1.5515    1.0000 </r>
       <r>    1.8896    1.0000 </r>
       <r>    1.9762    1.0000 </r>
       <r>    2.4094    1.0000 </r>
       <r>    2.4125    1.0000 </r>
       <r>    2.5152    1.0000 </r>
       <r>    2.5197    1.0000 </r>
       <r>    5.2159    0.0000 </r>
       <r>    8.1009    0.0000 </r>
       <r>   10.3580    0.0000 </r>
       <r>   10.3618    0.0000 </r>
       <r>   10.8501    0.0000 </r>
       <r>   11.1318    0.0000 </r>
       <r>   12.5819    0.0000 </r>
       <r>   12.5831    0.0000 </r>
       <r>   12.7050    0.0000 </r>
       <r>   12.7095    0.0000 </r>
       <r>   13.7830    0.0000 </r>
       <r>   14.3461    0.0000 </r>
       <r>   14.3727    0.0000 </r>
       <r>   14.3751    0.0000 </r>
       <r>   14.9491    0.0000 </r>
       <r>   15.4680    0.0000 </r>
      </set>
     </set>
    </set>
   </array>
  </eigenvalues>
  <separator name="orbital magnetization" >
   <v name="MAGDIPOLOUT">      0.00000000      0.00000000      0.00000000</v>
  </separator>
  <dos>
   <i name="efermi">      2.98605752 </i>
   <total>
    <array>
     <dimension dim="1">gridpoints</dimension>
     <dimension dim="2">spin</dimension>
     <field>energy</field>
     <field>total</field>
     <field>integrated</field>
     <set>
      <set comment="spin 1">
       <r>   -15.8500     0.0000     0.0000 </r>
       <r>   -15.7405     0.0000     0.0000 </r>
       <r>   -15.6310     0.0000     0.0000 </r>
       <r>   -15.5216     0.0000     0.0000 </r>
       <r>   -15.4121     0.0000     0.0000 </r>
       <r>   -15.3026     0.0000     0.0000 </r>
       <r>   -15.1931     0.0000     0.0000 </r>
       <r>   -15.0837     0.0000     0.0000 </r>
       <r>   -14.9742     0.0000     0.0000 </r>
       <r>   -14.8647     0.0000     0.0000 </r>
       <r>   -14.7552     0.0000     0.0000 </r>
       <r>   -14.6458     0.0000     0.0000 </r>
       <r>   -14.5363     0.0000     0.0000 </r>
       <r>   -14.4268     0.0279     0.0030 </r>
       <r>   -14.3174     0.9655     0.1087 </r>
       <r>   -14.2079     0.7218     0.1878 </r>
       <r>   -14.0984     5.9566     0.8398 </r>
       <r>   -13.9889     1.4617     0.9999 </r>
       <r>   -13.8795     0.0013     1.0000 </r>
       <r>   -13.7700     0.0000     1.0000 </r>
       <r>   -13.6605     0.0000     1.0000 </r>
       <r>   -13.5511     0.0048     1.0005 </r>
       <r>   -13.4416     2.6473     1.2903 </r>
       <r>   -13.3321     6.4676     1.9983 </r>
       <r>   -13.2226     3.7696     2.4110 </r>
       <r>   -13.1132     0.8204     2.5008 </r>
       <r>   -13.0037     5.7651     3.1319 </r>
       <r>   -12.8942    11.3632     4.3759 </r>
       <r>   -12.7848    15.8500     6.1110 </r>
       <r>   -12.6753     4.7428     6.6302 </r>
       <r>   -12.5658     3.3426     6.9962 </r>
       <r>   -12.4563     0.0352     7.0000 </r>
       <r>   -12.3469     0.0000     7.0000 </r>
       <r>   -12.2374     0.0000     7.0000 </r>
       <r>   -12.1279     0.0000     7.0000 </r>
       <r>   -12.0184     0.0000     7.0000 </r>
       <r>   -11.9090     0.0000     7.0000 </r>
       <r>   -11.7995     0.0000     7.0000 </r>
       <r>   -11.6900     0.0000     7.0000 </r>
       <r>   -11.5806     0.0000     7.0000 </r>
       <r>   -11.4711     0.0000     7.0000 </r>
       <r>   -11.3616     0.0000     7.0000 </r>
       <r>   -11.2521     0.0000     7.0000 </r>
       <r>   -11.1427     0.0000     7.0000 </r>
       <r>   -11.0332     0.0000     7.0000 </r>
       <r>   -10.9237     0.0000     7.0000 </r>
       <r>   -10.8143     0.0000     7.0000 </r>
       <r>   -10.7048     0.0000     7.0000 </r>
       <r>   -10.5953     0.0000     7.0000 </r>
       <r>   -10.4858     0.0000     7.0000 </r>
       <r>   -10.3764     0.0000     7.0000 </r>
       <r>   -10.2669     0.0000     7.0000 </r>
       <r>   -10.1574     0.0000     7.0000 </r>
       <r>   -10.0480     0.0000     7.0000 </r>
       <r>    -9.9385     0.0000     7.0000 </r>
       <r>    -9.8290     0.0000     7.0000 </r>
       <r>    -9.7195     0.0000     7.0000 </r>
       <r>    -9.6101     0.0000     7.0000 </r>
       <r>    -9.5006     0.0000     7.0000 </r>
       <r>    -9.3911     0.0000     7.0000 </r>
       <r>    -9.2816     0.0000     7.0000 </r>
       <r>    -9.1722     0.0000     7.0000 </r>
       <r>    -9.0627     0.0000     7.0000 </r>
       <r>    -8.9532     0.0000     7.0000 </r>
       <r>    -8.8438     0.0000     7.0000 </r>
       <r>    -8.7343     0.0000     7.0000 </r>
       <r>    -8.6248     0.0000     7.0000 </r>
       <r>    -8.5153     0.0000     7.0000 </r>
       <r>    -8.4059     0.0000     7.0000 </r>
       <r>    -8.2964     0.0000     7.0000 </r>
       <r>    -8.1869     0.0000     7.0000 </r>
       <r>    -8.0775     0.0000     7.0000 </r>
       <r>    -7.9680     0.0000     7.0000 </r>
       <r>    -7.8585     0.0000     7.0000 </r>
       <r>    -7.7490     0.0000     7.0000 </r>
       <r>    -7.6396     0.0000     7.0000 </r>
       <r>    -7.5301     0.0000     7.0000 </r>
       <r>    -7.4206     0.0000     7.0000 </r>
       <r>    -7.3112     0.0000     7.0000 </r>
       <r>    -7.2017     0.0000     7.0000 </r>
       <r>    -7.0922     0.0000     7.0000 </r>
       <r>    -6.9827     0.0000     7.0000 </r>
       <r>    -6.8733     0.0000     7.0000 </r>
       <r>    -6.7638     0.0000     7.0000 </r>
       <r>    -6.6543     0.0000     7.0000 </r>
       <r>    -6.5448     0.0000     7.0000 </r>
       <r>    -6.4354     0.0000     7.0000 </r>
       <r>    -6.3259     0.0000     7.0000 </r>
       <r>    -6.2164     0.0000     7.0000 </r>
       <r>    -6.1070     0.0000     7.0000 </r>
       <r>    -5.9975     0.0000     7.0000 </r>
       <r>    -5.8880     0.0000     7.0000 </r>
       <r>    -5.7785     0.0000     7.0000 </r>
       <r>    -5.6691     0.0000     7.0000 </r>
       <r>    -5.5596     0.0000     7.0000 </r>
       <r>    -5.4501     0.0000     7.0000 </r>
       <r>    -5.3407     0.0000     7.0000 </r>
       <r>    -5.2312     0.0000     7.0000 </r>
       <r>    -5.1217     0.0000     7.0000 </r>
       <r>    -5.0122     0.0000     7.0000 </r>
       <r>    -4.9028     0.0000     7.0000 </r>
       <r>    -4.7933     0.0000     7.0000 </r>
       <r>    -4.6838     0.0000     7.0000 </r>
       <r>    -4.5744     0.0000     7.0000 </r>
       <r>    -4.4649     0.0000     7.0000 </r>
       <r>    -4.3554     0.0000     7.0000 </r>
       <r>    -4.2459     0.0000     7.0000 </r>
       <r>    -4.1365     0.0000     7.0000 </r>
       <r>    -4.0270     0.0000     7.0000 </r>
       <r>    -3.9175     0.0000     7.0000 </r>
       <r>    -3.8080     0.0000     7.0000 </r>
       <r>    -3.6986     0.0000     7.0000 </r>
       <r>    -3.5891     0.0000     7.0000 </r>
       <r>    -3.4796     0.0000     7.0000 </r>
       <r>    -3.3702     0.0000     7.0000 </r>
       <r>    -3.2607     0.0000     7.0000 </r>
       <r>    -3.1512     0.0000     7.0000 </r>
       <r>    -3.0417     0.0000     7.0000 </r>
       <r>    -2.9323     0.0000     7.0000 </r>
       <r>    -2.8228     0.0000     7.0000 </r>
       <r>    -2.7133     0.0000     7.0000 </r>
       <r>    -2.6039     0.0000     7.0000 </r>
       <r>    -2.4944     0.0000     7.0000 </r>
       <r>    -2.3849     0.0000     7.0000 </r>
       <r>    -2.2754     0.0000     7.0000 </r>
       <r>    -2.1660     0.0000     7.0000 </r>
       <r>    -2.0565     0.0000     7.0000 </r>
       <r>    -1.9470     0.0000     7.0000 </r>
       <r>    -1.8376     0.0000     7.0000 </r>
       <r>    -1.7281     0.0087     7.0010 </r>
       <r>    -1.6186     2.0990     7.2307 </r>
       <r>    -1.5091     1.3167     7.3749 </r>
       <r>    -1.3997     0.0025     7.3751 </r>
       <r>    -1.2902     0.5891     7.4396 </r>
       <r>    -1.1807     1.8998     7.6476 </r>
       <r>    -1.0712     7.6037     8.4800 </r>
       <r>    -0.9618     2.1580     8.7162 </r>
       <r>    -0.8523     5.8568     9.3574 </r>
       <r>    -0.7428     3.4411     9.7341 </r>
       <r>    -0.6334     6.7462    10.4726 </r>
       <r>    -0.5239     3.6436    10.8715 </r>
       <r>    -0.4144     1.1733    10.9999 </r>
       <r>    -0.3049     0.0902    11.0098 </r>
       <r>    -0.1955     5.1472    11.5733 </r>
       <r>    -0.0860     4.0407    12.0156 </r>
       <r>     0.0235     9.1474    13.0170 </r>
       <r>     0.1329     6.4197    13.7198 </r>
       <r>     0.2424     5.8140    14.3563 </r>
       <r>     0.3519     0.1743    14.3753 </r>
       <r>     0.4614     2.1123    14.6066 </r>
       <r>     0.5708     5.9508    15.2580 </r>
       <r>     0.6803     1.0756    15.3758 </r>
       <r>     0.7898     3.4747    15.7562 </r>
       <r>     0.8992     3.3744    16.1256 </r>
       <r>     1.0087     4.3276    16.5993 </r>
       <r>     1.1182    13.1655    18.0406 </r>
       <r>     1.2277    16.2746    19.8222 </r>
       <r>     1.3371     1.6959    20.0078 </r>
       <r>     1.4466     2.8733    20.3224 </r>
       <r>     1.5561     5.9097    20.9693 </r>
       <r>     1.6656     6.9734    21.7327 </r>
       <r>     1.7750     1.7973    21.9295 </r>
       <r>     1.8845     7.1442    22.7116 </r>
       <r>     1.9940     5.8525    23.3523 </r>
       <r>     2.1034     1.3490    23.4999 </r>
       <r>     2.2129     0.1709    23.5186 </r>
       <r>     2.3224    10.8131    24.7024 </r>
       <r>     2.4319    10.7204    25.8760 </r>
       <r>     2.5413    13.6415    27.3693 </r>
       <r>     2.6508     3.2194    27.7218 </r>
       <r>     2.7603     2.5170    27.9973 </r>
       <r>     2.8697     0.0247    28.0000 </r>
       <r>     2.9792     0.0000    28.0000 </r>
       <r>     3.0887     0.0000    28.0000 </r>
       <r>     3.1982     0.0000    28.0000 </r>
       <r>     3.3076     0.0000    28.0000 </r>
       <r>     3.4171     0.1806    28.0198 </r>
       <r>     3.5266     0.9405    28.1227 </r>
       <r>     3.6360     0.0207    28.1250 </r>
       <r>     3.7455     0.0000    28.1250 </r>
       <r>     3.8550     0.0000    28.1250 </r>
       <r>     3.9645     0.0000    28.1250 </r>
       <r>     4.0739     0.0000    28.1250 </r>
       <r>     4.1834     0.0000    28.1250 </r>
       <r>     4.2929     0.0000    28.1250 </r>
       <r>     4.4024     0.0000    28.1250 </r>
       <r>     4.5118     0.0000    28.1250 </r>
       <r>     4.6213     0.0000    28.1250 </r>
       <r>     4.7308     0.0000    28.1250 </r>
       <r>     4.8402     0.0000    28.1250 </r>
       <r>     4.9497     0.0000    28.1250 </r>
       <r>     5.0592     0.0000    28.1250 </r>
       <r>     5.1687     0.3866    28.1673 </r>
       <r>     5.2781     3.9864    28.6037 </r>
       <r>     5.3876     0.1943    28.6250 </r>
       <r>     5.4971     0.0000    28.6250 </r>
       <r>     5.6065     0.0008    28.6251 </r>
       <r>     5.7160     1.1868    28.7550 </r>
       <r>     5.8255     2.2261    28.9987 </r>
       <r>     5.9350     0.0118    29.0000 </r>
       <r>     6.0444     0.0000    29.0000 </r>
       <r>     6.1539     0.0000    29.0000 </r>
       <r>     6.2634     0.0000    29.0000 </r>
       <r>     6.3728     0.0000    29.0000 </r>
       <r>     6.4823     0.0000    29.0000 </r>
       <r>     6.5918     0.0000    29.0000 </r>
       <r>     6.7013     0.0000    29.0000 </r>
       <r>     6.8107     0.0000    29.0000 </r>
       <r>     6.9202     0.0000    29.0000 </r>
       <r>     7.0297     0.0000    29.0000 </r>
       <r>     7.1392     0.0000    29.0000 </r>
       <r>     7.2486     0.0000    29.0000 </r>
       <r>     7.3581     0.0000    29.0000 </r>
       <r>     7.4676     0.0000    29.0000 </r>
       <r>     7.5770     0.0000    29.0000 </r>
       <r>     7.6865     0.0000    29.0000 </r>
       <r>     7.7960     0.0000    29.0000 </r>
       <r>     7.9055     0.0000    29.0000 </r>
       <r>     8.0149     0.0332    29.0036 </r>
       <r>     8.1244     3.3603    29.3715 </r>
       <r>     8.2339     2.0564    29.5966 </r>
       <r>     8.3433     2.5183    29.8723 </r>
       <r>     8.4528     0.0248    29.8750 </r>
       <r>     8.5623     0.0000    29.8750 </r>
       <r>     8.6718     0.0577    29.8813 </r>
       <r>     8.7812     1.0012    29.9909 </r>
       <r>     8.8907     0.0829    30.0000 </r>
       <r>     9.0002     0.0000    30.0000 </r>
       <r>     9.1096     0.0000    30.0000 </r>
       <r>     9.2191     0.0000    30.0000 </r>
       <r>     9.3286     0.0000    30.0000 </r>
       <r>     9.4381     0.0000    30.0000 </r>
       <r>     9.5475     0.0030    30.0003 </r>
       <r>     9.6570     2.7924    30.3060 </r>
       <r>     9.7665     4.0413    30.7484 </r>
       <r>     9.8760     0.0144    30.7500 </r>
       <r>     9.9854     0.0000    30.7500 </r>
       <r>    10.0949     0.0000    30.7500 </r>
       <r>    10.2044     0.0001    30.7500 </r>
       <r>    10.3138     0.8959    30.8481 </r>
       <r>    10.4233     7.9108    31.7141 </r>
       <r>    10.5328     0.3280    31.7500 </r>
       <r>    10.6423     0.0003    31.7500 </r>
       <r>    10.7517     0.8988    31.8484 </r>
       <r>    10.8612     5.3058    32.4293 </r>
       <r>    10.9707     1.7864    32.6248 </r>
       <r>    11.0801     0.3496    32.6631 </r>
       <r>    11.1896     4.0023    33.1012 </r>
       <r>    11.2991     1.8609    33.3050 </r>
       <r>    11.4086     4.5071    33.7984 </r>
       <r>    11.5180     0.7000    33.8750 </r>
       <r>    11.6275     0.0001    33.8750 </r>
       <r>    11.7370     0.0000    33.8750 </r>
       <r>    11.8464     0.0000    33.8750 </r>
       <r>    11.9559     0.0000    33.8750 </r>
       <r>    12.0654     0.0000    33.8750 </r>
       <r>    12.1749     0.1109    33.8871 </r>
       <r>    12.2843     6.7955    34.6311 </r>
       <r>    12.3938     3.3654    34.9995 </r>
       <r>    12.5033     0.7432    35.0808 </r>
       <r>    12.6128     8.9776    36.0636 </r>
       <r>    12.7222     8.7926    37.0262 </r>
       <r>    12.8317     3.1843    37.3748 </r>
       <r>    12.9412     0.0022    37.3750 </r>
       <r>    13.0506     0.0000    37.3750 </r>
       <r>    13.1601     0.2063    37.3976 </r>
       <r>    13.2696     5.8784    38.0411 </r>
       <r>    13.3791     0.7663    38.1250 </r>
       <r>    13.4885     0.0001    38.1250 </r>
       <r>    13.5980     0.0000    38.1250 </r>
       <r>    13.7075     0.0685    38.1325 </r>
       <r>    13.8169     3.6878    38.5362 </r>
       <r>    13.9264     0.8110    38.6250 </r>
       <r>    14.0359     0.0038    38.6254 </r>
       <r>    14.1454     2.1999    38.8662 </r>
       <r>    14.2548    10.4882    40.0144 </r>
       <r>    14.3643     7.8132    40.8697 </r>
       <r>    14.4738     6.8775    41.6226 </r>
       <r>    14.5832     0.0562    41.6288 </r>
       <r>    14.6927     2.6355    41.9173 </r>
       <r>    14.8022     0.7592    42.0004 </r>
       <r>    14.9117     3.5606    42.3902 </r>
       <r>    15.0211     7.7409    43.2376 </r>
       <r>    15.1306     0.1135    43.2500 </r>
       <r>    15.2401     0.0000    43.2500 </r>
       <r>    15.3496     0.0020    43.2502 </r>
       <r>    15.4590     2.1654    43.4873 </r>
       <r>    15.5685     4.6224    43.9933 </r>
       <r>    15.6780     0.0613    44.0000 </r>
       <r>    15.7874     0.0000    44.0000 </r>
       <r>    15.8969     0.0000    44.0000 </r>
       <r>    16.0064     0.0000    44.0000 </r>
       <r>    16.1159     0.0000    44.0000 </r>
       <r>    16.2253     0.0000    44.0000 </r>
       <r>    16.3348     0.0000    44.0000 </r>
       <r>    16.4443     0.0000    44.0000 </r>
       <r>    16.5537     0.0000    44.0000 </r>
       <r>    16.6632     0.0000    44.0000 </r>
       <r>    16.7727     0.0000    44.0000 </r>
       <r>    16.8822     0.0000    44.0000 </r>
       <r>    16.9916     0.0000    44.0000 </r>
      </set>
      <set comment="spin 2">
       <r>   -15.8500     0.0000     0.0000 </r>
       <r>   -15.7405     0.0000     0.0000 </r>
       <r>   -15.6310     0.0000     0.0000 </r>
       <r>   -15.5216     0.0000     0.0000 </r>
       <r>   -15.4121     0.0000     0.0000 </r>
       <r>   -15.3026     0.0000     0.0000 </r>
       <r>   -15.1931     0.0000     0.0000 </r>
       <r>   -15.0837     0.0000     0.0000 </r>
       <r>   -14.9742     0.0000     0.0000 </r>
       <r>   -14.8647     0.0000     0.0000 </r>
       <r>   -14.7552     0.0000     0.0000 </r>
       <r>   -14.6458     0.0000     0.0000 </r>
       <r>   -14.5363     0.0000     0.0000 </r>
       <r>   -14.4268     0.0278     0.0030 </r>
       <r>   -14.3174     0.9654     0.1087 </r>
       <r>   -14.2079     0.7217     0.1877 </r>
       <r>   -14.0984     5.9565     0.8398 </r>
       <r>   -13.9889     1.4621     0.9999 </r>
       <r>   -13.8795     0.0013     1.0000 </r>
       <r>   -13.7700     0.0000     1.0000 </r>
       <r>   -13.6605     0.0000     1.0000 </r>
       <r>   -13.5511     0.0048     1.0005 </r>
       <r>   -13.4416     2.6460     1.2902 </r>
       <r>   -13.3321     6.4687     1.9983 </r>
       <r>   -13.2226     3.7693     2.4110 </r>
       <r>   -13.1132     0.8208     2.5008 </r>
       <r>   -13.0037     5.7626     3.1317 </r>
       <r>   -12.8942    11.3649     4.3758 </r>
       <r>   -12.7848    15.8490     6.1108 </r>
       <r>   -12.6753     4.7438     6.6301 </r>
       <r>   -12.5658     3.3434     6.9961 </r>
       <r>   -12.4563     0.0352     7.0000 </r>
       <r>   -12.3469     0.0000     7.0000 </r>
       <r>   -12.2374     0.0000     7.0000 </r>
       <r>   -12.1279     0.0000     7.0000 </r>
       <r>   -12.0184     0.0000     7.0000 </r>
       <r>   -11.9090     0.0000     7.0000 </r>
       <r>   -11.7995     0.0000     7.0000 </r>
       <r>   -11.6900     0.0000     7.0000 </r>
       <r>   -11.5806     0.0000     7.0000 </r>
       <r>   -11.4711     0.0000     7.0000 </r>
       <r>   -11.3616     0.0000     7.0000 </r>
       <r>   -11.2521     0.0000     7.0000 </r>
       <r>   -11.1427     0.0000     7.0000 </r>
       <r>   -11.0332     0.0000     7.0000 </r>
       <r>   -10.9237     0.0000     7.0000 </r>
       <r>   -10.8143     0.0000     7.0000 </r>
       <r>   -10.7048     0.0000     7.0000 </r>
       <r>   -10.5953     0.0000     7.0000 </r>
       <r>   -10.4858     0.0000     7.0000 </r>
       <r>   -10.3764     0.0000     7.0000 </r>
       <r>   -10.2669     0.0000     7.0000 </r>
       <r>   -10.1574     0.0000     7.0000 </r>
       <r>   -10.0480     0.0000     7.0000 </r>
       <r>    -9.9385     0.0000     7.0000 </r>
       <r>    -9.8290     0.0000     7.0000 </r>
       <r>    -9.7195     0.0000     7.0000 </r>
       <r>    -9.6101     0.0000     7.0000 </r>
       <r>    -9.5006     0.0000     7.0000 </r>
       <r>    -9.3911     0.0000     7.0000 </r>
       <r>    -9.2816     0.0000     7.0000 </r>
       <r>    -9.1722     0.0000     7.0000 </r>
       <r>    -9.0627     0.0000     7.0000 </r>
       <r>    -8.9532     0.0000     7.0000 </r>
       <r>    -8.8438     0.0000     7.0000 </r>
       <r>    -8.7343     0.0000     7.0000 </r>
       <r>    -8.6248     0.0000     7.0000 </r>
       <r>    -8.5153     0.0000     7.0000 </r>
       <r>    -8.4059     0.0000     7.0000 </r>
       <r>    -8.2964     0.0000     7.0000 </r>
       <r>    -8.1869     0.0000     7.0000 </r>
       <r>    -8.0775     0.0000     7.0000 </r>
       <r>    -7.9680     0.0000     7.0000 </r>
       <r>    -7.8585     0.0000     7.0000 </r>
       <r>    -7.7490     0.0000     7.0000 </r>
       <r>    -7.6396     0.0000     7.0000 </r>
       <r>    -7.5301     0.0000     7.0000 </r>
       <r>    -7.4206     0.0000     7.0000 </r>
       <r>    -7.3112     0.0000     7.0000 </r>
       <r>    -7.2017     0.0000     7.0000 </r>
       <r>    -7.0922     0.0000     7.0000 </r>
       <r>    -6.9827     0.0000     7.0000 </r>
       <r>    -6.8733     0.0000     7.0000 </r>
       <r>    -6.7638     0.0000     7.0000 </r>
       <r>    -6.6543     0.0000     7.0000 </r>
       <r>    -6.5448     0.0000     7.0000 </r>
       <r>    -6.4354     0.0000     7.0000 </r>
       <r>    -6.3259     0.0000     7.0000 </r>
       <r>    -6.2164     0.0000     7.0000 </r>
       <r>    -6.1070     0.0000     7.0000 </r>
       <r>    -5.9975     0.0000     7.0000 </r>
       <r>    -5.8880     0.0000     7.0000 </r>
       <r>    -5.7785     0.0000     7.0000 </r>
       <r>    -5.6691     0.0000     7.0000 </r>
       <r>    -5.5596     0.0000     7.0000 </r>
       <r>    -5.4501     0.0000     7.0000 </r>
       <r>    -5.3407     0.0000     7.0000 </r>
       <r>    -5.2312     0.0000     7.0000 </r>
       <r>    -5.1217     0.0000     7.0000 </r>
       <r>    -5.0122     0.0000     7.0000 </r>
       <r>    -4.9028     0.0000     7.0000 </r>
       <r>    -4.7933     0.0000     7.0000 </r>
       <r>    -4.6838     0.0000     7.0000 </r>
       <r>    -4.5744     0.0000     7.0000 </r>
       <r>    -4.4649     0.0000     7.0000 </r>
       <r>    -4.3554     0.0000     7.0000 </r>
       <r>    -4.2459     0.0000     7.0000 </r>
       <r>    -4.1365     0.0000     7.0000 </r>
       <r>    -4.0270     0.0000     7.0000 </r>
       <r>    -3.9175     0.0000     7.0000 </r>
       <r>    -3.8080     0.0000     7.0000 </r>
       <r>    -3.6986     0.0000     7.0000 </r>
       <r>    -3.5891     0.0000     7.0000 </r>
       <r>    -3.4796     0.0000     7.0000 </r>
       <r>    -3.3702     0.0000     7.0000 </r>
       <r>    -3.2607     0.0000     7.0000 </r>
       <r>    -3.1512     0.0000     7.0000 </r>
       <r>    -3.0417     0.0000     7.0000 </r>
       <r>    -2.9323     0.0000     7.0000 </r>
       <r>    -2.8228     0.0000     7.0000 </r>
       <r>    -2.7133     0.0000     7.0000 </r>
       <r>    -2.6039     0.0000     7.0000 </r>
       <r>    -2.4944     0.0000     7.0000 </r>
       <r>    -2.3849     0.0000     7.0000 </r>
       <r>    -2.2754     0.0000     7.0000 </r>
       <r>    -2.1660     0.0000     7.0000 </r>
       <r>    -2.0565     0.0000     7.0000 </r>
       <r>    -1.9470     0.0000     7.0000 </r>
       <r>    -1.8376     0.0000     7.0000 </r>
       <r>    -1.7281     0.0087     7.0009 </r>
       <r>    -1.6186     2.0978     7.2306 </r>
       <r>    -1.5091     1.3179     7.3749 </r>
       <r>    -1.3997     0.0025     7.3751 </r>
       <r>    -1.2902     0.5887     7.4396 </r>
       <r>    -1.1807     1.8982     7.6474 </r>
       <r>    -1.0712     7.6052     8.4800 </r>
       <r>    -0.9618     2.1649     8.7170 </r>
       <r>    -0.8523     5.8510     9.3575 </r>
       <r>    -0.7428     3.4381     9.7339 </r>
       <r>    -0.6334     6.7468    10.4724 </r>
       <r>    -0.5239     3.6450    10.8715 </r>
       <r>    -0.4144     1.1733    10.9999 </r>
       <r>    -0.3049     0.0901    11.0098 </r>
       <r>    -0.1955     5.1463    11.5732 </r>
       <r>    -0.0860     4.0409    12.0155 </r>
       <r>     0.0235     9.1490    13.0171 </r>
       <r>     0.1329     6.4181    13.7197 </r>
       <r>     0.2424     5.8148    14.3562 </r>
       <r>     0.3519     0.1746    14.3753 </r>
       <r>     0.4614     2.1143    14.6068 </r>
       <r>     0.5708     5.9481    15.2579 </r>
       <r>     0.6803     1.0763    15.3758 </r>
       <r>     0.7898     3.4738    15.7560 </r>
       <r>     0.8992     3.3753    16.1256 </r>
       <r>     1.0087     4.3254    16.5991 </r>
       <r>     1.1182    13.1650    18.0403 </r>
       <r>     1.2277    16.2756    19.8220 </r>
       <r>     1.3371     1.6976    20.0078 </r>
       <r>     1.4466     2.8731    20.3224 </r>
       <r>     1.5561     5.9088    20.9692 </r>
       <r>     1.6656     6.9744    21.7327 </r>
       <r>     1.7750     1.7973    21.9294 </r>
       <r>     1.8845     7.1443    22.7115 </r>
       <r>     1.9940     5.8504    23.3520 </r>
       <r>     2.1034     1.3513    23.4999 </r>
       <r>     2.2129     0.1707    23.5186 </r>
       <r>     2.3224    10.8110    24.7021 </r>
       <r>     2.4319    10.7221    25.8759 </r>
       <r>     2.5413    13.6412    27.3692 </r>
       <r>     2.6508     3.2203    27.7217 </r>
       <r>     2.7603     2.5171    27.9973 </r>
       <r>     2.8697     0.0247    28.0000 </r>
       <r>     2.9792     0.0000    28.0000 </r>
       <r>     3.0887     0.0000    28.0000 </r>
       <r>     3.1982     0.0000    28.0000 </r>
       <r>     3.3076     0.0000    28.0000 </r>
       <r>     3.4171     0.1889    28.0207 </r>
       <r>     3.5266     0.9337    28.1229 </r>
       <r>     3.6360     0.0192    28.1250 </r>
       <r>     3.7455     0.0000    28.1250 </r>
       <r>     3.8550     0.0000    28.1250 </r>
       <r>     3.9645     0.0000    28.1250 </r>
       <r>     4.0739     0.0000    28.1250 </r>
       <r>     4.1834     0.0000    28.1250 </r>
       <r>     4.2929     0.0000    28.1250 </r>
       <r>     4.4024     0.0000    28.1250 </r>
       <r>     4.5118     0.0000    28.1250 </r>
       <r>     4.6213     0.0000    28.1250 </r>
       <r>     4.7308     0.0000    28.1250 </r>
       <r>     4.8402     0.0000    28.1250 </r>
       <r>     4.9497     0.0000    28.1250 </r>
       <r>     5.0592     0.0000    28.1250 </r>
       <r>     5.1687     0.4076    28.1696 </r>
       <r>     5.2781     3.9771    28.6050 </r>
       <r>     5.3876     0.1826    28.6250 </r>
       <r>     5.4971     0.0000    28.6250 </r>
       <r>     5.6065     0.0009    28.6251 </r>
       <r>     5.7160     1.2257    28.7593 </r>
       <r>     5.8255     2.1881    28.9988 </r>
       <r>     5.9350     0.0108    29.0000 </r>
       <r>     6.0444     0.0000    29.0000 </r>
       <r>     6.1539     0.0000    29.0000 </r>
       <r>     6.2634     0.0000    29.0000 </r>
       <r>     6.3728     0.0000    29.0000 </r>
       <r>     6.4823     0.0000    29.0000 </r>
       <r>     6.5918     0.0000    29.0000 </r>
       <r>     6.7013     0.0000    29.0000 </r>
       <r>     6.8107     0.0000    29.0000 </r>
       <r>     6.9202     0.0000    29.0000 </r>
       <r>     7.0297     0.0000    29.0000 </r>
       <r>     7.1392     0.0000    29.0000 </r>
       <r>     7.2486     0.0000    29.0000 </r>
       <r>     7.3581     0.0000    29.0000 </r>
       <r>     7.4676     0.0000    29.0000 </r>
       <r>     7.5770     0.0000    29.0000 </r>
       <r>     7.6865     0.0000    29.0000 </r>
       <r>     7.7960     0.0000    29.0000 </r>
       <r>     7.9055     0.0000    29.0000 </r>
       <r>     8.0149     0.0339    29.0037 </r>
       <r>     8.1244     3.3714    29.3728 </r>
       <r>     8.2339     2.0548    29.5977 </r>
       <r>     8.3433     2.5086    29.8724 </r>
       <r>     8.4528     0.0242    29.8750 </r>
       <r>     8.5623     0.0000    29.8750 </r>
       <r>     8.6718     0.0578    29.8813 </r>
       <r>     8.7812     1.0013    29.9909 </r>
       <r>     8.8907     0.0828    30.0000 </r>
       <r>     9.0002     0.0000    30.0000 </r>
       <r>     9.1096     0.0000    30.0000 </r>
       <r>     9.2191     0.0000    30.0000 </r>
       <r>     9.3286     0.0000    30.0000 </r>
       <r>     9.4381     0.0000    30.0000 </r>
       <r>     9.5475     0.0031    30.0003 </r>
       <r>     9.6570     2.8175    30.3088 </r>
       <r>     9.7665     4.0165    30.7485 </r>
       <r>     9.8760     0.0140    30.7500 </r>
       <r>     9.9854     0.0000    30.7500 </r>
       <r>    10.0949     0.0000    30.7500 </r>
       <r>    10.2044     0.0001    30.7500 </r>
       <r>    10.3138     0.9115    30.8498 </r>
       <r>    10.4233     7.9022    31.7149 </r>
       <r>    10.5328     0.3210    31.7500 </r>
       <r>    10.6423     0.0003    31.7500 </r>
       <r>    10.7517     0.8962    31.8481 </r>
       <r>    10.8612     5.3085    32.4293 </r>
       <r>    10.9707     1.7863    32.6248 </r>
       <r>    11.0801     0.3496    32.6631 </r>
       <r>    11.1896     4.0025    33.1013 </r>
       <r>    11.2991     1.8769    33.3067 </r>
       <r>    11.4086     4.4896    33.7982 </r>
       <r>    11.5180     0.7013    33.8750 </r>
       <r>    11.6275     0.0001    33.8750 </r>
       <r>    11.7370     0.0000    33.8750 </r>
       <r>    11.8464     0.0000    33.8750 </r>
       <r>    11.9559     0.0000    33.8750 </r>
       <r>    12.0654     0.0000    33.8750 </r>
       <r>    12.1749     0.1106    33.8871 </r>
[...]
        <r>  0.0098  0.0000  0.0000  0.0000  0.0000  0.0000  0.0000  0.0000  0.0000 </r>
        <r>  0.0000  0.0002  0.0660  0.0674  0.0000  0.0000  0.0000  0.0000  0.0000 </r>
        <r>  0.0000  0.0103  0.0051  0.0071  0.0000  0.0000  0.0000  0.0000  0.0000 </r>
        <r>  0.0000  0.0000  0.0000  0.0000  0.0000  0.0000  0.0000  0.0000  0.0000 </r>
       </set>
       <set comment="band 32">
        <r>  0.0000  0.0006  0.0001  0.0002  0.0000  0.0000  0.0000  0.0000  0.0001 </r>
        <r>  0.0043  0.0010  0.0017  0.0023  0.0000  0.0011  0.0005  0.0006  0.0004 </r>
        <r>  0.0334  0.0134  0.0009  0.0003  0.0003  0.0000  0.0008  0.0000  0.0031 </r>
        <r>  0.0139  0.0003  0.0023  0.0055  0.0009  0.0000  0.0000  0.0003  0.0019 </r>
        <r>  0.0136  0.0003  0.0023  0.0054  0.0010  0.0000  0.0000  0.0003  0.0018 </r>
        <r>  0.0335  0.0135  0.0008  0.0003  0.0003  0.0000  0.0008  0.0000  0.0032 </r>
        <r>  0.0043  0.0010  0.0017  0.0024  0.0000  0.0010  0.0005  0.0006  0.0004 </r>
        <r>  0.0000  0.0005  0.0001  0.0002  0.0000  0.0000  0.0000  0.0000  0.0001 </r>
        <r>  0.0021  0.0000  0.0000  0.0000  0.0000  0.0000  0.0000  0.0000  0.0000 </r>
        <r>  0.0160  0.0000  0.0000  0.0000  0.0000  0.0000  0.0000  0.0000  0.0000 </r>
        <r>  0.0000  0.0388  0.0435  0.0023  0.0000  0.0000  0.0000  0.0000  0.0000 </r>
        <r>  0.0065  0.0000  0.0000  0.0000  0.0000  0.0000  0.0000  0.0000  0.0000 </r>
        <r>  0.0000  0.0057  0.0026  0.0011  0.0000  0.0000  0.0000  0.0000  0.0000 </r>
        <r>  0.0000  0.0584  0.0007  0.0613  0.0000  0.0000  0.0000  0.0000  0.0000 </r>
        <r>  0.0000  0.0000  0.0000  0.0000  0.0000  0.0000  0.0000  0.0000  0.0000 </r>
       </set>
       <set comment="band 33">
        <r>  0.0050  0.0005  0.0005  0.0005  0.0001  0.0001  0.0000  0.0001  0.0000 </r>
        <r>  0.0067  0.0009  0.0178  0.0009  0.0001  0.0023  0.0006  0.0023  0.0000 </r>
        <r>  0.0065  0.0182  0.0008  0.0008  0.0023  0.0023  0.0001  0.0001  0.0004 </r>
        <r>  0.0064  0.0009  0.0008  0.0181  0.0023  0.0001  0.0001  0.0023  0.0004 </r>
        <r>  0.0065  0.0008  0.0009  0.0181  0.0023  0.0001  0.0002  0.0023  0.0004 </r>
        <r>  0.0066  0.0180  0.0009  0.0009  0.0023  0.0023  0.0001  0.0001  0.0004 </r>
        <r>  0.0065  0.0009  0.0178  0.0009  0.0001  0.0023  0.0006  0.0023  0.0000 </r>
        <r>  0.0052  0.0005  0.0005  0.0005  0.0001  0.0001  0.0000  0.0001  0.0000 </r>
        <r>  0.0084  0.0000  0.0000  0.0000  0.0000  0.0000  0.0000  0.0000  0.0000 </r>
        <r>  0.0084  0.0000  0.0000  0.0000  0.0000  0.0000  0.0000  0.0000  0.0000 </r>
        <r>  0.0000  0.0099  0.0100  0.0049  0.0000  0.0000  0.0000  0.0000  0.0000 </r>
        <r>  0.0085  0.0000  0.0000  0.0000  0.0000  0.0000  0.0000  0.0000  0.0000 </r>
        <r>  0.0000  0.0050  0.0099  0.0101  0.0000  0.0000  0.0000  0.0000  0.0000 </r>
        <r>  0.0000  0.0099  0.0050  0.0101  0.0000  0.0000  0.0000  0.0000  0.0000 </r>
        <r>  0.0591  0.0000  0.0000  0.0000  0.0000  0.0000  0.0000  0.0000  0.0000 </r>
       </set>
       <set comment="band 34">
        <r>  0.0336  0.0052  0.0052  0.0052  0.0007  0.0007  0.0000  0.0007  0.0000 </r>
        <r>  0.0047  0.0038  0.0012  0.0038  0.0008  0.0002  0.0021  0.0002  0.0000 </r>
        <r>  0.0047  0.0012  0.0038  0.0037  0.0001  0.0001  0.0005  0.0007  0.0015 </r>
        <r>  0.0047  0.0038  0.0037  0.0013  0.0001  0.0008  0.0005  0.0001  0.0015 </r>
        <r>  0.0047  0.0037  0.0038  0.0012  0.0002  0.0008  0.0005  0.0002  0.0015 </r>
        <r>  0.0047  0.0013  0.0037  0.0037  0.0001  0.0001  0.0005  0.0008  0.0016 </r>
        <r>  0.0048  0.0037  0.0012  0.0037  0.0008  0.0001  0.0021  0.0001  0.0000 </r>
        <r>  0.0333  0.0053  0.0052  0.0052  0.0007  0.0007  0.0000  0.0007  0.0000 </r>
        <r>  0.0000  0.0000  0.0136  0.0000  0.0000  0.0000  0.0000  0.0000  0.0000 </r>
        <r>  0.0000  0.0135  0.0000  0.0000  0.0000  0.0000  0.0000  0.0000  0.0000 </r>
        <r>  0.0385  0.0000  0.0000  0.0000  0.0000  0.0000  0.0000  0.0000  0.0000 </r>
        <r>  0.0000  0.0000  0.0000  0.0136  0.0000  0.0000  0.0000  0.0000  0.0000 </r>
        <r>  0.0384  0.0000  0.0000  0.0000  0.0000  0.0000  0.0000  0.0000  0.0000 </r>
        <r>  0.0385  0.0000  0.0000  0.0000  0.0000  0.0000  0.0000  0.0000  0.0000 </r>
        <r>  0.0000  0.0277  0.0275  0.0277  0.0000  0.0000  0.0000  0.0000  0.0000 </r>
       </set>
       <set comment="band 35">
        <r>  0.0000  0.0008  0.0051  0.0019  0.0046  0.0018  0.0005  0.0006  0.0000 </r>
        <r>  0.0009  0.0082  0.0028  0.0040  0.0061  0.0019  0.0009  0.0004  0.0000 </r>
        <r>  0.0002  0.0004  0.0025  0.0113  0.0080  0.0041  0.0003  0.0009  0.0005 </r>
        <r>  0.0006  0.0122  0.0003  0.0010  0.0075  0.0025  0.0001  0.0019  0.0008 </r>
        <r>  0.0003  0.0129  0.0003  0.0012  0.0072  0.0023  0.0001  0.0020  0.0007 </r>
        <r>  0.0001  0.0004  0.0022  0.0108  0.0080  0.0043  0.0003  0.0008  0.0006 </r>
        <r>  0.0012  0.0073  0.0026  0.0041  0.0062  0.0021  0.0009  0.0004  0.0000 </r>
        <r>  0.0000  0.0007  0.0054  0.0022  0.0045  0.0017  0.0005  0.0007  0.0000 </r>
        <r>  0.0196  0.0000  0.0000  0.0000  0.0000  0.0000  0.0000  0.0000  0.0000 </r>
        <r>  0.0027  0.0000  0.0000  0.0000  0.0000  0.0000  0.0000  0.0000  0.0000 </r>
        <r>  0.0000  0.0177  0.0035  0.0072  0.0000  0.0000  0.0000  0.0000  0.0000 </r>
        <r>  0.0077  0.0000  0.0000  0.0000  0.0000  0.0000  0.0000  0.0000  0.0000 </r>
        <r>  0.0000  0.0025  0.0002  0.0103  0.0000  0.0000  0.0000  0.0000  0.0000 </r>
        <r>  0.0000  0.0255  0.0183  0.0214  0.0000  0.0000  0.0000  0.0000  0.0000 </r>
        <r>  0.0000  0.0000  0.0000  0.0000  0.0000  0.0000  0.0000  0.0000  0.0000 </r>
       </set>
       <set comment="band 36">
        <r>  0.0000  0.0046  0.0001  0.0034  0.0001  0.0028  0.0000  0.0040  0.0005 </r>
        <r>  0.0000  0.0050  0.0001  0.0086  0.0001  0.0060  0.0000  0.0075  0.0009 </r>
        <r>  0.0010  0.0024  0.0102  0.0018  0.0000  0.0038  0.0005  0.0054  0.0003 </r>
        <r>  0.0006  0.0001  0.0124  0.0018  0.0006  0.0038  0.0008  0.0060  0.0001 </r>
        <r>  0.0007  0.0001  0.0124  0.0017  0.0006  0.0039  0.0008  0.0060  0.0001 </r>
        <r>  0.0009  0.0025  0.0105  0.0017  0.0000  0.0037  0.0005  0.0054  0.0003 </r>
        <r>  0.0000  0.0051  0.0001  0.0086  0.0001  0.0059  0.0000  0.0075  0.0009 </r>
        <r>  0.0000  0.0046  0.0001  0.0032  0.0001  0.0029  0.0000  0.0040  0.0005 </r>
        <r>  0.0004  0.0000  0.0000  0.0000  0.0000  0.0000  0.0000  0.0000  0.0000 </r>
        <r>  0.0172  0.0000  0.0000  0.0000  0.0000  0.0000  0.0000  0.0000  0.0000 </r>
        <r>  0.0000  0.0085  0.0228  0.0115  0.0000  0.0000  0.0000  0.0000  0.0000 </r>
        <r>  0.0124  0.0000  0.0000  0.0000  0.0000  0.0000  0.0000  0.0000  0.0000 </r>
        <r>  0.0000  0.0162  0.0261  0.0159  0.0000  0.0000  0.0000  0.0000  0.0000 </r>
        <r>  0.0000  0.0006  0.0004  0.0048  0.0000  0.0000  0.0000  0.0000  0.0000 </r>
        <r>  0.0000  0.0000  0.0000  0.0000  0.0000  0.0000  0.0000  0.0000  0.0000 </r>
       </set>
       <set comment="band 37">
        <r>  0.0000  0.0078  0.0016  0.0024  0.0003  0.0004  0.0002  0.0014  0.0007 </r>
        <r>  0.0066  0.0015  0.0005  0.0096  0.0003  0.0001  0.0000  0.0016  0.0007 </r>
        <r>  0.0313  0.0022  0.0046  0.0036  0.0009  0.0012  0.0001  0.0017  0.0001 </r>
        <r>  0.0093  0.0008  0.0097  0.0007  0.0000  0.0005  0.0006  0.0018  0.0001 </r>
        <r>  0.0097  0.0009  0.0099  0.0006  0.0000  0.0005  0.0006  0.0017  0.0001 </r>
        <r>  0.0318  0.0022  0.0049  0.0035  0.0010  0.0012  0.0000  0.0017  0.0001 </r>
        <r>  0.0063  0.0016  0.0005  0.0093  0.0004  0.0001  0.0000  0.0017  0.0007 </r>
        <r>  0.0000  0.0081  0.0016  0.0023  0.0003  0.0004  0.0002  0.0014  0.0008 </r>
        <r>  0.0000  0.0219  0.0049  0.0051  0.0000  0.0000  0.0000  0.0000  0.0000 </r>
        <r>  0.0000  0.0239  0.0061  0.0084  0.0000  0.0000  0.0000  0.0000  0.0000 </r>
        <r>  0.0138  0.0000  0.0000  0.0000  0.0000  0.0000  0.0000  0.0000  0.0000 </r>
        <r>  0.0000  0.0224  0.0031  0.0072  0.0000  0.0000  0.0000  0.0000  0.0000 </r>
        <r>  0.0460  0.0000  0.0000  0.0000  0.0000  0.0000  0.0000  0.0000  0.0000 </r>
        <r>  0.0093  0.0000  0.0000  0.0000  0.0000  0.0000  0.0000  0.0000  0.0000 </r>
        <r>  0.0000  0.0165  0.0033  0.0050  0.0000  0.0000  0.0000  0.0000  0.0000 </r>
       </set>
       <set comment="band 38">
        <r>  0.0000  0.0000  0.0067  0.0057  0.0011  0.0010  0.0007  0.0000  0.0002 </r>
        <r>  0.0254  0.0082  0.0017  0.0005  0.0015  0.0018  0.0001  0.0003  0.0002 </r>
        <r>  0.0001  0.0000  0.0052  0.0060  0.0010  0.0007  0.0007  0.0000  0.0003 </r>
        <r>  0.0221  0.0096  0.0001  0.0016  0.0017  0.0012  0.0001  0.0002  0.0002 </r>
        <r>  0.0221  0.0088  0.0002  0.0015  0.0021  0.0012  0.0001  0.0001  0.0003 </r>
        <r>  0.0001  0.0000  0.0054  0.0068  0.0008  0.0007  0.0007  0.0000  0.0002 </r>
        <r>  0.0250  0.0084  0.0019  0.0006  0.0012  0.0017  0.0001  0.0003  0.0002 </r>
        <r>  0.0000  0.0000  0.0061  0.0055  0.0012  0.0010  0.0008  0.0000  0.0002 </r>
        <r>  0.0000  0.0004  0.0192  0.0173  0.0000  0.0000  0.0000  0.0000  0.0000 </r>
        <r>  0.0000  0.0001  0.0162  0.0138  0.0000  0.0000  0.0000  0.0000  0.0000 </r>
        <r>  0.0323  0.0000  0.0000  0.0000  0.0000  0.0000  0.0000  0.0000  0.0000 </r>
        <r>  0.0000  0.0000  0.0191  0.0169  0.0000  0.0000  0.0000  0.0000  0.0000 </r>
        <r>  0.0001  0.0000  0.0000  0.0000  0.0000  0.0000  0.0000  0.0000  0.0000 </r>
        <r>  0.0367  0.0000  0.0000  0.0000  0.0000  0.0000  0.0000  0.0000  0.0000 </r>
        <r>  0.0000  0.0000  0.0131  0.0115  0.0000  0.0000  0.0000  0.0000  0.0000 </r>
       </set>
       <set comment="band 39">
        <r>  0.0673  0.0030  0.0029  0.0030  0.0009  0.0009  0.0000  0.0009  0.0000 </r>
        <r>  0.0120  0.0018  0.0006  0.0017  0.0000  0.0010  0.0009  0.0011  0.0000 </r>
        <r>  0.0127  0.0006  0.0018  0.0018  0.0010  0.0010  0.0002  0.0000  0.0007 </r>
        <r>  0.0124  0.0017  0.0019  0.0006  0.0010  0.0000  0.0002  0.0010  0.0007 </r>
        <r>  0.0122  0.0019  0.0017  0.0006  0.0010  0.0000  0.0002  0.0010  0.0007 </r>
        <r>  0.0118  0.0006  0.0018  0.0017  0.0010  0.0010  0.0002  0.0000  0.0007 </r>
        <r>  0.0125  0.0017  0.0006  0.0019  0.0000  0.0010  0.0009  0.0010  0.0000 </r>
        <r>  0.0680  0.0028  0.0029  0.0029  0.0009  0.0009  0.0000  0.0009  0.0000 </r>
        <r>  0.0064  0.0000  0.0000  0.0000  0.0000  0.0000  0.0000  0.0000  0.0000 </r>
        <r>  0.0064  0.0000  0.0000  0.0000  0.0000  0.0000  0.0000  0.0000  0.0000 </r>
        <r>  0.0000  0.0191  0.0193  0.0336  0.0000  0.0000  0.0000  0.0000  0.0000 </r>
        <r>  0.0064  0.0000  0.0000  0.0000  0.0000  0.0000  0.0000  0.0000  0.0000 </r>
        <r>  0.0000  0.0335  0.0193  0.0193  0.0000  0.0000  0.0000  0.0000  0.0000 </r>
        <r>  0.0000  0.0193  0.0336  0.0192  0.0000  0.0000  0.0000  0.0000  0.0000 </r>
        <r>  0.0260  0.0000  0.0000  0.0000  0.0000  0.0000  0.0000  0.0000  0.0000 </r>
       </set>
       <set comment="band 40">
        <r>  0.0365  0.0008  0.0007  0.0008  0.0023  0.0020  0.0000  0.0020  0.0000 </r>
        <r>  0.0007  0.0000  0.0004  0.0000  0.0081  0.0024  0.0000  0.0024  0.0000 </r>
        <r>  0.0012  0.0004  0.0000  0.0000  0.0026  0.0023  0.0000  0.0077  0.0000 </r>
        <r>  0.0012  0.0000  0.0000  0.0004  0.0026  0.0076  0.0000  0.0023  0.0000 </r>
        <r>  0.0012  0.0000  0.0000  0.0004  0.0026  0.0076  0.0000  0.0023  0.0000 </r>
        <r>  0.0011  0.0004  0.0000  0.0000  0.0026  0.0022  0.0000  0.0075  0.0000 </r>
        <r>  0.0007  0.0000  0.0004  0.0000  0.0080  0.0024  0.0000  0.0024  0.0000 </r>
        <r>  0.0362  0.0007  0.0007  0.0007  0.0023  0.0020  0.0000  0.0021  0.0000 </r>
        <r>  0.0000  0.0017  0.0735  0.0016  0.0000  0.0000  0.0000  0.0000  0.0000 </r>
        <r>  0.0000  0.0743  0.0016  0.0009  0.0000  0.0000  0.0000  0.0000  0.0000 </r>
        <r>  0.0017  0.0000  0.0000  0.0000  0.0000  0.0000  0.0000  0.0000  0.0000 </r>
        <r>  0.0000  0.0009  0.0014  0.0743  0.0000  0.0000  0.0000  0.0000  0.0000 </r>
        <r>  0.0017  0.0000  0.0000  0.0000  0.0000  0.0000  0.0000  0.0000  0.0000 </r>
        <r>  0.0016  0.0000  0.0000  0.0000  0.0000  0.0000  0.0000  0.0000  0.0000 </r>
        <r>  0.0000  0.0088  0.0073  0.0090  0.0000  0.0000  0.0000  0.0000  0.0000 </r>
       </set>
       <set comment="band 41">
        <r>  0.0000  0.0000  0.0002  0.0001  0.0074  0.0039  0.0000  0.0008  0.0000 </r>
        <r>  0.0336  0.0008  0.0000  0.0010  0.0030  0.0009  0.0002  0.0000  0.0000 </r>
        <r>  0.0029  0.0000  0.0003  0.0000  0.0059  0.0053  0.0000  0.0004  0.0001 </r>
        <r>  0.0166  0.0002  0.0008  0.0000  0.0041  0.0018  0.0000  0.0025  0.0001 </r>
        <r>  0.0162  0.0002  0.0008  0.0000  0.0041  0.0017  0.0000  0.0026  0.0001 </r>
        <r>  0.0029  0.0000  0.0003  0.0000  0.0060  0.0053  0.0000  0.0004  0.0001 </r>
        <r>  0.0340  0.0008  0.0000  0.0011  0.0029  0.0009  0.0002  0.0000  0.0000 </r>
        <r>  0.0000  0.0000  0.0002  0.0001  0.0074  0.0039  0.0000  0.0007  0.0000 </r>
        <r>  0.0000  0.0387  0.0014  0.0100  0.0000  0.0000  0.0000  0.0000  0.0000 </r>
        <r>  0.0000  0.0000  0.0248  0.0616  0.0000  0.0000  0.0000  0.0000  0.0000 </r>
        <r>  0.0005  0.0000  0.0000  0.0000  0.0000  0.0000  0.0000  0.0000  0.0000 </r>
        <r>  0.0000  0.0681  0.0024  0.0002  0.0000  0.0000  0.0000  0.0000  0.0000 </r>
        <r>  0.0001  0.0000  0.0000  0.0000  0.0000  0.0000  0.0000  0.0000  0.0000 </r>
        <r>  0.0011  0.0000  0.0000  0.0000  0.0000  0.0000  0.0000  0.0000  0.0000 </r>
        <r>  0.0000  0.0042  0.0514  0.0242  0.0000  0.0000  0.0000  0.0000  0.0000 </r>
       </set>
       <set comment="band 42">
        <r>  0.0000  0.0002  0.0000  0.0001  0.0004  0.0043  0.0000  0.0074  0.0000 </r>
        <r>  0.0020  0.0003  0.0000  0.0000  0.0002  0.0054  0.0000  0.0064  0.0001 </r>
        <r>  0.0326  0.0000  0.0007  0.0010  0.0001  0.0011  0.0001  0.0031  0.0001 </r>
        <r>  0.0186  0.0008  0.0003  0.0000  0.0020  0.0018  0.0001  0.0040  0.0000 </r>
        <r>  0.0190  0.0009  0.0002  0.0000  0.0020  0.0018  0.0001  0.0040  0.0000 </r>
        <r>  0.0320  0.0000  0.0006  0.0010  0.0001  0.0012  0.0001  0.0031  0.0001 </r>
        <r>  0.0018  0.0003  0.0000  0.0000  0.0002  0.0055  0.0000  0.0063  0.0001 </r>
        <r>  0.0000  0.0001  0.0000  0.0001  0.0004  0.0043  0.0000  0.0073  0.0000 </r>
        <r>  0.0000  0.0294  0.0001  0.0581  0.0000  0.0000  0.0000  0.0000  0.0000 </r>
        <r>  0.0000  0.0009  0.0436  0.0074  0.0000  0.0000  0.0000  0.0000  0.0000 </r>
        <r>  0.0006  0.0000  0.0000  0.0000  0.0000  0.0000  0.0000  0.0000  0.0000 </r>
        <r>  0.0000  0.0011  0.0653  0.0006  0.0000  0.0000  0.0000  0.0000  0.0000 </r>
        <r>  0.0010  0.0000  0.0000  0.0000  0.0000  0.0000  0.0000  0.0000  0.0000 </r>
        <r>  0.0001  0.0000  0.0000  0.0000  0.0000  0.0000  0.0000  0.0000  0.0000 </r>
        <r>  0.0000  0.0485  0.0028  0.0287  0.0000  0.0000  0.0000  0.0000  0.0000 </r>
       </set>
       <set comment="band 43">
        <r>  0.0048  0.0109  0.0113  0.0113  0.0024  0.0024  0.0000  0.0025  0.0000 </r>
        <r>  0.0011  0.0012  0.0017  0.0011  0.0091  0.0018  0.0002  0.0017  0.0000 </r>
        <r>  0.0014  0.0019  0.0010  0.0010  0.0018  0.0018  0.0001  0.0093  0.0002 </r>
        <r>  0.0013  0.0010  0.0011  0.0018  0.0018  0.0095  0.0001  0.0018  0.0002 </r>
        <r>  0.0011  0.0012  0.0010  0.0018  0.0018  0.0092  0.0001  0.0018  0.0002 </r>
        <r>  0.0010  0.0016  0.0011  0.0011  0.0018  0.0018  0.0001  0.0095  0.0002 </r>
        <r>  0.0014  0.0010  0.0019  0.0011  0.0094  0.0017  0.0002  0.0018  0.0000 </r>
        <r>  0.0049  0.0117  0.0111  0.0113  0.0023  0.0024  0.0000  0.0023  0.0000 </r>
        <r>  0.0006  0.0000  0.0000  0.0000  0.0000  0.0000  0.0000  0.0000  0.0000 </r>
        <r>  0.0006  0.0000  0.0000  0.0000  0.0000  0.0000  0.0000  0.0000  0.0000 </r>
        <r>  0.0000  0.0032  0.0032  0.0340  0.0000  0.0000  0.0000  0.0000  0.0000 </r>
        <r>  0.0006  0.0000  0.0000  0.0000  0.0000  0.0000  0.0000  0.0000  0.0000 </r>
        <r>  0.0000  0.0342  0.0031  0.0031  0.0000  0.0000  0.0000  0.0000  0.0000 </r>
        <r>  0.0000  0.0033  0.0338  0.0033  0.0000  0.0000  0.0000  0.0000  0.0000 </r>
        <r>  0.0002  0.0000  0.0000  0.0000  0.0000  0.0000  0.0000  0.0000  0.0000 </r>
       </set>
       <set comment="band 44">
        <r>  0.0011  0.0031  0.0031  0.0031  0.0030  0.0029  0.0000  0.0028  0.0000 </r>
        <r>  0.0078  0.0002  0.0021  0.0001  0.0064  0.0047  0.0003  0.0046  0.0000 </r>
        <r>  0.0079  0.0019  0.0001  0.0001  0.0048  0.0047  0.0001  0.0063  0.0002 </r>
        <r>  0.0077  0.0002  0.0001  0.0021  0.0046  0.0061  0.0001  0.0047  0.0002 </r>
        <r>  0.0077  0.0002  0.0001  0.0020  0.0047  0.0063  0.0001  0.0046  0.0002 </r>
        <r>  0.0085  0.0019  0.0001  0.0001  0.0047  0.0046  0.0001  0.0061  0.0002 </r>
        <r>  0.0074  0.0002  0.0022  0.0002  0.0062  0.0046  0.0003  0.0046  0.0000 </r>
        <r>  0.0008  0.0029  0.0031  0.0031  0.0031  0.0030  0.0000  0.0031  0.0000 </r>
        <r>  0.0000  0.0095  0.0064  0.0095  0.0000  0.0000  0.0000  0.0000  0.0000 </r>
        <r>  0.0000  0.0060  0.0089  0.0090  0.0000  0.0000  0.0000  0.0000  0.0000 </r>
        <r>  0.0000  0.0000  0.0000  0.0000  0.0000  0.0000  0.0000  0.0000  0.0000 </r>
        <r>  0.0000  0.0095  0.0092  0.0063  0.0000  0.0000  0.0000  0.0000  0.0000 </r>
        <r>  0.0000  0.0000  0.0000  0.0000  0.0000  0.0000  0.0000  0.0000  0.0000 </r>
        <r>  0.0000  0.0000  0.0000  0.0000  0.0000  0.0000  0.0000  0.0000  0.0000 </r>
        <r>  0.0000  0.0228  0.0231  0.0230  0.0000  0.0000  0.0000  0.0000  0.0000 </r>
       </set>
      </set>
     </set>
    </set>
   </array>
  </projected>
 </calculation>
 <structure name="finalpos" >
  <crystal>
   <varray name="basis" >
    <v>       0.00000000       4.24689300       4.24689300 </v>
    <v>       4.24689300       0.00000000       4.24689300 </v>
    <v>       4.24689300       4.24689300       0.00000000 </v>
   </varray>
   <i name="volume">    153.19477498 </i>
   <varray name="rec_basis" >
    <v>      -0.11773313       0.11773313       0.11773313 </v>
    <v>       0.11773313      -0.11773313       0.11773313 </v>
    <v>       0.11773313       0.11773313      -0.11773313 </v>
   </varray>
  </crystal>
  <varray name="positions" >
   <v>       0.00117440       0.99996761       0.00014486 </v>
   <v>       0.98493692       0.98330499       0.51719101 </v>
   <v>       0.98424558       0.51552984       0.98480926 </v>
   <v>       0.98489023       0.51627412       0.51635692 </v>
   <v>       0.51707846       0.98415824       0.98425076 </v>
   <v>       0.51769874       0.98456572       0.51598023 </v>
   <v>       0.51710143       0.51708995       0.98348275 </v>
   <v>       0.50088311       0.50035537       0.50048862 </v>
   <v>       0.25110075       0.25012251       0.74987623 </v>
   <v>       0.25092260       0.75094564       0.25053805 </v>
   <v>       0.25107257       0.74956326       0.75101508 </v>
   <v>       0.75074863       0.25024046       0.25035775 </v>
   <v>       0.75108382       0.25017813       0.75038707 </v>
   <v>       0.75115884       0.75009171       0.25041056 </v>
   <v>       0.75089093       0.75009843       0.75046586 </v>
  </varray>
 </structure>
</modeling>
