<?xml version="1.0" encoding="ISO-8859-1"?>
<modeling>
 <generator>
  <i name="program" type="string">vasp </i>
  <i name="version" type="string">5.4.1  </i>
  <i name="subversion" type="string">05Feb16 (build Mar 31 2016 13:39:20) complex                          parallel </i>
  <i name="platform" type="string">IFC91_ompi </i>
  <i name="date" type="string">2018 04 12 </i>
  <i name="time" type="string">14:18:38 </i>
 </generator>
 <incar>
  <i type="string" name="PREC">n</i>
  <i type="string" name="ALGO"> N</i>
  <i type="int" name="ISPIN">     2</i>
  <i type="int" name="NELM">   100</i>
  <i type="int" name="NELMIN">     4</i>
  <i type="int" name="IBRION">     2</i>
  <i name="EDIFF">      0.00000100</i>
  <i name="EDIFFG">     -0.05000000</i>
  <i type="int" name="NSW">    20</i>
  <i type="int" name="ISIF">     2</i>
  <i name="ENCUT">    400.00000000</i>
  <i name="NELECT">     56.00000000</i>
  <i type="string" name="LREAL"> A</i>
  <i type="int" name="ISMEAR">     0</i>
  <i name="SIGMA">      0.05000000</i>
  <i type="logical" name="LWAVE"> F  </i>
  <i type="logical" name="LCHARG"> F  </i>
  <i type="logical" name="LORBIT"> F  </i>
  <i type="logical" name="LASPH"> T  </i>
  <v type="int" name="KPOINT_BSE">    -1     0     0     0</v>
  <i type="int" name="NELM">   100</i>
  <i type="logical" name="LASPH"> T  </i>
 </incar>
 <kpoints>
  <generation param="Monkhorst-Pack">
   <v type="int" name="divisions">       2        2        2 </v>
   <v name="usershift">      0.00000000       0.00000000       0.00000000 </v>
   <v name="genvec1">      0.50000000       0.00000000       0.00000000 </v>
   <v name="genvec2">      0.00000000       0.50000000       0.00000000 </v>
   <v name="genvec3">      0.00000000       0.00000000       0.50000000 </v>
   <v name="shift">      0.50000000       0.50000000       0.50000000 </v>
  </generation>
  <varray name="kpointlist" >
   <v>       0.25000000       0.25000000       0.25000000 </v>
   <v>       0.25000000       0.00000000       0.00000000 </v>
   <v>       0.00000000       0.00000000      -0.25000000 </v>
   <v>       0.00000000       0.25000000       0.00000000 </v>
   <v>      -0.25000000       0.25000000       0.25000000 </v>
   <v>       0.25000000      -0.25000000       0.25000000 </v>
   <v>       0.25000000       0.25000000      -0.25000000 </v>
   <v>       0.25000000       0.00000000       0.50000000 </v>
   <v>      -0.25000000       0.50000000       0.50000000 </v>
   <v>       0.25000000       0.50000000       0.00000000 </v>
   <v>       0.00000000       0.50000000      -0.25000000 </v>
   <v>       0.50000000       0.00000000      -0.25000000 </v>
   <v>       0.50000000       0.50000000       0.25000000 </v>
   <v>       0.50000000      -0.25000000       0.50000000 </v>
   <v>       0.00000000       0.25000000       0.50000000 </v>
   <v>       0.50000000       0.25000000       0.00000000 </v>
  </varray>
  <varray name="weights" >
   <v>       0.06250000 </v>
   <v>       0.06250000 </v>
   <v>       0.06250000 </v>
   <v>       0.06250000 </v>
   <v>       0.06250000 </v>
   <v>       0.06250000 </v>
   <v>       0.06250000 </v>
   <v>       0.06250000 </v>
   <v>       0.06250000 </v>
   <v>       0.06250000 </v>
   <v>       0.06250000 </v>
   <v>       0.06250000 </v>
   <v>       0.06250000 </v>
   <v>       0.06250000 </v>
   <v>       0.06250000 </v>
   <v>       0.06250000 </v>
  </varray>
 </kpoints>
 <parameters>
  <separator name="general" >
   <i type="string" name="SYSTEM">unknown system</i>
   <i type="logical" name="LCOMPAT"> F  </i>
  </separator>
  <separator name="electronic" >
   <i type="string" name="PREC">n</i>
   <i name="ENMAX">    400.00000000</i>
   <i name="ENAUG">    605.39200000</i>
   <i name="EDIFF">      0.00000100</i>
   <i type="int" name="IALGO">    38</i>
   <i type="int" name="IWAVPR">    11</i>
   <i type="int" name="NBANDS">    44</i>
   <i name="NELECT">     56.00000000</i>
   <i type="int" name="TURBO">     0</i>
   <i type="int" name="IRESTART">     0</i>
   <i type="int" name="NREBOOT">     0</i>
   <i type="int" name="NMIN">     0</i>
   <i name="EREF">      0.00000000</i>
   <separator name="electronic smearing" >
    <i type="int" name="ISMEAR">     0</i>
    <i name="SIGMA">      0.05000000</i>
    <i name="KSPACING">      0.50000000</i>
    <i type="logical" name="KGAMMA"> T  </i>
   </separator>
   <separator name="electronic projectors" >
    <i type="logical" name="LREAL"> T  </i>
    <v name="ROPT">     -0.00050000     -0.00050000</v>
    <i type="int" name="LMAXPAW">  -100</i>
    <i type="int" name="LMAXMIX">     2</i>
    <i type="logical" name="NLSPLINE"> F  </i>
   </separator>
   <separator name="electronic startup" >
    <i type="int" name="ISTART">     0</i>
    <i type="int" name="ICHARG">     2</i>
    <i type="int" name="INIWAV">     1</i>
   </separator>
   <separator name="electronic spin" >
    <i type="int" name="ISPIN">     2</i>
    <i type="logical" name="LNONCOLLINEAR"> F  </i>
    <v name="MAGMOM">      1.00000000      1.00000000      1.00000000      1.00000000      1.00000000      1.00000000      1.00000000      1.00000000      1.00000000      1.00000000      1.00000000      1.00000000      1.00000000      1.00000000      1.00000000</v>
    <i name="NUPDOWN">     -1.00000000</i>
    <i type="logical" name="LSORBIT"> F  </i>
    <v name="SAXIS">      0.00000000      0.00000000      1.00000000</v>
    <i type="logical" name="LSPIRAL"> F  </i>
    <v name="QSPIRAL">      0.00000000      0.00000000      0.00000000</v>
    <i type="logical" name="LZEROZ"> F  </i>
   </separator>
   <separator name="electronic exchange-correlation" >
    <i type="logical" name="LASPH"> T  </i>
    <i type="logical" name="LMETAGGA"> F  </i>
   </separator>
   <separator name="electronic convergence" >
    <i type="int" name="NELM">   100</i>
    <i type="int" name="NELMDL">     0</i>
    <i type="int" name="NELMIN">     4</i>
    <i name="ENINI">    400.00000000</i>
    <separator name="electronic convergence detail" >
     <i type="logical" name="LDIAG"> T  </i>
     <i type="logical" name="LSUBROT"> F  </i>
     <i name="WEIMIN">      0.00100000</i>
     <i name="EBREAK">      0.00000001</i>
     <i name="DEPER">      0.30000000</i>
     <i type="int" name="NRMM">     4</i>
     <i name="TIME">      0.40000000</i>
    </separator>
   </separator>
   <separator name="electronic mixer" >
    <i name="AMIX">      0.40000000</i>
    <i name="BMIX">      1.00000000</i>
    <i name="AMIN">      0.10000000</i>
    <i name="AMIX_MAG">      1.60000000</i>
    <i name="BMIX_MAG">      1.00000000</i>
    <separator name="electronic mixer details" >
     <i type="int" name="IMIX">     4</i>
     <i type="logical" name="MIXFIRST"> F  </i>
     <i type="int" name="MAXMIX">   -45</i>
     <i name="WC">    100.00000000</i>
     <i type="int" name="INIMIX">     1</i>
     <i type="int" name="MIXPRE">     1</i>
     <i type="int" name="MREMOVE">     5</i>
    </separator>
   </separator>
   <separator name="electronic dipolcorrection" >
    <i type="logical" name="LDIPOL"> F  </i>
    <i type="logical" name="LMONO"> F  </i>
    <i type="int" name="IDIPOL">     0</i>
    <i name="EPSILON">      1.00000000</i>
    <v name="DIPOL">   -100.00000000   -100.00000000   -100.00000000</v>
    <i name="EFIELD">      0.00000000</i>
   </separator>
  </separator>
  <separator name="grids" >
   <i type="int" name="NGX">    30</i>
   <i type="int" name="NGY">    30</i>
   <i type="int" name="NGZ">    30</i>
   <i type="int" name="NGXF">    60</i>
   <i type="int" name="NGYF">    60</i>
   <i type="int" name="NGZF">    60</i>
   <i type="logical" name="ADDGRID"> F  </i>
  </separator>
  <separator name="ionic" >
   <i type="int" name="NSW">    20</i>
   <i type="int" name="IBRION">     2</i>
   <i type="int" name="ISIF">     2</i>
   <i name="PSTRESS">      0.00000000</i>
   <i name="EDIFFG">     -0.05000000</i>
   <i type="int" name="NFREE">     1</i>
   <i name="POTIM">      0.50000000</i>
   <i name="SMASS">     -3.00000000</i>
   <i name="SCALEE">      1.00000000</i>
  </separator>
  <separator name="ionic md" >
   <i name="TEBEG">      0.00010000</i>
   <i name="TEEND">      0.00010000</i>
   <i type="int" name="NBLOCK">     1</i>
   <i type="int" name="KBLOCK">    20</i>
   <i type="int" name="NPACO">   256</i>
   <i name="APACO">     16.00000000</i>
  </separator>
  <separator name="symmetry" >
   <i type="int" name="ISYM">     2</i>
   <i name="SYMPREC">      0.00001000</i>
  </separator>
  <separator name="dos" >
   <i type="logical" name="LORBIT"> F  </i>
   <v name="RWIGS">     -1.00000000     -1.00000000</v>
   <i type="int" name="NEDOS">   301</i>
   <i name="EMIN">     10.00000000</i>
   <i name="EMAX">    -10.00000000</i>
   <i name="EFERMI">      0.00000000</i>
  </separator>
  <separator name="writing" >
   <i type="int" name="NWRITE">     2</i>
   <i type="logical" name="LWAVE"> F  </i>
   <i type="logical" name="LCHARG"> F  </i>
   <i type="logical" name="LPARD"> F  </i>
   <i type="logical" name="LVTOT"> F  </i>
   <i type="logical" name="LVHAR"> F  </i>
   <i type="logical" name="LELF"> F  </i>
   <i type="logical" name="LOPTICS"> F  </i>
   <v name="STM">      0.00000000      0.00000000      0.00000000      0.00000000      0.00000000      0.00000000      0.00000000</v>
  </separator>
  <separator name="performance" >
   <i type="int" name="NPAR">     4</i>
   <i type="int" name="NSIM">     4</i>
   <i type="int" name="NBLK">    -1</i>
   <i type="logical" name="LPLANE"> T  </i>
   <i type="logical" name="LSCALAPACK"> T  </i>
   <i type="logical" name="LSCAAWARE"> F  </i>
   <i type="logical" name="LSCALU"> F  </i>
   <i type="logical" name="LASYNC"> F  </i>
   <i type="logical" name="LORBITALREAL"> F  </i>
  </separator>
  <separator name="miscellaneous" >
   <i type="int" name="IDIOT">     3</i>
   <i type="logical" name="LMUSIC"> F  </i>
   <v name="POMASS">     24.30500000     16.00000000</v>
   <v name="DARWINR">      0.00000000      0.00000000</v>
   <v name="DARWINV">      1.00000000      1.00000000</v>
   <i type="logical" name="LCORR"> T  </i>
  </separator>
  <i type="logical" name="GGA_COMPAT"> T  </i>
  <i type="logical" name="LBERRY"> F  </i>
  <i type="int" name="ICORELEVEL">     0</i>
  <i type="logical" name="LDAU"> F  </i>
  <i type="int" name="I_CONSTRAINED_M">     0</i>
  <separator name="electronic exchange-correlation" >
   <i type="string" name="GGA">--</i>
   <i type="int" name="VOSKOWN">     0</i>
   <i type="logical" name="LHFCALC"> F  </i>
   <i type="string" name="PRECFOCK"></i>
   <i type="logical" name="LSYMGRAD"> F  </i>
   <i type="logical" name="LHFONE"> F  </i>
   <i type="logical" name="LRHFCALC"> F  </i>
   <i type="logical" name="LTHOMAS"> F  </i>
   <i type="logical" name="LMODELHF"> F  </i>
   <i name="ENCUT4O">     -1.00000000</i>
   <i type="int" name="EXXOEP">     0</i>
   <i type="int" name="FOURORBIT">     0</i>
   <i name="AEXX">      0.00000000</i>
   <i name="HFALPHA">      0.00000000</i>
   <i name="MCALPHA">      0.00000000</i>
   <i name="ALDAX">      1.00000000</i>
   <i name="AGGAX">      1.00000000</i>
   <i name="ALDAC">      1.00000000</i>
   <i name="AGGAC">      1.00000000</i>
   <i type="int" name="NKREDX">     1</i>
   <i type="int" name="NKREDY">     1</i>
   <i type="int" name="NKREDZ">     1</i>
   <i type="logical" name="SHIFTRED"> F  </i>
   <i type="logical" name="ODDONLY"> F  </i>
   <i type="logical" name="EVENONLY"> F  </i>
   <i type="int" name="LMAXFOCK">     0</i>
   <i type="int" name="NMAXFOCKAE">     0</i>
   <i type="logical" name="LFOCKAEDFT"> F  </i>
   <i name="HFSCREEN">      0.00000000</i>
   <i name="HFSCREENC">      0.00000000</i>
   <i type="int" name="NBANDSGWLOW">     0</i>
  </separator>
  <separator name="vdW DFT" >
   <i type="logical" name="LUSE_VDW"> F  </i>
   <i name="Zab_VDW">     -0.84910000</i>
   <i name="PARAM1">      0.12340000</i>
   <i name="PARAM2">      1.00000000</i>
   <i name="PARAM3">      0.00000000</i>
  </separator>
  <separator name="model GW" >
   <i type="int" name="MODEL_GW">     0</i>
   <i name="MODEL_EPS0">      6.12779100</i>
   <i name="MODEL_ALPHA">      1.00000000</i>
  </separator>
  <separator name="linear response parameters" >
   <i type="logical" name="LEPSILON"> F  </i>
   <i type="logical" name="LRPA"> F  </i>
   <i type="logical" name="LNABLA"> F  </i>
   <i type="logical" name="LVEL"> F  </i>
   <i type="int" name="KINTER">     0</i>
   <i name="CSHIFT">      0.10000000</i>
   <i name="OMEGAMAX">     -1.00000000</i>
   <i name="DEG_THRESHOLD">      0.00200000</i>
  </separator>
  <separator name="orbital magnetization" >
   <i type="logical" name="NUCIND"> F  </i>
   <v name="MAGPOS">      0.00000000      0.00000000      0.00000000</v>
   <i type="logical" name="LNICSALL"> T  </i>
   <i type="logical" name="ORBITALMAG"> F  </i>
   <i type="logical" name="LMAGBLOCH"> F  </i>
   <i type="logical" name="LCHIMAG"> F  </i>
   <i type="logical" name="LGAUGE"> T  </i>
   <i type="int" name="MAGATOM">     0</i>
   <v name="MAGDIPOL">      0.00000000      0.00000000      0.00000000</v>
   <v name="AVECCONST">      0.00000000      0.00000000      0.00000000</v>
  </separator>
  <separator name="response functions" >
   <i type="logical" name="LADDER"> F  </i>
   <i type="logical" name="LFXC"> F  </i>
   <i type="logical" name="LHARTREE"> T  </i>
   <i type="int" name="IBSE">     0</i>
   <v type="int" name="KPOINT">    -1     0     0     0</v>
   <i type="logical" name="LTCTE"> F  </i>
   <i type="logical" name="LTETE"> F  </i>
   <i type="logical" name="LTRIPLET"> F  </i>
   <i type="logical" name="LFXCEPS"> F  </i>
   <i type="logical" name="LFXHEG"> F  </i>
   <i type="int" name="NATURALO">     0</i>
   <i type="logical" name="L2ORDER"> F  </i>
   <i type="logical" name="LUSEW"> F  </i>
   <i name="ENCUTGW">     -2.00000000</i>
   <i name="ENCUTGWSOFT">     -2.00000000</i>
   <i name="ENCUTLF">     -1.00000000</i>
   <i type="int" name="LMAXMP2">    -1</i>
   <i name="SCISSOR">      0.00000000</i>
   <i type="int" name="NOMEGA">     0</i>
   <i type="int" name="NOMEGAR">     0</i>
   <i type="int" name="NBANDSGW">    -1</i>
   <i type="int" name="NBANDSO">    -1</i>
   <i type="int" name="NBANDSV">    -1</i>
   <i type="int" name="NELM">   100</i>
   <i type="int" name="NELMHF">     1</i>
   <i type="int" name="DIM">     3</i>
   <i type="int" name="ANTIRES">     0</i>
   <i name="OMEGAMAX">    -30.00000000</i>
   <i name="OMEGAMIN">    -30.00000000</i>
   <i name="OMEGATL">   -200.00000000</i>
   <i type="int" name="OMEGAGRID">     0</i>
   <i name="CSHIFT">     -0.10000000</i>
   <i type="logical" name="SELFENERGY"> F  </i>
   <i type="logical" name="LSPECTRAL"> F  </i>
   <i type="logical" name="LSPECTRALGW"> F  </i>
   <i type="logical" name="LSINGLES"> F  </i>
   <i type="logical" name="LFERMIGW"> F  </i>
   <i type="logical" name="ODDONLYGW"> F  </i>
   <i type="logical" name="EVENONLYGW"> F  </i>
   <i type="int" name="NKREDLFX">     1</i>
   <i type="int" name="NKREDLFY">     1</i>
   <i type="int" name="NKREDLFZ">     1</i>
   <i type="int" name="MAXMEM">  1800</i>
   <i type="int" name="TELESCOPE">     0</i>
   <i type="int" name="TAUPAR">     1</i>
   <i type="int" name="OMEGAPAR">    -1</i>
   <i name="LAMBDA">      1.00000000</i>
  </separator>
  <separator name="External order field" >
   <i name="OFIELD_KAPPA">      0.00000000</i>
   <v name="OFIELD_K">      0.00000000      0.00000000      0.00000000</v>
   <i name="OFIELD_Q6_NEAR">      0.00000000</i>
   <i name="OFIELD_Q6_FAR">      0.00000000</i>
   <i name="OFIELD_A">      0.00000000</i>
  </separator>
 </parameters>
 <atominfo>
  <atoms>      15 </atoms>
  <types>       2 </types>
  <array name="atoms" >
   <dimension dim="1">ion</dimension>
   <field type="string">element</field>
   <field type="int">atomtype</field>
   <set>
    <rc><c>Mg</c><c>   1</c></rc>
    <rc><c>Mg</c><c>   1</c></rc>
    <rc><c>Mg</c><c>   1</c></rc>
    <rc><c>Mg</c><c>   1</c></rc>
    <rc><c>Mg</c><c>   1</c></rc>
    <rc><c>Mg</c><c>   1</c></rc>
    <rc><c>Mg</c><c>   1</c></rc>
    <rc><c>Mg</c><c>   1</c></rc>
    <rc><c>O </c><c>   2</c></rc>
    <rc><c>O </c><c>   2</c></rc>
    <rc><c>O </c><c>   2</c></rc>
    <rc><c>O </c><c>   2</c></rc>
    <rc><c>O </c><c>   2</c></rc>
    <rc><c>O </c><c>   2</c></rc>
    <rc><c>O </c><c>   2</c></rc>
   </set>
  </array>
  <array name="atomtypes" >
   <dimension dim="1">type</dimension>
   <field type="int">atomspertype</field>
   <field type="string">element</field>
   <field>mass</field>
   <field>valence</field>
   <field type="string">pseudopotential</field>
   <set>
    <rc><c>   8</c><c>Mg</c><c>     24.30500000</c><c>      2.00000000</c><c>  PAW_PBE Mg 13Apr2007                  </c></rc>
    <rc><c>   7</c><c>O </c><c>     16.00000000</c><c>      6.00000000</c><c>  PAW_PBE O 08Apr2002                   </c></rc>
   </set>
  </array>
 </atominfo>
 <structure name="initialpos" >
  <crystal>
   <varray name="basis" >
    <v>       0.00000000       4.24689300       4.24689300 </v>
    <v>       4.24689300       0.00000000       4.24689300 </v>
    <v>       4.24689300       4.24689300       0.00000000 </v>
   </varray>
   <i name="volume">    153.19477498 </i>
   <varray name="rec_basis" >
    <v>      -0.11773313       0.11773313       0.11773313 </v>
    <v>       0.11773313      -0.11773313       0.11773313 </v>
    <v>       0.11773313       0.11773313      -0.11773313 </v>
   </varray>
  </crystal>
  <varray name="positions" >
   <v>       0.00114096       0.00000358       0.00017097 </v>
   <v>       0.98524502       0.98346250       0.51701013 </v>
   <v>       0.98448846       0.51526431       0.98503554 </v>
   <v>       0.98509103       0.51607031       0.51611058 </v>
   <v>       0.51685995       0.98438421       0.98447053 </v>
   <v>       0.51748346       0.98481775       0.51571491 </v>
   <v>       0.51675824       0.51695920       0.98366170 </v>
   <v>       0.50090855       0.50031582       0.50046973 </v>
   <v>       0.25110138       0.25010750       0.74990133 </v>
   <v>       0.25091127       0.75090910       0.25055092 </v>
   <v>       0.25110212       0.74957310       0.75101109 </v>
   <v>       0.75075472       0.25023665       0.25036968 </v>
   <v>       0.75107375       0.25019212       0.75040180 </v>
   <v>       0.75114599       0.75009018       0.25040340 </v>
   <v>       0.75092211       0.75009967       0.75047269 </v>
  </varray>
 </structure>
 <calculation>
  <scstep>
   <time name="dav">    0.63    0.64</time>
   <time name="total">    1.00    1.01</time>
   <energy>
    <i name="alphaZ">    129.53385374 </i>
    <i name="ewald">  -2351.71725729 </i>
    <i name="hartreedc">   -985.55621539 </i>
    <i name="XCdc">   -189.39221592 </i>
    <i name="pawpsdc">   2946.27252624 </i>
    <i name="pawaedc">  -2543.92834819 </i>
    <i name="eentropy">     -0.00365550 </i>
    <i name="bandstr">      8.47070992 </i>
    <i name="atom">   3210.13655998 </i>
    <i name="e_fr_energy">    223.81595759 </i>
    <i name="e_wo_entrp">    223.81961309 </i>
    <i name="e_0_energy">    223.81778534 </i>
   </energy>
  </scstep>
  <scstep>
   <time name="dav">    0.66    0.66</time>
   <time name="total">    0.66    0.67</time>
   <energy>
    <i name="e_fr_energy">    -81.32277570 </i>
    <i name="e_wo_entrp">    -81.32277570 </i>
    <i name="e_0_energy">    -81.32277570 </i>
   </energy>
  </scstep>
  <scstep>
   <time name="dav">    0.65    0.65</time>
   <time name="total">    0.65    0.66</time>
   <energy>
    <i name="e_fr_energy">    -99.51843614 </i>
    <i name="e_wo_entrp">    -99.51843614 </i>
    <i name="e_0_energy">    -99.51843614 </i>
   </energy>
  </scstep>
  <scstep>
   <time name="dav">    0.67    0.67</time>
   <time name="total">    0.67    0.68</time>
   <energy>
    <i name="e_fr_energy">    -99.64045487 </i>
    <i name="e_wo_entrp">    -99.64045487 </i>
    <i name="e_0_energy">    -99.64045487 </i>
   </energy>
  </scstep>
  <scstep>
   <time name="dav">    0.66    0.66</time>
   <time name="total">    0.68    0.68</time>
   <energy>
    <i name="e_fr_energy">    -99.64123835 </i>
    <i name="e_wo_entrp">    -99.64123835 </i>
    <i name="e_0_energy">    -99.64123835 </i>
   </energy>
  </scstep>
  <scstep>
   <time name="dav">    0.62    0.62</time>
   <time name="total">    1.00    1.00</time>
   <energy>
    <i name="e_fr_energy">    -94.19379827 </i>
    <i name="e_wo_entrp">    -94.19379827 </i>
    <i name="e_0_energy">    -94.19379827 </i>
   </energy>
  </scstep>
  <scstep>
   <time name="dav">    0.65    0.66</time>
   <time name="total">    1.03    1.04</time>
   <energy>
    <i name="e_fr_energy">    -94.05798307 </i>
    <i name="e_wo_entrp">    -94.05798307 </i>
    <i name="e_0_energy">    -94.05798307 </i>
   </energy>
  </scstep>
  <scstep>
   <time name="dav">    0.65    0.65</time>
   <time name="total">    1.03    1.04</time>
   <energy>
    <i name="e_fr_energy">    -93.79295179 </i>
    <i name="e_wo_entrp">    -93.79295179 </i>
    <i name="e_0_energy">    -93.79295179 </i>
   </energy>
  </scstep>
  <scstep>
   <time name="dav">    0.67    0.67</time>
   <time name="total">    1.05    1.06</time>
   <energy>
    <i name="e_fr_energy">    -93.76968630 </i>
    <i name="e_wo_entrp">    -93.76968630 </i>
    <i name="e_0_energy">    -93.76968630 </i>
   </energy>
  </scstep>
  <scstep>
   <time name="dav">    0.64    0.64</time>
   <time name="total">    1.02    1.02</time>
   <energy>
    <i name="e_fr_energy">    -93.76869186 </i>
    <i name="e_wo_entrp">    -93.76869186 </i>
    <i name="e_0_energy">    -93.76869186 </i>
   </energy>
  </scstep>
  <scstep>
   <time name="dav">    0.66    0.65</time>
   <time name="total">    1.04    1.04</time>
   <energy>
    <i name="e_fr_energy">    -93.76914658 </i>
    <i name="e_wo_entrp">    -93.76914658 </i>
    <i name="e_0_energy">    -93.76914658 </i>
   </energy>
  </scstep>
  <scstep>
   <time name="dav">    0.66    0.66</time>
   <time name="total">    1.04    1.04</time>
   <energy>
    <i name="e_fr_energy">    -93.76928452 </i>
    <i name="e_wo_entrp">    -93.76928452 </i>
    <i name="e_0_energy">    -93.76928452 </i>
   </energy>
  </scstep>
  <scstep>
   <time name="dav">    0.64    0.64</time>
   <time name="total">    1.02    1.02</time>
   <energy>
    <i name="e_fr_energy">    -93.76930896 </i>
    <i name="e_wo_entrp">    -93.76930896 </i>
    <i name="e_0_energy">    -93.76930896 </i>
   </energy>
  </scstep>
  <scstep>
   <time name="dav">    0.64    0.64</time>
   <time name="total">    1.02    1.02</time>
   <energy>
    <i name="e_fr_energy">    -93.76931347 </i>
    <i name="e_wo_entrp">    -93.76931347 </i>
    <i name="e_0_energy">    -93.76931347 </i>
   </energy>
  </scstep>
  <scstep>
   <time name="dav">    0.62    0.62</time>
   <time name="total">    1.01    1.01</time>
   <energy>
    <i name="e_fr_energy">    -93.76931598 </i>
    <i name="e_wo_entrp">    -93.76931598 </i>
    <i name="e_0_energy">    -93.76931598 </i>
   </energy>
  </scstep>
  <scstep>
   <time name="dav">    0.51    0.51</time>
   <time name="total">    0.88    0.88</time>
   <energy>
    <i name="alphaZ">    129.53385374 </i>
    <i name="ewald">  -2351.71725729 </i>
    <i name="hartreedc">  -1146.47762332 </i>
    <i name="XCdc">   -187.03237020 </i>
    <i name="pawpsdc">   3886.59796110 </i>
    <i name="pawaedc">  -3485.87476673 </i>
    <i name="eentropy">     -0.00000000 </i>
    <i name="bandstr">   -148.93567311 </i>
    <i name="atom">   3210.13655998 </i>
    <i name="e_fr_energy">    -93.76931583 </i>
    <i name="e_wo_entrp">    -93.76931583 </i>
    <i name="e_0_energy">    -93.76931583 </i>
   </energy>
  </scstep>
  <structure>
   <crystal>
    <varray name="basis" >
     <v>       0.00000000       4.24689300       4.24689300 </v>
     <v>       4.24689300       0.00000000       4.24689300 </v>
     <v>       4.24689300       4.24689300       0.00000000 </v>
    </varray>
    <i name="volume">    153.19477498 </i>
    <varray name="rec_basis" >
     <v>      -0.11773313       0.11773313       0.11773313 </v>
     <v>       0.11773313      -0.11773313       0.11773313 </v>
     <v>       0.11773313       0.11773313      -0.11773313 </v>
    </varray>
   </crystal>
   <varray name="positions" >
    <v>       0.00114096       0.00000358       0.00017097 </v>
    <v>       0.98524502       0.98346250       0.51701013 </v>
    <v>       0.98448846       0.51526431       0.98503554 </v>
    <v>       0.98509103       0.51607031       0.51611058 </v>
    <v>       0.51685995       0.98438421       0.98447053 </v>
    <v>       0.51748346       0.98481775       0.51571491 </v>
    <v>       0.51675824       0.51695920       0.98366170 </v>
    <v>       0.50090855       0.50031582       0.50046973 </v>
    <v>       0.25110138       0.25010750       0.74990133 </v>
    <v>       0.25091127       0.75090910       0.25055092 </v>
    <v>       0.25110212       0.74957310       0.75101109 </v>
    <v>       0.75075472       0.25023665       0.25036968 </v>
    <v>       0.75107375       0.25019212       0.75040180 </v>
    <v>       0.75114599       0.75009018       0.25040340 </v>
    <v>       0.75092211       0.75009967       0.75047269 </v>
   </varray>
  </structure>
  <varray name="forces" >
   <v>       0.01025269      -0.00084607      -0.00328622 </v>
   <v>       0.00792738      -0.01143179       0.02451265 </v>
   <v>       0.00375554       0.00373143       0.02765318 </v>
   <v>       0.00356176       0.00655968       0.00693725 </v>
   <v>      -0.00171382       0.00320529       0.00409816 </v>
   <v>      -0.00206817      -0.00510201      -0.02267166 </v>
   <v>       0.00815012       0.02399859      -0.03594978 </v>
   <v>      -0.00670064      -0.00182533      -0.00504858 </v>
   <v>       0.00798123       0.00065697      -0.00220306 </v>
   <v>      -0.01358185      -0.00271122      -0.00547068 </v>
   <v>      -0.00168888      -0.01292288       0.00217279 </v>
   <v>      -0.00224135       0.00178080       0.00444481 </v>
   <v>      -0.01084780      -0.00363344      -0.00547221 </v>
   <v>      -0.00060066      -0.00118018      -0.00289180 </v>
   <v>      -0.00218556      -0.00027983       0.01317516 </v>
  </varray>
  <varray name="stress" >
   <v>    -163.33387961       0.21719144       0.20267687 </v>
   <v>       0.21719148    -163.19241732       0.30755684 </v>
   <v>       0.20267692       0.30755642    -162.62146617 </v>
  </varray>
  <energy>
   <i name="e_fr_energy">    -93.76931583 </i>
   <i name="e_wo_entrp">    -93.76931583 </i>
   <i name="e_0_energy">     -0.00000000 </i>
  </energy>
  <time name="totalsc">   15.98   16.07</time>
  <eigenvalues>
   <array>
    <dimension dim="1">band</dimension>
    <dimension dim="2">kpoint</dimension>
    <dimension dim="3">spin</dimension>
    <field>eigene</field>
    <field>occ</field>
    <set>
     <set comment="spin 1">
      <set comment="kpoint 1">
       <r>  -14.2754    1.0000 </r>
       <r>  -13.4674    1.0000 </r>
       <r>  -13.1067    1.0000 </r>
       <r>  -12.9403    1.0000 </r>
       <r>  -12.9397    1.0000 </r>
       <r>  -12.7686    1.0000 </r>
       <r>  -12.7680    1.0000 </r>
       <r>   -1.4295    1.0000 </r>
       <r>   -1.4285    1.0000 </r>
       <r>   -1.2932    1.0000 </r>
       <r>   -0.9873    1.0000 </r>
       <r>   -0.6684    1.0000 </r>
       <r>   -0.3224    1.0000 </r>
       <r>   -0.3212    1.0000 </r>
       <r>    0.9500    1.0000 </r>
       <r>    1.2225    1.0000 </r>
       <r>    1.2246    1.0000 </r>
       <r>    1.4733    1.0000 </r>
       <r>    1.4755    1.0000 </r>
       <r>    1.6671    1.0000 </r>
       <r>    1.7082    1.0000 </r>
       <r>    1.8779    1.0000 </r>
       <r>    1.8788    1.0000 </r>
       <r>    2.1574    1.0000 </r>
       <r>    2.3718    1.0000 </r>
       <r>    2.3722    1.0000 </r>
       <r>    2.5661    1.0000 </r>
       <r>    2.5680    1.0000 </r>
       <r>    4.3031    0.0000 </r>
       <r>    8.9619    0.0000 </r>
       <r>   10.0037    0.0000 </r>
       <r>   10.5827    0.0000 </r>
       <r>   10.5865    0.0000 </r>
       <r>   11.3760    0.0000 </r>
       <r>   11.6055    0.0000 </r>
       <r>   11.6087    0.0000 </r>
       <r>   12.6096    0.0000 </r>
       <r>   12.6111    0.0000 </r>
       <r>   13.0976    0.0000 </r>
       <r>   13.3661    0.0000 </r>
       <r>   13.5377    0.0000 </r>
       <r>   13.5391    0.0000 </r>
       <r>   15.2514    0.0000 </r>
       <r>   15.2970    0.0000 </r>
      </set>
      <set comment="kpoint 2">
       <r>  -14.2754    1.0000 </r>
       <r>  -13.4674    1.0000 </r>
       <r>  -13.1067    1.0000 </r>
       <r>  -12.9410    1.0000 </r>
       <r>  -12.9391    1.0000 </r>
       <r>  -12.7693    1.0000 </r>
       <r>  -12.7673    1.0000 </r>
       <r>   -1.4303    1.0000 </r>
       <r>   -1.4276    1.0000 </r>
       <r>   -1.2932    1.0000 </r>
       <r>   -0.9873    1.0000 </r>
       <r>   -0.6682    1.0000 </r>
       <r>   -0.3234    1.0000 </r>
       <r>   -0.3204    1.0000 </r>
       <r>    0.9500    1.0000 </r>
       <r>    1.2206    1.0000 </r>
       <r>    1.2269    1.0000 </r>
       <r>    1.4736    1.0000 </r>
       <r>    1.4753    1.0000 </r>
       <r>    1.6669    1.0000 </r>
       <r>    1.7084    1.0000 </r>
       <r>    1.8762    1.0000 </r>
       <r>    1.8810    1.0000 </r>
       <r>    2.1570    1.0000 </r>
       <r>    2.3712    1.0000 </r>
       <r>    2.3725    1.0000 </r>
       <r>    2.5658    1.0000 </r>
       <r>    2.5679    1.0000 </r>
       <r>    4.3033    0.0000 </r>
       <r>    8.9620    0.0000 </r>
       <r>   10.0038    0.0000 </r>
       <r>   10.5811    0.0000 </r>
       <r>   10.5876    0.0000 </r>
       <r>   11.3761    0.0000 </r>
       <r>   11.6024    0.0000 </r>
       <r>   11.6119    0.0000 </r>
       <r>   12.6099    0.0000 </r>
       <r>   12.6116    0.0000 </r>
       <r>   13.0973    0.0000 </r>
       <r>   13.3664    0.0000 </r>
       <r>   13.5373    0.0000 </r>
       <r>   13.5393    0.0000 </r>
       <r>   15.2514    0.0000 </r>
       <r>   15.2971    0.0000 </r>
      </set>
      <set comment="kpoint 3">
       <r>  -14.2754    1.0000 </r>
       <r>  -13.4675    1.0000 </r>
       <r>  -13.1067    1.0000 </r>
       <r>  -12.9407    1.0000 </r>
       <r>  -12.9394    1.0000 </r>
       <r>  -12.7690    1.0000 </r>
       <r>  -12.7676    1.0000 </r>
       <r>   -1.4295    1.0000 </r>
       <r>   -1.4276    1.0000 </r>
       <r>   -1.2938    1.0000 </r>
       <r>   -0.9874    1.0000 </r>
       <r>   -0.6680    1.0000 </r>
       <r>   -0.3230    1.0000 </r>
       <r>   -0.3212    1.0000 </r>
       <r>    0.9492    1.0000 </r>
       <r>    1.2214    1.0000 </r>
       <r>    1.2255    1.0000 </r>
       <r>    1.4731    1.0000 </r>
       <r>    1.4768    1.0000 </r>
       <r>    1.6672    1.0000 </r>
       <r>    1.7082    1.0000 </r>
       <r>    1.8770    1.0000 </r>
       <r>    1.8801    1.0000 </r>
       <r>    2.1570    1.0000 </r>
       <r>    2.3711    1.0000 </r>
       <r>    2.3728    1.0000 </r>
       <r>    2.5666    1.0000 </r>
       <r>    2.5673    1.0000 </r>
       <r>    4.3034    0.0000 </r>
       <r>    8.9619    0.0000 </r>
       <r>   10.0041    0.0000 </r>
       <r>   10.5818    0.0000 </r>
       <r>   10.5857    0.0000 </r>
       <r>   11.3757    0.0000 </r>
       <r>   11.6044    0.0000 </r>
       <r>   11.6106    0.0000 </r>
       <r>   12.6103    0.0000 </r>
       <r>   12.6114    0.0000 </r>
       <r>   13.0974    0.0000 </r>
       <r>   13.3674    0.0000 </r>
       <r>   13.5377    0.0000 </r>
       <r>   13.5388    0.0000 </r>
       <r>   15.2514    0.0000 </r>
       <r>   15.2973    0.0000 </r>
      </set>
      <set comment="kpoint 4">
       <r>  -14.2754    1.0000 </r>
       <r>  -13.4675    1.0000 </r>
       <r>  -13.1066    1.0000 </r>
       <r>  -12.9404    1.0000 </r>
       <r>  -12.9397    1.0000 </r>
       <r>  -12.7687    1.0000 </r>
       <r>  -12.7679    1.0000 </r>
       <r>   -1.4290    1.0000 </r>
       <r>   -1.4280    1.0000 </r>
       <r>   -1.2939    1.0000 </r>
       <r>   -0.9874    1.0000 </r>
       <r>   -0.6679    1.0000 </r>
       <r>   -0.3226    1.0000 </r>
       <r>   -0.3218    1.0000 </r>
       <r>    0.9492    1.0000 </r>
       <r>    1.2221    1.0000 </r>
       <r>    1.2246    1.0000 </r>
       <r>    1.4732    1.0000 </r>
       <r>    1.4769    1.0000 </r>
       <r>    1.6672    1.0000 </r>
       <r>    1.7081    1.0000 </r>
       <r>    1.8778    1.0000 </r>
       <r>    1.8793    1.0000 </r>
       <r>    2.1570    1.0000 </r>
       <r>    2.3714    1.0000 </r>
       <r>    2.3724    1.0000 </r>
       <r>    2.5665    1.0000 </r>
       <r>    2.5675    1.0000 </r>
       <r>    4.3034    0.0000 </r>
       <r>    8.9620    0.0000 </r>
       <r>   10.0042    0.0000 </r>
       <r>   10.5824    0.0000 </r>
       <r>   10.5850    0.0000 </r>
       <r>   11.3756    0.0000 </r>
       <r>   11.6060    0.0000 </r>
       <r>   11.6091    0.0000 </r>
       <r>   12.6105    0.0000 </r>
       <r>   12.6111    0.0000 </r>
       <r>   13.0975    0.0000 </r>
       <r>   13.3676    0.0000 </r>
       <r>   13.5377    0.0000 </r>
       <r>   13.5388    0.0000 </r>
       <r>   15.2515    0.0000 </r>
       <r>   15.2973    0.0000 </r>
      </set>
      <set comment="kpoint 5">
       <r>  -14.1378    1.0000 </r>
       <r>  -13.4224    1.0000 </r>
       <r>  -13.2384    1.0000 </r>
       <r>  -12.9836    1.0000 </r>
       <r>  -12.9614    1.0000 </r>
       <r>  -12.8633    1.0000 </r>
       <r>  -12.7336    1.0000 </r>
       <r>   -0.9812    1.0000 </r>
       <r>   -0.9773    1.0000 </r>
       <r>   -0.8376    1.0000 </r>
       <r>   -0.5013    1.0000 </r>
       <r>   -0.3248    1.0000 </r>
       <r>   -0.1471    1.0000 </r>
       <r>    0.1548    1.0000 </r>
       <r>    0.4095    1.0000 </r>
       <r>    0.6121    1.0000 </r>
       <r>    0.6528    1.0000 </r>
       <r>    1.0226    1.0000 </r>
       <r>    1.2305    1.0000 </r>
       <r>    1.2894    1.0000 </r>
       <r>    1.5422    1.0000 </r>
       <r>    1.5470    1.0000 </r>
       <r>    1.7450    1.0000 </r>
       <r>    1.9204    1.0000 </r>
       <r>    2.0775    1.0000 </r>
       <r>    2.2657    1.0000 </r>
       <r>    2.3216    1.0000 </r>
       <r>    2.4288    1.0000 </r>
       <r>    5.3970    0.0000 </r>
       <r>    8.5477    0.0000 </r>
       <r>    9.4824    0.0000 </r>
       <r>    9.9422    0.0000 </r>
       <r>   11.0507    0.0000 </r>
       <r>   11.9171    0.0000 </r>
       <r>   12.5627    0.0000 </r>
       <r>   12.7975    0.0000 </r>
       <r>   12.8705    0.0000 </r>
       <r>   13.5690    0.0000 </r>
       <r>   13.7386    0.0000 </r>
       <r>   14.3697    0.0000 </r>
       <r>   14.5084    0.0000 </r>
       <r>   14.5130    0.0000 </r>
       <r>   14.7773    0.0000 </r>
       <r>   14.9803    0.0000 </r>
      </set>
      <set comment="kpoint 6">
       <r>  -14.1377    1.0000 </r>
       <r>  -13.4226    1.0000 </r>
       <r>  -13.2383    1.0000 </r>
       <r>  -12.9835    1.0000 </r>
       <r>  -12.9613    1.0000 </r>
       <r>  -12.8635    1.0000 </r>
       <r>  -12.7336    1.0000 </r>
       <r>   -0.9797    1.0000 </r>
       <r>   -0.9770    1.0000 </r>
       <r>   -0.8383    1.0000 </r>
       <r>   -0.5017    1.0000 </r>
       <r>   -0.3249    1.0000 </r>
       <r>   -0.1488    1.0000 </r>
       <r>    0.1544    1.0000 </r>
       <r>    0.4104    1.0000 </r>
       <r>    0.6122    1.0000 </r>
       <r>    0.6528    1.0000 </r>
       <r>    1.0233    1.0000 </r>
       <r>    1.2291    1.0000 </r>
       <r>    1.2897    1.0000 </r>
       <r>    1.5423    1.0000 </r>
       <r>    1.5453    1.0000 </r>
       <r>    1.7467    1.0000 </r>
       <r>    1.9204    1.0000 </r>
       <r>    2.0768    1.0000 </r>
       <r>    2.2659    1.0000 </r>
       <r>    2.3214    1.0000 </r>
       <r>    2.4301    1.0000 </r>
       <r>    5.3971    0.0000 </r>
       <r>    8.5471    0.0000 </r>
       <r>    9.4829    0.0000 </r>
       <r>    9.9422    0.0000 </r>
       <r>   11.0510    0.0000 </r>
       <r>   11.9163    0.0000 </r>
       <r>   12.5627    0.0000 </r>
       <r>   12.7975    0.0000 </r>
       <r>   12.8710    0.0000 </r>
       <r>   13.5687    0.0000 </r>
       <r>   13.7373    0.0000 </r>
       <r>   14.3705    0.0000 </r>
       <r>   14.5108    0.0000 </r>
       <r>   14.5139    0.0000 </r>
       <r>   14.7795    0.0000 </r>
       <r>   14.9803    0.0000 </r>
      </set>
      <set comment="kpoint 7">
       <r>  -14.1377    1.0000 </r>
       <r>  -13.4223    1.0000 </r>
       <r>  -13.2385    1.0000 </r>
       <r>  -12.9831    1.0000 </r>
       <r>  -12.9619    1.0000 </r>
       <r>  -12.8637    1.0000 </r>
       <r>  -12.7332    1.0000 </r>
       <r>   -0.9801    1.0000 </r>
       <r>   -0.9770    1.0000 </r>
       <r>   -0.8373    1.0000 </r>
       <r>   -0.5019    1.0000 </r>
       <r>   -0.3247    1.0000 </r>
       <r>   -0.1462    1.0000 </r>
       <r>    0.1534    1.0000 </r>
       <r>    0.4077    1.0000 </r>
       <r>    0.6114    1.0000 </r>
       <r>    0.6524    1.0000 </r>
       <r>    1.0213    1.0000 </r>
       <r>    1.2323    1.0000 </r>
       <r>    1.2884    1.0000 </r>
       <r>    1.5431    1.0000 </r>
       <r>    1.5456    1.0000 </r>
       <r>    1.7466    1.0000 </r>
       <r>    1.9196    1.0000 </r>
       <r>    2.0789    1.0000 </r>
       <r>    2.2658    1.0000 </r>
       <r>    2.3230    1.0000 </r>
       <r>    2.4287    1.0000 </r>
       <r>    5.3969    0.0000 </r>
       <r>    8.5481    0.0000 </r>
       <r>    9.4813    0.0000 </r>
       <r>    9.9427    0.0000 </r>
       <r>   11.0499    0.0000 </r>
       <r>   11.9173    0.0000 </r>
       <r>   12.5631    0.0000 </r>
       <r>   12.7976    0.0000 </r>
       <r>   12.8709    0.0000 </r>
       <r>   13.5703    0.0000 </r>
       <r>   13.7379    0.0000 </r>
       <r>   14.3698    0.0000 </r>
       <r>   14.5087    0.0000 </r>
       <r>   14.5116    0.0000 </r>
       <r>   14.7771    0.0000 </r>
       <r>   14.9807    0.0000 </r>
      </set>
      <set comment="kpoint 8">
       <r>  -14.1377    1.0000 </r>
       <r>  -13.4226    1.0000 </r>
       <r>  -13.2383    1.0000 </r>
       <r>  -12.9835    1.0000 </r>
       <r>  -12.9613    1.0000 </r>
       <r>  -12.8634    1.0000 </r>
       <r>  -12.7336    1.0000 </r>
       <r>   -0.9804    1.0000 </r>
       <r>   -0.9764    1.0000 </r>
       <r>   -0.8383    1.0000 </r>
       <r>   -0.5015    1.0000 </r>
       <r>   -0.3249    1.0000 </r>
       <r>   -0.1485    1.0000 </r>
       <r>    0.1544    1.0000 </r>
       <r>    0.4102    1.0000 </r>
       <r>    0.6120    1.0000 </r>
       <r>    0.6531    1.0000 </r>
       <r>    1.0232    1.0000 </r>
       <r>    1.2291    1.0000 </r>
       <r>    1.2897    1.0000 </r>
       <r>    1.5423    1.0000 </r>
       <r>    1.5454    1.0000 </r>
       <r>    1.7465    1.0000 </r>
       <r>    1.9206    1.0000 </r>
       <r>    2.0772    1.0000 </r>
       <r>    2.2662    1.0000 </r>
       <r>    2.3211    1.0000 </r>
       <r>    2.4297    1.0000 </r>
       <r>    5.3971    0.0000 </r>
       <r>    8.5473    0.0000 </r>
       <r>    9.4828    0.0000 </r>
       <r>    9.9420    0.0000 </r>
       <r>   11.0510    0.0000 </r>
       <r>   11.9165    0.0000 </r>
       <r>   12.5629    0.0000 </r>
       <r>   12.7975    0.0000 </r>
       <r>   12.8708    0.0000 </r>
       <r>   13.5688    0.0000 </r>
       <r>   13.7372    0.0000 </r>
       <r>   14.3706    0.0000 </r>
       <r>   14.5096    0.0000 </r>
       <r>   14.5147    0.0000 </r>
       <r>   14.7793    0.0000 </r>
       <r>   14.9799    0.0000 </r>
      </set>
      <set comment="kpoint 9">
       <r>  -14.1377    1.0000 </r>
       <r>  -13.4225    1.0000 </r>
       <r>  -13.2383    1.0000 </r>
       <r>  -12.9835    1.0000 </r>
       <r>  -12.9614    1.0000 </r>
       <r>  -12.8633    1.0000 </r>
       <r>  -12.7337    1.0000 </r>
       <r>   -0.9811    1.0000 </r>
       <r>   -0.9774    1.0000 </r>
       <r>   -0.8378    1.0000 </r>
       <r>   -0.5012    1.0000 </r>
       <r>   -0.3247    1.0000 </r>
       <r>   -0.1473    1.0000 </r>
       <r>    0.1550    1.0000 </r>
       <r>    0.4098    1.0000 </r>
       <r>    0.6119    1.0000 </r>
       <r>    0.6527    1.0000 </r>
       <r>    1.0224    1.0000 </r>
       <r>    1.2297    1.0000 </r>
       <r>    1.2895    1.0000 </r>
       <r>    1.5421    1.0000 </r>
       <r>    1.5470    1.0000 </r>
       <r>    1.7451    1.0000 </r>
       <r>    1.9207    1.0000 </r>
       <r>    2.0776    1.0000 </r>
       <r>    2.2660    1.0000 </r>
       <r>    2.3212    1.0000 </r>
       <r>    2.4292    1.0000 </r>
       <r>    5.3968    0.0000 </r>
       <r>    8.5477    0.0000 </r>
       <r>    9.4825    0.0000 </r>
       <r>    9.9424    0.0000 </r>
       <r>   11.0505    0.0000 </r>
       <r>   11.9172    0.0000 </r>
       <r>   12.5628    0.0000 </r>
       <r>   12.7972    0.0000 </r>
       <r>   12.8703    0.0000 </r>
       <r>   13.5688    0.0000 </r>
       <r>   13.7383    0.0000 </r>
       <r>   14.3700    0.0000 </r>
       <r>   14.5080    0.0000 </r>
       <r>   14.5138    0.0000 </r>
       <r>   14.7772    0.0000 </r>
       <r>   14.9812    0.0000 </r>
      </set>
      <set comment="kpoint 10">
       <r>  -14.1377    1.0000 </r>
       <r>  -13.4224    1.0000 </r>
       <r>  -13.2384    1.0000 </r>
       <r>  -12.9831    1.0000 </r>
       <r>  -12.9619    1.0000 </r>
       <r>  -12.8637    1.0000 </r>
       <r>  -12.7332    1.0000 </r>
       <r>   -0.9805    1.0000 </r>
       <r>   -0.9764    1.0000 </r>
       <r>   -0.8373    1.0000 </r>
       <r>   -0.5020    1.0000 </r>
       <r>   -0.3246    1.0000 </r>
       <r>   -0.1462    1.0000 </r>
       <r>    0.1531    1.0000 </r>
       <r>    0.4075    1.0000 </r>
       <r>    0.6112    1.0000 </r>
       <r>    0.6526    1.0000 </r>
       <r>    1.0214    1.0000 </r>
       <r>    1.2323    1.0000 </r>
       <r>    1.2885    1.0000 </r>
       <r>    1.5430    1.0000 </r>
       <r>    1.5455    1.0000 </r>
       <r>    1.7467    1.0000 </r>
       <r>    1.9197    1.0000 </r>
       <r>    2.0792    1.0000 </r>
       <r>    2.2660    1.0000 </r>
       <r>    2.3226    1.0000 </r>
       <r>    2.4285    1.0000 </r>
       <r>    5.3969    0.0000 </r>
       <r>    8.5484    0.0000 </r>
       <r>    9.4813    0.0000 </r>
       <r>    9.9424    0.0000 </r>
       <r>   11.0499    0.0000 </r>
       <r>   11.9173    0.0000 </r>
       <r>   12.5632    0.0000 </r>
       <r>   12.7976    0.0000 </r>
       <r>   12.8710    0.0000 </r>
       <r>   13.5703    0.0000 </r>
       <r>   13.7376    0.0000 </r>
       <r>   14.3699    0.0000 </r>
       <r>   14.5077    0.0000 </r>
       <r>   14.5124    0.0000 </r>
       <r>   14.7771    0.0000 </r>
       <r>   14.9806    0.0000 </r>
      </set>
      <set comment="kpoint 11">
       <r>  -14.1377    1.0000 </r>
       <r>  -13.4226    1.0000 </r>
       <r>  -13.2384    1.0000 </r>
       <r>  -12.9835    1.0000 </r>
       <r>  -12.9610    1.0000 </r>
       <r>  -12.8635    1.0000 </r>
       <r>  -12.7337    1.0000 </r>
       <r>   -0.9808    1.0000 </r>
       <r>   -0.9763    1.0000 </r>
       <r>   -0.8382    1.0000 </r>
       <r>   -0.5017    1.0000 </r>
       <r>   -0.3249    1.0000 </r>
       <r>   -0.1475    1.0000 </r>
       <r>    0.1538    1.0000 </r>
       <r>    0.4093    1.0000 </r>
       <r>    0.6118    1.0000 </r>
       <r>    0.6533    1.0000 </r>
       <r>    1.0232    1.0000 </r>
       <r>    1.2302    1.0000 </r>
       <r>    1.2898    1.0000 </r>
       <r>    1.5419    1.0000 </r>
       <r>    1.5451    1.0000 </r>
       <r>    1.7472    1.0000 </r>
       <r>    1.9204    1.0000 </r>
       <r>    2.0776    1.0000 </r>
       <r>    2.2657    1.0000 </r>
       <r>    2.3212    1.0000 </r>
       <r>    2.4291    1.0000 </r>
       <r>    5.3970    0.0000 </r>
       <r>    8.5481    0.0000 </r>
       <r>    9.4828    0.0000 </r>
       <r>    9.9408    0.0000 </r>
       <r>   11.0512    0.0000 </r>
       <r>   11.9169    0.0000 </r>
       <r>   12.5630    0.0000 </r>
       <r>   12.7972    0.0000 </r>
       <r>   12.8710    0.0000 </r>
       <r>   13.5692    0.0000 </r>
       <r>   13.7374    0.0000 </r>
       <r>   14.3701    0.0000 </r>
       <r>   14.5093    0.0000 </r>
       <r>   14.5130    0.0000 </r>
       <r>   14.7788    0.0000 </r>
       <r>   14.9798    0.0000 </r>
      </set>
      <set comment="kpoint 12">
       <r>  -14.1378    1.0000 </r>
       <r>  -13.4223    1.0000 </r>
       <r>  -13.2385    1.0000 </r>
       <r>  -12.9835    1.0000 </r>
       <r>  -12.9614    1.0000 </r>
       <r>  -12.8634    1.0000 </r>
       <r>  -12.7336    1.0000 </r>
       <r>   -0.9818    1.0000 </r>
       <r>   -0.9767    1.0000 </r>
       <r>   -0.8377    1.0000 </r>
       <r>   -0.5014    1.0000 </r>
       <r>   -0.3246    1.0000 </r>
       <r>   -0.1460    1.0000 </r>
       <r>    0.1540    1.0000 </r>
       <r>    0.4087    1.0000 </r>
       <r>    0.6117    1.0000 </r>
       <r>    0.6530    1.0000 </r>
       <r>    1.0221    1.0000 </r>
       <r>    1.2311    1.0000 </r>
       <r>    1.2892    1.0000 </r>
       <r>    1.5439    1.0000 </r>
       <r>    1.5447    1.0000 </r>
       <r>    1.7459    1.0000 </r>
       <r>    1.9202    1.0000 </r>
       <r>    2.0784    1.0000 </r>
       <r>    2.2657    1.0000 </r>
       <r>    2.3215    1.0000 </r>
       <r>    2.4284    1.0000 </r>
       <r>    5.3969    0.0000 </r>
       <r>    8.5483    0.0000 </r>
       <r>    9.4823    0.0000 </r>
       <r>    9.9415    0.0000 </r>
       <r>   11.0504    0.0000 </r>
       <r>   11.9179    0.0000 </r>
       <r>   12.5632    0.0000 </r>
       <r>   12.7969    0.0000 </r>
       <r>   12.8706    0.0000 </r>
       <r>   13.5696    0.0000 </r>
       <r>   13.7381    0.0000 </r>
       <r>   14.3695    0.0000 </r>
       <r>   14.5071    0.0000 </r>
       <r>   14.5127    0.0000 </r>
       <r>   14.7767    0.0000 </r>
       <r>   14.9798    0.0000 </r>
      </set>
      <set comment="kpoint 13">
       <r>  -14.1378    1.0000 </r>
       <r>  -13.4221    1.0000 </r>
       <r>  -13.2386    1.0000 </r>
       <r>  -12.9831    1.0000 </r>
       <r>  -12.9619    1.0000 </r>
       <r>  -12.8637    1.0000 </r>
       <r>  -12.7332    1.0000 </r>
       <r>   -0.9799    1.0000 </r>
       <r>   -0.9770    1.0000 </r>
       <r>   -0.8386    1.0000 </r>
       <r>   -0.5014    1.0000 </r>
       <r>   -0.3244    1.0000 </r>
       <r>   -0.1475    1.0000 </r>
       <r>    0.1542    1.0000 </r>
       <r>    0.4105    1.0000 </r>
       <r>    0.6122    1.0000 </r>
       <r>    0.6520    1.0000 </r>
       <r>    1.0215    1.0000 </r>
       <r>    1.2285    1.0000 </r>
       <r>    1.2887    1.0000 </r>
       <r>    1.5431    1.0000 </r>
       <r>    1.5454    1.0000 </r>
       <r>    1.7470    1.0000 </r>
       <r>    1.9203    1.0000 </r>
       <r>    2.0785    1.0000 </r>
       <r>    2.2661    1.0000 </r>
       <r>    2.3209    1.0000 </r>
       <r>    2.4309    1.0000 </r>
       <r>    5.3968    0.0000 </r>
       <r>    8.5467    0.0000 </r>
       <r>    9.4829    0.0000 </r>
       <r>    9.9434    0.0000 </r>
       <r>   11.0495    0.0000 </r>
       <r>   11.9179    0.0000 </r>
       <r>   12.5634    0.0000 </r>
       <r>   12.7963    0.0000 </r>
       <r>   12.8707    0.0000 </r>
       <r>   13.5691    0.0000 </r>
       <r>   13.7362    0.0000 </r>
       <r>   14.3707    0.0000 </r>
       <r>   14.5093    0.0000 </r>
       <r>   14.5144    0.0000 </r>
       <r>   14.7776    0.0000 </r>
       <r>   14.9803    0.0000 </r>
      </set>
      <set comment="kpoint 14">
       <r>  -14.1378    1.0000 </r>
       <r>  -13.4224    1.0000 </r>
       <r>  -13.2386    1.0000 </r>
       <r>  -12.9835    1.0000 </r>
       <r>  -12.9613    1.0000 </r>
       <r>  -12.8635    1.0000 </r>
       <r>  -12.7336    1.0000 </r>
       <r>   -0.9815    1.0000 </r>
       <r>   -0.9771    1.0000 </r>
       <r>   -0.8377    1.0000 </r>
       <r>   -0.5014    1.0000 </r>
       <r>   -0.3247    1.0000 </r>
       <r>   -0.1456    1.0000 </r>
       <r>    0.1541    1.0000 </r>
       <r>    0.4085    1.0000 </r>
       <r>    0.6116    1.0000 </r>
       <r>    0.6527    1.0000 </r>
       <r>    1.0218    1.0000 </r>
       <r>    1.2311    1.0000 </r>
       <r>    1.2892    1.0000 </r>
       <r>    1.5442    1.0000 </r>
       <r>    1.5444    1.0000 </r>
       <r>    1.7461    1.0000 </r>
       <r>    1.9202    1.0000 </r>
       <r>    2.0785    1.0000 </r>
       <r>    2.2656    1.0000 </r>
       <r>    2.3218    1.0000 </r>
       <r>    2.4285    1.0000 </r>
       <r>    5.3967    0.0000 </r>
       <r>    8.5484    0.0000 </r>
       <r>    9.4823    0.0000 </r>
       <r>    9.9417    0.0000 </r>
       <r>   11.0502    0.0000 </r>
       <r>   11.9180    0.0000 </r>
       <r>   12.5632    0.0000 </r>
       <r>   12.7967    0.0000 </r>
       <r>   12.8706    0.0000 </r>
       <r>   13.5696    0.0000 </r>
       <r>   13.7382    0.0000 </r>
       <r>   14.3694    0.0000 </r>
       <r>   14.5075    0.0000 </r>
       <r>   14.5119    0.0000 </r>
       <r>   14.7762    0.0000 </r>
       <r>   14.9811    0.0000 </r>
      </set>
      <set comment="kpoint 15">
       <r>  -14.1377    1.0000 </r>
       <r>  -13.4225    1.0000 </r>
       <r>  -13.2385    1.0000 </r>
       <r>  -12.9835    1.0000 </r>
       <r>  -12.9610    1.0000 </r>
       <r>  -12.8635    1.0000 </r>
       <r>  -12.7336    1.0000 </r>
       <r>   -0.9809    1.0000 </r>
       <r>   -0.9762    1.0000 </r>
       <r>   -0.8382    1.0000 </r>
       <r>   -0.5016    1.0000 </r>
       <r>   -0.3249    1.0000 </r>
       <r>   -0.1474    1.0000 </r>
       <r>    0.1539    1.0000 </r>
       <r>    0.4095    1.0000 </r>
       <r>    0.6119    1.0000 </r>
       <r>    0.6533    1.0000 </r>
       <r>    1.0232    1.0000 </r>
       <r>    1.2300    1.0000 </r>
       <r>    1.2897    1.0000 </r>
       <r>    1.5417    1.0000 </r>
       <r>    1.5453    1.0000 </r>
       <r>    1.7472    1.0000 </r>
       <r>    1.9204    1.0000 </r>
       <r>    2.0776    1.0000 </r>
       <r>    2.2657    1.0000 </r>
       <r>    2.3212    1.0000 </r>
       <r>    2.4290    1.0000 </r>
       <r>    5.3970    0.0000 </r>
       <r>    8.5480    0.0000 </r>
       <r>    9.4829    0.0000 </r>
       <r>    9.9408    0.0000 </r>
       <r>   11.0511    0.0000 </r>
       <r>   11.9170    0.0000 </r>
       <r>   12.5630    0.0000 </r>
       <r>   12.7971    0.0000 </r>
       <r>   12.8710    0.0000 </r>
       <r>   13.5692    0.0000 </r>
       <r>   13.7374    0.0000 </r>
       <r>   14.3701    0.0000 </r>
       <r>   14.5097    0.0000 </r>
       <r>   14.5128    0.0000 </r>
       <r>   14.7789    0.0000 </r>
       <r>   14.9794    0.0000 </r>
      </set>
      <set comment="kpoint 16">
       <r>  -14.1378    1.0000 </r>
       <r>  -13.4221    1.0000 </r>
       <r>  -13.2387    1.0000 </r>
       <r>  -12.9831    1.0000 </r>
       <r>  -12.9619    1.0000 </r>
       <r>  -12.8637    1.0000 </r>
       <r>  -12.7332    1.0000 </r>
       <r>   -0.9803    1.0000 </r>
       <r>   -0.9764    1.0000 </r>
       <r>   -0.8386    1.0000 </r>
       <r>   -0.5015    1.0000 </r>
       <r>   -0.3244    1.0000 </r>
       <r>   -0.1477    1.0000 </r>
       <r>    0.1539    1.0000 </r>
       <r>    0.4107    1.0000 </r>
       <r>    0.6122    1.0000 </r>
       <r>    0.6523    1.0000 </r>
       <r>    1.0219    1.0000 </r>
       <r>    1.2284    1.0000 </r>
       <r>    1.2888    1.0000 </r>
       <r>    1.5429    1.0000 </r>
       <r>    1.5453    1.0000 </r>
       <r>    1.7471    1.0000 </r>
       <r>    1.9202    1.0000 </r>
       <r>    2.0783    1.0000 </r>
       <r>    2.2661    1.0000 </r>
       <r>    2.3208    1.0000 </r>
       <r>    2.4306    1.0000 </r>
       <r>    5.3970    0.0000 </r>
       <r>    8.5466    0.0000 </r>
       <r>    9.4831    0.0000 </r>
       <r>    9.9431    0.0000 </r>
       <r>   11.0497    0.0000 </r>
       <r>   11.9178    0.0000 </r>
       <r>   12.5634    0.0000 </r>
       <r>   12.7963    0.0000 </r>
       <r>   12.8708    0.0000 </r>
       <r>   13.5692    0.0000 </r>
       <r>   13.7361    0.0000 </r>
       <r>   14.3706    0.0000 </r>
       <r>   14.5094    0.0000 </r>
       <r>   14.5146    0.0000 </r>
       <r>   14.7781    0.0000 </r>
       <r>   14.9795    0.0000 </r>
      </set>
     </set>
     <set comment="spin 2">
      <set comment="kpoint 1">
       <r>  -14.2754    1.0000 </r>
       <r>  -13.4673    1.0000 </r>
       <r>  -13.1067    1.0000 </r>
       <r>  -12.9403    1.0000 </r>
       <r>  -12.9397    1.0000 </r>
       <r>  -12.7686    1.0000 </r>
       <r>  -12.7679    1.0000 </r>
       <r>   -1.4294    1.0000 </r>
       <r>   -1.4285    1.0000 </r>
       <r>   -1.2932    1.0000 </r>
       <r>   -0.9872    1.0000 </r>
       <r>   -0.6684    1.0000 </r>
       <r>   -0.3224    1.0000 </r>
       <r>   -0.3212    1.0000 </r>
       <r>    0.9500    1.0000 </r>
       <r>    1.2225    1.0000 </r>
       <r>    1.2247    1.0000 </r>
       <r>    1.4733    1.0000 </r>
       <r>    1.4755    1.0000 </r>
       <r>    1.6672    1.0000 </r>
       <r>    1.7082    1.0000 </r>
       <r>    1.8779    1.0000 </r>
       <r>    1.8789    1.0000 </r>
       <r>    2.1575    1.0000 </r>
       <r>    2.3718    1.0000 </r>
       <r>    2.3722    1.0000 </r>
       <r>    2.5661    1.0000 </r>
       <r>    2.5680    1.0000 </r>
       <r>    4.3025    0.0000 </r>
       <r>    8.9617    0.0000 </r>
       <r>   10.0036    0.0000 </r>
       <r>   10.5825    0.0000 </r>
       <r>   10.5863    0.0000 </r>
       <r>   11.3760    0.0000 </r>
       <r>   11.6055    0.0000 </r>
       <r>   11.6086    0.0000 </r>
       <r>   12.6096    0.0000 </r>
       <r>   12.6111    0.0000 </r>
       <r>   13.0976    0.0000 </r>
       <r>   13.3660    0.0000 </r>
       <r>   13.5377    0.0000 </r>
       <r>   13.5390    0.0000 </r>
       <r>   15.2515    0.0000 </r>
       <r>   15.2974    0.0000 </r>
      </set>
      <set comment="kpoint 2">
       <r>  -14.2754    1.0000 </r>
       <r>  -13.4673    1.0000 </r>
       <r>  -13.1067    1.0000 </r>
       <r>  -12.9410    1.0000 </r>
       <r>  -12.9390    1.0000 </r>
       <r>  -12.7693    1.0000 </r>
       <r>  -12.7673    1.0000 </r>
       <r>   -1.4303    1.0000 </r>
       <r>   -1.4276    1.0000 </r>
       <r>   -1.2932    1.0000 </r>
       <r>   -0.9873    1.0000 </r>
       <r>   -0.6683    1.0000 </r>
       <r>   -0.3234    1.0000 </r>
       <r>   -0.3204    1.0000 </r>
       <r>    0.9500    1.0000 </r>
       <r>    1.2206    1.0000 </r>
       <r>    1.2269    1.0000 </r>
       <r>    1.4736    1.0000 </r>
       <r>    1.4753    1.0000 </r>
       <r>    1.6669    1.0000 </r>
       <r>    1.7084    1.0000 </r>
       <r>    1.8762    1.0000 </r>
       <r>    1.8811    1.0000 </r>
       <r>    2.1571    1.0000 </r>
       <r>    2.3713    1.0000 </r>
       <r>    2.3725    1.0000 </r>
       <r>    2.5658    1.0000 </r>
       <r>    2.5679    1.0000 </r>
       <r>    4.3027    0.0000 </r>
       <r>    8.9618    0.0000 </r>
       <r>   10.0037    0.0000 </r>
       <r>   10.5809    0.0000 </r>
       <r>   10.5874    0.0000 </r>
       <r>   11.3760    0.0000 </r>
       <r>   11.6023    0.0000 </r>
       <r>   11.6119    0.0000 </r>
       <r>   12.6098    0.0000 </r>
       <r>   12.6116    0.0000 </r>
       <r>   13.0973    0.0000 </r>
       <r>   13.3663    0.0000 </r>
       <r>   13.5373    0.0000 </r>
       <r>   13.5393    0.0000 </r>
       <r>   15.2518    0.0000 </r>
       <r>   15.2972    0.0000 </r>
      </set>
      <set comment="kpoint 3">
       <r>  -14.2754    1.0000 </r>
       <r>  -13.4674    1.0000 </r>
       <r>  -13.1066    1.0000 </r>
       <r>  -12.9406    1.0000 </r>
       <r>  -12.9394    1.0000 </r>
       <r>  -12.7689    1.0000 </r>
       <r>  -12.7676    1.0000 </r>
       <r>   -1.4295    1.0000 </r>
       <r>   -1.4276    1.0000 </r>
       <r>   -1.2937    1.0000 </r>
       <r>   -0.9874    1.0000 </r>
       <r>   -0.6680    1.0000 </r>
       <r>   -0.3230    1.0000 </r>
       <r>   -0.3212    1.0000 </r>
       <r>    0.9493    1.0000 </r>
       <r>    1.2214    1.0000 </r>
       <r>    1.2255    1.0000 </r>
       <r>    1.4732    1.0000 </r>
       <r>    1.4769    1.0000 </r>
       <r>    1.6672    1.0000 </r>
       <r>    1.7081    1.0000 </r>
       <r>    1.8770    1.0000 </r>
       <r>    1.8802    1.0000 </r>
       <r>    2.1570    1.0000 </r>
       <r>    2.3712    1.0000 </r>
       <r>    2.3728    1.0000 </r>
       <r>    2.5667    1.0000 </r>
       <r>    2.5674    1.0000 </r>
       <r>    4.3027    0.0000 </r>
       <r>    8.9618    0.0000 </r>
       <r>   10.0040    0.0000 </r>
       <r>   10.5816    0.0000 </r>
       <r>   10.5855    0.0000 </r>
       <r>   11.3757    0.0000 </r>
       <r>   11.6044    0.0000 </r>
       <r>   11.6106    0.0000 </r>
       <r>   12.6103    0.0000 </r>
       <r>   12.6114    0.0000 </r>
       <r>   13.0974    0.0000 </r>
       <r>   13.3674    0.0000 </r>
       <r>   13.5376    0.0000 </r>
       <r>   13.5388    0.0000 </r>
       <r>   15.2514    0.0000 </r>
       <r>   15.2973    0.0000 </r>
      </set>
      <set comment="kpoint 4">
       <r>  -14.2754    1.0000 </r>
       <r>  -13.4674    1.0000 </r>
       <r>  -13.1066    1.0000 </r>
       <r>  -12.9403    1.0000 </r>
       <r>  -12.9396    1.0000 </r>
       <r>  -12.7686    1.0000 </r>
       <r>  -12.7679    1.0000 </r>
       <r>   -1.4289    1.0000 </r>
       <r>   -1.4280    1.0000 </r>
       <r>   -1.2939    1.0000 </r>
       <r>   -0.9874    1.0000 </r>
       <r>   -0.6679    1.0000 </r>
       <r>   -0.3226    1.0000 </r>
       <r>   -0.3217    1.0000 </r>
       <r>    0.9492    1.0000 </r>
       <r>    1.2222    1.0000 </r>
       <r>    1.2246    1.0000 </r>
       <r>    1.4733    1.0000 </r>
       <r>    1.4770    1.0000 </r>
       <r>    1.6673    1.0000 </r>
       <r>    1.7081    1.0000 </r>
       <r>    1.8778    1.0000 </r>
       <r>    1.8794    1.0000 </r>
       <r>    2.1570    1.0000 </r>
       <r>    2.3715    1.0000 </r>
       <r>    2.3724    1.0000 </r>
       <r>    2.5665    1.0000 </r>
       <r>    2.5676    1.0000 </r>
       <r>    4.3028    0.0000 </r>
       <r>    8.9618    0.0000 </r>
       <r>   10.0041    0.0000 </r>
       <r>   10.5822    0.0000 </r>
       <r>   10.5848    0.0000 </r>
       <r>   11.3756    0.0000 </r>
       <r>   11.6060    0.0000 </r>
       <r>   11.6091    0.0000 </r>
       <r>   12.6104    0.0000 </r>
       <r>   12.6111    0.0000 </r>
       <r>   13.0974    0.0000 </r>
       <r>   13.3675    0.0000 </r>
       <r>   13.5377    0.0000 </r>
       <r>   13.5387    0.0000 </r>
       <r>   15.2520    0.0000 </r>
       <r>   15.2984    0.0000 </r>
      </set>
      <set comment="kpoint 5">
       <r>  -14.1377    1.0000 </r>
       <r>  -13.4224    1.0000 </r>
       <r>  -13.2384    1.0000 </r>
       <r>  -12.9835    1.0000 </r>
       <r>  -12.9613    1.0000 </r>
       <r>  -12.8632    1.0000 </r>
       <r>  -12.7336    1.0000 </r>
       <r>   -0.9812    1.0000 </r>
       <r>   -0.9773    1.0000 </r>
       <r>   -0.8377    1.0000 </r>
       <r>   -0.5013    1.0000 </r>
       <r>   -0.3248    1.0000 </r>
       <r>   -0.1471    1.0000 </r>
       <r>    0.1548    1.0000 </r>
       <r>    0.4096    1.0000 </r>
       <r>    0.6121    1.0000 </r>
       <r>    0.6528    1.0000 </r>
       <r>    1.0226    1.0000 </r>
       <r>    1.2305    1.0000 </r>
       <r>    1.2895    1.0000 </r>
       <r>    1.5422    1.0000 </r>
       <r>    1.5470    1.0000 </r>
       <r>    1.7451    1.0000 </r>
       <r>    1.9204    1.0000 </r>
       <r>    2.0775    1.0000 </r>
       <r>    2.2658    1.0000 </r>
       <r>    2.3217    1.0000 </r>
       <r>    2.4288    1.0000 </r>
       <r>    5.3963    0.0000 </r>
       <r>    8.5475    0.0000 </r>
       <r>    9.4821    0.0000 </r>
       <r>    9.9420    0.0000 </r>
       <r>   11.0507    0.0000 </r>
       <r>   11.9171    0.0000 </r>
       <r>   12.5627    0.0000 </r>
       <r>   12.7974    0.0000 </r>
       <r>   12.8705    0.0000 </r>
       <r>   13.5689    0.0000 </r>
       <r>   13.7386    0.0000 </r>
       <r>   14.3697    0.0000 </r>
       <r>   14.5084    0.0000 </r>
       <r>   14.5130    0.0000 </r>
       <r>   14.7773    0.0000 </r>
       <r>   14.9781    0.0000 </r>
      </set>
      <set comment="kpoint 6">
       <r>  -14.1377    1.0000 </r>
       <r>  -13.4226    1.0000 </r>
       <r>  -13.2383    1.0000 </r>
       <r>  -12.9834    1.0000 </r>
       <r>  -12.9612    1.0000 </r>
       <r>  -12.8634    1.0000 </r>
       <r>  -12.7335    1.0000 </r>
       <r>   -0.9797    1.0000 </r>
       <r>   -0.9770    1.0000 </r>
       <r>   -0.8383    1.0000 </r>
       <r>   -0.5017    1.0000 </r>
       <r>   -0.3249    1.0000 </r>
       <r>   -0.1487    1.0000 </r>
       <r>    0.1544    1.0000 </r>
       <r>    0.4104    1.0000 </r>
       <r>    0.6122    1.0000 </r>
       <r>    0.6528    1.0000 </r>
       <r>    1.0233    1.0000 </r>
       <r>    1.2292    1.0000 </r>
       <r>    1.2897    1.0000 </r>
       <r>    1.5423    1.0000 </r>
       <r>    1.5453    1.0000 </r>
       <r>    1.7468    1.0000 </r>
       <r>    1.9205    1.0000 </r>
       <r>    2.0769    1.0000 </r>
       <r>    2.2659    1.0000 </r>
       <r>    2.3214    1.0000 </r>
       <r>    2.4301    1.0000 </r>
       <r>    5.3965    0.0000 </r>
       <r>    8.5469    0.0000 </r>
       <r>    9.4827    0.0000 </r>
       <r>    9.9420    0.0000 </r>
       <r>   11.0510    0.0000 </r>
       <r>   11.9163    0.0000 </r>
       <r>   12.5627    0.0000 </r>
       <r>   12.7975    0.0000 </r>
       <r>   12.8710    0.0000 </r>
       <r>   13.5686    0.0000 </r>
       <r>   13.7372    0.0000 </r>
       <r>   14.3705    0.0000 </r>
       <r>   14.5107    0.0000 </r>
       <r>   14.5139    0.0000 </r>
       <r>   14.7795    0.0000 </r>
       <r>   14.9773    0.0000 </r>
      </set>
      <set comment="kpoint 7">
       <r>  -14.1377    1.0000 </r>
       <r>  -13.4222    1.0000 </r>
       <r>  -13.2385    1.0000 </r>
       <r>  -12.9831    1.0000 </r>
       <r>  -12.9619    1.0000 </r>
       <r>  -12.8636    1.0000 </r>
       <r>  -12.7331    1.0000 </r>
       <r>   -0.9801    1.0000 </r>
       <r>   -0.9770    1.0000 </r>
       <r>   -0.8374    1.0000 </r>
       <r>   -0.5019    1.0000 </r>
       <r>   -0.3247    1.0000 </r>
       <r>   -0.1462    1.0000 </r>
       <r>    0.1534    1.0000 </r>
       <r>    0.4078    1.0000 </r>
       <r>    0.6115    1.0000 </r>
       <r>    0.6524    1.0000 </r>
       <r>    1.0213    1.0000 </r>
       <r>    1.2323    1.0000 </r>
       <r>    1.2884    1.0000 </r>
       <r>    1.5431    1.0000 </r>
       <r>    1.5457    1.0000 </r>
       <r>    1.7467    1.0000 </r>
       <r>    1.9196    1.0000 </r>
       <r>    2.0789    1.0000 </r>
       <r>    2.2658    1.0000 </r>
       <r>    2.3230    1.0000 </r>
       <r>    2.4287    1.0000 </r>
       <r>    5.3963    0.0000 </r>
       <r>    8.5479    0.0000 </r>
       <r>    9.4811    0.0000 </r>
       <r>    9.9425    0.0000 </r>
       <r>   11.0499    0.0000 </r>
       <r>   11.9173    0.0000 </r>
       <r>   12.5631    0.0000 </r>
       <r>   12.7976    0.0000 </r>
       <r>   12.8709    0.0000 </r>
       <r>   13.5702    0.0000 </r>
       <r>   13.7378    0.0000 </r>
       <r>   14.3698    0.0000 </r>
       <r>   14.5087    0.0000 </r>
       <r>   14.5115    0.0000 </r>
       <r>   14.7771    0.0000 </r>
       <r>   14.9808    0.0000 </r>
      </set>
      <set comment="kpoint 8">
       <r>  -14.1377    1.0000 </r>
       <r>  -13.4225    1.0000 </r>
       <r>  -13.2383    1.0000 </r>
       <r>  -12.9834    1.0000 </r>
       <r>  -12.9613    1.0000 </r>
       <r>  -12.8634    1.0000 </r>
       <r>  -12.7335    1.0000 </r>
       <r>   -0.9804    1.0000 </r>
       <r>   -0.9764    1.0000 </r>
       <r>   -0.8383    1.0000 </r>
       <r>   -0.5015    1.0000 </r>
       <r>   -0.3248    1.0000 </r>
       <r>   -0.1485    1.0000 </r>
       <r>    0.1544    1.0000 </r>
       <r>    0.4102    1.0000 </r>
       <r>    0.6120    1.0000 </r>
       <r>    0.6531    1.0000 </r>
       <r>    1.0232    1.0000 </r>
       <r>    1.2292    1.0000 </r>
       <r>    1.2897    1.0000 </r>
       <r>    1.5424    1.0000 </r>
       <r>    1.5455    1.0000 </r>
       <r>    1.7465    1.0000 </r>
       <r>    1.9206    1.0000 </r>
       <r>    2.0772    1.0000 </r>
       <r>    2.2662    1.0000 </r>
       <r>    2.3211    1.0000 </r>
       <r>    2.4297    1.0000 </r>
       <r>    5.3964    0.0000 </r>
       <r>    8.5471    0.0000 </r>
       <r>    9.4826    0.0000 </r>
       <r>    9.9418    0.0000 </r>
       <r>   11.0509    0.0000 </r>
       <r>   11.9165    0.0000 </r>
       <r>   12.5629    0.0000 </r>
       <r>   12.7975    0.0000 </r>
       <r>   12.8708    0.0000 </r>
       <r>   13.5688    0.0000 </r>
       <r>   13.7372    0.0000 </r>
       <r>   14.3706    0.0000 </r>
       <r>   14.5096    0.0000 </r>
       <r>   14.5147    0.0000 </r>
       <r>   14.7793    0.0000 </r>
       <r>   14.9802    0.0000 </r>
      </set>
      <set comment="kpoint 9">
       <r>  -14.1377    1.0000 </r>
       <r>  -13.4224    1.0000 </r>
       <r>  -13.2383    1.0000 </r>
       <r>  -12.9835    1.0000 </r>
       <r>  -12.9613    1.0000 </r>
       <r>  -12.8632    1.0000 </r>
       <r>  -12.7336    1.0000 </r>
       <r>   -0.9811    1.0000 </r>
       <r>   -0.9774    1.0000 </r>
       <r>   -0.8378    1.0000 </r>
       <r>   -0.5012    1.0000 </r>
       <r>   -0.3247    1.0000 </r>
       <r>   -0.1472    1.0000 </r>
       <r>    0.1550    1.0000 </r>
       <r>    0.4098    1.0000 </r>
       <r>    0.6120    1.0000 </r>
       <r>    0.6527    1.0000 </r>
       <r>    1.0225    1.0000 </r>
       <r>    1.2298    1.0000 </r>
       <r>    1.2896    1.0000 </r>
       <r>    1.5421    1.0000 </r>
       <r>    1.5470    1.0000 </r>
       <r>    1.7451    1.0000 </r>
       <r>    1.9207    1.0000 </r>
       <r>    2.0777    1.0000 </r>
       <r>    2.2660    1.0000 </r>
       <r>    2.3212    1.0000 </r>
       <r>    2.4292    1.0000 </r>
       <r>    5.3962    0.0000 </r>
       <r>    8.5475    0.0000 </r>
       <r>    9.4823    0.0000 </r>
       <r>    9.9422    0.0000 </r>
       <r>   11.0505    0.0000 </r>
       <r>   11.9171    0.0000 </r>
       <r>   12.5628    0.0000 </r>
       <r>   12.7972    0.0000 </r>
       <r>   12.8703    0.0000 </r>
       <r>   13.5687    0.0000 </r>
       <r>   13.7382    0.0000 </r>
       <r>   14.3700    0.0000 </r>
       <r>   14.5080    0.0000 </r>
       <r>   14.5138    0.0000 </r>
       <r>   14.7772    0.0000 </r>
       <r>   14.9814    0.0000 </r>
      </set>
      <set comment="kpoint 10">
       <r>  -14.1377    1.0000 </r>
       <r>  -13.4223    1.0000 </r>
       <r>  -13.2384    1.0000 </r>
       <r>  -12.9831    1.0000 </r>
       <r>  -12.9619    1.0000 </r>
       <r>  -12.8637    1.0000 </r>
       <r>  -12.7331    1.0000 </r>
       <r>   -0.9805    1.0000 </r>
       <r>   -0.9764    1.0000 </r>
       <r>   -0.8373    1.0000 </r>
       <r>   -0.5020    1.0000 </r>
       <r>   -0.3246    1.0000 </r>
       <r>   -0.1462    1.0000 </r>
       <r>    0.1531    1.0000 </r>
       <r>    0.4075    1.0000 </r>
       <r>    0.6113    1.0000 </r>
       <r>    0.6526    1.0000 </r>
       <r>    1.0214    1.0000 </r>
       <r>    1.2324    1.0000 </r>
       <r>    1.2886    1.0000 </r>
       <r>    1.5430    1.0000 </r>
       <r>    1.5455    1.0000 </r>
       <r>    1.7467    1.0000 </r>
       <r>    1.9197    1.0000 </r>
       <r>    2.0792    1.0000 </r>
       <r>    2.2660    1.0000 </r>
       <r>    2.3226    1.0000 </r>
       <r>    2.4285    1.0000 </r>
       <r>    5.3962    0.0000 </r>
       <r>    8.5482    0.0000 </r>
       <r>    9.4810    0.0000 </r>
       <r>    9.9422    0.0000 </r>
       <r>   11.0499    0.0000 </r>
       <r>   11.9173    0.0000 </r>
       <r>   12.5633    0.0000 </r>
       <r>   12.7976    0.0000 </r>
       <r>   12.8710    0.0000 </r>
       <r>   13.5703    0.0000 </r>
       <r>   13.7376    0.0000 </r>
       <r>   14.3699    0.0000 </r>
       <r>   14.5076    0.0000 </r>
       <r>   14.5123    0.0000 </r>
       <r>   14.7771    0.0000 </r>
       <r>   14.9799    0.0000 </r>
      </set>
      <set comment="kpoint 11">
       <r>  -14.1376    1.0000 </r>
       <r>  -13.4226    1.0000 </r>
       <r>  -13.2384    1.0000 </r>
       <r>  -12.9835    1.0000 </r>
       <r>  -12.9610    1.0000 </r>
       <r>  -12.8635    1.0000 </r>
       <r>  -12.7336    1.0000 </r>
       <r>   -0.9808    1.0000 </r>
       <r>   -0.9762    1.0000 </r>
       <r>   -0.8382    1.0000 </r>
       <r>   -0.5017    1.0000 </r>
       <r>   -0.3249    1.0000 </r>
       <r>   -0.1474    1.0000 </r>
       <r>    0.1538    1.0000 </r>
       <r>    0.4094    1.0000 </r>
       <r>    0.6118    1.0000 </r>
       <r>    0.6533    1.0000 </r>
       <r>    1.0232    1.0000 </r>
       <r>    1.2303    1.0000 </r>
       <r>    1.2898    1.0000 </r>
       <r>    1.5419    1.0000 </r>
       <r>    1.5452    1.0000 </r>
       <r>    1.7473    1.0000 </r>
       <r>    1.9204    1.0000 </r>
       <r>    2.0776    1.0000 </r>
       <r>    2.2658    1.0000 </r>
       <r>    2.3212    1.0000 </r>
       <r>    2.4291    1.0000 </r>
       <r>    5.3963    0.0000 </r>
       <r>    8.5479    0.0000 </r>
       <r>    9.4826    0.0000 </r>
       <r>    9.9406    0.0000 </r>
       <r>   11.0511    0.0000 </r>
       <r>   11.9169    0.0000 </r>
       <r>   12.5630    0.0000 </r>
       <r>   12.7972    0.0000 </r>
       <r>   12.8710    0.0000 </r>
       <r>   13.5692    0.0000 </r>
       <r>   13.7373    0.0000 </r>
       <r>   14.3701    0.0000 </r>
       <r>   14.5093    0.0000 </r>
       <r>   14.5130    0.0000 </r>
       <r>   14.7788    0.0000 </r>
       <r>   14.9800    0.0000 </r>
      </set>
      <set comment="kpoint 12">
       <r>  -14.1377    1.0000 </r>
       <r>  -13.4223    1.0000 </r>
       <r>  -13.2385    1.0000 </r>
       <r>  -12.9835    1.0000 </r>
       <r>  -12.9613    1.0000 </r>
       <r>  -12.8633    1.0000 </r>
       <r>  -12.7335    1.0000 </r>
       <r>   -0.9818    1.0000 </r>
       <r>   -0.9766    1.0000 </r>
       <r>   -0.8377    1.0000 </r>
       <r>   -0.5014    1.0000 </r>
       <r>   -0.3246    1.0000 </r>
       <r>   -0.1460    1.0000 </r>
       <r>    0.1540    1.0000 </r>
       <r>    0.4087    1.0000 </r>
       <r>    0.6117    1.0000 </r>
       <r>    0.6531    1.0000 </r>
       <r>    1.0221    1.0000 </r>
       <r>    1.2312    1.0000 </r>
       <r>    1.2892    1.0000 </r>
       <r>    1.5440    1.0000 </r>
       <r>    1.5447    1.0000 </r>
       <r>    1.7459    1.0000 </r>
       <r>    1.9202    1.0000 </r>
       <r>    2.0785    1.0000 </r>
       <r>    2.2657    1.0000 </r>
       <r>    2.3215    1.0000 </r>
       <r>    2.4284    1.0000 </r>
       <r>    5.3962    0.0000 </r>
       <r>    8.5481    0.0000 </r>
       <r>    9.4821    0.0000 </r>
       <r>    9.9413    0.0000 </r>
       <r>   11.0503    0.0000 </r>
       <r>   11.9178    0.0000 </r>
       <r>   12.5632    0.0000 </r>
       <r>   12.7969    0.0000 </r>
       <r>   12.8706    0.0000 </r>
       <r>   13.5696    0.0000 </r>
       <r>   13.7380    0.0000 </r>
       <r>   14.3695    0.0000 </r>
       <r>   14.5071    0.0000 </r>
       <r>   14.5127    0.0000 </r>
       <r>   14.7767    0.0000 </r>
       <r>   14.9808    0.0000 </r>
      </set>
      <set comment="kpoint 13">
       <r>  -14.1377    1.0000 </r>
       <r>  -13.4221    1.0000 </r>
       <r>  -13.2386    1.0000 </r>
       <r>  -12.9831    1.0000 </r>
       <r>  -12.9619    1.0000 </r>
       <r>  -12.8636    1.0000 </r>
       <r>  -12.7331    1.0000 </r>
       <r>   -0.9799    1.0000 </r>
       <r>   -0.9770    1.0000 </r>
       <r>   -0.8386    1.0000 </r>
       <r>   -0.5014    1.0000 </r>
       <r>   -0.3243    1.0000 </r>
       <r>   -0.1475    1.0000 </r>
       <r>    0.1542    1.0000 </r>
       <r>    0.4105    1.0000 </r>
       <r>    0.6122    1.0000 </r>
       <r>    0.6521    1.0000 </r>
       <r>    1.0215    1.0000 </r>
       <r>    1.2285    1.0000 </r>
       <r>    1.2887    1.0000 </r>
       <r>    1.5431    1.0000 </r>
       <r>    1.5454    1.0000 </r>
       <r>    1.7470    1.0000 </r>
       <r>    1.9203    1.0000 </r>
       <r>    2.0785    1.0000 </r>
       <r>    2.2661    1.0000 </r>
       <r>    2.3209    1.0000 </r>
       <r>    2.4309    1.0000 </r>
       <r>    5.3962    0.0000 </r>
       <r>    8.5465    0.0000 </r>
       <r>    9.4827    0.0000 </r>
       <r>    9.9432    0.0000 </r>
       <r>   11.0495    0.0000 </r>
       <r>   11.9179    0.0000 </r>
       <r>   12.5634    0.0000 </r>
       <r>   12.7962    0.0000 </r>
       <r>   12.8707    0.0000 </r>
       <r>   13.5691    0.0000 </r>
       <r>   13.7362    0.0000 </r>
       <r>   14.3707    0.0000 </r>
       <r>   14.5092    0.0000 </r>
       <r>   14.5144    0.0000 </r>
       <r>   14.7776    0.0000 </r>
       <r>   14.9801    0.0000 </r>
      </set>
      <set comment="kpoint 14">
       <r>  -14.1377    1.0000 </r>
       <r>  -13.4223    1.0000 </r>
       <r>  -13.2385    1.0000 </r>
       <r>  -12.9834    1.0000 </r>
       <r>  -12.9612    1.0000 </r>
       <r>  -12.8634    1.0000 </r>
       <r>  -12.7335    1.0000 </r>
       <r>   -0.9815    1.0000 </r>
       <r>   -0.9770    1.0000 </r>
       <r>   -0.8377    1.0000 </r>
       <r>   -0.5014    1.0000 </r>
       <r>   -0.3246    1.0000 </r>
       <r>   -0.1456    1.0000 </r>
       <r>    0.1541    1.0000 </r>
       <r>    0.4086    1.0000 </r>
       <r>    0.6117    1.0000 </r>
       <r>    0.6527    1.0000 </r>
       <r>    1.0219    1.0000 </r>
       <r>    1.2312    1.0000 </r>
       <r>    1.2892    1.0000 </r>
       <r>    1.5442    1.0000 </r>
       <r>    1.5445    1.0000 </r>
       <r>    1.7461    1.0000 </r>
       <r>    1.9202    1.0000 </r>
       <r>    2.0786    1.0000 </r>
       <r>    2.2656    1.0000 </r>
       <r>    2.3218    1.0000 </r>
       <r>    2.4285    1.0000 </r>
       <r>    5.3960    0.0000 </r>
       <r>    8.5482    0.0000 </r>
       <r>    9.4821    0.0000 </r>
       <r>    9.9415    0.0000 </r>
       <r>   11.0501    0.0000 </r>
       <r>   11.9179    0.0000 </r>
       <r>   12.5632    0.0000 </r>
       <r>   12.7967    0.0000 </r>
       <r>   12.8706    0.0000 </r>
       <r>   13.5696    0.0000 </r>
       <r>   13.7382    0.0000 </r>
       <r>   14.3694    0.0000 </r>
       <r>   14.5074    0.0000 </r>
       <r>   14.5118    0.0000 </r>
       <r>   14.7762    0.0000 </r>
       <r>   14.9810    0.0000 </r>
      </set>
      <set comment="kpoint 15">
       <r>  -14.1377    1.0000 </r>
       <r>  -13.4225    1.0000 </r>
       <r>  -13.2384    1.0000 </r>
       <r>  -12.9835    1.0000 </r>
       <r>  -12.9610    1.0000 </r>
       <r>  -12.8634    1.0000 </r>
       <r>  -12.7336    1.0000 </r>
       <r>   -0.9809    1.0000 </r>
       <r>   -0.9762    1.0000 </r>
       <r>   -0.8383    1.0000 </r>
       <r>   -0.5016    1.0000 </r>
       <r>   -0.3249    1.0000 </r>
       <r>   -0.1474    1.0000 </r>
       <r>    0.1539    1.0000 </r>
       <r>    0.4096    1.0000 </r>
       <r>    0.6119    1.0000 </r>
       <r>    0.6533    1.0000 </r>
       <r>    1.0232    1.0000 </r>
       <r>    1.2301    1.0000 </r>
       <r>    1.2898    1.0000 </r>
       <r>    1.5417    1.0000 </r>
       <r>    1.5454    1.0000 </r>
       <r>    1.7473    1.0000 </r>
       <r>    1.9204    1.0000 </r>
       <r>    2.0776    1.0000 </r>
       <r>    2.2658    1.0000 </r>
       <r>    2.3213    1.0000 </r>
       <r>    2.4290    1.0000 </r>
       <r>    5.3963    0.0000 </r>
       <r>    8.5477    0.0000 </r>
       <r>    9.4827    0.0000 </r>
       <r>    9.9406    0.0000 </r>
       <r>   11.0511    0.0000 </r>
       <r>   11.9170    0.0000 </r>
       <r>   12.5630    0.0000 </r>
       <r>   12.7971    0.0000 </r>
       <r>   12.8710    0.0000 </r>
       <r>   13.5692    0.0000 </r>
       <r>   13.7373    0.0000 </r>
       <r>   14.3701    0.0000 </r>
       <r>   14.5097    0.0000 </r>
       <r>   14.5128    0.0000 </r>
       <r>   14.7789    0.0000 </r>
       <r>   14.9793    0.0000 </r>
      </set>
      <set comment="kpoint 16">
       <r>  -14.1377    1.0000 </r>
       <r>  -13.4220    1.0000 </r>
       <r>  -13.2386    1.0000 </r>
       <r>  -12.9831    1.0000 </r>
       <r>  -12.9619    1.0000 </r>
       <r>  -12.8636    1.0000 </r>
       <r>  -12.7331    1.0000 </r>
       <r>   -0.9803    1.0000 </r>
       <r>   -0.9764    1.0000 </r>
       <r>   -0.8387    1.0000 </r>
       <r>   -0.5015    1.0000 </r>
       <r>   -0.3244    1.0000 </r>
       <r>   -0.1476    1.0000 </r>
       <r>    0.1539    1.0000 </r>
       <r>    0.4107    1.0000 </r>
       <r>    0.6123    1.0000 </r>
       <r>    0.6523    1.0000 </r>
       <r>    1.0219    1.0000 </r>
       <r>    1.2284    1.0000 </r>
       <r>    1.2888    1.0000 </r>
       <r>    1.5429    1.0000 </r>
       <r>    1.5454    1.0000 </r>
       <r>    1.7471    1.0000 </r>
       <r>    1.9202    1.0000 </r>
       <r>    2.0784    1.0000 </r>
       <r>    2.2661    1.0000 </r>
       <r>    2.3208    1.0000 </r>
       <r>    2.4307    1.0000 </r>
       <r>    5.3963    0.0000 </r>
       <r>    8.5464    0.0000 </r>
       <r>    9.4829    0.0000 </r>
       <r>    9.9429    0.0000 </r>
       <r>   11.0497    0.0000 </r>
       <r>   11.9178    0.0000 </r>
       <r>   12.5634    0.0000 </r>
       <r>   12.7963    0.0000 </r>
       <r>   12.8708    0.0000 </r>
       <r>   13.5692    0.0000 </r>
       <r>   13.7361    0.0000 </r>
       <r>   14.3706    0.0000 </r>
       <r>   14.5093    0.0000 </r>
       <r>   14.5146    0.0000 </r>
       <r>   14.7781    0.0000 </r>
       <r>   14.9793    0.0000 </r>
      </set>
     </set>
    </set>
   </array>
  </eigenvalues>
  <separator name="orbital magnetization" >
   <v name="MAGDIPOLOUT">      0.00000000      0.00000000      0.00000000</v>
  </separator>
  <dos>
   <i name="efermi">      2.80221578 </i>
   <total>
    <array>
     <dimension dim="1">gridpoints</dimension>
     <dimension dim="2">spin</dimension>
     <field>energy</field>
     <field>total</field>
     <field>integrated</field>
     <set>
      <set comment="spin 1">
       <r>   -15.7541     0.0000     0.0000 </r>
       <r>   -15.6457     0.0000     0.0000 </r>
       <r>   -15.5373     0.0000     0.0000 </r>
       <r>   -15.4288     0.0000     0.0000 </r>
       <r>   -15.3204     0.0000     0.0000 </r>
       <r>   -15.2119     0.0000     0.0000 </r>
[...]
        <r>  0.0000  0.0001  0.0024  0.0028  0.0000  0.0000  0.0000  0.0000  0.0000 </r>
        <r>  0.0000  0.0027  0.0024  0.0001  0.0000  0.0000  0.0000  0.0000  0.0000 </r>
        <r>  0.0159  0.0189  0.0054  0.0189  0.0000  0.0000  0.0000  0.0000  0.0000 </r>
        <r>  0.0006  0.0013  0.0040  0.0013  0.0000  0.0000  0.0000  0.0000  0.0000 </r>
       </set>
       <set comment="band 32">
        <r>  0.0000  0.0010  0.0000  0.0010  0.0000  0.0001  0.0000  0.0002  0.0001 </r>
        <r>  0.0000  0.0031  0.0000  0.0031  0.0000  0.0016  0.0000  0.0015  0.0002 </r>
        <r>  0.0212  0.0111  0.0007  0.0002  0.0006  0.0001  0.0002  0.0000  0.0028 </r>
        <r>  0.0210  0.0002  0.0007  0.0110  0.0006  0.0000  0.0001  0.0001  0.0028 </r>
        <r>  0.0211  0.0002  0.0007  0.0110  0.0007  0.0000  0.0001  0.0001  0.0028 </r>
        <r>  0.0210  0.0110  0.0007  0.0002  0.0006  0.0001  0.0001  0.0000  0.0028 </r>
        <r>  0.0000  0.0031  0.0000  0.0031  0.0000  0.0015  0.0000  0.0015  0.0002 </r>
        <r>  0.0000  0.0010  0.0000  0.0010  0.0000  0.0002  0.0000  0.0001  0.0001 </r>
        <r>  0.0000  0.0739  0.0000  0.0739  0.0000  0.0000  0.0000  0.0000  0.0000 </r>
        <r>  0.0071  0.0015  0.0063  0.0059  0.0000  0.0000  0.0000  0.0000  0.0000 </r>
        <r>  0.0072  0.0060  0.0064  0.0014  0.0000  0.0000  0.0000  0.0000  0.0000 </r>
        <r>  0.0107  0.0006  0.0003  0.0004  0.0000  0.0000  0.0000  0.0000  0.0000 </r>
        <r>  0.0107  0.0005  0.0003  0.0006  0.0000  0.0000  0.0000  0.0000  0.0000 </r>
        <r>  0.0000  0.0040  0.0000  0.0041  0.0000  0.0000  0.0000  0.0000  0.0000 </r>
        <r>  0.0000  0.0020  0.0000  0.0020  0.0000  0.0000  0.0000  0.0000  0.0000 </r>
       </set>
       <set comment="band 33">
        <r>  0.0099  0.0003  0.0022  0.0003  0.0002  0.0001  0.0001  0.0001  0.0000 </r>
        <r>  0.0045  0.0002  0.0140  0.0002  0.0000  0.0007  0.0023  0.0007  0.0000 </r>
        <r>  0.0163  0.0120  0.0009  0.0006  0.0008  0.0019  0.0002  0.0000  0.0005 </r>
        <r>  0.0164  0.0006  0.0009  0.0120  0.0008  0.0000  0.0002  0.0019  0.0005 </r>
        <r>  0.0163  0.0006  0.0009  0.0120  0.0008  0.0000  0.0002  0.0019  0.0005 </r>
        <r>  0.0164  0.0120  0.0009  0.0006  0.0008  0.0019  0.0002  0.0000  0.0005 </r>
        <r>  0.0045  0.0002  0.0139  0.0002  0.0000  0.0007  0.0024  0.0007  0.0000 </r>
        <r>  0.0099  0.0003  0.0022  0.0003  0.0002  0.0001  0.0001  0.0001  0.0000 </r>
        <r>  0.0143  0.0033  0.0067  0.0033  0.0000  0.0000  0.0000  0.0000  0.0000 </r>
        <r>  0.0041  0.0008  0.0222  0.0092  0.0000  0.0000  0.0000  0.0000  0.0000 </r>
        <r>  0.0041  0.0092  0.0222  0.0008  0.0000  0.0000  0.0000  0.0000  0.0000 </r>
        <r>  0.0040  0.0075  0.0115  0.0009  0.0000  0.0000  0.0000  0.0000  0.0000 </r>
        <r>  0.0040  0.0009  0.0115  0.0075  0.0000  0.0000  0.0000  0.0000  0.0000 </r>
        <r>  0.0118  0.0017  0.0049  0.0017  0.0000  0.0000  0.0000  0.0000  0.0000 </r>
        <r>  0.0549  0.0016  0.0151  0.0016  0.0000  0.0000  0.0000  0.0000  0.0000 </r>
       </set>
       <set comment="band 34">
        <r>  0.0223  0.0026  0.0039  0.0026  0.0005  0.0009  0.0007  0.0009  0.0000 </r>
        <r>  0.0026  0.0018  0.0021  0.0018  0.0010  0.0018  0.0006  0.0018  0.0000 </r>
        <r>  0.0021  0.0052  0.0012  0.0106  0.0024  0.0003  0.0007  0.0007  0.0016 </r>
        <r>  0.0019  0.0105  0.0012  0.0053  0.0024  0.0007  0.0007  0.0003  0.0016 </r>
        <r>  0.0021  0.0106  0.0012  0.0052  0.0024  0.0007  0.0007  0.0003  0.0016 </r>
        <r>  0.0019  0.0053  0.0012  0.0105  0.0024  0.0003  0.0007  0.0007  0.0016 </r>
        <r>  0.0026  0.0018  0.0021  0.0018  0.0010  0.0018  0.0006  0.0018  0.0000 </r>
        <r>  0.0223  0.0026  0.0038  0.0026  0.0005  0.0009  0.0007  0.0009  0.0000 </r>
        <r>  0.0382  0.0037  0.0032  0.0037  0.0000  0.0000  0.0000  0.0000  0.0000 </r>
        <r>  0.0107  0.0157  0.0022  0.0037  0.0000  0.0000  0.0000  0.0000  0.0000 </r>
        <r>  0.0107  0.0037  0.0023  0.0156  0.0000  0.0000  0.0000  0.0000  0.0000 </r>
        <r>  0.0015  0.0005  0.0001  0.0178  0.0000  0.0000  0.0000  0.0000  0.0000 </r>
        <r>  0.0015  0.0177  0.0001  0.0005  0.0000  0.0000  0.0000  0.0000  0.0000 </r>
        <r>  0.0064  0.0037  0.0008  0.0037  0.0000  0.0000  0.0000  0.0000  0.0000 </r>
        <r>  0.0037  0.0232  0.0057  0.0232  0.0000  0.0000  0.0000  0.0000  0.0000 </r>
       </set>
       <set comment="band 35">
        <r>  0.0105  0.0041  0.0035  0.0040  0.0003  0.0004  0.0011  0.0004  0.0000 </r>
        <r>  0.0122  0.0056  0.0005  0.0056  0.0026  0.0006  0.0007  0.0006  0.0000 </r>
        <r>  0.0006  0.0010  0.0019  0.0154  0.0016  0.0003  0.0007  0.0005  0.0001 </r>
        <r>  0.0006  0.0152  0.0019  0.0010  0.0016  0.0005  0.0007  0.0003  0.0001 </r>
        <r>  0.0006  0.0154  0.0019  0.0010  0.0016  0.0005  0.0007  0.0003  0.0001 </r>
        <r>  0.0006  0.0010  0.0019  0.0153  0.0016  0.0003  0.0007  0.0005  0.0001 </r>
        <r>  0.0120  0.0057  0.0005  0.0057  0.0025  0.0006  0.0007  0.0006  0.0000 </r>
        <r>  0.0106  0.0040  0.0035  0.0041  0.0003  0.0004  0.0010  0.0004  0.0000 </r>
        <r>  0.0133  0.0213  0.0001  0.0213  0.0000  0.0000  0.0000  0.0000  0.0000 </r>
        <r>  0.0136  0.0177  0.0015  0.0023  0.0000  0.0000  0.0000  0.0000  0.0000 </r>
        <r>  0.0135  0.0023  0.0016  0.0177  0.0000  0.0000  0.0000  0.0000  0.0000 </r>
        <r>  0.0013  0.0049  0.0071  0.0110  0.0000  0.0000  0.0000  0.0000  0.0000 </r>
        <r>  0.0013  0.0110  0.0072  0.0049  0.0000  0.0000  0.0000  0.0000  0.0000 </r>
        <r>  0.0212  0.0013  0.0181  0.0013  0.0000  0.0000  0.0000  0.0000  0.0000 </r>
        <r>  0.0055  0.0036  0.0108  0.0036  0.0000  0.0000  0.0000  0.0000  0.0000 </r>
       </set>
       <set comment="band 36">
        <r>  0.0210  0.0014  0.0017  0.0018  0.0024  0.0005  0.0010  0.0005  0.0000 </r>
        <r>  0.0103  0.0041  0.0054  0.0034  0.0018  0.0014  0.0042  0.0012  0.0000 </r>
        <r>  0.0089  0.0008  0.0020  0.0025  0.0018  0.0050  0.0005  0.0006  0.0003 </r>
        <r>  0.0085  0.0026  0.0016  0.0007  0.0018  0.0007  0.0006  0.0046  0.0003 </r>
        <r>  0.0085  0.0025  0.0018  0.0008  0.0018  0.0007  0.0005  0.0047  0.0003 </r>
        <r>  0.0087  0.0006  0.0018  0.0023  0.0018  0.0048  0.0006  0.0006  0.0003 </r>
        <r>  0.0104  0.0037  0.0054  0.0037  0.0018  0.0014  0.0042  0.0012  0.0000 </r>
        <r>  0.0210  0.0015  0.0017  0.0016  0.0024  0.0005  0.0010  0.0004  0.0000 </r>
        <r>  0.0079  0.0053  0.0312  0.0050  0.0000  0.0000  0.0000  0.0000  0.0000 </r>
        <r>  0.0023  0.0025  0.0056  0.0206  0.0000  0.0000  0.0000  0.0000  0.0000 </r>
        <r>  0.0020  0.0214  0.0066  0.0022  0.0000  0.0000  0.0000  0.0000  0.0000 </r>
        <r>  0.0132  0.0056  0.0064  0.0005  0.0000  0.0000  0.0000  0.0000  0.0000 </r>
        <r>  0.0122  0.0005  0.0067  0.0055  0.0000  0.0000  0.0000  0.0000  0.0000 </r>
        <r>  0.0046  0.0001  0.0125  0.0000  0.0000  0.0000  0.0000  0.0000  0.0000 </r>
        <r>  0.0062  0.0076  0.0353  0.0066  0.0000  0.0000  0.0000  0.0000  0.0000 </r>
       </set>
       <set comment="band 37">
        <r>  0.0000  0.0063  0.0000  0.0059  0.0000  0.0030  0.0000  0.0030  0.0003 </r>
        <r>  0.0000  0.0080  0.0000  0.0086  0.0000  0.0056  0.0000  0.0059  0.0004 </r>
        <r>  0.0021  0.0036  0.0065  0.0014  0.0001  0.0026  0.0013  0.0026  0.0005 </r>
        <r>  0.0025  0.0013  0.0070  0.0036  0.0002  0.0025  0.0013  0.0029  0.0006 </r>
        <r>  0.0024  0.0012  0.0066  0.0035  0.0002  0.0025  0.0014  0.0028  0.0005 </r>
        <r>  0.0024  0.0037  0.0067  0.0015  0.0002  0.0027  0.0012  0.0026  0.0006 </r>
        <r>  0.0000  0.0081  0.0000  0.0083  0.0000  0.0056  0.0000  0.0058  0.0004 </r>
        <r>  0.0000  0.0061  0.0000  0.0060  0.0000  0.0029  0.0000  0.0031  0.0003 </r>
        <r>  0.0000  0.0024  0.0000  0.0027  0.0000  0.0000  0.0000  0.0000  0.0000 </r>
        <r>  0.0054  0.0074  0.0224  0.0067  0.0000  0.0000  0.0000  0.0000  0.0000 </r>
        <r>  0.0056  0.0058  0.0215  0.0077  0.0000  0.0000  0.0000  0.0000  0.0000 </r>
        <r>  0.0115  0.0001  0.0020  0.0000  0.0000  0.0000  0.0000  0.0000  0.0000 </r>
        <r>  0.0125  0.0000  0.0017  0.0000  0.0000  0.0000  0.0000  0.0000  0.0000 </r>
        <r>  0.0000  0.0203  0.0000  0.0205  0.0000  0.0000  0.0000  0.0000  0.0000 </r>
        <r>  0.0000  0.0204  0.0000  0.0214  0.0000  0.0000  0.0000  0.0000  0.0000 </r>
       </set>
       <set comment="band 38">
        <r>  0.0000  0.0055  0.0000  0.0055  0.0000  0.0003  0.0000  0.0003  0.0007 </r>
        <r>  0.0000  0.0061  0.0000  0.0061  0.0000  0.0002  0.0000  0.0002  0.0008 </r>
        <r>  0.0278  0.0012  0.0085  0.0000  0.0001  0.0033  0.0003  0.0030  0.0001 </r>
        <r>  0.0277  0.0000  0.0085  0.0011  0.0001  0.0030  0.0003  0.0032  0.0001 </r>
        <r>  0.0278  0.0000  0.0085  0.0012  0.0001  0.0030  0.0003  0.0033  0.0001 </r>
        <r>  0.0276  0.0012  0.0086  0.0000  0.0001  0.0032  0.0003  0.0030  0.0001 </r>
        <r>  0.0000  0.0061  0.0000  0.0062  0.0000  0.0002  0.0000  0.0002  0.0008 </r>
        <r>  0.0000  0.0055  0.0000  0.0055  0.0000  0.0003  0.0000  0.0003  0.0007 </r>
        <r>  0.0000  0.0004  0.0000  0.0004  0.0000  0.0000  0.0000  0.0000  0.0000 </r>
        <r>  0.0186  0.0107  0.0055  0.0135  0.0000  0.0000  0.0000  0.0000  0.0000 </r>
        <r>  0.0186  0.0134  0.0055  0.0106  0.0000  0.0000  0.0000  0.0000  0.0000 </r>
        <r>  0.0021  0.0197  0.0040  0.0196  0.0000  0.0000  0.0000  0.0000  0.0000 </r>
        <r>  0.0020  0.0196  0.0041  0.0196  0.0000  0.0000  0.0000  0.0000  0.0000 </r>
        <r>  0.0000  0.0085  0.0000  0.0085  0.0000  0.0000  0.0000  0.0000  0.0000 </r>
        <r>  0.0000  0.0078  0.0000  0.0078  0.0000  0.0000  0.0000  0.0000  0.0000 </r>
       </set>
       <set comment="band 39">
        <r>  0.0106  0.0009  0.0010  0.0010  0.0127  0.0006  0.0002  0.0006  0.0000 </r>
        <r>  0.0009  0.0015  0.0011  0.0015  0.0136  0.0002  0.0002  0.0002  0.0000 </r>
        <r>  0.0013  0.0009  0.0003  0.0016  0.0162  0.0004  0.0000  0.0001  0.0000 </r>
        <r>  0.0012  0.0016  0.0003  0.0010  0.0163  0.0001  0.0000  0.0004  0.0000 </r>
        <r>  0.0013  0.0016  0.0003  0.0009  0.0163  0.0001  0.0000  0.0004  0.0000 </r>
        <r>  0.0013  0.0010  0.0003  0.0016  0.0162  0.0004  0.0000  0.0001  0.0000 </r>
        <r>  0.0008  0.0014  0.0011  0.0016  0.0136  0.0002  0.0002  0.0002  0.0000 </r>
        <r>  0.0106  0.0009  0.0009  0.0009  0.0127  0.0006  0.0002  0.0006  0.0000 </r>
        <r>  0.0041  0.0046  0.0056  0.0046  0.0000  0.0000  0.0000  0.0000  0.0000 </r>
        <r>  0.0000  0.0004  0.0029  0.0002  0.0000  0.0000  0.0000  0.0000  0.0000 </r>
        <r>  0.0000  0.0002  0.0029  0.0005  0.0000  0.0000  0.0000  0.0000  0.0000 </r>
        <r>  0.0020  0.0086  0.0000  0.0121  0.0000  0.0000  0.0000  0.0000  0.0000 </r>
        <r>  0.0020  0.0120  0.0000  0.0085  0.0000  0.0000  0.0000  0.0000  0.0000 </r>
        <r>  0.0005  0.0117  0.0030  0.0117  0.0000  0.0000  0.0000  0.0000  0.0000 </r>
        <r>  0.0048  0.0018  0.0020  0.0018  0.0000  0.0000  0.0000  0.0000  0.0000 </r>
       </set>
       <set comment="band 40">
        <r>  0.0253  0.0004  0.0028  0.0004  0.0019  0.0020  0.0000  0.0022  0.0000 </r>
        <r>  0.0353  0.0019  0.0044  0.0017  0.0004  0.0011  0.0006  0.0010  0.0000 </r>
        <r>  0.0060  0.0008  0.0036  0.0008  0.0003  0.0038  0.0000  0.0018  0.0003 </r>
        <r>  0.0068  0.0008  0.0037  0.0007  0.0003  0.0019  0.0000  0.0037  0.0003 </r>
        <r>  0.0060  0.0008  0.0035  0.0008  0.0003  0.0018  0.0000  0.0038  0.0003 </r>
        <r>  0.0065  0.0007  0.0036  0.0008  0.0003  0.0038  0.0000  0.0019  0.0003 </r>
        <r>  0.0351  0.0017  0.0043  0.0019  0.0004  0.0010  0.0006  0.0012  0.0000 </r>
        <r>  0.0252  0.0004  0.0029  0.0004  0.0019  0.0021  0.0000  0.0020  0.0000 </r>
        <r>  0.0042  0.0073  0.0106  0.0072  0.0000  0.0000  0.0000  0.0000  0.0000 </r>
        <r>  0.0000  0.0144  0.0101  0.0110  0.0000  0.0000  0.0000  0.0000  0.0000 </r>
        <r>  0.0000  0.0110  0.0103  0.0143  0.0000  0.0000  0.0000  0.0000  0.0000 </r>
        <r>  0.0001  0.0241  0.0168  0.0053  0.0000  0.0000  0.0000  0.0000  0.0000 </r>
        <r>  0.0001  0.0054  0.0173  0.0238  0.0000  0.0000  0.0000  0.0000  0.0000 </r>
        <r>  0.0058  0.0028  0.0097  0.0027  0.0000  0.0000  0.0000  0.0000  0.0000 </r>
        <r>  0.0051  0.0057  0.0459  0.0057  0.0000  0.0000  0.0000  0.0000  0.0000 </r>
       </set>
       <set comment="band 41">
        <r>  0.0178  0.0047  0.0035  0.0055  0.0023  0.0044  0.0001  0.0007  0.0000 </r>
        <r>  0.0013  0.0017  0.0013  0.0018  0.0062  0.0031  0.0000  0.0013  0.0000 </r>
        <r>  0.0046  0.0004  0.0015  0.0007  0.0005  0.0032  0.0000  0.0062  0.0003 </r>
        <r>  0.0074  0.0007  0.0004  0.0006  0.0001  0.0086  0.0000  0.0015  0.0002 </r>
        <r>  0.0030  0.0010  0.0010  0.0005  0.0005  0.0070  0.0000  0.0028  0.0003 </r>
        <r>  0.0092  0.0005  0.0009  0.0005  0.0001  0.0019  0.0000  0.0076  0.0002 </r>
        <r>  0.0013  0.0018  0.0013  0.0018  0.0061  0.0023  0.0000  0.0021  0.0000 </r>
        <r>  0.0178  0.0056  0.0036  0.0047  0.0023  0.0012  0.0001  0.0039  0.0000 </r>
        <r>  0.0001  0.0050  0.0123  0.0050  0.0000  0.0000  0.0000  0.0000  0.0000 </r>
        <r>  0.0014  0.0004  0.0063  0.0042  0.0000  0.0000  0.0000  0.0000  0.0000 </r>
        <r>  0.0014  0.0043  0.0092  0.0004  0.0000  0.0000  0.0000  0.0000  0.0000 </r>
        <r>  0.0010  0.0053  0.0101  0.0434  0.0000  0.0000  0.0000  0.0000  0.0000 </r>
        <r>  0.0011  0.0449  0.0058  0.0048  0.0000  0.0000  0.0000  0.0000  0.0000 </r>
        <r>  0.0012  0.0017  0.0322  0.0019  0.0000  0.0000  0.0000  0.0000  0.0000 </r>
        <r>  0.0014  0.0047  0.0008  0.0026  0.0000  0.0000  0.0000  0.0000  0.0000 </r>
       </set>
       <set comment="band 42">
        <r>  0.0011  0.0010  0.0002  0.0001  0.0001  0.0051  0.0000  0.0089  0.0000 </r>
        <r>  0.0000  0.0003  0.0001  0.0001  0.0004  0.0064  0.0000  0.0084  0.0000 </r>
        <r>  0.0124  0.0005  0.0053  0.0016  0.0004  0.0010  0.0001  0.0033  0.0000 </r>
        <r>  0.0094  0.0015  0.0065  0.0003  0.0006  0.0009  0.0001  0.0028  0.0001 </r>
        <r>  0.0142  0.0014  0.0058  0.0004  0.0003  0.0025  0.0001  0.0014  0.0000 </r>
        <r>  0.0078  0.0004  0.0059  0.0017  0.0007  0.0024  0.0001  0.0017  0.0001 </r>
        <r>  0.0001  0.0002  0.0001  0.0002  0.0004  0.0074  0.0000  0.0075  0.0000 </r>
        <r>  0.0011  0.0000  0.0002  0.0011  0.0001  0.0084  0.0000  0.0057  0.0000 </r>
        <r>  0.0000  0.0003  0.0006  0.0003  0.0000  0.0000  0.0000  0.0000  0.0000 </r>
        <r>  0.0001  0.0002  0.0166  0.0005  0.0000  0.0000  0.0000  0.0000  0.0000 </r>
        <r>  0.0001  0.0003  0.0137  0.0003  0.0000  0.0000  0.0000  0.0000  0.0000 </r>
        <r>  0.0002  0.0007  0.0498  0.0043  0.0000  0.0000  0.0000  0.0000  0.0000 </r>
        <r>  0.0001  0.0028  0.0545  0.0012  0.0000  0.0000  0.0000  0.0000  0.0000 </r>
        <r>  0.0001  0.0276  0.0020  0.0275  0.0000  0.0000  0.0000  0.0000  0.0000 </r>
        <r>  0.0001  0.0241  0.0001  0.0263  0.0000  0.0000  0.0000  0.0000  0.0000 </r>
       </set>
       <set comment="band 43">
        <r>  0.0207  0.0055  0.0118  0.0057  0.0004  0.0006  0.0003  0.0006  0.0000 </r>
        <r>  0.0113  0.0049  0.0007  0.0048  0.0020  0.0015  0.0000  0.0015  0.0000 </r>
        <r>  0.0006  0.0011  0.0009  0.0015  0.0022  0.0031  0.0000  0.0094  0.0001 </r>
        <r>  0.0009  0.0016  0.0009  0.0010  0.0022  0.0095  0.0000  0.0030  0.0001 </r>
        <r>  0.0006  0.0016  0.0009  0.0010  0.0022  0.0094  0.0000  0.0030  0.0001 </r>
        <r>  0.0009  0.0011  0.0009  0.0015  0.0022  0.0030  0.0000  0.0096  0.0001 </r>
        <r>  0.0112  0.0049  0.0007  0.0048  0.0021  0.0015  0.0000  0.0015  0.0000 </r>
        <r>  0.0208  0.0057  0.0117  0.0055  0.0004  0.0006  0.0003  0.0007  0.0000 </r>
        <r>  0.0003  0.0040  0.0179  0.0040  0.0000  0.0000  0.0000  0.0000  0.0000 </r>
        <r>  0.0000  0.0175  0.0017  0.0089  0.0000  0.0000  0.0000  0.0000  0.0000 </r>
        <r>  0.0000  0.0092  0.0018  0.0171  0.0000  0.0000  0.0000  0.0000  0.0000 </r>
        <r>  0.0012  0.0047  0.0009  0.0001  0.0000  0.0000  0.0000  0.0000  0.0000 </r>
        <r>  0.0012  0.0000  0.0010  0.0044  0.0000  0.0000  0.0000  0.0000  0.0000 </r>
        <r>  0.0001  0.0021  0.0686  0.0020  0.0000  0.0000  0.0000  0.0000  0.0000 </r>
        <r>  0.0002  0.0016  0.0020  0.0015  0.0000  0.0000  0.0000  0.0000  0.0000 </r>
       </set>
       <set comment="band 44">
        <r>  0.0222  0.0006  0.0032  0.0013  0.0006  0.0045  0.0002  0.0038  0.0000 </r>
        <r>  0.0207  0.0003  0.0007  0.0012  0.0018  0.0044  0.0005  0.0051  0.0000 </r>
        <r>  0.0082  0.0010  0.0040  0.0008  0.0021  0.0039  0.0000  0.0051  0.0001 </r>
        <r>  0.0007  0.0002  0.0041  0.0021  0.0018  0.0040  0.0001  0.0031  0.0001 </r>
        <r>  0.0074  0.0004  0.0042  0.0023  0.0019  0.0051  0.0001  0.0040  0.0001 </r>
        <r>  0.0013  0.0009  0.0038  0.0006  0.0020  0.0029  0.0001  0.0040  0.0001 </r>
        <r>  0.0208  0.0008  0.0007  0.0007  0.0017  0.0047  0.0005  0.0047  0.0000 </r>
        <r>  0.0226  0.0007  0.0033  0.0011  0.0006  0.0039  0.0002  0.0044  0.0000 </r>
        <r>  0.0001  0.0068  0.0349  0.0073  0.0000  0.0000  0.0000  0.0000  0.0000 </r>
        <r>  0.0000  0.0026  0.0165  0.0002  0.0000  0.0000  0.0000  0.0000  0.0000 </r>
        <r>  0.0000  0.0001  0.0107  0.0015  0.0000  0.0000  0.0000  0.0000  0.0000 </r>
        <r>  0.0001  0.0032  0.0176  0.0024  0.0000  0.0000  0.0000  0.0000  0.0000 </r>
        <r>  0.0002  0.0010  0.0121  0.0013  0.0000  0.0000  0.0000  0.0000  0.0000 </r>
        <r>  0.0003  0.0005  0.0002  0.0003  0.0000  0.0000  0.0000  0.0000  0.0000 </r>
        <r>  0.0001  0.0130  0.0226  0.0151  0.0000  0.0000  0.0000  0.0000  0.0000 </r>
       </set>
      </set>
     </set>
    </set>
   </array>
  </projected>
 </calculation>
 <structure name="finalpos" >
  <crystal>
   <varray name="basis" >
    <v>       0.00000000       4.24689300       4.24689300 </v>
    <v>       4.24689300       0.00000000       4.24689300 </v>
    <v>       4.24689300       4.24689300       0.00000000 </v>
   </varray>
   <i name="volume">    153.19477498 </i>
   <varray name="rec_basis" >
    <v>      -0.11773313       0.11773313       0.11773313 </v>
    <v>       0.11773313      -0.11773313       0.11773313 </v>
    <v>       0.11773313       0.11773313      -0.11773313 </v>
   </varray>
  </crystal>
  <varray name="positions" >
   <v>       0.00114096       0.00000358       0.00017097 </v>
   <v>       0.98524502       0.98346250       0.51701013 </v>
   <v>       0.98448846       0.51526431       0.98503554 </v>
   <v>       0.98509103       0.51607031       0.51611058 </v>
   <v>       0.51685995       0.98438421       0.98447053 </v>
   <v>       0.51748346       0.98481775       0.51571491 </v>
   <v>       0.51675824       0.51695920       0.98366170 </v>
   <v>       0.50090855       0.50031582       0.50046973 </v>
   <v>       0.25110138       0.25010750       0.74990133 </v>
   <v>       0.25091127       0.75090910       0.25055092 </v>
   <v>       0.25110212       0.74957310       0.75101109 </v>
   <v>       0.75075472       0.25023665       0.25036968 </v>
   <v>       0.75107375       0.25019212       0.75040180 </v>
   <v>       0.75114599       0.75009018       0.25040340 </v>
   <v>       0.75092211       0.75009967       0.75047269 </v>
  </varray>
 </structure>
</modeling>
