unknown system                          
   1.00000000000000     
     0.000000    3.399000    3.399000
     3.399000    0.000000    3.399000
     3.399000    3.399000    0.000000
   Sb   Li   Na
     1     2     1
Direct
  0.000000  0.000000  0.000000
  0.750000  0.750000  0.750000
  0.250000  0.250000  0.250000
  0.500000  0.500000  0.500000
 
   48   48   48
 -.32201646444E+02 -.29813262923E+02 -.23057095816E+02 -.13069819224E+02 -.14694014185E+01
 0.99824987421E+01 0.19725134269E+02 0.26671971903E+02 0.30360036266E+02 0.30957278475E+02
 0.29142916878E+02 0.25899939368E+02 0.22268375084E+02 0.18901107234E+02 0.15915396552E+02
 0.13341957182E+02 0.11178893339E+02 0.94026418333E+01 0.79773220642E+01 0.68619316244E+01
 0.60154771913E+01 0.54004762372E+01 0.49853666724E+01 0.47462597966E+01 0.46682476947E+01
 0.47462597966E+01 0.49853666724E+01 0.54004762372E+01 0.60154771913E+01 0.68619316244E+01
 0.79773220642E+01 0.94026418333E+01 0.11178893339E+02 0.13341957182E+02 0.15915396552E+02
 0.18901107234E+02 0.22268375084E+02 0.25899939368E+02 0.29142916878E+02 0.30957278475E+02
 0.30360036266E+02 0.26671971903E+02 0.19725134269E+02 0.99824987421E+01 -.14694014185E+01
 -.13069819224E+02 -.23057095816E+02 -.29813262923E+02 -.29813262923E+02 -.25242531055E+02
 -.16882437977E+02 -.61240609828E+01 0.53291468186E+01 0.15807797414E+02 0.23989079749E+02
 0.29108932435E+02 0.31038594402E+02 0.30224765386E+02 0.27521459352E+02 0.23960113039E+02
 0.20446455834E+02 0.17281602392E+02 0.14516335536E+02 0.12163215499E+02 0.10208161874E+02
 0.86205853473E+01 0.73615780254E+01 0.63899676431E+01 0.56665217145E+01 0.51568055486E+01
 0.48331938426E+01 0.46763634915E+01 0.46763633167E+01 0.48331933910E+01 0.51568050020E+01
 0.56665212790E+01 0.63899674501E+01 0.73615780770E+01 0.86205855245E+01 0.10208162018E+02
 0.12163215517E+02 0.14516335483E+02 0.17281602475E+02 0.20446456333E+02 0.23960114149E+02
 0.27521461031E+02 0.30224767263E+02 0.31038595821E+02 0.29108932615E+02 0.23989078059E+02
 0.15807793623E+02 0.53291412668E+01 -.61240673842E+01 -.16882443961E+02 -.25242535304E+02
 -.29813264460E+02 -.23057095816E+02 -.16882437977E+02 -.77786049355E+01 0.27477633552E+01
 0.13060919157E+02 0.21719786513E+02 0.27734034135E+02 0.30702542543E+02 0.30817121356E+02
 0.28745716934E+02 0.25432644464E+02 0.21856563854E+02 0.18563676819E+02 0.15645456336E+02
 0.13129995081E+02 0.11014534538E+02 0.92758031793E+01 0.78788905747E+01 0.67841083099E+01
 0.59518992906E+01 0.53461894588E+01 0.49366802195E+01 0.47004933746E+01 0.46233781934E+01
 0.47004927210E+01 0.49366791783E+01 0.53461884377E+01 0.59518986513E+01 0.67841082056E+01
 0.78788908957E+01 0.92758036345E+01 0.11014534838E+02 0.13129995132E+02 0.15645456344E+02
 0.18563677229E+02 0.21856565144E+02 0.25432646844E+02 0.28745720110E+02 0.30817124454E+02
 0.30702544290E+02 0.27734033233E+02 0.21719782130E+02 0.13060911321E+02 0.27477531214E+01
 -.77786156563E+01 -.16882446891E+02 -.23057100875E+02 -.25242535304E+02 -.13069819224E+02
 -.61240609828E+01 0.27477633552E+01 0.12074023210E+02 0.20424609683E+02 0.26686075471E+02
 0.30246371179E+02 0.31057423370E+02 0.29574863516E+02 0.26600626114E+02 0.23071219099E+02
 0.19707939208E+02 0.16684139291E+02 0.14043009066E+02 0.11794001744E+02 0.99226784274E+01
 0.83998083406E+01 0.71887943181E+01 0.62512065583E+01 0.55506402005E+01 0.50553206345E+01
 0.47398945993E+01 0.45867115497E+01 0.45867110668E+01 0.47398933458E+01 0.50553191082E+01
 0.55506389773E+01 0.62512060371E+01 0.71887945555E+01 0.83998090556E+01 0.99226791760E+01
 0.11794002184E+02 0.14043009180E+02 0.16684139452E+02 0.19707940021E+02 0.23071221090E+02
 0.26600629362E+02 0.29574867433E+02 0.31057426714E+02 0.30246372384E+02 0.26686073173E+02
 0.20424603282E+02 0.12074013240E+02 0.27477515078E+01 -.61240722336E+01 -.13069827291E+02
 -.16882446891E+02 -.16882443961E+02 -.14694014185E+01 0.53291468186E+01 0.13060919157E+02
 0.20424609683E+02 0.26296260590E+02 0.29939003496E+02 0.31112154554E+02 0.30065066547E+02
 0.27428292868E+02 0.24035234503E+02 0.20662359089E+02 0.17586040215E+02 0.14863118858E+02
 0.12515007185E+02 0.10536874286E+02 0.89064300812E+01 0.75915664446E+01 0.65563426881E+01
 0.57653059001E+01 0.51864304957E+01 0.47930727645E+01 0.45652927330E+01 0.44907570737E+01
 0.45652917014E+01 0.47930711089E+01 0.51864288522E+01 0.57653048569E+01 0.65563425376E+01
 0.75915670777E+01 0.89064310746E+01 0.10536875142E+02 0.12515007614E+02 0.14863118962E+02
 0.17586040476E+02 0.20662360145E+02 0.24035236795E+02 0.27428296311E+02 0.30065070383E+02
 0.31112157485E+02 0.29939004079E+02 0.26296257773E+02 0.20424603274E+02 0.13060910060E+02
 0.53291368868E+01 -.14694098664E+01 -.61240722336E+01 -.77786156563E+01 -.61240673842E+01
 0.99824987421E+01 0.15807797414E+02 0.21719786513E+02 0.26686075471E+02 0.29939003496E+02
 0.31113694427E+02 0.30286796373E+02 0.27915754800E+02 0.24700571745E+02 0.21380869473E+02
 0.18307425964E+02 0.15551257042E+02 0.13144360898E+02 0.11091436760E+02 0.93778214473E+01
 0.79769401108E+01 0.68564937011E+01 0.59831353664E+01 0.53257362536E+01 0.48575311046E+01
 0.45574813797E+01 0.44111324363E+01 0.44111319341E+01 0.45574800675E+01 0.48575294791E+01
 0.53257349057E+01 0.59831347304E+01 0.68564938865E+01 0.79769408776E+01 0.93778223509E+01
 0.11091437385E+02 0.13144361090E+02 0.15551257002E+02 0.18307426186E+02 0.21380870497E+02
 0.24700573869E+02 0.27915757844E+02 0.30286799634E+02 0.31113696853E+02 0.29939004045E+02
 0.26686073525E+02 0.21719782165E+02 0.15807791550E+02 0.99824928217E+01 0.53291368868E+01
 0.27477515078E+01 0.27477531214E+01 0.53291412668E+01 0.19725134269E+02 0.23989079749E+02
 0.27734034135E+02 0.30246371179E+02 0.31112154554E+02 0.30286796373E+02 0.28075985502E+02
 0.25038648888E+02 0.21827356138E+02 0.18811124474E+02 0.16071911376E+02 0.13650060124E+02
 0.11558911125E+02 0.97914755535E+01 0.83273022247E+01 0.71385765833E+01 0.61949910828E+01
 0.54672896066E+01 0.49296260389E+01 0.45609986870E+01 0.43460444219E+01 0.42754343349E+01
 0.43460436858E+01 0.45609974783E+01 0.49296247753E+01 0.54672886891E+01 0.61949907358E+01
 0.71385767763E+01 0.83273027069E+01 0.97914759899E+01 0.11558911267E+02 0.13650059949E+02
 0.16071911111E+02 0.18811124515E+02 0.21827356865E+02 0.25038650477E+02 0.28075987800E+02
 0.30286798905E+02 0.31112156668E+02 0.30246372272E+02 0.27734033902E+02 0.23989078299E+02
 0.19725132125E+02 0.15807791550E+02 0.13060910060E+02 0.12074013240E+02 0.13060911321E+02
 0.15807793623E+02 0.26671971903E+02 0.29108932435E+02 0.30702542543E+02 0.31057423370E+02
 0.30065066547E+02 0.27915754800E+02 0.25038648888E+02 0.21978816369E+02 0.19070092049E+02
 0.16396626508E+02 0.14004415987E+02 0.11913934778E+02 0.10125322911E+02 0.86243586714E+01
 0.73881856254E+01 0.63901823289E+01 0.56036982927E+01 0.50046285074E+01 0.45729651920E+01
 0.42935579574E+01 0.41563496613E+01 0.41563493937E+01 0.42935572349E+01 0.45729642302E+01
 0.50046275676E+01 0.56036975893E+01 0.63901819464E+01 0.73881855047E+01 0.86243586441E+01
 0.10125322793E+02 0.11913934458E+02 0.14004415492E+02 0.16396626005E+02 0.19070091788E+02
 0.21978816584E+02 0.25038649703E+02 0.27915756171E+02 0.30065068266E+02 0.31057425145E+02
 0.30702544072E+02 0.29108933527E+02 0.26671972520E+02 0.23989078299E+02 0.21719782165E+02
 0.20424603274E+02 0.20424603282E+02 0.21719782130E+02 0.23989078059E+02 0.30360036266E+02
 0.31038594402E+02 0.30817121356E+02 0.29574863516E+02 0.27428292868E+02 0.24700571745E+02
 0.21827356138E+02 0.19070092049E+02 0.16506988902E+02 0.14187012777E+02 0.12135935375E+02
 0.10360030079E+02 0.88509718998E+01 0.75909621394E+01 0.65574001116E+01 0.57266942732E+01
 0.50770286812E+01 0.45900777354E+01 0.42517976045E+01 0.40525272653E+01 0.39867052739E+01
 0.40525268454E+01 0.42517968588E+01 0.45900768216E+01 0.50770277689E+01 0.57266934924E+01
 0.65573995153E+01 0.75909616984E+01 0.88509715242E+01 0.10360029663E+02 0.12135934844E+02
 0.14187012123E+02 0.16506988190E+02 0.19070091401E+02 0.21827355698E+02 0.24700571625E+02
 0.27428293135E+02 0.29574864141E+02 0.30817122262E+02 0.31038595454E+02 0.30360037314E+02
 0.29108933527E+02 0.27734033902E+02 0.26686073525E+02 0.26296257773E+02 0.26686073173E+02
 0.27734033233E+02 0.29108932615E+02 0.30957278475E+02 0.30224765386E+02 0.28745716934E+02
 0.26600626114E+02 0.24035234503E+02 0.21380869473E+02 0.18811124474E+02 0.16396626508E+02
 0.14187012777E+02 0.12211490338E+02 0.10481219197E+02 0.89931081597E+01 0.77341912750E+01
 0.66859304991E+01 0.58279718829E+01 0.51410515924E+01 0.46089029618E+01 0.42191615385E+01
 0.39634119071E+01 0.38366656289E+01 0.38366653879E+01 0.39634112315E+01 0.42191605513E+01
 0.46089018367E+01 0.51410505015E+01 0.58279709625E+01 0.66859298117E+01 0.77341908083E+01
 0.89931078312E+01 0.10481218890E+02 0.12211489930E+02 0.14187012183E+02 0.16396625692E+02
 0.18811123457E+02 0.21380868330E+02 0.24035233325E+02 0.26600625010E+02 0.28745715977E+02
 0.30224764625E+02 0.30957277925E+02 0.31038595454E+02 0.30702544072E+02 0.30246372272E+02
 0.29939004045E+02 0.29939004079E+02 0.30246372384E+02 0.30702544290E+02 0.31038595821E+02
 0.29142916878E+02 0.27521459352E+02 0.25432644464E+02 0.23071219099E+02 0.20662359089E+02
 0.18307425964E+02 0.16071911376E+02 0.14004415987E+02 0.12135935375E+02 0.10481219197E+02
 0.90415568101E+01 0.78083542092E+01 0.67669432951E+01 0.59001559915E+01 0.51912929393E+01
 0.46262239745E+01 0.41944827512E+01 0.38893744065E+01 0.37073070125E+01 0.36467477895E+01
 0.37073064607E+01 0.38893733994E+01 0.41944814618E+01 0.46262226142E+01 0.51912917149E+01
 0.59001550615E+01 0.67669427411E+01 0.78083540183E+01 0.90415568855E+01 0.10481219372E+02
 0.12135935454E+02 0.14004415771E+02 0.16071910714E+02 0.18307424750E+02 0.20662357313E+02
 0.23071216805E+02 0.25432641788E+02 0.27521456475E+02 0.29142914002E+02 0.30224764625E+02
 0.30817122262E+02 0.31057425145E+02 0.31112156668E+02 0.31113696853E+02 0.31112157485E+02
 0.31057426714E+02 0.30817124454E+02 0.30224767263E+02 0.25899939368E+02 0.23960113039E+02
 0.21856563854E+02 0.19707939208E+02 0.17586040215E+02 0.15551257042E+02 0.13650060124E+02
 0.11913934778E+02 0.10360030079E+02 0.89931081597E+01 0.78083542092E+01 0.67946238872E+01
 0.59377250592E+01 0.52233554102E+01 0.46393629959E+01 0.41770782085E+01 0.38316011051E+01
 0.36011312477E+01 0.34856755856E+01 0.34856753257E+01 0.36011305004E+01 0.38315999627E+01
 0.41770768223E+01 0.46393615605E+01 0.52233541437E+01 0.59377241638E+01 0.67946235112E+01
 0.78083544003E+01 0.89931088443E+01 0.10360031051E+02 0.11913935733E+02 0.13650060698E+02
 0.15551256898E+02 0.17586039091E+02 0.19707936994E+02 0.21856560607E+02 0.23960108964E+02
 0.25899934841E+02 0.27521456475E+02 0.28745715977E+02 0.29574864141E+02 0.30065068266E+02
 0.30286798905E+02 0.30286799634E+02 0.30065070383E+02 0.29574867433E+02 0.28745720110E+02
 0.27521461031E+02 0.22268375084E+02 0.20446455834E+02 0.18563676819E+02 0.16684139291E+02
 0.14863118858E+02 0.13144360898E+02 0.11558911125E+02 0.10125322911E+02 0.88509718998E+01
 0.77341912750E+01 0.67669432951E+01 0.59377250592E+01 0.52343741160E+01 0.46464217143E+01
 0.41666661976E+01 0.37917309426E+01 0.35215524266E+01 0.33580112685E+01 0.33032032266E+01
 0.33580109909E+01 0.35215518345E+01 0.37917300005E+01 0.41666649295E+01 0.46464202515E+01
 0.52343727068E+01 0.59377240261E+01 0.67669429480E+01 0.77341918038E+01 0.88509732894E+01
 0.10125324902E+02 0.11558913255E+02 0.13144362587E+02 0.14863119554E+02 0.16684138594E+02
 0.18563674572E+02 0.20446452182E+02 0.22268370394E+02 0.23960108964E+02 0.25432641788E+02
 0.26600625010E+02 0.27428293135E+02 0.27915756171E+02 0.28075987800E+02 0.27915757844E+02
 0.27428296311E+02 0.26600629362E+02 0.25432646844E+02 0.23960114149E+02 0.18901107234E+02
 0.17281602392E+02 0.15645456336E+02 0.14043009066E+02 0.12515007185E+02 0.11091436760E+02
 0.97914755535E+01 0.86243586714E+01 0.75909621394E+01 0.66859304991E+01 0.59001559915E+01
 0.52233554102E+01 0.46464217143E+01 0.41631936166E+01 0.37713227431E+01 0.34720530691E+01
 0.32689743498E+01 0.31661301465E+01 0.31661301943E+01 0.32689744043E+01 0.34720529078E+01
 0.37713221271E+01 0.41631924291E+01 0.46464200626E+01 0.52233536425E+01 0.59001546149E+01
 0.66859300245E+01 0.75909629016E+01 0.86243606962E+01 0.97914785088E+01 0.11091440029E+02
 0.12515010011E+02 0.14043010755E+02 0.15645456432E+02 0.17281600759E+02 0.18901104094E+02
 0.20446452182E+02 0.21856560607E+02 0.23071216805E+02 0.24035233325E+02 0.24700571625E+02
 0.25038649703E+02 0.25038650477E+02 0.24700573869E+02 0.24035236795E+02 0.23071221090E+02
 0.21856565144E+02 0.20446456333E+02 0.15915396552E+02 0.14516335536E+02 0.13129995081E+02
 0.11794001744E+02 0.10536874286E+02 0.93778214473E+01 0.83273022247E+01 0.73881856254E+01
 0.65574001116E+01 0.58279718829E+01 0.51912929393E+01 0.46393629959E+01 0.41666661976E+01
 0.37713227431E+01 0.34552325464E+01 0.32231261508E+01 0.30807447161E+01 0.30326987778E+01
 0.30807450876E+01 0.32231266371E+01 0.34552327446E+01 0.37713222813E+01 0.41666649121E+01
 0.46393610367E+01 0.51912907633E+01 0.58279701293E+01 0.65573994059E+01 0.73881863731E+01
 0.83273044745E+01 0.93778248528E+01 0.10536878202E+02 0.11794005392E+02 0.13129997753E+02
 0.14516336772E+02 0.15915396218E+02 0.17281600759E+02 0.18563674572E+02 0.19707936994E+02
 0.20662357313E+02 0.21380868330E+02 0.21827355698E+02 0.21978816584E+02 0.21827356865E+02
 0.21380870497E+02 0.20662360145E+02 0.19707940021E+02 0.18563677229E+02 0.17281602475E+02
 0.13341957182E+02 0.12163215499E+02 0.11014534538E+02 0.99226784274E+01 0.89064300812E+01
 0.79769401108E+01 0.71385765833E+01 0.63901823289E+01 0.57266942732E+01 0.51410515924E+01
 0.46262239745E+01 0.41770782085E+01 0.37917309426E+01 0.34720530691E+01 0.32231261508E+01
 0.30517093930E+01 0.29641076199E+01 0.29641078831E+01 0.30517100486E+01 0.32231268466E+01
 0.34720533648E+01 0.37917304773E+01 0.41770768465E+01 0.46262218802E+01 0.51410492085E+01
 0.57266922070E+01 0.63901811850E+01 0.71385767901E+01 0.79769418043E+01 0.89064330593E+01
 0.99226822106E+01 0.11014538490E+02 0.12163218977E+02 0.13341959691E+02 0.14516336772E+02
 0.15645456432E+02 0.16684138594E+02 0.17586039091E+02 0.18307424750E+02 0.18811123457E+02
 0.19070091401E+02 0.19070091788E+02 0.18811124515E+02 0.18307426186E+02 0.17586040476E+02
 0.16684139452E+02 0.15645456344E+02 0.14516335483E+02 0.11178893339E+02 0.10208161874E+02
 0.92758031793E+01 0.83998083406E+01 0.75915664446E+01 0.68564937011E+01 0.61949910828E+01
 0.56036982927E+01 0.50770286812E+01 0.46089029618E+01 0.41944827512E+01 0.38316011051E+01
 0.35215524266E+01 0.32689743498E+01 0.30807447161E+01 0.29641076199E+01 0.29245480840E+01
 0.29641080649E+01 0.30807454373E+01 0.32689750530E+01 0.35215527711E+01 0.38316007978E+01
 0.41944816382E+01 0.46089010888E+01 0.50770263107E+01 0.56036958630E+01 0.61949891219E+01
 0.68564927009E+01 0.75915667459E+01 0.83998100334E+01 0.92758060722E+01 0.10208165537E+02
 0.11178897193E+02 0.12163218977E+02 0.13129997753E+02 0.14043010755E+02 0.14863119554E+02
 0.15551256898E+02 0.16071910714E+02 0.16396625692E+02 0.16506988190E+02 0.16396626005E+02
 0.16071911111E+02 0.15551257002E+02 0.14863118962E+02 0.14043009180E+02 0.13129995132E+02
 0.12163215517E+02 0.94026418333E+01 0.86205853473E+01 0.78788905747E+01 0.71887943181E+01
 0.65563426881E+01 0.59831353664E+01 0.54672896066E+01 0.50046285074E+01 0.45900777354E+01
 0.42191615385E+01 0.38893744065E+01 0.36011312477E+01 0.33580112685E+01 0.31661301465E+01
 0.30326987778E+01 0.29641078831E+01 0.29641080649E+01 0.30326992962E+01 0.31661309119E+01
 0.33580121154E+01 0.36011319313E+01 0.38893746303E+01 0.42191610215E+01 0.45900763041E+01
 0.50046261845E+01 0.54672866579E+01 0.59831322827E+01 0.65563400812E+01 0.71887927743E+01
 0.78788904899E+01 0.86205868038E+01 0.94026445800E+01 0.10208165537E+02 0.11014538490E+02
 0.11794005392E+02 0.12515010011E+02 0.13144362587E+02 0.13650060698E+02 0.14004415771E+02
 0.14187012183E+02 0.14187012123E+02 0.14004415492E+02 0.13650059949E+02 0.13144361090E+02
 0.12515007614E+02 0.11794002184E+02 0.11014534838E+02 0.10208162018E+02 0.79773220642E+01
 0.73615780254E+01 0.67841083099E+01 0.62512065583E+01 0.57653059001E+01 0.53257362536E+01
 0.49296260389E+01 0.45729651920E+01 0.42517976045E+01 0.39634119071E+01 0.37073070125E+01
 0.34856755856E+01 0.33032032266E+01 0.31661301943E+01 0.30807450876E+01 0.30517100486E+01
 0.30807454373E+01 0.31661309119E+01 0.33032043020E+01 0.34856769135E+01 0.37073083465E+01
 0.39634128687E+01 0.42517977631E+01 0.45729641942E+01 0.49296237486E+01 0.53257328381E+01
 0.57653018388E+01 0.62512025390E+01 0.67841050611E+01 0.73615761282E+01 0.79773217961E+01
 0.86205868038E+01 0.92758060722E+01 0.99226822106E+01 0.10536878202E+02 0.11091440029E+02
 0.11558913255E+02 0.11913935733E+02 0.12135935454E+02 0.12211489930E+02 0.12135934844E+02
 0.11913934458E+02 0.11558911267E+02 0.11091437385E+02 0.10536875142E+02 0.99226791760E+01
 0.92758036345E+01 0.86205855245E+01 0.68619316244E+01 0.63899676431E+01 0.59518992906E+01
 0.55506402005E+01 0.51864304957E+01 0.48575311046E+01 0.45609986870E+01 0.42935579574E+01
 0.40525272653E+01 0.38366656289E+01 0.36467477895E+01 0.34856753257E+01 0.33580109909E+01
 0.32689744043E+01 0.32231266371E+01 0.32231268466E+01 0.32689750530E+01 0.33580121154E+01
 0.34856769135E+01 0.36467497085E+01 0.38366675890E+01 0.40525288393E+01 0.42935586664E+01
 0.45609981275E+01 0.48575290815E+01 0.51864271034E+01 0.55506358373E+01 0.59518945803E+01
 0.63899632910E+01 0.68619282638E+01 0.73615761282E+01 0.78788904899E+01 0.83998100334E+01
 0.89064330593E+01 0.93778248528E+01 0.97914785088E+01 0.10125324902E+02 0.10360031051E+02
 0.10481219372E+02 0.10481218890E+02 0.10360029663E+02 0.10125322793E+02 0.97914759899E+01
 0.93778223509E+01 0.89064310746E+01 0.83998090556E+01 0.78788908957E+01 0.73615780770E+01
 0.60154771913E+01 0.56665217145E+01 0.53461894588E+01 0.50553206345E+01 0.47930727645E+01
 0.45574813797E+01 0.43460444219E+01 0.41563496613E+01 0.39867052739E+01 0.38366653879E+01
 0.37073064607E+01 0.36011305004E+01 0.35215518345E+01 0.34720529078E+01 0.34552327446E+01
 0.34720533648E+01 0.35215527711E+01 0.36011319313E+01 0.37073083465E+01 0.38366675890E+01
 0.39867075298E+01 0.41563516060E+01 0.43460456431E+01 0.45574815013E+01 0.47930715463E+01
 0.50553180417E+01 0.53461857006E+01 0.56665172266E+01 0.60154725567E+01 0.63899632910E+01
 0.67841050611E+01 0.71887927743E+01 0.75915667459E+01 0.79769418043E+01 0.83273044745E+01
 0.86243606962E+01 0.88509732894E+01 0.89931088443E+01 0.90415568855E+01 0.89931078312E+01
 0.88509715242E+01 0.86243586441E+01 0.83273027069E+01 0.79769408776E+01 0.75915670777E+01
 0.71887945555E+01 0.67841082056E+01 0.63899674501E+01 0.54004762372E+01 0.51568055486E+01
 0.49366802195E+01 0.47398945993E+01 0.45652927330E+01 0.44111324363E+01 0.42754343349E+01
 0.41563493937E+01 0.40525268454E+01 0.39634112315E+01 0.38893733994E+01 0.38315999627E+01
 0.37917300005E+01 0.37713221271E+01 0.37713222813E+01 0.37917304773E+01 0.38316007978E+01
 0.38893746303E+01 0.39634128687E+01 0.40525288393E+01 0.41563516060E+01 0.42754365258E+01
 0.44111342817E+01 0.45652938671E+01 0.47398946937E+01 0.49366790665E+01 0.51568031333E+01
 0.54004727830E+01 0.56665172266E+01 0.59518945803E+01 0.62512025390E+01 0.65563400812E+01
 0.68564927009E+01 0.71385767901E+01 0.73881863731E+01 0.75909629016E+01 0.77341918038E+01
 0.78083544003E+01 0.78083540183E+01 0.77341908083E+01 0.75909616984E+01 0.73881855047E+01
 0.71385767763E+01 0.68564938865E+01 0.65563425376E+01 0.62512060371E+01 0.59518986513E+01
 0.56665212790E+01 0.49853666724E+01 0.48331938426E+01 0.47004933746E+01 0.45867115497E+01
 0.44907570737E+01 0.44111319341E+01 0.43460436858E+01 0.42935572349E+01 0.42517968588E+01
 0.42191605513E+01 0.41944814618E+01 0.41770768223E+01 0.41666649295E+01 0.41631924291E+01
 0.41666649121E+01 0.41770768465E+01 0.41944816382E+01 0.42191610215E+01 0.42517977631E+01
 0.42935586664E+01 0.43460456431E+01 0.44111342817E+01 0.44907595384E+01 0.45867137483E+01
 0.47004948926E+01 0.48331943356E+01 0.49853659597E+01 0.51568031333E+01 0.53461857006E+01
 0.55506358373E+01 0.57653018388E+01 0.59831322827E+01 0.61949891219E+01 0.63901811850E+01
 0.65573994059E+01 0.66859300245E+01 0.67669429480E+01 0.67946235112E+01 0.67669427411E+01
 0.66859298117E+01 0.65573995153E+01 0.63901819464E+01 0.61949907358E+01 0.59831347304E+01
 0.57653048569E+01 0.55506389773E+01 0.53461884377E+01 0.51568050020E+01 0.47462597966E+01
 0.46763634915E+01 0.46233781934E+01 0.45867110668E+01 0.45652917014E+01 0.45574800675E+01
 0.45609974783E+01 0.45729642302E+01 0.45900768216E+01 0.46089018367E+01 0.46262226142E+01
 0.46393615605E+01 0.46464202515E+01 0.46464200626E+01 0.46393610367E+01 0.46262218802E+01
 0.46089010888E+01 0.45900763041E+01 0.45729641942E+01 0.45609981275E+01 0.45574815013E+01
 0.45652938671E+01 0.45867137483E+01 0.46233810352E+01 0.46763660645E+01 0.47462616978E+01
 0.48331943356E+01 0.49366790665E+01 0.50553180417E+01 0.51864271034E+01 0.53257328381E+01
 0.54672866579E+01 0.56036958630E+01 0.57266922070E+01 0.58279701293E+01 0.59001546149E+01
 0.59377240261E+01 0.59377241638E+01 0.59001550615E+01 0.58279709625E+01 0.57266934924E+01
 0.56036975893E+01 0.54672886891E+01 0.53257349057E+01 0.51864288522E+01 0.50553191082E+01
 0.49366791783E+01 0.48331933910E+01 0.46682476947E+01 0.46763633167E+01 0.47004927210E+01
 0.47398933458E+01 0.47930711089E+01 0.48575294791E+01 0.49296247753E+01 0.50046275676E+01
 0.50770277689E+01 0.51410505015E+01 0.51912917149E+01 0.52233541437E+01 0.52343727068E+01
 0.52233536425E+01 0.51912907633E+01 0.51410492085E+01 0.50770263107E+01 0.50046261845E+01
 0.49296237486E+01 0.48575290815E+01 0.47930715463E+01 0.47398946937E+01 0.47004948926E+01
 0.46763660645E+01 0.46682506495E+01 0.46763660645E+01 0.47004948926E+01 0.47398946937E+01
 0.47930715463E+01 0.48575290815E+01 0.49296237486E+01 0.50046261845E+01 0.50770263107E+01
 0.51410492085E+01 0.51912907633E+01 0.52233536425E+01 0.52343727068E+01 0.52233541437E+01
 0.51912917149E+01 0.51410505015E+01 0.50770277689E+01 0.50046275676E+01 0.49296247753E+01
 0.48575294791E+01 0.47930711089E+01 0.47398933458E+01 0.47004927210E+01 0.46763633167E+01
 0.47462597966E+01 0.48331933910E+01 0.49366791783E+01 0.50553191082E+01 0.51864288522E+01
 0.53257349057E+01 0.54672886891E+01 0.56036975893E+01 0.57266934924E+01 0.58279709625E+01
 0.59001550615E+01 0.59377241638E+01 0.59377240261E+01 0.59001546149E+01 0.58279701293E+01
 0.57266922070E+01 0.56036958630E+01 0.54672866579E+01 0.53257328381E+01 0.51864271034E+01
 0.50553180417E+01 0.49366790665E+01 0.48331943356E+01 0.47462616978E+01 0.46763660645E+01
 0.46233810352E+01 0.45867137483E+01 0.45652938671E+01 0.45574815013E+01 0.45609981275E+01
 0.45729641942E+01 0.45900763041E+01 0.46089010888E+01 0.46262218802E+01 0.46393610367E+01
 0.46464200626E+01 0.46464202515E+01 0.46393615605E+01 0.46262226142E+01 0.46089018367E+01
 0.45900768216E+01 0.45729642302E+01 0.45609974783E+01 0.45574800675E+01 0.45652917014E+01
 0.45867110668E+01 0.46233781934E+01 0.46763634915E+01 0.49853666724E+01 0.51568050020E+01
 0.53461884377E+01 0.55506389773E+01 0.57653048569E+01 0.59831347304E+01 0.61949907358E+01
 0.63901819464E+01 0.65573995153E+01 0.66859298117E+01 0.67669427411E+01 0.67946235112E+01
 0.67669429480E+01 0.66859300245E+01 0.65573994059E+01 0.63901811850E+01 0.61949891219E+01
 0.59831322827E+01 0.57653018388E+01 0.55506358373E+01 0.53461857006E+01 0.51568031333E+01
 0.49853659597E+01 0.48331943356E+01 0.47004948926E+01 0.45867137483E+01 0.44907595384E+01
 0.44111342817E+01 0.43460456431E+01 0.42935586664E+01 0.42517977631E+01 0.42191610215E+01
 0.41944816382E+01 0.41770768465E+01 0.41666649121E+01 0.41631924291E+01 0.41666649295E+01
 0.41770768223E+01 0.41944814618E+01 0.42191605513E+01 0.42517968588E+01 0.42935572349E+01
 0.43460436858E+01 0.44111319341E+01 0.44907570737E+01 0.45867115497E+01 0.47004933746E+01
 0.48331938426E+01 0.54004762372E+01 0.56665212790E+01 0.59518986513E+01 0.62512060371E+01
 0.65563425376E+01 0.68564938865E+01 0.71385767763E+01 0.73881855047E+01 0.75909616984E+01
 0.77341908083E+01 0.78083540183E+01 0.78083544003E+01 0.77341918038E+01 0.75909629016E+01
 0.73881863731E+01 0.71385767901E+01 0.68564927009E+01 0.65563400812E+01 0.62512025390E+01
 0.59518945803E+01 0.56665172266E+01 0.54004727830E+01 0.51568031333E+01 0.49366790665E+01
 0.47398946937E+01 0.45652938671E+01 0.44111342817E+01 0.42754365258E+01 0.41563516060E+01
 0.40525288393E+01 0.39634128687E+01 0.38893746303E+01 0.38316007978E+01 0.37917304773E+01
 0.37713222813E+01 0.37713221271E+01 0.37917300005E+01 0.38315999627E+01 0.38893733994E+01
 0.39634112315E+01 0.40525268454E+01 0.41563493937E+01 0.42754343349E+01 0.44111324363E+01
 0.45652927330E+01 0.47398945993E+01 0.49366802195E+01 0.51568055486E+01 0.60154771913E+01
 0.63899674501E+01 0.67841082056E+01 0.71887945555E+01 0.75915670777E+01 0.79769408776E+01
 0.83273027069E+01 0.86243586441E+01 0.88509715242E+01 0.89931078312E+01 0.90415568855E+01
 0.89931088443E+01 0.88509732894E+01 0.86243606962E+01 0.83273044745E+01 0.79769418043E+01
 0.75915667459E+01 0.71887927743E+01 0.67841050611E+01 0.63899632910E+01 0.60154725567E+01
 0.56665172266E+01 0.53461857006E+01 0.50553180417E+01 0.47930715463E+01 0.45574815013E+01
 0.43460456431E+01 0.41563516060E+01 0.39867075298E+01 0.38366675890E+01 0.37073083465E+01
 0.36011319313E+01 0.35215527711E+01 0.34720533648E+01 0.34552327446E+01 0.34720529078E+01
 0.35215518345E+01 0.36011305004E+01 0.37073064607E+01 0.38366653879E+01 0.39867052739E+01
 0.41563496613E+01 0.43460444219E+01 0.45574813797E+01 0.47930727645E+01 0.50553206345E+01
 0.53461894588E+01 0.56665217145E+01 0.68619316244E+01 0.73615780770E+01 0.78788908957E+01
 0.83998090556E+01 0.89064310746E+01 0.93778223509E+01 0.97914759899E+01 0.10125322793E+02
 0.10360029663E+02 0.10481218890E+02 0.10481219372E+02 0.10360031051E+02 0.10125324902E+02
 0.97914785088E+01 0.93778248528E+01 0.89064330593E+01 0.83998100334E+01 0.78788904899E+01
 0.73615761282E+01 0.68619282638E+01 0.63899632910E+01 0.59518945803E+01 0.55506358373E+01
 0.51864271034E+01 0.48575290815E+01 0.45609981275E+01 0.42935586664E+01 0.40525288393E+01
 0.38366675890E+01 0.36467497085E+01 0.34856769135E+01 0.33580121154E+01 0.32689750530E+01
 0.32231268466E+01 0.32231266371E+01 0.32689744043E+01 0.33580109909E+01 0.34856753257E+01
 0.36467477895E+01 0.38366656289E+01 0.40525272653E+01 0.42935579574E+01 0.45609986870E+01
 0.48575311046E+01 0.51864304957E+01 0.55506402005E+01 0.59518992906E+01 0.63899676431E+01
 0.79773220642E+01 0.86205855245E+01 0.92758036345E+01 0.99226791760E+01 0.10536875142E+02
 0.11091437385E+02 0.11558911267E+02 0.11913934458E+02 0.12135934844E+02 0.12211489930E+02
 0.12135935454E+02 0.11913935733E+02 0.11558913255E+02 0.11091440029E+02 0.10536878202E+02
 0.99226822106E+01 0.92758060722E+01 0.86205868038E+01 0.79773217961E+01 0.73615761282E+01
 0.67841050611E+01 0.62512025390E+01 0.57653018388E+01 0.53257328381E+01 0.49296237486E+01
 0.45729641942E+01 0.42517977631E+01 0.39634128687E+01 0.37073083465E+01 0.34856769135E+01
 0.33032043020E+01 0.31661309119E+01 0.30807454373E+01 0.30517100486E+01 0.30807450876E+01
 0.31661301943E+01 0.33032032266E+01 0.34856755856E+01 0.37073070125E+01 0.39634119071E+01
 0.42517976045E+01 0.45729651920E+01 0.49296260389E+01 0.53257362536E+01 0.57653059001E+01
 0.62512065583E+01 0.67841083099E+01 0.73615780254E+01 0.94026418333E+01 0.10208162018E+02
 0.11014534838E+02 0.11794002184E+02 0.12515007614E+02 0.13144361090E+02 0.13650059949E+02
 0.14004415492E+02 0.14187012123E+02 0.14187012183E+02 0.14004415771E+02 0.13650060698E+02
 0.13144362587E+02 0.12515010011E+02 0.11794005392E+02 0.11014538490E+02 0.10208165537E+02
 0.94026445800E+01 0.86205868038E+01 0.78788904899E+01 0.71887927743E+01 0.65563400812E+01
 0.59831322827E+01 0.54672866579E+01 0.50046261845E+01 0.45900763041E+01 0.42191610215E+01
 0.38893746303E+01 0.36011319313E+01 0.33580121154E+01 0.31661309119E+01 0.30326992962E+01
 0.29641080649E+01 0.29641078831E+01 0.30326987778E+01 0.31661301465E+01 0.33580112685E+01
 0.36011312477E+01 0.38893744065E+01 0.42191615385E+01 0.45900777354E+01 0.50046285074E+01
 0.54672896066E+01 0.59831353664E+01 0.65563426881E+01 0.71887943181E+01 0.78788905747E+01
 0.86205853473E+01 0.11178893339E+02 0.12163215517E+02 0.13129995132E+02 0.14043009180E+02
 0.14863118962E+02 0.15551257002E+02 0.16071911111E+02 0.16396626005E+02 0.16506988190E+02
 0.16396625692E+02 0.16071910714E+02 0.15551256898E+02 0.14863119554E+02 0.14043010755E+02
 0.13129997753E+02 0.12163218977E+02 0.11178897193E+02 0.10208165537E+02 0.92758060722E+01
 0.83998100334E+01 0.75915667459E+01 0.68564927009E+01 0.61949891219E+01 0.56036958630E+01
 0.50770263107E+01 0.46089010888E+01 0.41944816382E+01 0.38316007978E+01 0.35215527711E+01
 0.32689750530E+01 0.30807454373E+01 0.29641080649E+01 0.29245480840E+01 0.29641076199E+01
 0.30807447161E+01 0.32689743498E+01 0.35215524266E+01 0.38316011051E+01 0.41944827512E+01
 0.46089029618E+01 0.50770286812E+01 0.56036982927E+01 0.61949910828E+01 0.68564937011E+01
 0.75915664446E+01 0.83998083406E+01 0.92758031793E+01 0.10208161874E+02 0.13341957182E+02
 0.14516335483E+02 0.15645456344E+02 0.16684139452E+02 0.17586040476E+02 0.18307426186E+02
 0.18811124515E+02 0.19070091788E+02 0.19070091401E+02 0.18811123457E+02 0.18307424750E+02
 0.17586039091E+02 0.16684138594E+02 0.15645456432E+02 0.14516336772E+02 0.13341959691E+02
 0.12163218977E+02 0.11014538490E+02 0.99226822106E+01 0.89064330593E+01 0.79769418043E+01
 0.71385767901E+01 0.63901811850E+01 0.57266922070E+01 0.51410492085E+01 0.46262218802E+01
 0.41770768465E+01 0.37917304773E+01 0.34720533648E+01 0.32231268466E+01 0.30517100486E+01
 0.29641078831E+01 0.29641076199E+01 0.30517093930E+01 0.32231261508E+01 0.34720530691E+01
 0.37917309426E+01 0.41770782085E+01 0.46262239745E+01 0.51410515924E+01 0.57266942732E+01