 vasp.5.4.1 05Feb16 (build Oct 05 2016 16:10:00) complex                        
  
 executed on           IFC91_ompi date 2017.11.09  09:36:59
 running on   16 total cores
 distrk:  each k-point on   16 cores,    1 groups
 distr:  one band on NCORES_PER_BAND=   1 cores,   16 groups


--------------------------------------------------------------------------------------------------------


 INCAR:
 POTCAR:    PAW_PBE Sb 06Sep2000                  
 POTCAR:    PAW_PBE Li 17Jan2003                  
 POTCAR:    PAW_PBE Na 08Apr2002                  

 ----------------------------------------------------------------------------- 
|                                                                             |
|           W    W    AA    RRRRR   N    N  II  N    N   GGGG   !!!           |
|           W    W   A  A   R    R  NN   N  II  NN   N  G    G  !!!           |
|           W    W  A    A  R    R  N N  N  II  N N  N  G       !!!           |
|           W WW W  AAAAAA  RRRRR   N  N N  II  N  N N  G  GGG   !            |
|           WW  WW  A    A  R   R   N   NN  II  N   NN  G    G                |
|           W    W  A    A  R    R  N    N  II  N    N   GGGG   !!!           |
|                                                                             |
|      For optimal performance we recommend to set                            |
|        NCORE= 4 - approx SQRT( number of cores)                             |
|      NCORE specifies how many cores store one orbital (NPAR=cpu/NCORE).     |
|      This setting can  greatly improve the performance of VASP for DFT.     |
|      The default, NPAR=number of cores might be grossly inefficient         |
|      on modern multi-core architectures or massively parallel machines.     |
|      Do your own testing !!!!                                               |
|      Unfortunately you need to use the default for GW and RPA calculations. |
|      (for HF NCORE is supported but not extensively tested yet)             |
|                                                                             |
 ----------------------------------------------------------------------------- 

 POTCAR:    PAW_PBE Sb 06Sep2000                  
   VRHFIN =Sb: s2p3                                                             
   LEXCH  = PE                                                                  
   EATOM  =   149.9515 eV,   11.0211 Ry                                         
                                                                                
   TITEL  = PAW_PBE Sb 06Sep2000                                                
   LULTRA =        F    use ultrasoft PP ?                                      
   IUNSCR =        1    unscreen: 0-lin 1-nonlin 2-no                           
   RPACOR =    2.200    partial core radius                                     
   POMASS =  121.750; ZVAL   =    5.000    mass and valenz                      
   RCORE  =    2.300    outmost cutoff radius                                   
   RWIGS  =    2.980; RWIGS  =    1.577    wigner-seitz radius (au A)           
   ENMAX  =  172.069; ENMIN  =  129.052 eV                                      
   ICORE  =        3    local potential                                         
   LCOR   =        T    correct aug charges                                     
   LPAW   =        T    paw PP                                                  
   EAUG   =  380.513                                                            
   DEXC   =    0.000                                                            
   RMAX   =    2.346    core radius for proj-oper                               
   RAUG   =    1.300    factor for augmentation sphere                          
   RDEP   =    2.360    radius for radial grids                                 
   RDEPT  =    2.192    core radius for aug-charge                              
                                                                                
   Atomic configuration                                                         
   13 entries                                                                   
     n  l   j            E        occ.                                          
     1  0  0.50    -30298.2797   2.0000                                         
     2  0  0.50     -4610.2252   2.0000                                         
     2  1  1.50     -4138.3407   6.0000                                         
     3  0  0.50      -903.8815   2.0000                                         
     3  1  1.50      -750.1337   6.0000                                         
     3  2  2.50      -515.7092  10.0000                                         
     4  0  0.50      -148.8034   2.0000                                         
     4  1  1.50      -101.7581   6.0000                                         
     4  2  2.50       -33.5048  10.0000                                         
     5  0  0.50       -12.8298   2.0000                                         
     5  1  0.50        -4.8276   3.0000                                         
     5  2  1.50        -4.0817   0.0000                                         
     4  3  2.50        -4.0817   0.0000                                         
   Description                                                                  
     l       E           TYP  RCUT    TYP  RCUT                                 
     0    -12.8297861     23  2.300                                             
     0     13.6058260     23  2.300                                             
     1     -4.8275512     23  2.300                                             
     1     -0.7245443     23  2.300                                             
     2     -4.0817478     23  2.300                                             
     3     -1.3605826     23  2.300                                             
  local pseudopotential read in
  partial core-charges read in
  partial kinetic energy density read in
  atomic valenz-charges read in
  non local Contribution for L=           0  read in
    real space projection operators read in
  non local Contribution for L=           0  read in
    real space projection operators read in
  non local Contribution for L=           1  read in
    real space projection operators read in
  non local Contribution for L=           1  read in
    real space projection operators read in
  non local Contribution for L=           2  read in
    real space projection operators read in
    PAW grid and wavefunctions read in
 
   number of l-projection  operators is LMAX  =           5
   number of lm-projection operators is LMMAX =          13
 
 POTCAR:    PAW_PBE Li 17Jan2003                  
   VRHFIN =Li: s1p0                                                             
   LEXCH  = PE                                                                  
   EATOM  =     5.3001 eV,    0.3895 Ry                                         
                                                                                
   TITEL  = PAW_PBE Li 17Jan2003                                                
   LULTRA =        F    use ultrasoft PP ?                                      
   IUNSCR =        1    unscreen: 0-lin 1-nonlin 2-no                           
   RPACOR =    1.500    partial core radius                                     
   POMASS =    7.010; ZVAL   =    1.000    mass and valenz                      
   RCORE  =    2.050    outmost cutoff radius                                   
   RWIGS  =    2.600; RWIGS  =    1.376    wigner-seitz radius (au A)           
   ENMAX  =  140.000; ENMIN  =  100.000 eV                                      
   ICORE  =        2    local potential                                         
   LCOR   =        T    correct aug charges                                     
   LPAW   =        T    paw PP                                                  
   EAUG   =  331.638                                                            
   DEXC   =    0.000                                                            
   RMAX   =    2.098    core radius for proj-oper                               
   RAUG   =    1.300    factor for augmentation sphere                          
   RDEP   =    2.094    radius for radial grids                                 
   RDEPT  =    1.810    core radius for aug-charge                              
                                                                                
   Atomic configuration                                                         
    4 entries                                                                   
     n  l   j            E        occ.                                          
     1  0  0.50       -51.8549   2.0000                                         
     2  0  0.50        -2.8742   1.0000                                         
     2  1  0.50        -1.3606   0.0000                                         
     3  2  1.50        -1.3606   0.0000                                         
   Description                                                                  
     l       E           TYP  RCUT    TYP  RCUT                                 
     0     -2.8742052     23  2.050                                             
     0     27.2116520     23  2.050                                             
     1     -1.3605826     23  2.050                                             
     2     -1.3605826     23  2.050                                             
  local pseudopotential read in
  partial core-charges read in
  partial kinetic energy density read in
  atomic valenz-charges read in
  non local Contribution for L=           0  read in
    real space projection operators read in
  non local Contribution for L=           0  read in
    real space projection operators read in
  non local Contribution for L=           1  read in
    real space projection operators read in
    PAW grid and wavefunctions read in
 
   number of l-projection  operators is LMAX  =           3
   number of lm-projection operators is LMMAX =           5
 
 POTCAR:    PAW_PBE Na 08Apr2002                  
   VRHFIN =Na: s1p0                                                             
   LEXCH  = PE                                                                  
   EATOM  =     5.1581 eV,    0.3791 Ry                                         
                                                                                
   TITEL  = PAW_PBE Na 08Apr2002                                                
   LULTRA =        F    use ultrasoft PP ?                                      
   IUNSCR =        1    unscreen: 0-lin 1-nonlin 2-no                           
   RPACOR =    1.800    partial core radius                                     
   POMASS =   22.990; ZVAL   =    1.000    mass and valenz                      
   RCORE  =    2.200    outmost cutoff radius                                   
   RWIGS  =    3.320; RWIGS  =    1.757    wigner-seitz radius (au A)           
   ENMAX  =  101.968; ENMIN  =   76.476 eV                                      
   ICORE  =        2    local potential                                         
   LCOR   =        T    correct aug charges                                     
   LPAW   =        T    paw PP                                                  
   EAUG   =  250.695                                                            
   DEXC   =    0.000                                                            
   RMAX   =    2.245    core radius for proj-oper                               
   RAUG   =    1.300    factor for augmentation sphere                          
   RDEP   =    2.259    radius for radial grids                                 
   RDEPT  =    2.115    core radius for aug-charge                              
                                                                                
   Atomic configuration                                                         
    6 entries                                                                   
     n  l   j            E        occ.                                          
     1  0  0.50     -1033.6933   2.0000                                         
     2  0  0.50       -56.7526   2.0000                                         
     2  1  1.50       -28.6721   6.0000                                         
     3  0  0.50        -2.7440   1.0000                                         
     3  1  0.50        -1.3606   0.0000                                         
     3  2  1.50        -1.3606   0.0000                                         
   Description                                                                  
     l       E           TYP  RCUT    TYP  RCUT                                 
     0     -2.7439560     23  2.200                                             
     0     27.2116520     23  2.200                                             
     1     -1.3605826     23  2.200                                             
     2     -1.3605826     23  2.200                                             
  local pseudopotential read in
  partial core-charges read in
  partial kinetic energy density read in
  atomic valenz-charges read in
  non local Contribution for L=           0  read in
    real space projection operators read in
  non local Contribution for L=           0  read in
    real space projection operators read in
  non local Contribution for L=           1  read in
    real space projection operators read in
    PAW grid and wavefunctions read in
 
   number of l-projection  operators is LMAX  =           3
   number of lm-projection operators is LMMAX =           5
 

 ----------------------------------------------------------------------------- 
|                                                                             |
|  ADVICE TO THIS USER RUNNING 'VASP/VAMP'   (HEAR YOUR MASTER'S VOICE ...):  |
|                                                                             |
|      You enforced a specific xc-type in the INCAR file,                     |
|      a different type was found on the POTCAR file                          |
|          I HOPE YOU KNOW, WHAT YOU ARE  DOING                               |
|                                                                             |
 ----------------------------------------------------------------------------- 

  PAW_PBE Sb 06Sep2000                  :
 energy of atom  1       EATOM= -149.9515
 kinetic energy error for atom=    0.0082 (will be added to EATOM!!)
  PAW_PBE Li 17Jan2003                  :
 energy of atom  2       EATOM=   -5.3001
 kinetic energy error for atom=    0.0002 (will be added to EATOM!!)
  PAW_PBE Na 08Apr2002                  :
 energy of atom  3       EATOM=   -5.1581
 kinetic energy error for atom=    0.0007 (will be added to EATOM!!)
 
 
 POSCAR: Sb Li Na                                
  positions in direct lattice
  velocities in cartesian coordinates
 exchange correlation table for  LEXCH =       14
   RHO(1)=    0.500       N(1)  =     2000
   RHO(2)=  100.500       N(2)  =     4000
 


--------------------------------------------------------------------------------------------------------


 ion  position               nearest neighbor table
   1  0.000  0.000  0.000-   2 2.94   2 2.94   2 2.94   2 2.94   3 2.94   3 2.94   3 2.94   3 2.94
                             4 3.40   4 3.40   4 3.40   4 3.40   4 3.40   4 3.40
   2  0.750  0.750  0.750-   4 2.94   4 2.94   4 2.94   1 2.94   4 2.94   1 2.94   1 2.94   1 2.94

   3  0.250  0.250  0.250-   1 2.94   1 2.94   1 2.94   1 2.94   4 2.94   4 2.94   4 2.94   4 2.94

   4  0.500  0.500  0.500-   3 2.94   3 2.94   3 2.94   2 2.94   3 2.94   2 2.94   2 2.94   2 2.94
                             1 3.40   1 3.40   1 3.40   1 3.40   1 3.40   1 3.40
 
  LATTYP: Found a face centered cubic cell.
 ALAT       =     6.7980000000
  
  Lattice vectors:
  
 A1 = (   0.0000000000,   3.3990000000,   3.3990000000)
 A2 = (   3.3990000000,   0.0000000000,   3.3990000000)
 A3 = (   3.3990000000,   3.3990000000,   0.0000000000)


Analysis of symmetry for initial positions (statically):
=====================================================================
 Subroutine PRICEL returns:
 Original cell was already a primitive cell.
 

 Routine SETGRP: Setting up the symmetry group for a 
 face centered cubic supercell.


 Subroutine GETGRP returns: Found 48 space group operations
 (whereof 48 operations were pure point group operations)
 out of a pool of 48 trial point group operations.


The static configuration has the point symmetry O_h .


Analysis of symmetry for dynamics (positions and initial velocities):
=====================================================================
 Subroutine PRICEL returns:
 Original cell was already a primitive cell.
 

 Routine SETGRP: Setting up the symmetry group for a 
 face centered cubic supercell.


 Subroutine GETGRP returns: Found 48 space group operations
 (whereof 48 operations were pure point group operations)
 out of a pool of 48 trial point group operations.


The dynamic configuration has the point symmetry O_h .


 Subroutine INISYM returns: Found 48 space group operations
 (whereof 48 operations are pure point group operations),
 and found     1 'primitive' translations

 
 
 KPOINTS: k-point mesh generated by kpt_generator.

Automatic generation of k-mesh.
Space group operators:
 irot       det(A)        alpha          n_x          n_y          n_z        tau_x        tau_y        tau_z
    1     1.000000     0.000000     1.000000     0.000000     0.000000     0.000000     0.000000     0.000000
    2    -1.000000     0.000000     1.000000     0.000000     0.000000     0.000000     0.000000     0.000000
    3     1.000000   120.000000    -0.577350    -0.577350    -0.577350     0.000000     0.000000     0.000000
    4    -1.000000   120.000000    -0.577350    -0.577350    -0.577350     0.000000     0.000000     0.000000
    5     1.000000   120.000000     0.577350     0.577350     0.577350     0.000000     0.000000     0.000000
    6    -1.000000   120.000000     0.577350     0.577350     0.577350     0.000000     0.000000     0.000000
    7     1.000000    90.000000     0.000000     0.000000    -1.000000     0.000000     0.000000     0.000000
    8    -1.000000    90.000000     0.000000     0.000000    -1.000000     0.000000     0.000000     0.000000
    9     1.000000   180.000000     0.000000     0.707107     0.707107     0.000000     0.000000     0.000000
   10    -1.000000   180.000000     0.000000     0.707107     0.707107     0.000000     0.000000     0.000000
   11     1.000000    90.000000     0.000000     1.000000     0.000000     0.000000     0.000000     0.000000
   12    -1.000000    90.000000     0.000000     1.000000     0.000000     0.000000     0.000000     0.000000
   13     1.000000   180.000000     0.000000     0.000000     1.000000     0.000000     0.000000     0.000000
   14    -1.000000   180.000000     0.000000     0.000000     1.000000     0.000000     0.000000     0.000000
   15     1.000000   120.000000    -0.577350     0.577350     0.577350     0.000000     0.000000     0.000000
   16    -1.000000   120.000000    -0.577350     0.577350     0.577350     0.000000     0.000000     0.000000
   17     1.000000   120.000000    -0.577350     0.577350    -0.577350     0.000000     0.000000     0.000000
   18    -1.000000   120.000000    -0.577350     0.577350    -0.577350     0.000000     0.000000     0.000000
   19     1.000000    90.000000     0.000000     0.000000     1.000000     0.000000     0.000000     0.000000
   20    -1.000000    90.000000     0.000000     0.000000     1.000000     0.000000     0.000000     0.000000
   21     1.000000    90.000000    -1.000000     0.000000     0.000000     0.000000     0.000000     0.000000
   22    -1.000000    90.000000    -1.000000     0.000000     0.000000     0.000000     0.000000     0.000000
   23     1.000000   180.000000     0.707107     0.000000     0.707107     0.000000     0.000000     0.000000
   24    -1.000000   180.000000     0.707107     0.000000     0.707107     0.000000     0.000000     0.000000
   25     1.000000   120.000000     0.577350    -0.577350     0.577350     0.000000     0.000000     0.000000
   26    -1.000000   120.000000     0.577350    -0.577350     0.577350     0.000000     0.000000     0.000000
   27     1.000000   120.000000    -0.577350    -0.577350     0.577350     0.000000     0.000000     0.000000
   28    -1.000000   120.000000    -0.577350    -0.577350     0.577350     0.000000     0.000000     0.000000
   29     1.000000   180.000000     1.000000     0.000000     0.000000     0.000000     0.000000     0.000000
   30    -1.000000   180.000000     1.000000     0.000000     0.000000     0.000000     0.000000     0.000000
   31     1.000000    90.000000     0.000000    -1.000000     0.000000     0.000000     0.000000     0.000000
   32    -1.000000    90.000000     0.000000    -1.000000     0.000000     0.000000     0.000000     0.000000
   33     1.000000   180.000000     0.707107     0.707107     0.000000     0.000000     0.000000     0.000000
   34    -1.000000   180.000000     0.707107     0.707107     0.000000     0.000000     0.000000     0.000000
   35     1.000000    90.000000     1.000000     0.000000     0.000000     0.000000     0.000000     0.000000
   36    -1.000000    90.000000     1.000000     0.000000     0.000000     0.000000     0.000000     0.000000
   37     1.000000   120.000000     0.577350    -0.577350    -0.577350     0.000000     0.000000     0.000000
   38    -1.000000   120.000000     0.577350    -0.577350    -0.577350     0.000000     0.000000     0.000000
   39     1.000000   180.000000     0.000000     1.000000     0.000000     0.000000     0.000000     0.000000
   40    -1.000000   180.000000     0.000000     1.000000     0.000000     0.000000     0.000000     0.000000
   41     1.000000   120.000000     0.577350     0.577350    -0.577350     0.000000     0.000000     0.000000
   42    -1.000000   120.000000     0.577350     0.577350    -0.577350     0.000000     0.000000     0.000000
   43     1.000000   180.000000     0.000000    -0.707107     0.707107     0.000000     0.000000     0.000000
   44    -1.000000   180.000000     0.000000    -0.707107     0.707107     0.000000     0.000000     0.000000
   45     1.000000   180.000000     0.707107    -0.707107     0.000000     0.000000     0.000000     0.000000
   46    -1.000000   180.000000     0.707107    -0.707107     0.000000     0.000000     0.000000     0.000000
   47     1.000000   180.000000     0.707107     0.000000    -0.707107     0.000000     0.000000     0.000000
   48    -1.000000   180.000000     0.707107     0.000000    -0.707107     0.000000     0.000000     0.000000
 
 Subroutine IBZKPT returns following result:
 ===========================================
 
 Found     47 irreducible k-points:
 
 Following reciprocal coordinates:
            Coordinates               Weight
  0.000000  0.000000  0.000000      1.000000
  0.100000  0.000000  0.000000      8.000000
  0.200000  0.000000  0.000000      8.000000
  0.300000  0.000000  0.000000      8.000000
  0.400000  0.000000  0.000000      8.000000
  0.500000  0.000000  0.000000      4.000000
  0.100000  0.100000  0.000000      6.000000
  0.200000  0.100000  0.000000     24.000000
  0.300000  0.100000  0.000000     24.000000
  0.400000  0.100000  0.000000     24.000000
  0.500000  0.100000  0.000000     24.000000
 -0.400000  0.100000  0.000000     24.000000
 -0.300000  0.100000  0.000000     24.000000
 -0.200000  0.100000  0.000000     24.000000
 -0.100000  0.100000  0.000000     12.000000
  0.200000  0.200000  0.000000      6.000000
  0.300000  0.200000  0.000000     24.000000
  0.400000  0.200000  0.000000     24.000000
  0.500000  0.200000  0.000000     24.000000
 -0.400000  0.200000  0.000000     24.000000
 -0.300000  0.200000  0.000000     24.000000
 -0.200000  0.200000  0.000000     12.000000
  0.300000  0.300000  0.000000      6.000000
  0.400000  0.300000  0.000000     24.000000
  0.500000  0.300000  0.000000     24.000000
 -0.400000  0.300000  0.000000     24.000000
 -0.300000  0.300000  0.000000     12.000000
  0.400000  0.400000  0.000000      6.000000
  0.500000  0.400000  0.000000     24.000000
 -0.400000  0.400000  0.000000     12.000000
  0.500000  0.500000  0.000000      3.000000
  0.300000  0.200000  0.100000     24.000000
  0.400000  0.200000  0.100000     48.000000
  0.500000  0.200000  0.100000     48.000000
 -0.400000  0.200000  0.100000     24.000000
  0.400000  0.300000  0.100000     24.000000
  0.500000  0.300000  0.100000     48.000000
 -0.400000  0.300000  0.100000     48.000000
 -0.300000  0.300000  0.100000     48.000000
 -0.200000  0.300000  0.100000     24.000000
  0.500000  0.400000  0.100000     24.000000
 -0.400000  0.400000  0.100000     48.000000
 -0.300000  0.400000  0.100000     24.000000
 -0.400000  0.500000  0.100000     12.000000
 -0.400000  0.400000  0.200000     24.000000
 -0.300000  0.400000  0.200000     24.000000
 -0.300000  0.500000  0.200000     12.000000
 
 Following cartesian coordinates:
            Coordinates               Weight
  0.000000  0.000000  0.000000      1.000000
 -0.014710  0.014710  0.014710      8.000000
 -0.029420  0.029420  0.029420      8.000000
 -0.044131  0.044131  0.044131      8.000000
 -0.058841  0.058841  0.058841      8.000000
 -0.073551  0.073551  0.073551      4.000000
  0.000000  0.000000  0.029420      6.000000
 -0.014710  0.014710  0.044131     24.000000
 -0.029420  0.029420  0.058841     24.000000
 -0.044131  0.044131  0.073551     24.000000
 -0.058841  0.058841  0.088261     24.000000
  0.073551 -0.073551 -0.044131     24.000000
  0.058841 -0.058841 -0.029420     24.000000
  0.044131 -0.044131 -0.014710     24.000000
  0.029420 -0.029420  0.000000     12.000000
  0.000000  0.000000  0.058841      6.000000
 -0.014710  0.014710  0.073551     24.000000
 -0.029420  0.029420  0.088261     24.000000
 -0.044131  0.044131  0.102971     24.000000
  0.088261 -0.088261 -0.029420     24.000000
  0.073551 -0.073551 -0.014710     24.000000
  0.058841 -0.058841  0.000000     12.000000
  0.000000  0.000000  0.088261      6.000000
 -0.014710  0.014710  0.102971     24.000000
 -0.029420  0.029420  0.117682     24.000000
  0.102971 -0.102971 -0.014710     24.000000
  0.088261 -0.088261  0.000000     12.000000
  0.000000  0.000000  0.117682      6.000000
 -0.014710  0.014710  0.132392     24.000000
  0.117682 -0.117682  0.000000     12.000000
  0.000000  0.000000  0.147102      3.000000
 -0.000000  0.029420  0.058841     24.000000
 -0.014710  0.044131  0.073551     48.000000
 -0.029420  0.058841  0.088261     48.000000
  0.102971 -0.073551 -0.044131     24.000000
 -0.000000  0.029420  0.088261     24.000000
 -0.014710  0.044131  0.102971     48.000000
  0.117682 -0.088261 -0.029420     48.000000
  0.102971 -0.073551 -0.014710     48.000000
  0.088261 -0.058841  0.000000     24.000000
  0.000000  0.029420  0.117682     24.000000
  0.132392 -0.102971 -0.014710     48.000000
  0.117682 -0.088261  0.000000     24.000000
  0.147102 -0.117682  0.000000     12.000000
  0.147102 -0.088261 -0.029420     24.000000
  0.132392 -0.073551 -0.014710     24.000000
  0.147102 -0.088261  0.000000     12.000000
 
 
 Subroutine IBZKPT_HF returns following result:
 ==============================================
 
 Found   1000 k-points in 1st BZ
 the following   1000 k-points will be used (e.g. in the exchange kernel)
 Following reciprocal coordinates:   # in IRBZ
  0.000000  0.000000  0.000000    0.00100000   1 t-inv F
  0.100000  0.000000  0.000000    0.00100000   2 t-inv F
  0.200000  0.000000  0.000000    0.00100000   3 t-inv F
  0.300000  0.000000  0.000000    0.00100000   4 t-inv F
  0.400000  0.000000  0.000000    0.00100000   5 t-inv F
  0.500000  0.000000  0.000000    0.00100000   6 t-inv F
  0.100000  0.100000  0.000000    0.00100000   7 t-inv F
  0.200000  0.100000  0.000000    0.00100000   8 t-inv F
  0.300000  0.100000  0.000000    0.00100000   9 t-inv F
  0.400000  0.100000  0.000000    0.00100000  10 t-inv F
  0.500000  0.100000  0.000000    0.00100000  11 t-inv F
 -0.400000  0.100000  0.000000    0.00100000  12 t-inv F
 -0.300000  0.100000  0.000000    0.00100000  13 t-inv F
 -0.200000  0.100000  0.000000    0.00100000  14 t-inv F
 -0.100000  0.100000  0.000000    0.00100000  15 t-inv F
  0.200000  0.200000  0.000000    0.00100000  16 t-inv F
  0.300000  0.200000  0.000000    0.00100000  17 t-inv F
  0.400000  0.200000  0.000000    0.00100000  18 t-inv F
  0.500000  0.200000  0.000000    0.00100000  19 t-inv F
 -0.400000  0.200000  0.000000    0.00100000  20 t-inv F
 -0.300000  0.200000  0.000000    0.00100000  21 t-inv F
 -0.200000  0.200000  0.000000    0.00100000  22 t-inv F
  0.300000  0.300000  0.000000    0.00100000  23 t-inv F
  0.400000  0.300000  0.000000    0.00100000  24 t-inv F
  0.500000  0.300000  0.000000    0.00100000  25 t-inv F
 -0.400000  0.300000  0.000000    0.00100000  26 t-inv F
 -0.300000  0.300000  0.000000    0.00100000  27 t-inv F
  0.400000  0.400000  0.000000    0.00100000  28 t-inv F
  0.500000  0.400000  0.000000    0.00100000  29 t-inv F
 -0.400000  0.400000  0.000000    0.00100000  30 t-inv F
  0.500000  0.500000  0.000000    0.00100000  31 t-inv F
  0.300000  0.200000  0.100000    0.00100000  32 t-inv F
  0.400000  0.200000  0.100000    0.00100000  33 t-inv F
  0.500000  0.200000  0.100000    0.00100000  34 t-inv F
 -0.400000  0.200000  0.100000    0.00100000  35 t-inv F
  0.400000  0.300000  0.100000    0.00100000  36 t-inv F
  0.500000  0.300000  0.100000    0.00100000  37 t-inv F
 -0.400000  0.300000  0.100000    0.00100000  38 t-inv F
 -0.300000  0.300000  0.100000    0.00100000  39 t-inv F
 -0.200000  0.300000  0.100000    0.00100000  40 t-inv F
  0.500000  0.400000  0.100000    0.00100000  41 t-inv F
 -0.400000  0.400000  0.100000    0.00100000  42 t-inv F
 -0.300000  0.400000  0.100000    0.00100000  43 t-inv F
 -0.400000  0.500000  0.100000    0.00100000  44 t-inv F
 -0.400000  0.400000  0.200000    0.00100000  45 t-inv F
 -0.300000  0.400000  0.200000    0.00100000  46 t-inv F
 -0.300000  0.500000  0.200000    0.00100000  47 t-inv F
 -0.100000  0.000000  0.000000    0.00100000   2 t-inv F
  0.000000  0.100000  0.000000    0.00100000   2 t-inv F
  0.000000 -0.100000  0.000000    0.00100000   2 t-inv F
  0.000000  0.000000  0.100000    0.00100000   2 t-inv F
  0.000000  0.000000 -0.100000    0.00100000   2 t-inv F
  0.100000  0.100000  0.100000    0.00100000   2 t-inv F
 -0.100000 -0.100000 -0.100000    0.00100000   2 t-inv F
 -0.200000  0.000000  0.000000    0.00100000   3 t-inv F
  0.000000  0.200000  0.000000    0.00100000   3 t-inv F
  0.000000 -0.200000  0.000000    0.00100000   3 t-inv F
  0.000000  0.000000  0.200000    0.00100000   3 t-inv F
  0.000000  0.000000 -0.200000    0.00100000   3 t-inv F
  0.200000  0.200000  0.200000    0.00100000   3 t-inv F
 -0.200000 -0.200000 -0.200000    0.00100000   3 t-inv F
 -0.300000  0.000000  0.000000    0.00100000   4 t-inv F
  0.000000  0.300000  0.000000    0.00100000   4 t-inv F
  0.000000 -0.300000  0.000000    0.00100000   4 t-inv F
  0.000000  0.000000  0.300000    0.00100000   4 t-inv F
  0.000000  0.000000 -0.300000    0.00100000   4 t-inv F
  0.300000  0.300000  0.300000    0.00100000   4 t-inv F
 -0.300000 -0.300000 -0.300000    0.00100000   4 t-inv F
 -0.400000  0.000000  0.000000    0.00100000   5 t-inv F
  0.000000  0.400000  0.000000    0.00100000   5 t-inv F
  0.000000 -0.400000  0.000000    0.00100000   5 t-inv F
  0.000000  0.000000  0.400000    0.00100000   5 t-inv F
  0.000000  0.000000 -0.400000    0.00100000   5 t-inv F
  0.400000  0.400000  0.400000    0.00100000   5 t-inv F
 -0.400000 -0.400000 -0.400000    0.00100000   5 t-inv F
  0.000000  0.500000  0.000000    0.00100000   6 t-inv F
  0.000000  0.000000  0.500000    0.00100000   6 t-inv F
  0.500000  0.500000  0.500000    0.00100000   6 t-inv F
 -0.100000 -0.100000  0.000000    0.00100000   7 t-inv F
  0.000000  0.100000  0.100000    0.00100000   7 t-inv F
  0.000000 -0.100000 -0.100000    0.00100000   7 t-inv F
  0.100000  0.000000  0.100000    0.00100000   7 t-inv F
 -0.100000  0.000000 -0.100000    0.00100000   7 t-inv F
 -0.200000 -0.100000  0.000000    0.00100000   8 t-inv F
  0.000000  0.200000  0.100000    0.00100000   8 t-inv F
  0.000000 -0.200000 -0.100000    0.00100000   8 t-inv F
  0.100000  0.000000  0.200000    0.00100000   8 t-inv F
 -0.100000  0.000000 -0.200000    0.00100000   8 t-inv F
  0.100000  0.100000 -0.100000    0.00100000   8 t-inv F
 -0.100000 -0.100000  0.100000    0.00100000   8 t-inv F
  0.200000  0.100000  0.200000    0.00100000   8 t-inv F
 -0.200000 -0.100000 -0.200000    0.00100000   8 t-inv F
  0.100000  0.200000  0.000000    0.00100000   8 t-inv F
 -0.100000 -0.200000  0.000000    0.00100000   8 t-inv F
  0.100000 -0.100000 -0.100000    0.00100000   8 t-inv F
 -0.100000  0.100000  0.100000    0.00100000   8 t-inv F
  0.200000  0.200000  0.100000    0.00100000   8 t-inv F
 -0.200000 -0.200000 -0.100000    0.00100000   8 t-inv F
  0.000000  0.100000  0.200000    0.00100000   8 t-inv F
  0.000000 -0.100000 -0.200000    0.00100000   8 t-inv F
 -0.100000  0.100000 -0.100000    0.00100000   8 t-inv F
  0.100000 -0.100000  0.100000    0.00100000   8 t-inv F
  0.100000  0.200000  0.200000    0.00100000   8 t-inv F
 -0.100000 -0.200000 -0.200000    0.00100000   8 t-inv F
  0.200000  0.000000  0.100000    0.00100000   8 t-inv F
 -0.200000  0.000000 -0.100000    0.00100000   8 t-inv F
 -0.300000 -0.100000  0.000000    0.00100000   9 t-inv F
  0.000000  0.300000  0.100000    0.00100000   9 t-inv F
  0.000000 -0.300000 -0.100000    0.00100000   9 t-inv F
  0.100000  0.000000  0.300000    0.00100000   9 t-inv F
 -0.100000  0.000000 -0.300000    0.00100000   9 t-inv F
  0.100000  0.100000 -0.200000    0.00100000   9 t-inv F
 -0.100000 -0.100000  0.200000    0.00100000   9 t-inv F
  0.300000  0.200000  0.300000    0.00100000   9 t-inv F
 -0.300000 -0.200000 -0.300000    0.00100000   9 t-inv F
  0.100000  0.300000  0.000000    0.00100000   9 t-inv F
 -0.100000 -0.300000  0.000000    0.00100000   9 t-inv F
  0.200000 -0.100000 -0.100000    0.00100000   9 t-inv F
 -0.200000  0.100000  0.100000    0.00100000   9 t-inv F
  0.300000  0.300000  0.200000    0.00100000   9 t-inv F
 -0.300000 -0.300000 -0.200000    0.00100000   9 t-inv F
  0.000000  0.100000  0.300000    0.00100000   9 t-inv F
  0.000000 -0.100000 -0.300000    0.00100000   9 t-inv F
 -0.100000  0.200000 -0.100000    0.00100000   9 t-inv F
  0.100000 -0.200000  0.100000    0.00100000   9 t-inv F
  0.200000  0.300000  0.300000    0.00100000   9 t-inv F
 -0.200000 -0.300000 -0.300000    0.00100000   9 t-inv F
  0.300000  0.000000  0.100000    0.00100000   9 t-inv F
 -0.300000  0.000000 -0.100000    0.00100000   9 t-inv F
 -0.400000 -0.100000  0.000000    0.00100000  10 t-inv F
  0.000000  0.400000  0.100000    0.00100000  10 t-inv F
  0.000000 -0.400000 -0.100000    0.00100000  10 t-inv F
  0.100000  0.000000  0.400000    0.00100000  10 t-inv F
 -0.100000  0.000000 -0.400000    0.00100000  10 t-inv F
  0.100000  0.100000 -0.300000    0.00100000  10 t-inv F
 -0.100000 -0.100000  0.300000    0.00100000  10 t-inv F
  0.400000  0.300000  0.400000    0.00100000  10 t-inv F
 -0.400000 -0.300000 -0.400000    0.00100000  10 t-inv F
  0.100000  0.400000  0.000000    0.00100000  10 t-inv F
 -0.100000 -0.400000  0.000000    0.00100000  10 t-inv F
  0.300000 -0.100000 -0.100000    0.00100000  10 t-inv F
 -0.300000  0.100000  0.100000    0.00100000  10 t-inv F
  0.400000  0.400000  0.300000    0.00100000  10 t-inv F
 -0.400000 -0.400000 -0.300000    0.00100000  10 t-inv F
  0.000000  0.100000  0.400000    0.00100000  10 t-inv F
  0.000000 -0.100000 -0.400000    0.00100000  10 t-inv F
 -0.100000  0.300000 -0.100000    0.00100000  10 t-inv F
  0.100000 -0.300000  0.100000    0.00100000  10 t-inv F
  0.300000  0.400000  0.400000    0.00100000  10 t-inv F
 -0.300000 -0.400000 -0.400000    0.00100000  10 t-inv F
  0.400000  0.000000  0.100000    0.00100000  10 t-inv F
 -0.400000  0.000000 -0.100000    0.00100000  10 t-inv F
 -0.500000 -0.100000  0.000000    0.00100000  11 t-inv F
  0.000000  0.500000  0.100000    0.00100000  11 t-inv F
  0.000000 -0.500000 -0.100000    0.00100000  11 t-inv F
  0.100000  0.000000  0.500000    0.00100000  11 t-inv F
 -0.100000  0.000000 -0.500000    0.00100000  11 t-inv F
  0.100000  0.100000 -0.400000    0.00100000  11 t-inv F
 -0.100000 -0.100000  0.400000    0.00100000  11 t-inv F
  0.500000  0.400000  0.500000    0.00100000  11 t-inv F
 -0.500000 -0.400000 -0.500000    0.00100000  11 t-inv F
  0.100000  0.500000  0.000000    0.00100000  11 t-inv F
 -0.100000 -0.500000  0.000000    0.00100000  11 t-inv F
  0.400000 -0.100000 -0.100000    0.00100000  11 t-inv F
 -0.400000  0.100000  0.100000    0.00100000  11 t-inv F
  0.500000  0.500000  0.400000    0.00100000  11 t-inv F
 -0.500000 -0.500000 -0.400000    0.00100000  11 t-inv F
  0.000000  0.100000  0.500000    0.00100000  11 t-inv F
  0.000000 -0.100000 -0.500000    0.00100000  11 t-inv F
 -0.100000  0.400000 -0.100000    0.00100000  11 t-inv F
  0.100000 -0.400000  0.100000    0.00100000  11 t-inv F
  0.400000  0.500000  0.500000    0.00100000  11 t-inv F
 -0.400000 -0.500000 -0.500000    0.00100000  11 t-inv F
  0.500000  0.000000  0.100000    0.00100000  11 t-inv F
 -0.500000  0.000000 -0.100000    0.00100000  11 t-inv F
  0.400000 -0.100000  0.000000    0.00100000  12 t-inv F
  0.000000 -0.400000  0.100000    0.00100000  12 t-inv F
  0.000000  0.400000 -0.100000    0.00100000  12 t-inv F
  0.100000  0.000000 -0.400000    0.00100000  12 t-inv F
 -0.100000  0.000000  0.400000    0.00100000  12 t-inv F
  0.100000  0.100000  0.500000    0.00100000  12 t-inv F
 -0.100000 -0.100000 -0.500000    0.00100000  12 t-inv F
 -0.400000 -0.500000 -0.400000    0.00100000  12 t-inv F
  0.400000  0.500000  0.400000    0.00100000  12 t-inv F
  0.100000 -0.400000  0.000000    0.00100000  12 t-inv F
 -0.100000  0.400000  0.000000    0.00100000  12 t-inv F
 -0.500000 -0.100000 -0.100000    0.00100000  12 t-inv F
  0.500000  0.100000  0.100000    0.00100000  12 t-inv F
 -0.400000 -0.400000 -0.500000    0.00100000  12 t-inv F
  0.400000  0.400000  0.500000    0.00100000  12 t-inv F
  0.000000  0.100000 -0.400000    0.00100000  12 t-inv F
  0.000000 -0.100000  0.400000    0.00100000  12 t-inv F
 -0.100000 -0.500000 -0.100000    0.00100000  12 t-inv F
  0.100000  0.500000  0.100000    0.00100000  12 t-inv F
 -0.500000 -0.400000 -0.400000    0.00100000  12 t-inv F
  0.500000  0.400000  0.400000    0.00100000  12 t-inv F
 -0.400000  0.000000  0.100000    0.00100000  12 t-inv F
  0.400000  0.000000 -0.100000    0.00100000  12 t-inv F
  0.300000 -0.100000  0.000000    0.00100000  13 t-inv F
  0.000000 -0.300000  0.100000    0.00100000  13 t-inv F
  0.000000  0.300000 -0.100000    0.00100000  13 t-inv F
  0.100000  0.000000 -0.300000    0.00100000  13 t-inv F
 -0.100000  0.000000  0.300000    0.00100000  13 t-inv F
  0.100000  0.100000  0.400000    0.00100000  13 t-inv F
 -0.100000 -0.100000 -0.400000    0.00100000  13 t-inv F
 -0.300000 -0.400000 -0.300000    0.00100000  13 t-inv F
  0.300000  0.400000  0.300000    0.00100000  13 t-inv F
  0.100000 -0.300000  0.000000    0.00100000  13 t-inv F
 -0.100000  0.300000  0.000000    0.00100000  13 t-inv F
 -0.400000 -0.100000 -0.100000    0.00100000  13 t-inv F
  0.400000  0.100000  0.100000    0.00100000  13 t-inv F
 -0.300000 -0.300000 -0.400000    0.00100000  13 t-inv F
  0.300000  0.300000  0.400000    0.00100000  13 t-inv F
  0.000000  0.100000 -0.300000    0.00100000  13 t-inv F
  0.000000 -0.100000  0.300000    0.00100000  13 t-inv F
 -0.100000 -0.400000 -0.100000    0.00100000  13 t-inv F
  0.100000  0.400000  0.100000    0.00100000  13 t-inv F
 -0.400000 -0.300000 -0.300000    0.00100000  13 t-inv F
  0.400000  0.300000  0.300000    0.00100000  13 t-inv F
 -0.300000  0.000000  0.100000    0.00100000  13 t-inv F
  0.300000  0.000000 -0.100000    0.00100000  13 t-inv F
  0.200000 -0.100000  0.000000    0.00100000  14 t-inv F
  0.000000 -0.200000  0.100000    0.00100000  14 t-inv F
  0.000000  0.200000 -0.100000    0.00100000  14 t-inv F
  0.100000  0.000000 -0.200000    0.00100000  14 t-inv F
 -0.100000  0.000000  0.200000    0.00100000  14 t-inv F
  0.100000  0.100000  0.300000    0.00100000  14 t-inv F
 -0.100000 -0.100000 -0.300000    0.00100000  14 t-inv F
 -0.200000 -0.300000 -0.200000    0.00100000  14 t-inv F
  0.200000  0.300000  0.200000    0.00100000  14 t-inv F
  0.100000 -0.200000  0.000000    0.00100000  14 t-inv F
 -0.100000  0.200000  0.000000    0.00100000  14 t-inv F
 -0.300000 -0.100000 -0.100000    0.00100000  14 t-inv F
  0.300000  0.100000  0.100000    0.00100000  14 t-inv F
 -0.200000 -0.200000 -0.300000    0.00100000  14 t-inv F
  0.200000  0.200000  0.300000    0.00100000  14 t-inv F
  0.000000  0.100000 -0.200000    0.00100000  14 t-inv F
  0.000000 -0.100000  0.200000    0.00100000  14 t-inv F
 -0.100000 -0.300000 -0.100000    0.00100000  14 t-inv F
  0.100000  0.300000  0.100000    0.00100000  14 t-inv F
 -0.300000 -0.200000 -0.200000    0.00100000  14 t-inv F
  0.300000  0.200000  0.200000    0.00100000  14 t-inv F
 -0.200000  0.000000  0.100000    0.00100000  14 t-inv F
  0.200000  0.000000 -0.100000    0.00100000  14 t-inv F
  0.100000 -0.100000  0.000000    0.00100000  15 t-inv F
  0.000000 -0.100000  0.100000    0.00100000  15 t-inv F
  0.000000  0.100000 -0.100000    0.00100000  15 t-inv F
  0.100000  0.000000 -0.100000    0.00100000  15 t-inv F
 -0.100000  0.000000  0.100000    0.00100000  15 t-inv F
  0.100000  0.100000  0.200000    0.00100000  15 t-inv F
 -0.100000 -0.100000 -0.200000    0.00100000  15 t-inv F
 -0.100000 -0.200000 -0.100000    0.00100000  15 t-inv F
  0.100000  0.200000  0.100000    0.00100000  15 t-inv F
 -0.200000 -0.100000 -0.100000    0.00100000  15 t-inv F
  0.200000  0.100000  0.100000    0.00100000  15 t-inv F
 -0.200000 -0.200000  0.000000    0.00100000  16 t-inv F
  0.000000  0.200000  0.200000    0.00100000  16 t-inv F
  0.000000 -0.200000 -0.200000    0.00100000  16 t-inv F
  0.200000  0.000000  0.200000    0.00100000  16 t-inv F
 -0.200000  0.000000 -0.200000    0.00100000  16 t-inv F
 -0.300000 -0.200000  0.000000    0.00100000  17 t-inv F
  0.000000  0.300000  0.200000    0.00100000  17 t-inv F
  0.000000 -0.300000 -0.200000    0.00100000  17 t-inv F
  0.200000  0.000000  0.300000    0.00100000  17 t-inv F
 -0.200000  0.000000 -0.300000    0.00100000  17 t-inv F
  0.200000  0.200000 -0.100000    0.00100000  17 t-inv F
 -0.200000 -0.200000  0.100000    0.00100000  17 t-inv F
  0.300000  0.100000  0.300000    0.00100000  17 t-inv F
 -0.300000 -0.100000 -0.300000    0.00100000  17 t-inv F
  0.200000  0.300000  0.000000    0.00100000  17 t-inv F
 -0.200000 -0.300000  0.000000    0.00100000  17 t-inv F
  0.100000 -0.200000 -0.200000    0.00100000  17 t-inv F
 -0.100000  0.200000  0.200000    0.00100000  17 t-inv F
  0.300000  0.300000  0.100000    0.00100000  17 t-inv F
 -0.300000 -0.300000 -0.100000    0.00100000  17 t-inv F
  0.000000  0.200000  0.300000    0.00100000  17 t-inv F
  0.000000 -0.200000 -0.300000    0.00100000  17 t-inv F
 -0.200000  0.100000 -0.200000    0.00100000  17 t-inv F
  0.200000 -0.100000  0.200000    0.00100000  17 t-inv F
  0.100000  0.300000  0.300000    0.00100000  17 t-inv F
 -0.100000 -0.300000 -0.300000    0.00100000  17 t-inv F
  0.300000  0.000000  0.200000    0.00100000  17 t-inv F
 -0.300000  0.000000 -0.200000    0.00100000  17 t-inv F
 -0.400000 -0.200000  0.000000    0.00100000  18 t-inv F
  0.000000  0.400000  0.200000    0.00100000  18 t-inv F
  0.000000 -0.400000 -0.200000    0.00100000  18 t-inv F
  0.200000  0.000000  0.400000    0.00100000  18 t-inv F
 -0.200000  0.000000 -0.400000    0.00100000  18 t-inv F
  0.200000  0.200000 -0.200000    0.00100000  18 t-inv F
 -0.200000 -0.200000  0.200000    0.00100000  18 t-inv F
  0.400000  0.200000  0.400000    0.00100000  18 t-inv F
 -0.400000 -0.200000 -0.400000    0.00100000  18 t-inv F
  0.200000  0.400000  0.000000    0.00100000  18 t-inv F
 -0.200000 -0.400000  0.000000    0.00100000  18 t-inv F
  0.200000 -0.200000 -0.200000    0.00100000  18 t-inv F
 -0.200000  0.200000  0.200000    0.00100000  18 t-inv F
  0.400000  0.400000  0.200000    0.00100000  18 t-inv F
 -0.400000 -0.400000 -0.200000    0.00100000  18 t-inv F
  0.000000  0.200000  0.400000    0.00100000  18 t-inv F
  0.000000 -0.200000 -0.400000    0.00100000  18 t-inv F
 -0.200000  0.200000 -0.200000    0.00100000  18 t-inv F
  0.200000 -0.200000  0.200000    0.00100000  18 t-inv F
  0.200000  0.400000  0.400000    0.00100000  18 t-inv F
 -0.200000 -0.400000 -0.400000    0.00100000  18 t-inv F
  0.400000  0.000000  0.200000    0.00100000  18 t-inv F
 -0.400000  0.000000 -0.200000    0.00100000  18 t-inv F
 -0.500000 -0.200000  0.000000    0.00100000  19 t-inv F
  0.000000  0.500000  0.200000    0.00100000  19 t-inv F
  0.000000 -0.500000 -0.200000    0.00100000  19 t-inv F
  0.200000  0.000000  0.500000    0.00100000  19 t-inv F
 -0.200000  0.000000 -0.500000    0.00100000  19 t-inv F
  0.200000  0.200000 -0.300000    0.00100000  19 t-inv F
 -0.200000 -0.200000  0.300000    0.00100000  19 t-inv F
  0.500000  0.300000  0.500000    0.00100000  19 t-inv F
 -0.500000 -0.300000 -0.500000    0.00100000  19 t-inv F
  0.200000  0.500000  0.000000    0.00100000  19 t-inv F
 -0.200000 -0.500000  0.000000    0.00100000  19 t-inv F
  0.300000 -0.200000 -0.200000    0.00100000  19 t-inv F
 -0.300000  0.200000  0.200000    0.00100000  19 t-inv F
  0.500000  0.500000  0.300000    0.00100000  19 t-inv F
 -0.500000 -0.500000 -0.300000    0.00100000  19 t-inv F
  0.000000  0.200000  0.500000    0.00100000  19 t-inv F
  0.000000 -0.200000 -0.500000    0.00100000  19 t-inv F
 -0.200000  0.300000 -0.200000    0.00100000  19 t-inv F
  0.200000 -0.300000  0.200000    0.00100000  19 t-inv F
  0.300000  0.500000  0.500000    0.00100000  19 t-inv F
 -0.300000 -0.500000 -0.500000    0.00100000  19 t-inv F
  0.500000  0.000000  0.200000    0.00100000  19 t-inv F
 -0.500000  0.000000 -0.200000    0.00100000  19 t-inv F
  0.400000 -0.200000  0.000000    0.00100000  20 t-inv F
  0.000000 -0.400000  0.200000    0.00100000  20 t-inv F
  0.000000  0.400000 -0.200000    0.00100000  20 t-inv F
  0.200000  0.000000 -0.400000    0.00100000  20 t-inv F
 -0.200000  0.000000  0.400000    0.00100000  20 t-inv F
  0.200000  0.200000  0.600000    0.00100000  20 t-inv F
 -0.200000 -0.200000 -0.600000    0.00100000  20 t-inv F
 -0.400000 -0.600000 -0.400000    0.00100000  20 t-inv F
  0.400000  0.600000  0.400000    0.00100000  20 t-inv F
  0.200000 -0.400000  0.000000    0.00100000  20 t-inv F
 -0.200000  0.400000  0.000000    0.00100000  20 t-inv F
 -0.600000 -0.200000 -0.200000    0.00100000  20 t-inv F
  0.600000  0.200000  0.200000    0.00100000  20 t-inv F
 -0.400000 -0.400000 -0.600000    0.00100000  20 t-inv F
  0.400000  0.400000  0.600000    0.00100000  20 t-inv F
  0.000000  0.200000 -0.400000    0.00100000  20 t-inv F
  0.000000 -0.200000  0.400000    0.00100000  20 t-inv F
 -0.200000 -0.600000 -0.200000    0.00100000  20 t-inv F
  0.200000  0.600000  0.200000    0.00100000  20 t-inv F
 -0.600000 -0.400000 -0.400000    0.00100000  20 t-inv F
  0.600000  0.400000  0.400000    0.00100000  20 t-inv F
 -0.400000  0.000000  0.200000    0.00100000  20 t-inv F
  0.400000  0.000000 -0.200000    0.00100000  20 t-inv F
  0.300000 -0.200000  0.000000    0.00100000  21 t-inv F
  0.000000 -0.300000  0.200000    0.00100000  21 t-inv F
  0.000000  0.300000 -0.200000    0.00100000  21 t-inv F
  0.200000  0.000000 -0.300000    0.00100000  21 t-inv F
 -0.200000  0.000000  0.300000    0.00100000  21 t-inv F
  0.200000  0.200000  0.500000    0.00100000  21 t-inv F
 -0.200000 -0.200000 -0.500000    0.00100000  21 t-inv F
 -0.300000 -0.500000 -0.300000    0.00100000  21 t-inv F
  0.300000  0.500000  0.300000    0.00100000  21 t-inv F
  0.200000 -0.300000  0.000000    0.00100000  21 t-inv F
 -0.200000  0.300000  0.000000    0.00100000  21 t-inv F
 -0.500000 -0.200000 -0.200000    0.00100000  21 t-inv F
  0.500000  0.200000  0.200000    0.00100000  21 t-inv F
 -0.300000 -0.300000 -0.500000    0.00100000  21 t-inv F
  0.300000  0.300000  0.500000    0.00100000  21 t-inv F
  0.000000  0.200000 -0.300000    0.00100000  21 t-inv F
  0.000000 -0.200000  0.300000    0.00100000  21 t-inv F
 -0.200000 -0.500000 -0.200000    0.00100000  21 t-inv F
  0.200000  0.500000  0.200000    0.00100000  21 t-inv F
 -0.500000 -0.300000 -0.300000    0.00100000  21 t-inv F
  0.500000  0.300000  0.300000    0.00100000  21 t-inv F
 -0.300000  0.000000  0.200000    0.00100000  21 t-inv F
  0.300000  0.000000 -0.200000    0.00100000  21 t-inv F
  0.200000 -0.200000  0.000000    0.00100000  22 t-inv F
  0.000000 -0.200000  0.200000    0.00100000  22 t-inv F
  0.000000  0.200000 -0.200000    0.00100000  22 t-inv F
  0.200000  0.000000 -0.200000    0.00100000  22 t-inv F
 -0.200000  0.000000  0.200000    0.00100000  22 t-inv F
  0.200000  0.200000  0.400000    0.00100000  22 t-inv F
 -0.200000 -0.200000 -0.400000    0.00100000  22 t-inv F
 -0.200000 -0.400000 -0.200000    0.00100000  22 t-inv F
  0.200000  0.400000  0.200000    0.00100000  22 t-inv F
 -0.400000 -0.200000 -0.200000    0.00100000  22 t-inv F
  0.400000  0.200000  0.200000    0.00100000  22 t-inv F
 -0.300000 -0.300000  0.000000    0.00100000  23 t-inv F
  0.000000  0.300000  0.300000    0.00100000  23 t-inv F
  0.000000 -0.300000 -0.300000    0.00100000  23 t-inv F
  0.300000  0.000000  0.300000    0.00100000  23 t-inv F
 -0.300000  0.000000 -0.300000    0.00100000  23 t-inv F
 -0.400000 -0.300000  0.000000    0.00100000  24 t-inv F
  0.000000  0.400000  0.300000    0.00100000  24 t-inv F
  0.000000 -0.400000 -0.300000    0.00100000  24 t-inv F
  0.300000  0.000000  0.400000    0.00100000  24 t-inv F
 -0.300000  0.000000 -0.400000    0.00100000  24 t-inv F
  0.300000  0.300000 -0.100000    0.00100000  24 t-inv F
 -0.300000 -0.300000  0.100000    0.00100000  24 t-inv F
  0.400000  0.100000  0.400000    0.00100000  24 t-inv F
 -0.400000 -0.100000 -0.400000    0.00100000  24 t-inv F
  0.300000  0.400000  0.000000    0.00100000  24 t-inv F
 -0.300000 -0.400000  0.000000    0.00100000  24 t-inv F
  0.100000 -0.300000 -0.300000    0.00100000  24 t-inv F
 -0.100000  0.300000  0.300000    0.00100000  24 t-inv F
  0.400000  0.400000  0.100000    0.00100000  24 t-inv F
 -0.400000 -0.400000 -0.100000    0.00100000  24 t-inv F
  0.000000  0.300000  0.400000    0.00100000  24 t-inv F
  0.000000 -0.300000 -0.400000    0.00100000  24 t-inv F
 -0.300000  0.100000 -0.300000    0.00100000  24 t-inv F
  0.300000 -0.100000  0.300000    0.00100000  24 t-inv F
  0.100000  0.400000  0.400000    0.00100000  24 t-inv F
 -0.100000 -0.400000 -0.400000    0.00100000  24 t-inv F
  0.400000  0.000000  0.300000    0.00100000  24 t-inv F
 -0.400000  0.000000 -0.300000    0.00100000  24 t-inv F
 -0.500000 -0.300000  0.000000    0.00100000  25 t-inv F
  0.000000  0.500000  0.300000    0.00100000  25 t-inv F
  0.000000 -0.500000 -0.300000    0.00100000  25 t-inv F
  0.300000  0.000000  0.500000    0.00100000  25 t-inv F
 -0.300000  0.000000 -0.500000    0.00100000  25 t-inv F
  0.300000  0.300000 -0.200000    0.00100000  25 t-inv F
 -0.300000 -0.300000  0.200000    0.00100000  25 t-inv F
  0.500000  0.200000  0.500000    0.00100000  25 t-inv F
 -0.500000 -0.200000 -0.500000    0.00100000  25 t-inv F
  0.300000  0.500000  0.000000    0.00100000  25 t-inv F
 -0.300000 -0.500000  0.000000    0.00100000  25 t-inv F
  0.200000 -0.300000 -0.300000    0.00100000  25 t-inv F
 -0.200000  0.300000  0.300000    0.00100000  25 t-inv F
  0.500000  0.500000  0.200000    0.00100000  25 t-inv F
 -0.500000 -0.500000 -0.200000    0.00100000  25 t-inv F
  0.000000  0.300000  0.500000    0.00100000  25 t-inv F
  0.000000 -0.300000 -0.500000    0.00100000  25 t-inv F
 -0.300000  0.200000 -0.300000    0.00100000  25 t-inv F
  0.300000 -0.200000  0.300000    0.00100000  25 t-inv F
  0.200000  0.500000  0.500000    0.00100000  25 t-inv F
 -0.200000 -0.500000 -0.500000    0.00100000  25 t-inv F
  0.500000  0.000000  0.300000    0.00100000  25 t-inv F
 -0.500000  0.000000 -0.300000    0.00100000  25 t-inv F
  0.400000 -0.300000  0.000000    0.00100000  26 t-inv F
  0.000000 -0.400000  0.300000    0.00100000  26 t-inv F
  0.000000  0.400000 -0.300000    0.00100000  26 t-inv F
  0.300000  0.000000 -0.400000    0.00100000  26 t-inv F
 -0.300000  0.000000  0.400000    0.00100000  26 t-inv F
  0.300000  0.300000  0.700000    0.00100000  26 t-inv F
 -0.300000 -0.300000 -0.700000    0.00100000  26 t-inv F
 -0.400000 -0.700000 -0.400000    0.00100000  26 t-inv F
  0.400000  0.700000  0.400000    0.00100000  26 t-inv F
  0.300000 -0.400000  0.000000    0.00100000  26 t-inv F
 -0.300000  0.400000  0.000000    0.00100000  26 t-inv F
 -0.700000 -0.300000 -0.300000    0.00100000  26 t-inv F
  0.700000  0.300000  0.300000    0.00100000  26 t-inv F
 -0.400000 -0.400000 -0.700000    0.00100000  26 t-inv F
  0.400000  0.400000  0.700000    0.00100000  26 t-inv F
  0.000000  0.300000 -0.400000    0.00100000  26 t-inv F
  0.000000 -0.300000  0.400000    0.00100000  26 t-inv F
 -0.300000 -0.700000 -0.300000    0.00100000  26 t-inv F
  0.300000  0.700000  0.300000    0.00100000  26 t-inv F
 -0.700000 -0.400000 -0.400000    0.00100000  26 t-inv F
  0.700000  0.400000  0.400000    0.00100000  26 t-inv F
 -0.400000  0.000000  0.300000    0.00100000  26 t-inv F
  0.400000  0.000000 -0.300000    0.00100000  26 t-inv F
  0.300000 -0.300000  0.000000    0.00100000  27 t-inv F
  0.000000 -0.300000  0.300000    0.00100000  27 t-inv F
  0.000000  0.300000 -0.300000    0.00100000  27 t-inv F
  0.300000  0.000000 -0.300000    0.00100000  27 t-inv F
 -0.300000  0.000000  0.300000    0.00100000  27 t-inv F
  0.300000  0.300000  0.600000    0.00100000  27 t-inv F
 -0.300000 -0.300000 -0.600000    0.00100000  27 t-inv F
 -0.300000 -0.600000 -0.300000    0.00100000  27 t-inv F
  0.300000  0.600000  0.300000    0.00100000  27 t-inv F
 -0.600000 -0.300000 -0.300000    0.00100000  27 t-inv F
  0.600000  0.300000  0.300000    0.00100000  27 t-inv F
 -0.400000 -0.400000  0.000000    0.00100000  28 t-inv F
  0.000000  0.400000  0.400000    0.00100000  28 t-inv F
  0.000000 -0.400000 -0.400000    0.00100000  28 t-inv F
  0.400000  0.000000  0.400000    0.00100000  28 t-inv F
 -0.400000  0.000000 -0.400000    0.00100000  28 t-inv F
 -0.500000 -0.400000  0.000000    0.00100000  29 t-inv F
  0.000000  0.500000  0.400000    0.00100000  29 t-inv F
  0.000000 -0.500000 -0.400000    0.00100000  29 t-inv F
  0.400000  0.000000  0.500000    0.00100000  29 t-inv F
 -0.400000  0.000000 -0.500000    0.00100000  29 t-inv F
  0.400000  0.400000 -0.100000    0.00100000  29 t-inv F
 -0.400000 -0.400000  0.100000    0.00100000  29 t-inv F
  0.500000  0.100000  0.500000    0.00100000  29 t-inv F
 -0.500000 -0.100000 -0.500000    0.00100000  29 t-inv F
  0.400000  0.500000  0.000000    0.00100000  29 t-inv F
 -0.400000 -0.500000  0.000000    0.00100000  29 t-inv F
  0.100000 -0.400000 -0.400000    0.00100000  29 t-inv F
 -0.100000  0.400000  0.400000    0.00100000  29 t-inv F
  0.500000  0.500000  0.100000    0.00100000  29 t-inv F
 -0.500000 -0.500000 -0.100000    0.00100000  29 t-inv F
  0.000000  0.400000  0.500000    0.00100000  29 t-inv F
  0.000000 -0.400000 -0.500000    0.00100000  29 t-inv F
 -0.400000  0.100000 -0.400000    0.00100000  29 t-inv F
  0.400000 -0.100000  0.400000    0.00100000  29 t-inv F
  0.100000  0.500000  0.500000    0.00100000  29 t-inv F
 -0.100000 -0.500000 -0.500000    0.00100000  29 t-inv F
  0.500000  0.000000  0.400000    0.00100000  29 t-inv F
 -0.500000  0.000000 -0.400000    0.00100000  29 t-inv F
  0.400000 -0.400000  0.000000    0.00100000  30 t-inv F
  0.000000 -0.400000  0.400000    0.00100000  30 t-inv F
  0.000000  0.400000 -0.400000    0.00100000  30 t-inv F
  0.400000  0.000000 -0.400000    0.00100000  30 t-inv F
 -0.400000  0.000000  0.400000    0.00100000  30 t-inv F
  0.400000  0.400000  0.800000    0.00100000  30 t-inv F
 -0.400000 -0.400000 -0.800000    0.00100000  30 t-inv F
 -0.400000 -0.800000 -0.400000    0.00100000  30 t-inv F
  0.400000  0.800000  0.400000    0.00100000  30 t-inv F
 -0.800000 -0.400000 -0.400000    0.00100000  30 t-inv F
  0.800000  0.400000  0.400000    0.00100000  30 t-inv F
  0.000000  0.500000  0.500000    0.00100000  31 t-inv F
  0.500000  0.000000  0.500000    0.00100000  31 t-inv F
 -0.300000 -0.200000 -0.100000    0.00100000  32 t-inv F
  0.100000  0.300000  0.200000    0.00100000  32 t-inv F
 -0.100000 -0.300000 -0.200000    0.00100000  32 t-inv F
  0.200000  0.100000  0.300000    0.00100000  32 t-inv F
 -0.200000 -0.100000 -0.300000    0.00100000  32 t-inv F
  0.200000  0.100000 -0.100000    0.00100000  32 t-inv F
 -0.200000 -0.100000  0.100000    0.00100000  32 t-inv F
  0.300000  0.100000  0.200000    0.00100000  32 t-inv F
 -0.300000 -0.100000 -0.200000    0.00100000  32 t-inv F
  0.100000 -0.200000 -0.100000    0.00100000  32 t-inv F
 -0.100000  0.200000  0.100000    0.00100000  32 t-inv F
  0.100000  0.200000 -0.100000    0.00100000  32 t-inv F
 -0.100000 -0.200000  0.100000    0.00100000  32 t-inv F
  0.100000 -0.100000 -0.200000    0.00100000  32 t-inv F
 -0.100000  0.100000  0.200000    0.00100000  32 t-inv F
  0.200000  0.300000  0.100000    0.00100000  32 t-inv F
 -0.200000 -0.300000 -0.100000    0.00100000  32 t-inv F
 -0.100000  0.100000 -0.200000    0.00100000  32 t-inv F
  0.100000 -0.100000  0.200000    0.00100000  32 t-inv F
 -0.200000  0.100000 -0.100000    0.00100000  32 t-inv F
  0.200000 -0.100000  0.100000    0.00100000  32 t-inv F
  0.100000  0.200000  0.300000    0.00100000  32 t-inv F
 -0.100000 -0.200000 -0.300000    0.00100000  32 t-inv F
 -0.400000 -0.200000 -0.100000    0.00100000  33 t-inv F
  0.100000  0.400000  0.200000    0.00100000  33 t-inv F
 -0.100000 -0.400000 -0.200000    0.00100000  33 t-inv F
  0.200000  0.100000  0.400000    0.00100000  33 t-inv F
 -0.200000 -0.100000 -0.400000    0.00100000  33 t-inv F
  0.200000  0.100000 -0.200000    0.00100000  33 t-inv F
 -0.200000 -0.100000  0.200000    0.00100000  33 t-inv F
  0.400000  0.200000  0.300000    0.00100000  33 t-inv F
 -0.400000 -0.200000 -0.300000    0.00100000  33 t-inv F
  0.100000 -0.300000 -0.100000    0.00100000  33 t-inv F
 -0.100000  0.300000  0.100000    0.00100000  33 t-inv F
  0.100000  0.300000 -0.100000    0.00100000  33 t-inv F
 -0.100000 -0.300000  0.100000    0.00100000  33 t-inv F
  0.200000 -0.100000 -0.200000    0.00100000  33 t-inv F
 -0.200000  0.100000  0.200000    0.00100000  33 t-inv F
 -0.300000 -0.200000 -0.400000    0.00100000  33 t-inv F
  0.300000  0.200000  0.400000    0.00100000  33 t-inv F
  0.300000  0.400000  0.200000    0.00100000  33 t-inv F
 -0.300000 -0.400000 -0.200000    0.00100000  33 t-inv F
 -0.100000  0.100000 -0.300000    0.00100000  33 t-inv F
  0.100000 -0.100000  0.300000    0.00100000  33 t-inv F
 -0.200000  0.200000  0.100000    0.00100000  33 t-inv F
  0.200000 -0.200000 -0.100000    0.00100000  33 t-inv F
 -0.100000  0.100000  0.300000    0.00100000  33 t-inv F
  0.100000 -0.100000 -0.300000    0.00100000  33 t-inv F
 -0.200000  0.200000 -0.100000    0.00100000  33 t-inv F
  0.200000 -0.200000  0.100000    0.00100000  33 t-inv F
 -0.400000 -0.300000 -0.200000    0.00100000  33 t-inv F
  0.400000  0.300000  0.200000    0.00100000  33 t-inv F
  0.200000  0.300000  0.400000    0.00100000  33 t-inv F
 -0.200000 -0.300000 -0.400000    0.00100000  33 t-inv F
 -0.300000 -0.100000  0.100000    0.00100000  33 t-inv F
  0.300000  0.100000 -0.100000    0.00100000  33 t-inv F
  0.100000 -0.200000  0.200000    0.00100000  33 t-inv F
 -0.100000  0.200000 -0.200000    0.00100000  33 t-inv F
  0.300000 -0.100000  0.100000    0.00100000  33 t-inv F
 -0.300000  0.100000 -0.100000    0.00100000  33 t-inv F
 -0.100000 -0.200000  0.200000    0.00100000  33 t-inv F
  0.100000  0.200000 -0.200000    0.00100000  33 t-inv F
 -0.200000 -0.400000 -0.300000    0.00100000  33 t-inv F
  0.200000  0.400000  0.300000    0.00100000  33 t-inv F
 -0.400000 -0.100000 -0.200000    0.00100000  33 t-inv F
  0.400000  0.100000  0.200000    0.00100000  33 t-inv F
 -0.200000 -0.400000 -0.100000    0.00100000  33 t-inv F
  0.200000  0.400000  0.100000    0.00100000  33 t-inv F
 -0.100000 -0.200000 -0.400000    0.00100000  33 t-inv F
  0.100000  0.200000  0.400000    0.00100000  33 t-inv F
 -0.500000 -0.200000 -0.100000    0.00100000  34 t-inv F
  0.100000  0.500000  0.200000    0.00100000  34 t-inv F
 -0.100000 -0.500000 -0.200000    0.00100000  34 t-inv F
  0.200000  0.100000  0.500000    0.00100000  34 t-inv F
 -0.200000 -0.100000 -0.500000    0.00100000  34 t-inv F
  0.200000  0.100000 -0.300000    0.00100000  34 t-inv F
 -0.200000 -0.100000  0.300000    0.00100000  34 t-inv F
  0.500000  0.300000  0.400000    0.00100000  34 t-inv F
 -0.500000 -0.300000 -0.400000    0.00100000  34 t-inv F
  0.100000 -0.400000 -0.100000    0.00100000  34 t-inv F
 -0.100000  0.400000  0.100000    0.00100000  34 t-inv F
  0.100000  0.400000 -0.100000    0.00100000  34 t-inv F
 -0.100000 -0.400000  0.100000    0.00100000  34 t-inv F
  0.300000 -0.100000 -0.200000    0.00100000  34 t-inv F
 -0.300000  0.100000  0.200000    0.00100000  34 t-inv F
 -0.400000 -0.300000 -0.500000    0.00100000  34 t-inv F
  0.400000  0.300000  0.500000    0.00100000  34 t-inv F
  0.400000  0.500000  0.300000    0.00100000  34 t-inv F
 -0.400000 -0.500000 -0.300000    0.00100000  34 t-inv F
 -0.100000  0.100000 -0.400000    0.00100000  34 t-inv F
  0.100000 -0.100000  0.400000    0.00100000  34 t-inv F
 -0.300000  0.200000  0.100000    0.00100000  34 t-inv F
  0.300000 -0.200000 -0.100000    0.00100000  34 t-inv F
 -0.100000  0.100000  0.400000    0.00100000  34 t-inv F
  0.100000 -0.100000 -0.400000    0.00100000  34 t-inv F
 -0.200000  0.300000 -0.100000    0.00100000  34 t-inv F
  0.200000 -0.300000  0.100000    0.00100000  34 t-inv F
 -0.500000 -0.400000 -0.300000    0.00100000  34 t-inv F
  0.500000  0.400000  0.300000    0.00100000  34 t-inv F
  0.300000  0.400000  0.500000    0.00100000  34 t-inv F
 -0.300000 -0.400000 -0.500000    0.00100000  34 t-inv F
 -0.400000 -0.100000  0.100000    0.00100000  34 t-inv F
  0.400000  0.100000 -0.100000    0.00100000  34 t-inv F
  0.100000 -0.300000  0.200000    0.00100000  34 t-inv F
 -0.100000  0.300000 -0.200000    0.00100000  34 t-inv F
  0.400000 -0.100000  0.100000    0.00100000  34 t-inv F
 -0.400000  0.100000 -0.100000    0.00100000  34 t-inv F
 -0.100000 -0.200000  0.300000    0.00100000  34 t-inv F
  0.100000  0.200000 -0.300000    0.00100000  34 t-inv F
 -0.300000 -0.500000 -0.400000    0.00100000  34 t-inv F
  0.300000  0.500000  0.400000    0.00100000  34 t-inv F
 -0.500000 -0.100000 -0.200000    0.00100000  34 t-inv F
  0.500000  0.100000  0.200000    0.00100000  34 t-inv F
 -0.200000 -0.500000 -0.100000    0.00100000  34 t-inv F
  0.200000  0.500000  0.100000    0.00100000  34 t-inv F
 -0.100000 -0.200000 -0.500000    0.00100000  34 t-inv F
  0.100000  0.200000  0.500000    0.00100000  34 t-inv F
  0.400000 -0.200000 -0.100000    0.00100000  35 t-inv F
  0.100000 -0.400000  0.200000    0.00100000  35 t-inv F
 -0.100000  0.400000 -0.200000    0.00100000  35 t-inv F
  0.200000  0.100000 -0.400000    0.00100000  35 t-inv F
 -0.200000 -0.100000  0.400000    0.00100000  35 t-inv F
 -0.400000 -0.600000 -0.500000    0.00100000  35 t-inv F
  0.400000  0.600000  0.500000    0.00100000  35 t-inv F
  0.100000  0.500000 -0.100000    0.00100000  35 t-inv F
 -0.100000 -0.500000  0.100000    0.00100000  35 t-inv F
 -0.600000 -0.100000 -0.200000    0.00100000  35 t-inv F
  0.600000  0.100000  0.200000    0.00100000  35 t-inv F
  0.500000  0.600000  0.400000    0.00100000  35 t-inv F
 -0.500000 -0.600000 -0.400000    0.00100000  35 t-inv F
 -0.100000  0.100000  0.500000    0.00100000  35 t-inv F
  0.100000 -0.100000 -0.500000    0.00100000  35 t-inv F
 -0.200000 -0.600000 -0.100000    0.00100000  35 t-inv F
  0.200000  0.600000  0.100000    0.00100000  35 t-inv F
  0.400000  0.500000  0.600000    0.00100000  35 t-inv F
 -0.400000 -0.500000 -0.600000    0.00100000  35 t-inv F
  0.500000 -0.100000  0.100000    0.00100000  35 t-inv F
 -0.500000  0.100000 -0.100000    0.00100000  35 t-inv F
 -0.100000 -0.200000 -0.600000    0.00100000  35 t-inv F
  0.100000  0.200000  0.600000    0.00100000  35 t-inv F
 -0.400000 -0.300000 -0.100000    0.00100000  36 t-inv F
  0.100000  0.400000  0.300000    0.00100000  36 t-inv F
 -0.100000 -0.400000 -0.300000    0.00100000  36 t-inv F
  0.300000  0.100000  0.400000    0.00100000  36 t-inv F
 -0.300000 -0.100000 -0.400000    0.00100000  36 t-inv F
  0.300000  0.200000 -0.100000    0.00100000  36 t-inv F
 -0.300000 -0.200000  0.100000    0.00100000  36 t-inv F
  0.400000  0.100000  0.300000    0.00100000  36 t-inv F
 -0.400000 -0.100000 -0.300000    0.00100000  36 t-inv F
  0.100000 -0.300000 -0.200000    0.00100000  36 t-inv F
 -0.100000  0.300000  0.200000    0.00100000  36 t-inv F
  0.200000  0.300000 -0.100000    0.00100000  36 t-inv F
 -0.200000 -0.300000  0.100000    0.00100000  36 t-inv F
  0.100000 -0.200000 -0.300000    0.00100000  36 t-inv F
 -0.100000  0.200000  0.300000    0.00100000  36 t-inv F
  0.300000  0.400000  0.100000    0.00100000  36 t-inv F
 -0.300000 -0.400000 -0.100000    0.00100000  36 t-inv F
 -0.200000  0.100000 -0.300000    0.00100000  36 t-inv F
  0.200000 -0.100000  0.300000    0.00100000  36 t-inv F
 -0.300000  0.100000 -0.200000    0.00100000  36 t-inv F
  0.300000 -0.100000  0.200000    0.00100000  36 t-inv F
  0.100000  0.300000  0.400000    0.00100000  36 t-inv F
 -0.100000 -0.300000 -0.400000    0.00100000  36 t-inv F
 -0.500000 -0.300000 -0.100000    0.00100000  37 t-inv F
  0.100000  0.500000  0.300000    0.00100000  37 t-inv F
 -0.100000 -0.500000 -0.300000    0.00100000  37 t-inv F
  0.300000  0.100000  0.500000    0.00100000  37 t-inv F
 -0.300000 -0.100000 -0.500000    0.00100000  37 t-inv F
  0.300000  0.200000 -0.200000    0.00100000  37 t-inv F
 -0.300000 -0.200000  0.200000    0.00100000  37 t-inv F
  0.500000  0.200000  0.400000    0.00100000  37 t-inv F
 -0.500000 -0.200000 -0.400000    0.00100000  37 t-inv F
  0.100000 -0.400000 -0.200000    0.00100000  37 t-inv F
 -0.100000  0.400000  0.200000    0.00100000  37 t-inv F
  0.200000  0.400000 -0.100000    0.00100000  37 t-inv F
 -0.200000 -0.400000  0.100000    0.00100000  37 t-inv F
  0.200000 -0.200000 -0.300000    0.00100000  37 t-inv F
 -0.200000  0.200000  0.300000    0.00100000  37 t-inv F
 -0.400000 -0.200000 -0.500000    0.00100000  37 t-inv F
  0.400000  0.200000  0.500000    0.00100000  37 t-inv F
  0.400000  0.500000  0.200000    0.00100000  37 t-inv F
 -0.400000 -0.500000 -0.200000    0.00100000  37 t-inv F
 -0.200000  0.100000 -0.400000    0.00100000  37 t-inv F
  0.200000 -0.100000  0.400000    0.00100000  37 t-inv F
 -0.200000  0.300000  0.200000    0.00100000  37 t-inv F
  0.200000 -0.300000 -0.200000    0.00100000  37 t-inv F
 -0.100000  0.200000  0.400000    0.00100000  37 t-inv F
  0.100000 -0.200000 -0.400000    0.00100000  37 t-inv F
 -0.300000  0.200000 -0.200000    0.00100000  37 t-inv F
  0.300000 -0.200000  0.200000    0.00100000  37 t-inv F
 -0.500000 -0.400000 -0.200000    0.00100000  37 t-inv F
  0.500000  0.400000  0.200000    0.00100000  37 t-inv F
  0.200000  0.400000  0.500000    0.00100000  37 t-inv F
 -0.200000 -0.400000 -0.500000    0.00100000  37 t-inv F
 -0.400000 -0.200000  0.100000    0.00100000  37 t-inv F
  0.400000  0.200000 -0.100000    0.00100000  37 t-inv F
  0.200000 -0.200000  0.300000    0.00100000  37 t-inv F
 -0.200000  0.200000 -0.300000    0.00100000  37 t-inv F
  0.400000 -0.100000  0.200000    0.00100000  37 t-inv F
 -0.400000  0.100000 -0.200000    0.00100000  37 t-inv F
 -0.200000 -0.300000  0.200000    0.00100000  37 t-inv F
  0.200000  0.300000 -0.200000    0.00100000  37 t-inv F
 -0.200000 -0.500000 -0.400000    0.00100000  37 t-inv F
  0.200000  0.500000  0.400000    0.00100000  37 t-inv F
 -0.500000 -0.100000 -0.300000    0.00100000  37 t-inv F
  0.500000  0.100000  0.300000    0.00100000  37 t-inv F
 -0.300000 -0.500000 -0.100000    0.00100000  37 t-inv F
  0.300000  0.500000  0.100000    0.00100000  37 t-inv F
 -0.100000 -0.300000 -0.500000    0.00100000  37 t-inv F
  0.100000  0.300000  0.500000    0.00100000  37 t-inv F
  0.400000 -0.300000 -0.100000    0.00100000  38 t-inv F
  0.100000 -0.400000  0.300000    0.00100000  38 t-inv F
 -0.100000  0.400000 -0.300000    0.00100000  38 t-inv F
  0.300000  0.100000 -0.400000    0.00100000  38 t-inv F
 -0.300000 -0.100000  0.400000    0.00100000  38 t-inv F
  0.300000  0.200000  0.700000    0.00100000  38 t-inv F
 -0.300000 -0.200000 -0.700000    0.00100000  38 t-inv F
 -0.400000 -0.700000 -0.500000    0.00100000  38 t-inv F
  0.400000  0.700000  0.500000    0.00100000  38 t-inv F
  0.100000  0.500000 -0.200000    0.00100000  38 t-inv F
 -0.100000 -0.500000  0.200000    0.00100000  38 t-inv F
  0.200000 -0.500000 -0.100000    0.00100000  38 t-inv F
 -0.200000  0.500000  0.100000    0.00100000  38 t-inv F
 -0.700000 -0.200000 -0.300000    0.00100000  38 t-inv F
  0.700000  0.200000  0.300000    0.00100000  38 t-inv F
  0.500000  0.700000  0.400000    0.00100000  38 t-inv F
 -0.500000 -0.700000 -0.400000    0.00100000  38 t-inv F
 -0.500000 -0.400000 -0.700000    0.00100000  38 t-inv F
  0.500000  0.400000  0.700000    0.00100000  38 t-inv F
 -0.200000  0.100000  0.500000    0.00100000  38 t-inv F
  0.200000 -0.100000 -0.500000    0.00100000  38 t-inv F
  0.700000  0.300000  0.200000    0.00100000  38 t-inv F
 -0.700000 -0.300000 -0.200000    0.00100000  38 t-inv F
 -0.100000  0.200000 -0.500000    0.00100000  38 t-inv F
  0.100000 -0.200000  0.500000    0.00100000  38 t-inv F
 -0.300000 -0.700000 -0.200000    0.00100000  38 t-inv F
  0.300000  0.700000  0.200000    0.00100000  38 t-inv F
  0.400000  0.500000  0.700000    0.00100000  38 t-inv F
 -0.400000 -0.500000 -0.700000    0.00100000  38 t-inv F
 -0.700000 -0.500000 -0.400000    0.00100000  38 t-inv F
  0.700000  0.500000  0.400000    0.00100000  38 t-inv F
  0.500000 -0.200000  0.100000    0.00100000  38 t-inv F
 -0.500000  0.200000 -0.100000    0.00100000  38 t-inv F
  0.200000  0.700000  0.300000    0.00100000  38 t-inv F
 -0.200000 -0.700000 -0.300000    0.00100000  38 t-inv F
 -0.500000 -0.100000  0.200000    0.00100000  38 t-inv F
  0.500000  0.100000 -0.200000    0.00100000  38 t-inv F
 -0.200000 -0.300000 -0.700000    0.00100000  38 t-inv F
  0.200000  0.300000  0.700000    0.00100000  38 t-inv F
  0.700000  0.400000  0.500000    0.00100000  38 t-inv F
 -0.700000 -0.400000 -0.500000    0.00100000  38 t-inv F
  0.400000 -0.100000 -0.300000    0.00100000  38 t-inv F
 -0.400000  0.100000  0.300000    0.00100000  38 t-inv F
 -0.300000  0.400000 -0.100000    0.00100000  38 t-inv F
  0.300000 -0.400000  0.100000    0.00100000  38 t-inv F
 -0.100000 -0.300000  0.400000    0.00100000  38 t-inv F
  0.100000  0.300000 -0.400000    0.00100000  38 t-inv F
  0.300000 -0.300000 -0.100000    0.00100000  39 t-inv F
  0.100000 -0.300000  0.300000    0.00100000  39 t-inv F
 -0.100000  0.300000 -0.300000    0.00100000  39 t-inv F
  0.300000  0.100000 -0.300000    0.00100000  39 t-inv F
 -0.300000 -0.100000  0.300000    0.00100000  39 t-inv F
  0.300000  0.200000  0.600000    0.00100000  39 t-inv F
 -0.300000 -0.200000 -0.600000    0.00100000  39 t-inv F
 -0.300000 -0.600000 -0.400000    0.00100000  39 t-inv F
  0.300000  0.600000  0.400000    0.00100000  39 t-inv F
  0.100000  0.400000 -0.200000    0.00100000  39 t-inv F
 -0.100000 -0.400000  0.200000    0.00100000  39 t-inv F
  0.200000 -0.400000 -0.100000    0.00100000  39 t-inv F
 -0.200000  0.400000  0.100000    0.00100000  39 t-inv F
 -0.600000 -0.200000 -0.300000    0.00100000  39 t-inv F
  0.600000  0.200000  0.300000    0.00100000  39 t-inv F
  0.400000  0.600000  0.300000    0.00100000  39 t-inv F
 -0.400000 -0.600000 -0.300000    0.00100000  39 t-inv F
 -0.400000 -0.300000 -0.600000    0.00100000  39 t-inv F
  0.400000  0.300000  0.600000    0.00100000  39 t-inv F
 -0.200000  0.100000  0.400000    0.00100000  39 t-inv F
  0.200000 -0.100000 -0.400000    0.00100000  39 t-inv F
  0.600000  0.300000  0.200000    0.00100000  39 t-inv F
 -0.600000 -0.300000 -0.200000    0.00100000  39 t-inv F
 -0.100000  0.200000 -0.400000    0.00100000  39 t-inv F
  0.100000 -0.200000  0.400000    0.00100000  39 t-inv F
 -0.300000 -0.600000 -0.200000    0.00100000  39 t-inv F
  0.300000  0.600000  0.200000    0.00100000  39 t-inv F
  0.300000  0.400000  0.600000    0.00100000  39 t-inv F
 -0.300000 -0.400000 -0.600000    0.00100000  39 t-inv F
 -0.600000 -0.400000 -0.300000    0.00100000  39 t-inv F
  0.600000  0.400000  0.300000    0.00100000  39 t-inv F
  0.400000 -0.200000  0.100000    0.00100000  39 t-inv F
 -0.400000  0.200000 -0.100000    0.00100000  39 t-inv F
  0.200000  0.600000  0.300000    0.00100000  39 t-inv F
 -0.200000 -0.600000 -0.300000    0.00100000  39 t-inv F
 -0.400000 -0.100000  0.200000    0.00100000  39 t-inv F
  0.400000  0.100000 -0.200000    0.00100000  39 t-inv F
 -0.200000 -0.300000 -0.600000    0.00100000  39 t-inv F
  0.200000  0.300000  0.600000    0.00100000  39 t-inv F
  0.600000  0.300000  0.400000    0.00100000  39 t-inv F
 -0.600000 -0.300000 -0.400000    0.00100000  39 t-inv F
  0.300000 -0.100000 -0.300000    0.00100000  39 t-inv F
 -0.300000  0.100000  0.300000    0.00100000  39 t-inv F
 -0.300000  0.300000 -0.100000    0.00100000  39 t-inv F
  0.300000 -0.300000  0.100000    0.00100000  39 t-inv F
 -0.100000 -0.300000  0.300000    0.00100000  39 t-inv F
  0.100000  0.300000 -0.300000    0.00100000  39 t-inv F
  0.200000 -0.300000 -0.100000    0.00100000  40 t-inv F
  0.100000 -0.200000  0.300000    0.00100000  40 t-inv F
 -0.100000  0.200000 -0.300000    0.00100000  40 t-inv F
  0.300000  0.100000 -0.200000    0.00100000  40 t-inv F
 -0.300000 -0.100000  0.200000    0.00100000  40 t-inv F
  0.300000  0.200000  0.500000    0.00100000  40 t-inv F
 -0.300000 -0.200000 -0.500000    0.00100000  40 t-inv F
 -0.200000 -0.500000 -0.300000    0.00100000  40 t-inv F
  0.200000  0.500000  0.300000    0.00100000  40 t-inv F
  0.100000  0.300000 -0.200000    0.00100000  40 t-inv F
 -0.100000 -0.300000  0.200000    0.00100000  40 t-inv F
 -0.500000 -0.200000 -0.300000    0.00100000  40 t-inv F
  0.500000  0.200000  0.300000    0.00100000  40 t-inv F
  0.300000  0.500000  0.200000    0.00100000  40 t-inv F
 -0.300000 -0.500000 -0.200000    0.00100000  40 t-inv F
 -0.200000  0.100000  0.300000    0.00100000  40 t-inv F
  0.200000 -0.100000 -0.300000    0.00100000  40 t-inv F
  0.500000  0.300000  0.200000    0.00100000  40 t-inv F
 -0.500000 -0.300000 -0.200000    0.00100000  40 t-inv F
  0.200000  0.300000  0.500000    0.00100000  40 t-inv F
 -0.200000 -0.300000 -0.500000    0.00100000  40 t-inv F
  0.300000 -0.200000  0.100000    0.00100000  40 t-inv F
 -0.300000  0.200000 -0.100000    0.00100000  40 t-inv F
 -0.500000 -0.400000 -0.100000    0.00100000  41 t-inv F
  0.100000  0.500000  0.400000    0.00100000  41 t-inv F
 -0.100000 -0.500000 -0.400000    0.00100000  41 t-inv F
  0.400000  0.100000  0.500000    0.00100000  41 t-inv F
 -0.400000 -0.100000 -0.500000    0.00100000  41 t-inv F
  0.400000  0.300000 -0.100000    0.00100000  41 t-inv F
 -0.400000 -0.300000  0.100000    0.00100000  41 t-inv F
  0.500000  0.100000  0.400000    0.00100000  41 t-inv F
 -0.500000 -0.100000 -0.400000    0.00100000  41 t-inv F
  0.100000 -0.400000 -0.300000    0.00100000  41 t-inv F
 -0.100000  0.400000  0.300000    0.00100000  41 t-inv F
  0.300000  0.400000 -0.100000    0.00100000  41 t-inv F
 -0.300000 -0.400000  0.100000    0.00100000  41 t-inv F
  0.100000 -0.300000 -0.400000    0.00100000  41 t-inv F
 -0.100000  0.300000  0.400000    0.00100000  41 t-inv F
  0.400000  0.500000  0.100000    0.00100000  41 t-inv F
 -0.400000 -0.500000 -0.100000    0.00100000  41 t-inv F
 -0.300000  0.100000 -0.400000    0.00100000  41 t-inv F
  0.300000 -0.100000  0.400000    0.00100000  41 t-inv F
 -0.400000  0.100000 -0.300000    0.00100000  41 t-inv F
  0.400000 -0.100000  0.300000    0.00100000  41 t-inv F
  0.100000  0.400000  0.500000    0.00100000  41 t-inv F
 -0.100000 -0.400000 -0.500000    0.00100000  41 t-inv F
  0.400000 -0.400000 -0.100000    0.00100000  42 t-inv F
  0.100000 -0.400000  0.400000    0.00100000  42 t-inv F
 -0.100000  0.400000 -0.400000    0.00100000  42 t-inv F
  0.400000  0.100000 -0.400000    0.00100000  42 t-inv F
 -0.400000 -0.100000  0.400000    0.00100000  42 t-inv F
  0.400000  0.300000  0.800000    0.00100000  42 t-inv F
 -0.400000 -0.300000 -0.800000    0.00100000  42 t-inv F
 -0.400000 -0.800000 -0.500000    0.00100000  42 t-inv F
  0.400000  0.800000  0.500000    0.00100000  42 t-inv F
  0.100000  0.500000 -0.300000    0.00100000  42 t-inv F
 -0.100000 -0.500000  0.300000    0.00100000  42 t-inv F
  0.300000 -0.500000 -0.100000    0.00100000  42 t-inv F
 -0.300000  0.500000  0.100000    0.00100000  42 t-inv F
 -0.800000 -0.300000 -0.400000    0.00100000  42 t-inv F
  0.800000  0.300000  0.400000    0.00100000  42 t-inv F
  0.500000  0.800000  0.400000    0.00100000  42 t-inv F
 -0.500000 -0.800000 -0.400000    0.00100000  42 t-inv F
 -0.500000 -0.400000 -0.800000    0.00100000  42 t-inv F
  0.500000  0.400000  0.800000    0.00100000  42 t-inv F
 -0.300000  0.100000  0.500000    0.00100000  42 t-inv F
  0.300000 -0.100000 -0.500000    0.00100000  42 t-inv F
  0.800000  0.400000  0.300000    0.00100000  42 t-inv F
 -0.800000 -0.400000 -0.300000    0.00100000  42 t-inv F
 -0.100000  0.300000 -0.500000    0.00100000  42 t-inv F
  0.100000 -0.300000  0.500000    0.00100000  42 t-inv F
 -0.400000 -0.800000 -0.300000    0.00100000  42 t-inv F
  0.400000  0.800000  0.300000    0.00100000  42 t-inv F
  0.400000  0.500000  0.800000    0.00100000  42 t-inv F
 -0.400000 -0.500000 -0.800000    0.00100000  42 t-inv F
 -0.800000 -0.500000 -0.400000    0.00100000  42 t-inv F
  0.800000  0.500000  0.400000    0.00100000  42 t-inv F
  0.500000 -0.300000  0.100000    0.00100000  42 t-inv F
 -0.500000  0.300000 -0.100000    0.00100000  42 t-inv F
  0.300000  0.800000  0.400000    0.00100000  42 t-inv F
 -0.300000 -0.800000 -0.400000    0.00100000  42 t-inv F
 -0.500000 -0.100000  0.300000    0.00100000  42 t-inv F
  0.500000  0.100000 -0.300000    0.00100000  42 t-inv F
 -0.300000 -0.400000 -0.800000    0.00100000  42 t-inv F
  0.300000  0.400000  0.800000    0.00100000  42 t-inv F
  0.800000  0.400000  0.500000    0.00100000  42 t-inv F
 -0.800000 -0.400000 -0.500000    0.00100000  42 t-inv F
  0.400000 -0.100000 -0.400000    0.00100000  42 t-inv F
 -0.400000  0.100000  0.400000    0.00100000  42 t-inv F
 -0.400000  0.400000 -0.100000    0.00100000  42 t-inv F
  0.400000 -0.400000  0.100000    0.00100000  42 t-inv F
 -0.100000 -0.400000  0.400000    0.00100000  42 t-inv F
  0.100000  0.400000 -0.400000    0.00100000  42 t-inv F
  0.300000 -0.400000 -0.100000    0.00100000  43 t-inv F
  0.100000 -0.300000  0.400000    0.00100000  43 t-inv F
 -0.100000  0.300000 -0.400000    0.00100000  43 t-inv F
  0.400000  0.100000 -0.300000    0.00100000  43 t-inv F
 -0.400000 -0.100000  0.300000    0.00100000  43 t-inv F
  0.400000  0.300000  0.700000    0.00100000  43 t-inv F
 -0.400000 -0.300000 -0.700000    0.00100000  43 t-inv F
[...]
      1      -0.0000      0.00000
      2      -0.0000      0.00000
      3      -0.0000      0.00000
      4      -0.0000      0.00000
      5      -0.0000      0.00000
      6      -0.0000      0.00000
      7      -0.0000      0.00000
      8      -0.0000      0.00000
      9      -0.0000      0.00000
     10       0.0000      0.00000
     11      -0.0000      0.00000
     12      -0.0000      0.00000
     13       0.0000      0.00000
     14      -0.0000      0.00000
     15      -0.0000      0.00000
     16      -0.0000      0.00000

 k-point 102 :       0.0000    0.5000    0.5000
  band No.  band energies     occupation 
      1      -0.0000      0.00000
      2      -0.0000      0.00000
      3      -0.0000      0.00000
      4      -0.0000      0.00000
      5      -0.0000      0.00000
      6      -0.0000      0.00000
      7      -0.0000      0.00000
      8      -0.0000      0.00000
      9       0.0000      0.00000
     10       0.0000      0.00000
     11      -0.0000      0.00000
     12      -0.0000      0.00000
     13      -0.0000      0.00000
     14      -0.0000      0.00000
     15       0.0000      0.00000
     16       0.0000      0.00000


------------------------ aborting loop because EDIFF is reached ----------------------------------------


 FEWALD executed in parallel
    FORLOC:  cpu time    0.0040: real time    0.0008
    FORNL :  cpu time    0.0160: real time    0.0188
    STRESS:  cpu time    0.2960: real time    0.2969
    FORCOR:  cpu time    0.0080: real time    0.0054
    OFIELD:  cpu time    0.0000: real time    0.0000
 FEWALD executed in parallel
    FORLOC:  cpu time    0.0000: real time    0.0005
    FORNL :  cpu time    0.0200: real time    0.0188
    STRESS:  cpu time    0.2960: real time    0.2968
    FORCOR:  cpu time    0.0040: real time    0.0054
    OFIELD:  cpu time    0.0000: real time    0.0000
 FEWALD executed in parallel
    FORLOC:  cpu time    0.0000: real time    0.0005
    FORNL :  cpu time    0.0200: real time    0.0188
    STRESS:  cpu time    0.2960: real time    0.2967
    FORCOR:  cpu time    0.0040: real time    0.0054
    OFIELD:  cpu time    0.0000: real time    0.0000
 FEWALD executed in parallel
    FORLOC:  cpu time    0.0000: real time    0.0005
    FORNL :  cpu time    0.0200: real time    0.0188
    STRESS:  cpu time    0.2960: real time    0.2968
    FORCOR:  cpu time    0.0040: real time    0.0054
    OFIELD:  cpu time    0.0000: real time    0.0000

 INTERNAL STRAIN TENSOR  FOR ION    4  DIRECTION 1   (eV/Angst):
 -----------------------------------------------------------------------------
     0.00013 -0.00000  0.00000
    -0.00000 -0.00017 -0.00000
     0.00000 -0.00000 -0.00017


 POSITION                   FORCE-CONSTANT FOR ION    4 DIRECTION 1 (eV/Angst/Angst)
 -----------------------------------------------------------------------------------
      0.00000      0.00000      0.00000         0.539370      0.000000      0.000000
      5.09850      5.09850      5.09850         0.723603      0.000000      0.000000
      1.69950      1.69950      1.69950         0.723603     -0.000000     -0.000000
      3.39900      3.39900      3.39900        -1.986575      0.000000      0.000000
 -----------------------------------------------------------------------------------
    total drift:                                0.000000      0.000000      0.000000


 BORN EFFECTIVE CHARGE FOR ION    4 DIRECTION 1 :   1.201   0.000  -0.000
                   rigid augmentation           :  -0.012   0.000   0.000
                   ionic contribution           :   1.000   0.000   0.000
                   Berry contribution           :   0.214   0.000  -0.000


--------------------------------------------------------------------------------------------------------


  LATTYP: Found a face centered cubic cell.
 ALAT       =     6.7980000000
  
  Lattice vectors:
  
 A1 = (   0.0000000000,   3.3990000000,   3.3990000000)
 A2 = (   3.3990000000,   0.0000000000,   3.3990000000)
 A3 = (   3.3990000000,   3.3990000000,   0.0000000000)


Analysis of symmetry for initial positions (statically):
=====================================================================
 Subroutine PRICEL returns:
 Original cell was already a primitive cell.
 

 Routine SETGRP: Setting up the symmetry group for a 
 face centered cubic supercell.


 Subroutine GETGRP returns: Found 48 space group operations
 (whereof 48 operations were pure point group operations)
 out of a pool of 48 trial point group operations.


The static configuration has the point symmetry O_h .


Analysis of symmetry for dynamics (positions and initial velocities):
=====================================================================
 Subroutine PRICEL returns:
 Original cell was already a primitive cell.
 

 Routine SETGRP: Setting up the symmetry group for a 
 face centered cubic supercell.


 Subroutine GETGRP returns: Found 48 space group operations
 (whereof 48 operations were pure point group operations)
 out of a pool of 48 trial point group operations.


The dynamic configuration has the point symmetry O_h .


 Subroutine INISYM returns: Found 48 space group operations
 (whereof 48 operations are pure point group operations),
 and found     1 'primitive' translations



--------------------------------------------------------------------------------------------------------




 MACROSCOPIC STATIC DIELECTRIC TENSOR (including local field effects in DFT)
 ------------------------------------------------------
           9.042893     0.000000     0.000000
          -0.000000     9.042893     0.000000
           0.000000     0.000000     9.042893
 ------------------------------------------------------


 PIEZOELECTRIC TENSOR  for field in x, y, z        (e  Angst)
          XX          YY          ZZ          XY          YZ          ZX
  --------------------------------------------------------------------------------
  x     0.00274    -0.00149    -0.00149     0.00000     0.00000     0.00000
  y     0.00048    -0.00150     0.00048     0.00000    -0.00000     0.00000
  z     0.00048     0.00048    -0.00150     0.00000     0.00000    -0.00000

 PIEZOELECTRIC TENSOR  for field in x, y, z        (C/m^2)
          XX          YY          ZZ          XY          YZ          ZX
  --------------------------------------------------------------------------------
  x     0.00000     0.00000     0.00000     0.00000     0.00000     0.00000
  y     0.00000     0.00000     0.00000     0.00000     0.00000     0.00000
  z     0.00000     0.00000     0.00000     0.00000     0.00000     0.00000
 
 BORN EFFECTIVE CHARGES (in e, cummulative output)
 -------------------------------------------------
 ion    1
    1    -2.86828     0.00000    -0.00000
    2     0.00000    -2.86828     0.00000
    3     0.00000     0.00000    -2.86828
 ion    2
    1     0.82999     0.00000     0.00000
    2    -0.00000     0.82999    -0.00000
    3    -0.00000    -0.00000     0.82999
 ion    3
    1     0.82999     0.00000    -0.00000
    2     0.00000     0.82999     0.00000
    3     0.00000     0.00000     0.82999
 ion    4
    1     1.20147     0.00000     0.00000
    2     0.00000     1.20147     0.00000
    3    -0.00000     0.00000     1.20147

 INTERNAL STRAIN TENSOR FOR ION    1 for displacements in x,y,z  (eV/Angst):
          X           Y           Z          XY          YZ          ZX
  --------------------------------------------------------------------------------
  x     0.00000     0.00000     0.00000     0.00000     0.00000     0.00000
  y     0.00000     0.00000     0.00000     0.00000     0.00000     0.00000
  z     0.00000     0.00000     0.00000     0.00000     0.00000     0.00000

 INTERNAL STRAIN TENSOR FOR ION    2 for displacements in x,y,z  (eV/Angst):
          X           Y           Z          XY          YZ          ZX
  --------------------------------------------------------------------------------
  x     0.00000    -0.00000    -0.00000     0.00000    -1.69103    -0.00000
  y     0.00000    -0.00000     0.00000    -0.00000     0.00000    -1.69103
  z     0.00000     0.00000     0.00000    -1.69103    -0.00000     0.00000

 INTERNAL STRAIN TENSOR FOR ION    3 for displacements in x,y,z  (eV/Angst):
          X           Y           Z          XY          YZ          ZX
  --------------------------------------------------------------------------------
  x    -0.00000     0.00000     0.00000     0.00000     1.69103     0.00000
  y    -0.00000     0.00000    -0.00000     0.00000     0.00000     1.69103
  z     0.00000     0.00000    -0.00000     1.69103     0.00000     0.00000

 INTERNAL STRAIN TENSOR FOR ION    4 for displacements in x,y,z  (eV/Angst):
          X           Y           Z          XY          YZ          ZX
  --------------------------------------------------------------------------------
  x     0.00000     0.00000     0.00000     0.00000     0.00000     0.00000
  y     0.00000     0.00000     0.00000     0.00000     0.00000     0.00000
  z     0.00000     0.00000     0.00000     0.00000     0.00000     0.00000


--------------------------------------------------------------------------------------------------------


 
 SECOND DERIVATIVES (NOT SYMMETRIZED)
 ------------------------------------
               1X          1Y          1Z          2X          2Y          2Z          3X          3Y          3Z          4X          4Y          4Z 
  1X    -2.670041    0.000000    0.000000    1.068286    0.000000    0.000000    1.068286    0.000000    0.000000    0.533470    0.000000    0.000000
  1Y     0.000000   -2.670041    0.000000    0.000000    1.068286    0.000000    0.000000    1.068286    0.000000    0.000000    0.533470    0.000000
  1Z     0.000000    0.000000   -2.670041    0.000000    0.000000    1.068286    0.000000    0.000000    1.068286    0.000000    0.000000    0.533470
  2X     1.079679    0.000000    0.000000   -2.031844    0.000000    0.000000    0.228202    0.000000    0.000000    0.723963    0.000000    0.000000
  2Y     0.000000    1.079679    0.000000    0.000000   -2.031844    0.000000    0.000000    0.228202    0.000000    0.000000    0.723963    0.000000
  2Z     0.000000    0.000000    1.079679    0.000000    0.000000   -2.031844    0.000000    0.000000    0.228202    0.000000    0.000000    0.723963
  3X     1.079679    0.000000    0.000000    0.228202    0.000000    0.000000   -2.031844    0.000000    0.000000    0.723963    0.000000    0.000000
  3Y     0.000000    1.079679    0.000000    0.000000    0.228202    0.000000    0.000000   -2.031844    0.000000    0.000000    0.723963    0.000000
  3Z     0.000000    0.000000    1.079679    0.000000    0.000000    0.228202    0.000000    0.000000   -2.031844    0.000000    0.000000    0.723963
  4X     0.539370    0.000000    0.000000    0.723603    0.000000    0.000000    0.723603    0.000000    0.000000   -1.986575    0.000000    0.000000
  4Y     0.000000    0.539370    0.000000    0.000000    0.723603    0.000000    0.000000    0.723603    0.000000    0.000000   -1.986575    0.000000
  4Z     0.000000    0.000000    0.539370    0.000000    0.000000    0.723603    0.000000    0.000000    0.723603    0.000000    0.000000   -1.986575
 
 
 Eigenvectors and eigenvalues of the dynamical matrix
 ----------------------------------------------------
 
 
   1 f  =    8.876675 THz    55.773793 2PiTHz  296.093994 cm-1    36.710990 meV
             X         Y         Z           dx          dy          dz
      0.000000  0.000000  0.000000    -0.000000    0.000000    0.000000  
      5.098500  5.098500  5.098500    -0.428580    0.562422   -0.000000  
      1.699500  1.699500  1.699500     0.428580   -0.562422    0.000000  
      3.399000  3.399000  3.399000    -0.000000    0.000000   -0.000000  
 
   2 f  =    8.876675 THz    55.773793 2PiTHz  296.093994 cm-1    36.710990 meV
             X         Y         Z           dx          dy          dz
      0.000000  0.000000  0.000000     0.000000    0.000000   -0.000000  
      5.098500  5.098500  5.098500    -0.562422   -0.428580    0.000000  
      1.699500  1.699500  1.699500     0.562422    0.428580   -0.000000  
      3.399000  3.399000  3.399000     0.000000    0.000000    0.000000  
 
   3 f  =    8.876675 THz    55.773793 2PiTHz  296.093994 cm-1    36.710990 meV
             X         Y         Z           dx          dy          dz
      0.000000  0.000000  0.000000     0.000000    0.000000   -0.000000  
      5.098500  5.098500  5.098500    -0.000000    0.000000    0.707107  
      1.699500  1.699500  1.699500     0.000000   -0.000000   -0.707107  
      3.399000  3.399000  3.399000     0.000000   -0.000000   -0.000000  
 
   4 f  =    8.514835 THz    53.500283 2PiTHz  284.024299 cm-1    35.214538 meV
             X         Y         Z           dx          dy          dz
      0.000000  0.000000  0.000000    -0.010730    0.161705    0.000000  
      5.098500  5.098500  5.098500     0.043255   -0.651889   -0.000000  
      1.699500  1.699500  1.699500     0.043255   -0.651889    0.000000  
      3.399000  3.399000  3.399000    -0.022942    0.345759    0.000000  
 
   5 f  =    8.514835 THz    53.500283 2PiTHz  284.024299 cm-1    35.214538 meV
             X         Y         Z           dx          dy          dz
      0.000000  0.000000  0.000000     0.000000    0.000000   -0.162061  
      5.098500  5.098500  5.098500     0.000000   -0.000000    0.653323  
      1.699500  1.699500  1.699500     0.000000   -0.000000    0.653323  
      3.399000  3.399000  3.399000     0.000000   -0.000000   -0.346519  
 
   6 f  =    8.514835 THz    53.500283 2PiTHz  284.024299 cm-1    35.214538 meV
             X         Y         Z           dx          dy          dz
      0.000000  0.000000  0.000000     0.161705    0.010730   -0.000000  
      5.098500  5.098500  5.098500    -0.651889   -0.043255   -0.000000  
      1.699500  1.699500  1.699500    -0.651889   -0.043255    0.000000  
      3.399000  3.399000  3.399000     0.345759    0.022942   -0.000000  
 
   7 f  =    4.106010 THz    25.798822 2PiTHz  136.961748 cm-1    16.981099 meV
             X         Y         Z           dx          dy          dz
      0.000000  0.000000  0.000000    -0.434244   -0.121829   -0.039559  
      5.098500  5.098500  5.098500     0.164400    0.046123    0.014977  
      1.699500  1.699500  1.699500     0.164400    0.046123    0.014977  
      3.399000  3.399000  3.399000     0.823002    0.230897    0.074974  
 
   8 f  =    4.106010 THz    25.798822 2PiTHz  136.961748 cm-1    16.981099 meV
             X         Y         Z           dx          dy          dz
      0.000000  0.000000  0.000000     0.030202    0.038495   -0.450090  
      5.098500  5.098500  5.098500    -0.011434   -0.014574    0.170399  
      1.699500  1.699500  1.699500    -0.011434   -0.014574    0.170399  
      3.399000  3.399000  3.399000    -0.057241   -0.072958    0.853035  
 
   9 f  =    4.106010 THz    25.798822 2PiTHz  136.961748 cm-1    16.981099 meV
             X         Y         Z           dx          dy          dz
      0.000000  0.000000  0.000000    -0.124479    0.434339    0.028795  
      5.098500  5.098500  5.098500     0.047126   -0.164436   -0.010901  
      1.699500  1.699500  1.699500     0.047126   -0.164436   -0.010901  
      3.399000  3.399000  3.399000     0.235919   -0.823184   -0.054574  
 
  10 f/i=    0.010849 THz     0.068166 2PiTHz    0.361883 cm-1     0.044868 meV
             X         Y         Z           dx          dy          dz
      0.000000  0.000000  0.000000     0.054130    0.091707   -0.870300  
      5.098500  5.098500  5.098500     0.012919    0.021888   -0.207713  
      1.699500  1.699500  1.699500     0.012919    0.021888   -0.207713  
      3.399000  3.399000  3.399000     0.023399    0.039643   -0.376215  
 
  11 f/i=    0.010849 THz     0.068166 2PiTHz    0.361883 cm-1     0.044868 meV
             X         Y         Z           dx          dy          dz
      0.000000  0.000000  0.000000    -0.755070    0.445680   -0.000000  
      5.098500  5.098500  5.098500    -0.180211    0.106370    0.000000  
      1.699500  1.699500  1.699500    -0.180211    0.106370   -0.000000  
      3.399000  3.399000  3.399000    -0.326403    0.192660   -0.000000  
 
  12 f/i=    0.010849 THz     0.068166 2PiTHz    0.361883 cm-1     0.044868 meV
             X         Y         Z           dx          dy          dz
      0.000000  0.000000  0.000000     0.442381    0.749480    0.106490  
      5.098500  5.098500  5.098500     0.105582    0.178877    0.025416  
      1.699500  1.699500  1.699500     0.105582    0.178877    0.025416  
      3.399000  3.399000  3.399000     0.191234    0.323987    0.046034  
 


--------------------------------------------------------------------------------------------------------




 MACROSCOPIC STATIC DIELECTRIC TENSOR IONIC CONTRIBUTION
 ------------------------------------------------------
           7.561335    -0.000000     0.000000
          -0.000000     7.561323     0.000000
           0.000000     0.000000     7.561328
 ------------------------------------------------------


 ELASTIC MODULI IONIC CONTR (kBar)
 Direction    XX          YY          ZZ          XY          YZ          ZX
 --------------------------------------------------------------------------------
 XX          -0.0000      0.0000      0.0000      0.0000      0.0000      0.0000
 YY           0.0000     -0.0000      0.0000     -0.0000     -0.0000     -0.0000
 ZZ           0.0000      0.0000     -0.0000      0.0000     -0.0000      0.0000
 XY           0.0000     -0.0000      0.0000    -51.6226     -0.0000     -0.0000
 YZ           0.0000     -0.0000     -0.0000      0.0000    -51.6226     -0.0000
 ZX           0.0000     -0.0000      0.0000     -0.0000     -0.0000    -51.6226
 --------------------------------------------------------------------------------


 PIEZOELECTRIC TENSOR IONIC CONTR  for field in x, y, z        (C/m^2)
          XX          YY          ZZ          XY          YZ          ZX
  --------------------------------------------------------------------------------
  x    -0.00000     0.00000    -0.00000     0.00000     0.00000     0.00000
  y     0.00000     0.00000    -0.00000    -0.00000    -0.00000     0.00000
  z     0.00000    -0.00000     0.00000    -0.00000    -0.00000    -0.00000


--------------------------------------------------------------------------------------------------------


     LOOP+:  cpu time   81.1011: real time   81.6651
    4ORBIT:  cpu time    0.0000: real time    0.0000
 


 total charge     
 
# of ion     s       p       d       tot
----------------------------------------
  1        1.106   1.417   0.005   2.528
  2        0.093   0.147   0.000   0.240
  3        0.093   0.147   0.000   0.240
  4        0.076   0.050   0.000   0.126
------------------------------------------------
tot        1.367   1.761   0.005   3.134
 

 total amount of memory used by VASP on root node    37816. kBytes
========================================================================

   base      :      30000. kBytes
   nonl-proj :       6126. kBytes
   fftplans  :        304. kBytes
   grid      :       1018. kBytes
   one-center:         32. kBytes
   wavefun   :        336. kBytes
 
  
  
 General timing and accounting informations for this job:
 ========================================================
  
                  Total CPU time used (sec):       82.017
                            User time (sec):       81.841
                          System time (sec):        0.176
                         Elapsed time (sec):       82.700
  
                   Maximum memory used (kb):       66196.
                   Average memory used (kb):           0.
  
                          Minor page faults:        23180
                          Major page faults:            7
                 Voluntary context switches:         1581
