 vasp.5.4.4.18Apr17-6-g9f103f2a35 (build Apr 25 2017 10:43:04) complex          
  
 executed on             LinuxIFC date 2019.08.29  09:17:41
 running on   36 total cores
 distrk:  each k-point on   36 cores,    1 groups
 distr:  one band on NCORES_PER_BAND=   1 cores,   36 groups


--------------------------------------------------------------------------------------------------------


 INCAR:
 POTCAR:    PAW_PBE Mg 13Apr2007                  
 POTCAR:    PAW_PBE O 08Apr2002                   

 ----------------------------------------------------------------------------- 
|                                                                             |
|           W    W    AA    RRRRR   N    N  II  N    N   GGGG   !!!           |
|           W    W   A  A   R    R  NN   N  II  NN   N  G    G  !!!           |
|           W    W  A    A  R    R  N N  N  II  N N  N  G       !!!           |
|           W WW W  AAAAAA  RRRRR   N  N N  II  N  N N  G  GGG   !            |
|           WW  WW  A    A  R   R   N   NN  II  N   NN  G    G                |
|           W    W  A    A  R    R  N    N  II  N    N   GGGG   !!!           |
|                                                                             |
|      For optimal performance we recommend to set                            |
|        NCORE= 4 - approx SQRT( number of cores)                             |
|      NCORE specifies how many cores store one orbital (NPAR=cpu/NCORE).     |
|      This setting can  greatly improve the performance of VASP for DFT.     |
|      The default,   NCORE=1            might be grossly inefficient         |
|      on modern multi-core architectures or massively parallel machines.     |
|      Do your own testing !!!!                                               |
|      Unfortunately you need to use the default for GW and RPA calculations. |
|      (for HF NCORE is supported but not extensively tested yet)             |
|                                                                             |
 ----------------------------------------------------------------------------- 

 POTCAR:    PAW_PBE Mg 13Apr2007                  
   VRHFIN =Mg: s2p0                                                             
   LEXCH  = PE                                                                  
   EATOM  =    23.0369 eV,    1.6932 Ry                                         
                                                                                
   TITEL  = PAW_PBE Mg 13Apr2007                                                
   LULTRA =        F    use ultrasoft PP ?                                      
   IUNSCR =        1    unscreen: 0-lin 1-nonlin 2-no                           
   RPACOR =    1.500    partial core radius                                     
   POMASS =   24.305; ZVAL   =    2.000    mass and valenz                      
   RCORE  =    2.000    outmost cutoff radius                                   
   RWIGS  =    2.880; RWIGS  =    1.524    wigner-seitz radius (au A)           
   ENMAX  =  200.000; ENMIN  =  100.000 eV                                      
   RCLOC  =    1.506    cutoff for local pot                                    
   LCOR   =        T    correct aug charges                                     
   LPAW   =        T    paw PP                                                  
   EAUG   =  454.734                                                            
   DEXC   =    0.000                                                            
   RMAX   =    2.045    core radius for proj-oper                               
   RAUG   =    1.300    factor for augmentation sphere                          
   RDEP   =    2.025    radius for radial grids                                 
   RDEPT  =    1.942    core radius for aug-charge                              
                                                                                
   Atomic configuration                                                         
    6 entries                                                                   
     n  l   j            E        occ.                                          
     1  0  0.50     -1259.6230   2.0000                                         
     2  0  0.50       -79.8442   2.0000                                         
     2  1  1.50       -46.6121   6.0000                                         
     3  0  0.50        -4.7055   2.0000                                         
     3  1  0.50        -1.3660   0.0000                                         
     3  2  1.50        -1.3606   0.0000                                         
   Description                                                                  
     l       E           TYP  RCUT    TYP  RCUT                                 
     0     -4.7054661     23  2.000                                             
     0     27.2116520     23  2.000                                             
     1      1.3605826     23  2.000                                             
     1     27.2116520     23  2.000                                             
     2     -1.3605826     23  2.000                                             
  local pseudopotential read in
  partial core-charges read in
  partial kinetic energy density read in
  atomic valenz-charges read in
  non local Contribution for L=           0  read in
    real space projection operators read in
  non local Contribution for L=           0  read in
    real space projection operators read in
  non local Contribution for L=           1  read in
    real space projection operators read in
  non local Contribution for L=           1  read in
    real space projection operators read in
  non local Contribution for L=           2  read in
    real space projection operators read in
    PAW grid and wavefunctions read in
 
   number of l-projection  operators is LMAX  =           5
   number of lm-projection operators is LMMAX =          13
 
 POTCAR:    PAW_PBE O 08Apr2002                   
   VRHFIN =O: s2p4                                                              
   LEXCH  = PE                                                                  
   EATOM  =   432.3788 eV,   31.7789 Ry                                         
                                                                                
   TITEL  = PAW_PBE O 08Apr2002                                                 
   LULTRA =        F    use ultrasoft PP ?                                      
   IUNSCR =        1    unscreen: 0-lin 1-nonlin 2-no                           
   RPACOR =    1.200    partial core radius                                     
   POMASS =   16.000; ZVAL   =    6.000    mass and valenz                      
   RCORE  =    1.520    outmost cutoff radius                                   
   RWIGS  =    1.550; RWIGS  =    0.820    wigner-seitz radius (au A)           
   ENMAX  =  400.000; ENMIN  =  300.000 eV                                      
   ICORE  =        2    local potential                                         
   LCOR   =        T    correct aug charges                                     
   LPAW   =        T    paw PP                                                  
   EAUG   =  605.392                                                            
   DEXC   =    0.000                                                            
   RMAX   =    1.553    core radius for proj-oper                               
   RAUG   =    1.300    factor for augmentation sphere                          
   RDEP   =    1.550    radius for radial grids                                 
   RDEPT  =    1.329    core radius for aug-charge                              
                                                                                
   Atomic configuration                                                         
    4 entries                                                                   
     n  l   j            E        occ.                                          
     1  0  0.50      -514.6923   2.0000                                         
     2  0  0.50       -23.9615   2.0000                                         
     2  1  0.50        -9.0305   4.0000                                         
     3  2  1.50        -9.5241   0.0000                                         
   Description                                                                  
     l       E           TYP  RCUT    TYP  RCUT                                 
     0    -23.9615318     23  1.200                                             
     0     -9.5240782     23  1.200                                             
     1     -9.0304911     23  1.520                                             
     1      8.1634956     23  1.520                                             
     2     -9.5240782      7  1.500                                             
  local pseudopotential read in
  partial core-charges read in
  partial kinetic energy density read in
  kinetic energy density of atom read in
  atomic valenz-charges read in
  non local Contribution for L=           0  read in
    real space projection operators read in
  non local Contribution for L=           0  read in
    real space projection operators read in
  non local Contribution for L=           1  read in
    real space projection operators read in
  non local Contribution for L=           1  read in
    real space projection operators read in
    PAW grid and wavefunctions read in
 
   number of l-projection  operators is LMAX  =           4
   number of lm-projection operators is LMMAX =           8
 
 Optimization of the real space projectors (new method)

 maximal supplied QI-value         = 18.90
 optimisation between [QCUT,QGAM] = [ 10.20, 20.41] = [ 29.16,116.64] Ry 
 Optimized for a Real-space Cutoff    1.30 Angstroem

   l    n(q)    QCUT    max X(q) W(low)/X(q) W(high)/X(q)  e(spline) 
   0      8    10.205    28.265    0.22E-03    0.17E-03    0.53E-07
   0      8    10.205    10.429    0.17E-03    0.15E-03    0.43E-07
   1      7    10.205    13.073    0.71E-04    0.41E-03    0.76E-07
   1      7    10.205     9.625    0.71E-04    0.33E-03    0.63E-07
   2      7    10.205     4.652    0.24E-03    0.41E-03    0.55E-07
 Optimization of the real space projectors (new method)

 maximal supplied QI-value         = 24.76
 optimisation between [QCUT,QGAM] = [ 10.15, 20.30] = [ 28.85,115.39] Ry 
 Optimized for a Real-space Cutoff    1.38 Angstroem

   l    n(q)    QCUT    max X(q) W(low)/X(q) W(high)/X(q)  e(spline) 
   0      8    10.150    20.381    0.22E-03    0.32E-03    0.29E-06
   0      8    10.150    15.268    0.23E-03    0.35E-03    0.30E-06
   1      8    10.150     5.964    0.46E-03    0.53E-03    0.21E-06
   1      8    10.150     5.382    0.38E-03    0.45E-03    0.19E-06

 ----------------------------------------------------------------------------- 
|                                                                             |
|  ADVICE TO THIS USER RUNNING 'VASP/VAMP'   (HEAR YOUR MASTER'S VOICE ...):  |
|                                                                             |
|      You enforced a specific xc-type in the INCAR file,                     |
|      a different type was found on the POTCAR file                          |
|          I HOPE YOU KNOW, WHAT YOU ARE  DOING                               |
|                                                                             |
 ----------------------------------------------------------------------------- 

  PAW_PBE Mg 13Apr2007                  :
 energy of atom  1       EATOM=  -23.0369
 kinetic energy error for atom=    0.0001 (will be added to EATOM!!)
  PAW_PBE O 08Apr2002                   :
 energy of atom  2       EATOM= -432.3788
 kinetic energy error for atom=    0.1156 (will be added to EATOM!!)
 
 
 POSCAR: Mg32 O33                                
  positions in direct lattice
  velocities in cartesian coordinates
 exchange correlation table for  LEXCH =       14
   RHO(1)=    0.500       N(1)  =     2000
   RHO(2)=  100.500       N(2)  =     4000
 


--------------------------------------------------------------------------------------------------------


 ion  position               nearest neighbor table
   1  0.999  0.999  0.999-  33 1.84  38 2.11  51 2.11  60 2.11  34 2.41  58 2.41  50 2.41  22 2.97
                            31 2.97  12 2.97  25 3.00  17 3.00   9 3.00  10 3.02  11 3.02  27 3.02
   2  0.997  0.997  0.504-  50 1.90  51 2.06  39 2.13  61 2.13  59 2.14  35 2.14  32 2.93  22 2.93
                            12 2.93  10 2.97  18 2.97  30 2.98  28 2.98  11 2.98  21 2.98   9 3.02
   3  0.997  0.504  0.997-  58 1.90  60 2.06  40 2.13  53 2.13  52 2.14  36 2.14  24 2.93  12 2.93
                            31 2.93  27 2.97  11 2.97  23 2.98  20 2.98  29 2.98  10 2.98  25 3.02
   4  0.001  0.501  0.501-  53 2.05  61 2.05  37 2.10  59 2.10  52 2.10  41 2.11  10 2.93  11 2.93
                            20 2.96  28 2.96  12 2.96   9 2.97  26 2.98  19 2.98  24 2.98  32 2.98
   5  0.504  0.997  0.997-  34 1.90  38 2.06  55 2.13  64 2.13  62 2.14  54 2.14  16 2.93  22 2.93
                            31 2.93  29 2.97  21 2.97  15 2.98  14 2.98  18 2.98  27 2.98  25 3.02
   6  0.501  0.001  0.501-  55 2.05  39 2.05  63 2.10  35 2.10  54 2.10  65 2.11  18 2.93  21 2.93
                            14 2.96  30 2.96  22 2.96  17 2.97  26 2.98  13 2.98  16 2.98  32 2.98
   7  0.501  0.501  0.001-  40 2.05  64 2.05  56 2.10  62 2.10  36 2.10  57 2.11  27 2.93  29 2.93
                            15 2.96  23 2.96  31 2.96  25 2.97  19 2.98  13 2.98  16 2.98  24 2.98
   8  0.499  0.499  0.499-  37 2.10  56 2.10  63 2.10  57 2.11  41 2.11  65 2.11  13 2.93  19 2.93
                            26 2.93  23 2.98  15 2.98  14 2.98  20 2.98  28 2.98  30 2.98  24 2.99
   9  0.999  0.251  0.251-  33 1.84  46 2.11  52 2.11  59 2.11  42 2.41  58 2.41  50 2.41  23 2.97
                            30 2.97   4 2.97  25 3.00  17 3.00   1 3.00   2 3.02   3 3.02  26 3.02
  10  0.997  0.253  0.746-  58 1.90  59 2.06  47 2.13  53 2.13  51 2.14  43 2.14  24 2.93   4 2.93
                            30 2.93  26 2.97   2 2.97  22 2.98  20 2.98  29 2.98   3 2.98  25 3.02
  11  0.997  0.746  0.253-  50 1.90  52 2.06  48 2.13  61 2.13  60 2.14  44 2.14  32 2.93  23 2.93
                             4 2.93   3 2.97  19 2.97  31 2.98  28 2.98   2 2.98  21 2.98   1 3.02
  12  0.001  0.749  0.749-  61 2.05  53 2.05  45 2.10  60 2.10  51 2.10  49 2.11   2 2.93   3 2.93
                            20 2.96  28 2.96   4 2.96   1 2.97  27 2.98  18 2.98  32 2.98  24 2.98
  13  0.504  0.253  0.253-  42 1.90  46 2.06  56 2.13  63 2.13  62 2.14  54 2.14   8 2.93  23 2.93
                            30 2.93  29 2.97  21 2.97   7 2.98   6 2.98  19 2.98  26 2.98  25 3.02
  14  0.501  0.249  0.749-  63 2.05  47 2.05  55 2.10  62 2.10  43 2.10  57 2.11  26 2.93  29 2.93
                             6 2.96  22 2.96  30 2.96  25 2.97  18 2.98   5 2.98   8 2.98  24 2.98
  15  0.501  0.749  0.249-  48 2.05  56 2.05  64 2.10  44 2.10  54 2.10  65 2.11  19 2.93  21 2.93
                             7 2.96  31 2.96  23 2.96  17 2.97  27 2.98   5 2.98   8 2.98  32 2.98
  16  0.499  0.751  0.751-  45 2.10  55 2.10  64 2.10  57 2.11  49 2.11  65 2.11   5 2.93  18 2.93
                            27 2.93  28 2.98  31 2.98   6 2.98   7 2.98  22 2.98  20 2.98  24 2.99
  17  0.251  0.999  0.251-  33 1.84  35 2.11  44 2.11  54 2.11  34 2.41  50 2.41  42 2.41  15 2.97
                            28 2.97   6 2.97  25 3.00   9 3.00   1 3.00   2 3.02   5 3.02  26 3.02
  18  0.253  0.997  0.746-  34 1.90  35 2.06  45 2.13  55 2.13  51 2.14  43 2.14  16 2.93   6 2.93
                            28 2.93  26 2.97   2 2.97  14 2.98  12 2.98  27 2.98   5 2.98  25 3.02
  19  0.253  0.504  0.253-  42 1.90  44 2.06  37 2.13  56 2.13  52 2.14  36 2.14   8 2.93  15 2.93
                            28 2.93  27 2.97  11 2.97   7 2.98   4 2.98  13 2.98  26 2.98  25 3.02
  20  0.249  0.501  0.749-  37 2.05  45 2.05  53 2.10  36 2.10  43 2.10  57 2.11  26 2.93  27 2.93
                             4 2.96  12 2.96  28 2.96  25 2.97  10 2.98   3 2.98   8 2.98  16 2.98
  21  0.746  0.997  0.253-  50 1.90  54 2.06  39 2.13  48 2.13  46 2.14  38 2.14  32 2.93  15 2.93
                             6 2.93   5 2.97  13 2.97  31 2.98  30 2.98  11 2.98   2 2.98   1 3.02
  22  0.749  0.001  0.749-  39 2.05  55 2.05  47 2.10  51 2.10  38 2.10  49 2.11   2 2.93   5 2.93
                            14 2.96  30 2.96   6 2.96   1 2.97  29 2.98  10 2.98  32 2.98  16 2.98
  23  0.749  0.501  0.249-  48 2.05  56 2.05  40 2.10  52 2.10  46 2.10  41 2.11  11 2.93  13 2.93
                             7 2.96  31 2.96  15 2.96   9 2.97  29 2.98   3 2.98   8 2.98  32 2.98
  24  0.751  0.499  0.751-  40 2.10  47 2.10  53 2.10  49 2.11  41 2.11  57 2.11   3 2.93  10 2.93
                            29 2.93  30 2.98  31 2.98   4 2.98   7 2.98  14 2.98  12 2.98  16 2.99
  25  0.251  0.251  0.999-  33 1.84  36 2.11  43 2.11  62 2.11  34 2.41  58 2.41  42 2.41  14 2.97
                            20 2.97   7 2.97  17 3.00   9 3.00   1 3.00   3 3.02   5 3.02  18 3.02
  26  0.253  0.253  0.504-  42 1.90  43 2.06  37 2.13  63 2.13  59 2.14  35 2.14   8 2.93  14 2.93
                            20 2.93  18 2.97  10 2.97   6 2.98   4 2.98  19 2.98  13 2.98  17 3.02
  27  0.253  0.746  0.997-  34 1.90  36 2.06  45 2.13  64 2.13  60 2.14  44 2.14  16 2.93   7 2.93
                            20 2.93  19 2.97   3 2.97  15 2.98  12 2.98   5 2.98  18 2.98  17 3.02
  28  0.249  0.749  0.501-  45 2.05  37 2.05  61 2.10  35 2.10  44 2.10  65 2.11  18 2.93  19 2.93
                             4 2.96  12 2.96  20 2.96  17 2.97  11 2.98   2 2.98  16 2.98   8 2.98
  29  0.746  0.253  0.997-  58 1.90  62 2.06  40 2.13  47 2.13  46 2.14  38 2.14  24 2.93  14 2.93
                             7 2.93   5 2.97  13 2.97  23 2.98  22 2.98  10 2.98   3 2.98   1 3.02
  30  0.749  0.249  0.501-  47 2.05  63 2.05  39 2.10  59 2.10  46 2.10  41 2.11  10 2.93  13 2.93
                             6 2.96  22 2.96  14 2.96   9 2.97  21 2.98   2 2.98  24 2.98   8 2.98
  31  0.749  0.749  0.001-  40 2.05  64 2.05  48 2.10  60 2.10  38 2.10  49 2.11   3 2.93   5 2.93
                            15 2.96  23 2.96   7 2.96   1 2.97  21 2.98  11 2.98  16 2.98  24 2.98
  32  0.751  0.751  0.499-  39 2.10  48 2.10  61 2.10  49 2.11  41 2.11  65 2.11   2 2.93  11 2.93
                            21 2.93  22 2.98  23 2.98  15 2.98  12 2.98   4 2.98   6 2.98  16 2.99
  33  0.125  0.125  0.125-   1 1.84   9 1.84  17 1.84  25 1.84
  34  0.282  0.968  0.968-   5 1.90  18 1.90  27 1.90   1 2.41  25 2.41  17 2.41
  35  0.251  0.999  0.501-  18 2.06   6 2.10  28 2.10  17 2.11  26 2.14   2 2.14
  36  0.251  0.501  0.999-  27 2.06  20 2.10   7 2.10  25 2.11  19 2.14   3 2.14
  37  0.250  0.506  0.506-  20 2.05  28 2.05   8 2.10   4 2.10  26 2.13  19 2.13
  38  0.749  0.999  0.999-   5 2.06  22 2.10  31 2.10   1 2.11  29 2.14  21 2.14
  39  0.744  1.000  0.506-  22 2.05   6 2.05  32 2.10  30 2.10  21 2.13   2 2.13
  40  0.744  0.506  1.000-   7 2.05  31 2.05  24 2.10  23 2.10  29 2.13   3 2.13
  41  0.750  0.500  0.500-   8 2.11  24 2.11  32 2.11   4 2.11  30 2.11  23 2.11
  42  0.282  0.282  0.282-  13 1.90  19 1.90  26 1.90   9 2.41  25 2.41  17 2.41
  43  0.251  0.251  0.749-  26 2.06  20 2.10  14 2.10  25 2.11  18 2.14  10 2.14
  44  0.251  0.749  0.251-  19 2.06  15 2.10  28 2.10  17 2.11  27 2.14  11 2.14
  45  0.250  0.744  0.744-  28 2.05  20 2.05  16 2.10  12 2.10  27 2.13  18 2.13
  46  0.749  0.251  0.251-  13 2.06  23 2.10  30 2.10   9 2.11  29 2.14  21 2.14
  47  0.744  0.250  0.744-  30 2.05  14 2.05  24 2.10  22 2.10  29 2.13  10 2.13
  48  0.744  0.744  0.250-  15 2.05  23 2.05  32 2.10  31 2.10  21 2.13  11 2.13
  49  0.750  0.750  0.750-  16 2.11  24 2.11  32 2.11  12 2.11  31 2.11  22 2.11
  50  0.968  0.968  0.282-   2 1.90  11 1.90  21 1.90   1 2.41  17 2.41   9 2.41
  51  0.999  0.999  0.749-   2 2.06  12 2.10  22 2.10   1 2.11  18 2.14  10 2.14
  52  0.999  0.501  0.251-  11 2.06   4 2.10  23 2.10   9 2.11  19 2.14   3 2.14
  53  1.000  0.506  0.744-   4 2.05  12 2.05  24 2.10  20 2.10  10 2.13   3 2.13
  54  0.501  0.999  0.251-  21 2.06  15 2.10   6 2.10  17 2.11  13 2.14   5 2.14
  55  0.506  1.000  0.744-   6 2.05  22 2.05  16 2.10  14 2.10  18 2.13   5 2.13
  56  0.506  0.506  0.250-  15 2.05  23 2.05   8 2.10   7 2.10  19 2.13  13 2.13
  57  0.500  0.500  0.750-   8 2.11  16 2.11  24 2.11   7 2.11  20 2.11  14 2.11
  58  0.968  0.282  0.968-   3 1.90  10 1.90  29 1.90   1 2.41  25 2.41   9 2.41
  59  0.999  0.251  0.501-  10 2.06   4 2.10  30 2.10   9 2.11  26 2.14   2 2.14
  60  0.999  0.749  0.999-   3 2.06  12 2.10  31 2.10   1 2.11  27 2.14  11 2.14
  61  1.000  0.744  0.506-  12 2.05   4 2.05  32 2.10  28 2.10  11 2.13   2 2.13
  62  0.501  0.251  0.999-  29 2.06  14 2.10   7 2.10  25 2.11  13 2.14   5 2.14
  63  0.506  0.250  0.506-  14 2.05  30 2.05   8 2.10   6 2.10  26 2.13  13 2.13
  64  0.506  0.744  1.000-   7 2.05  31 2.05  16 2.10  15 2.10  27 2.13   5 2.13
  65  0.500  0.750  0.500-   8 2.11  16 2.11  32 2.11   6 2.11  28 2.11  15 2.11
 
  LATTYP: Found a simple cubic cell.
 ALAT       =     8.4194560000
  
  Lattice vectors:
  
 A1 = (   8.4194560000,   0.0000000000,   0.0000000000)
 A2 = (   0.0000000000,   8.4194560000,   0.0000000000)
 A3 = (   0.0000000000,   0.0000000000,   8.4194560000)


Analysis of symmetry for initial positions (statically):
=====================================================================
 Subroutine PRICEL returns:
 Original cell was already a primitive cell.
 

 Routine SETGRP: Setting up the symmetry group for a 
 simple cubic supercell.


 Subroutine GETGRP returns: Found 24 space group operations
 (whereof  6 operations were pure point group operations)
 out of a pool of 48 trial point group operations.


The static configuration has the point symmetry C_3v.
 The point group associated with its full space group is T_d .


Analysis of symmetry for dynamics (positions and initial velocities):
=====================================================================
 Subroutine PRICEL returns:
 Original cell was already a primitive cell.
 

 Routine SETGRP: Setting up the symmetry group for a 
 simple cubic supercell.


 Subroutine GETGRP returns: Found 24 space group operations
 (whereof  6 operations were pure point group operations)
 out of a pool of 48 trial point group operations.


The dynamic configuration has the point symmetry C_3v.
 The point group associated with its full space group is T_d .


Analysis of structural, dynamic, and magnetic symmetry:
=====================================================================
 Subroutine PRICEL returns:
 Original cell was already a primitive cell.
 

 Routine SETGRP: Setting up the symmetry group for a 
 simple cubic supercell.


 Subroutine GETGRP returns: Found 24 space group operations
 (whereof  6 operations were pure point group operations)
 out of a pool of 48 trial point group operations.


The magnetic configuration has the point symmetry C_3v.
 The point group associated with its full space group is T_d .


 Subroutine INISYM returns: Found 24 space group operations
 (whereof  6 operations are pure point group operations),
 and found     1 'primitive' translations

 
 
 KPOINTS: mode: manual_set, kpt density: 2, factor

Automatic generation of k-mesh.
Space group operators:
 irot       det(A)        alpha          n_x          n_y          n_z        tau_x        tau_y        tau_z
    1     1.000000     0.000001     1.000000     0.000000     0.000000     0.000000     0.000000     0.000000
    2     1.000000   120.000000    -0.577350    -0.577350    -0.577350     0.000000     0.000000     0.000000
    3     1.000000   120.000000     0.577350     0.577350     0.577350     0.000000     0.000000     0.000000
    4    -1.000000   180.000000     0.000000    -0.707107     0.707107     0.000000     0.000000     0.000000
    5    -1.000000   180.000000     0.707107    -0.707107     0.000000     0.000000     0.000000     0.000000
    6    -1.000000   180.000000     0.707107     0.000000    -0.707107     0.000000     0.000000     0.000000
    7    -1.000000    90.000000     0.000000     0.000000    -1.000000     0.000000     0.250000     0.250000
    8    -1.000000   180.000000     0.000000     0.707107     0.707107     0.000000     0.250000     0.250000
    9    -1.000000    90.000000     0.000000     1.000000     0.000000     0.000000     0.250000     0.250000
   10     1.000000   180.000000     0.000000     0.000000     1.000000     0.250000     0.250000     0.000000
   11     1.000000   120.000000    -0.577350     0.577350     0.577350     0.250000     0.250000     0.000000
   12     1.000000   120.000000    -0.577350     0.577350    -0.577350     0.250000     0.250000     0.000000
   13    -1.000000    90.000000     0.000000     0.000000     1.000000     0.250000     0.000000     0.250000
   14    -1.000000    90.000000    -1.000000     0.000000     0.000000     0.250000     0.000000     0.250000
   15    -1.000000   180.000000     0.707107     0.000000     0.707107     0.250000     0.000000     0.250000
   16     1.000000   120.000000     0.577350    -0.577350     0.577350     0.000000     0.250000     0.250000
   17     1.000000   120.000000    -0.577350    -0.577350     0.577350     0.000000     0.250000     0.250000
   18     1.000000   180.000000     1.000000     0.000000     0.000000     0.000000     0.250000     0.250000
   19    -1.000000    90.000000     0.000000    -1.000000     0.000000     0.250000     0.250000     0.000000
   20    -1.000000   180.000000     0.707107     0.707107     0.000000     0.250000     0.250000     0.000000
   21    -1.000000    90.000000     1.000000     0.000000     0.000000     0.250000     0.250000     0.000000
   22     1.000000   120.000000     0.577350    -0.577350    -0.577350     0.250000     0.000000     0.250000
   23     1.000000   180.000000     0.000000     1.000000     0.000000     0.250000     0.000000     0.250000
   24     1.000000   120.000000     0.577350     0.577350    -0.577350     0.250000     0.000000     0.250000
 
 Subroutine IBZKPT returns following result:
 ===========================================
 
 Found      1 irreducible k-points:
 
 Following reciprocal coordinates:
            Coordinates               Weight
  0.250000  0.250000  0.250000      8.000000
 
 Following cartesian coordinates:
            Coordinates               Weight
  0.029693  0.029693  0.029693      8.000000
 


--------------------------------------------------------------------------------------------------------




 Dimension of arrays:
   k-points           NKPTS =      1   k-points in BZ     NKDIM =      1   number of bands    NBANDS=    216
   number of dos      NEDOS =    301   number of ions     NIONS =     65
   non local maximal  LDIM  =      5   non local SUM 2l+1 LMDIM =     13
   total plane-waves  NPLWV =  74088
   max r-space proj   IRMAX =   1418   max aug-charges    IRDMAX=   5472
   dimension x,y,z NGX =    42 NGY =   42 NGZ =   42
   dimension x,y,z NGXF=    84 NGYF=   84 NGZF=   84
   support grid    NGXF=    84 NGYF=   84 NGZF=   84
   ions per type =              32  33
   NGX,Y,Z   is equivalent  to a cutoff of   8.29,  8.29,  8.29 a.u.
   NGXF,Y,Z  is equivalent  to a cutoff of  16.59, 16.59, 16.59 a.u.

 SYSTEM =  unknown system                          
 POSCAR =  Mg32 O33                                

 Startparameter for this run:
   NWRITE =      2    write-flag & timer
   PREC   = n         normal or accurate (medium, high low for compatibility)
   ISTART =      1    job   : 0-new  1-cont  2-samecut
   ICHARG =      0    charge: 1-file 2-atom 10-const
   ISPIN  =      2    spin polarized calculation?
   LNONCOLLINEAR =      F non collinear calculations
   LSORBIT =      F    spin-orbit coupling
   INIWAV =      1    electr: 0-lowe 1-rand  2-diag
   LASPH  =      T    aspherical Exc in radial PAW
   METAGGA=      F    non-selfconsistent MetaGGA calc.

 Electronic Relaxation 1
   ENCUT  =  400.0 eV  29.40 Ry    5.42 a.u.  13.73 13.73 13.73*2*pi/ulx,y,z
   ENINI  =  400.0     initial cutoff
   ENAUG  =  605.4 eV  augmentation charge cutoff
   NELM   =    100;   NELMIN=  2; NELMDL=  0     # of ELM steps 
   EDIFF  = 0.1E-05   stopping-criterion for ELM
   LREAL  =      T    real-space projection
   NLSPLINE    = F    spline interpolate recip. space projectors
   LCOMPAT=      F    compatible to vasp.4.4
   GGA_COMPAT  = T    GGA compatible to vasp.4.4-vasp.4.6
   LMAXPAW     = -100 max onsite density
   LMAXMIX     =    2 max onsite mixed and CHGCAR
   VOSKOWN=      0    Vosko Wilk Nusair interpolation
   ROPT   =   -0.00050  -0.00050
 Ionic relaxation
   EDIFFG = -.4E-01   stopping-criterion for IOM
   NSW    =     50    number of steps for IOM
   NBLOCK =      1;   KBLOCK =     50    inner block; outer block 
   IBRION =      2    ionic relax: 0-MD 1-quasi-New 2-CG
   NFREE  =      1    steps in history (QN), initial steepest desc. (CG)
   ISIF   =      2    stress and relaxation
   IWAVPR =     11    prediction:  0-non 1-charg 2-wave 3-comb
   ISYM   =      2    0-nonsym 1-usesym 2-fastsym
   LCORR  =      T    Harris-Foulkes like correction to forces

   POTIM  = 0.5000    time-step for ionic-motion
   TEIN   =    0.0    initial temperature
   TEBEG  =    0.0;   TEEND  =   0.0 temperature during run
   SMASS  =  -3.00    Nose mass-parameter (am)
   estimated Nose-frequenzy (Omega)   =  0.10E-29 period in steps =****** mass=  -0.162E-26a.u.
   SCALEE = 1.0000    scale energy and forces
   NPACO  =    256;   APACO  = 16.0  distance and # of slots for P.C.
   PSTRESS=    0.0 pullay stress

  Mass of Ions in am
   POMASS =  24.30 16.00
  Ionic Valenz
   ZVAL   =   2.00  6.00
  Atomic Wigner-Seitz radii
   RWIGS  =  -1.00 -1.00
  virtual crystal weights 
   VCA    =   1.00  1.00
   NELECT =     264.0000    total number of electrons
   NUPDOWN=      -1.0000    fix difference up-down

 DOS related values:
   EMIN   =  10.00;   EMAX   =-10.00  energy-range for DOS
   EFERMI =   0.00
   ISMEAR =     0;   SIGMA  =   0.10  broadening in eV -4-tet -1-fermi 0-gaus

 Electronic relaxation 2 (details)
   IALGO  =     38    algorithm
   LDIAG  =      T    sub-space diagonalisation (order eigenvalues)
   LSUBROT=      F    optimize rotation matrix (better conditioning)
   TURBO    =      0    0=normal 1=particle mesh
   IRESTART =      0    0=no restart 2=restart with 2 vectors
   NREBOOT  =      0    no. of reboots
   NMIN     =      0    reboot dimension
   EREF     =   0.00    reference energy to select bands
   IMIX   =      4    mixing-type and parameters
     AMIX     =   0.40;   BMIX     =  1.00
     AMIX_MAG =   1.60;   BMIX_MAG =  1.00
     AMIN     =   0.10
     WC   =   100.;   INIMIX=   1;  MIXPRE=   1;  MAXMIX= -45

 Intra band minimization:
   WEIMIN = 0.0010     energy-eigenvalue tresh-hold
   EBREAK =  0.12E-08  absolut break condition
   DEPER  =   0.30     relativ break condition  

   TIME   =   0.40     timestep for ELM

  volume/ion in A,a.u.               =       9.18        61.96
  Fermi-wavevector in a.u.,A,eV,Ry     =   1.247361  2.357170 21.169428  1.555909
  Thomas-Fermi vector in A             =   2.381497
 
 Write flags
   LWAVE        =      T    write WAVECAR
   LDOWNSAMPLE  =      F    k-point downsampling of WAVECAR
   LCHARG       =      F    write CHGCAR
   LVTOT        =      F    write LOCPOT, total local potential
   LVHAR        =      F    write LOCPOT, Hartree potential only
   LELF         =      F    write electronic localiz. function (ELF)
   LORBIT       =     12    0 simple, 1 ext, 2 COOP (PROOUT), +10 PAW based schemes


 Dipole corrections
   LMONO  =      F    monopole corrections only (constant potential shift)
   LDIPOL =      F    correct potential (dipole corrections)
   IDIPOL =      0    1-x, 2-y, 3-z, 4-all directions 
   EPSILON=  1.0000000 bulk dielectric constant

 Exchange correlation treatment:
   GGA     =    PS    GGA type
   LEXCH   =    14    internal setting for exchange type
   VOSKOWN=      0    Vosko Wilk Nusair interpolation
   LHFCALC =     F    Hartree Fock is set to
   LHFONE  =     F    Hartree Fock one center treatment
   AEXX    =    0.0000 exact exchange contribution

 Linear response parameters
   LEPSILON=     F    determine dielectric tensor
   LRPA    =     F    only Hartree local field effects (RPA)
   LNABLA  =     F    use nabla operator in PAW spheres
   LVEL    =     F    velocity operator in full k-point grid
   LINTERFAST=   F  fast interpolation
   KINTER  =     0    interpolate to denser k-point grid
   CSHIFT  =0.1000    complex shift for real part using Kramers Kronig
   OMEGAMAX=  -1.0    maximum frequency
   DEG_THRESHOLD= 0.2000000E-02 threshold for treating states as degnerate
   RTIME   =   -0.100 relaxation time in fs
  (WPLASMAI=    0.000 imaginary part of plasma frequency in eV, 0.658/RTIME)
   DFIELD  = 0.0000000 0.0000000 0.0000000 field for delta impulse in time
 
 Orbital magnetization related:
   ORBITALMAG=     F  switch on orbital magnetization
   LCHIMAG   =     F  perturbation theory with respect to B field
   DQ        =  0.001000  dq finite difference perturbation B field
   LLRAUG    =     F  two centre corrections for induced B field



--------------------------------------------------------------------------------------------------------


 conjugate gradient relaxation of ions
 charge density and potential will be updated during run
 spin polarized calculation
 Variant of blocked Davidson
 Davidson routine will perform the subspace rotation
 perform sub-space diagonalisation
    after iterative eigenvector-optimisation
 modified Broyden-mixing scheme, WC =      100.0
 initial mixing is a Kerker type mixing with AMIX =  0.4000 and BMIX =      1.0000
 Hartree-type preconditioning will be used
 using additional bands           84
 real space projection scheme for non local part
 use partial core corrections
 calculate Harris-corrections to forces 
   (improved forces if not selfconsistent)
 use gradient corrections 
 use of overlap-Matrix (Vanderbilt PP)
 Gauss-broadening in eV      SIGMA  =   0.10


--------------------------------------------------------------------------------------------------------


  energy-cutoff  :      400.00
  volume of cell :      596.83
      direct lattice vectors                 reciprocal lattice vectors
     8.419456000  0.000000000  0.000000000     0.118772519  0.000000000  0.000000000
     0.000000000  8.419456000  0.000000000     0.000000000  0.118772519  0.000000000
     0.000000000  0.000000000  8.419456000     0.000000000  0.000000000  0.118772519

  length of vectors
     8.419456000  8.419456000  8.419456000     0.118772519  0.118772519  0.118772519


 
 old parameters found on file WAVECAR:
  energy-cutoff  :      400.00
  volume of cell :      596.83
      direct lattice vectors                 reciprocal lattice vectors
     8.419456000  0.000000000  0.000000000     0.118772519  0.000000000  0.000000000
     0.000000000  8.419456000  0.000000000     0.000000000  0.118772519  0.000000000
     0.000000000  0.000000000  8.419456000     0.000000000  0.000000000  0.118772519

  length of vectors

 
 k-points in units of 2pi/SCALE and weight: mode: manual_set, kpt density: 2, factor
   0.02969313  0.02969313  0.02969313       1.000
 
 k-points in reciprocal lattice and weights: mode: manual_set, kpt density: 2, factor
   0.25000000  0.25000000  0.25000000       1.000
 
 position of ions in fractional coordinates (direct lattice) 
   0.99906155  0.99906155  0.99906155
   0.99667821  0.99667821  0.50398049
   0.99667821  0.50398049  0.99667821
   0.00081810  0.50075309  0.50075309
   0.50398049  0.99667821  0.99667821
   0.50075309  0.00081810  0.50075309
   0.50075309  0.50075309  0.00081810
   0.49939180  0.49939180  0.49939180
   0.99906155  0.25093845  0.25093845
   0.99667821  0.25332179  0.74601951
   0.99667821  0.74601951  0.25332179
   0.00081810  0.74924691  0.74924691
   0.50398049  0.25332179  0.25332179
   0.50075309  0.24918190  0.74924691
   0.50075309  0.74924691  0.24918190
   0.49939180  0.75060820  0.75060820
   0.25093845  0.99906155  0.25093845
   0.25332179  0.99667821  0.74601951
   0.25332179  0.50398049  0.25332179
   0.24918190  0.50075309  0.74924691
   0.74601951  0.99667821  0.25332179
   0.74924691  0.00081810  0.74924691
   0.74924691  0.50075309  0.24918190
   0.75060820  0.49939180  0.75060820
   0.25093845  0.25093845  0.99906155
   0.25332179  0.25332179  0.50398049
   0.25332179  0.74601951  0.99667821
   0.24918190  0.74924691  0.50075309
   0.74601951  0.25332179  0.99667821
   0.74924691  0.24918190  0.50075309
   0.74924691  0.74924691  0.00081810
   0.75060820  0.75060820  0.49939180
   0.12500000  0.12500000  0.12500000
   0.28173902  0.96826098  0.96826098
   0.25095463  0.99904537  0.50124994
   0.25095463  0.50124994  0.99904537
   0.25035537  0.50620198  0.50620198
   0.74875006  0.99904537  0.99904537
   0.74379802  0.99964463  0.50620198
   0.74379802  0.50620198  0.99964463
   0.74992308  0.50007692  0.50007692
   0.28173902  0.28173902  0.28173902
   0.25095463  0.25095463  0.74875006
   0.25095463  0.74875006  0.25095463
   0.25035537  0.74379802  0.74379802
   0.74875006  0.25095463  0.25095463
   0.74379802  0.25035537  0.74379802
   0.74379802  0.74379802  0.25035537
   0.74992308  0.74992308  0.74992308
   0.96826098  0.96826098  0.28173902
   0.99904537  0.99904537  0.74875006
   0.99904537  0.50124994  0.25095463
   0.99964463  0.50620198  0.74379802
   0.50124994  0.99904537  0.25095463
   0.50620198  0.99964463  0.74379802
   0.50620198  0.50620198  0.25035537
   0.50007692  0.50007692  0.74992308
   0.96826098  0.28173902  0.96826098
   0.99904537  0.25095463  0.50124994
   0.99904537  0.74875006  0.99904537
   0.99964463  0.74379802  0.50620198
   0.50124994  0.25095463  0.99904537
   0.50620198  0.25035537  0.50620198
   0.50620198  0.74379802  0.99964463
   0.50007692  0.74992308  0.50007692
 
 position of ions in cartesian coordinates  (Angst):
   8.41155473  8.41155473  8.41155473
   8.39148830  8.39148830  4.24324154
   8.39148830  4.24324154  8.39148830
   0.00688800  4.21606858  4.21606858
   4.24324154  8.39148830  8.39148830
   4.21606858  0.00688800  4.21606858
   4.21606858  4.21606858  0.00688800
   4.20460730  4.20460730  4.20460730
   8.41155473  2.11276527  2.11276527
   8.39148830  2.13283170  6.28107846
   8.39148830  6.28107846  2.13283170
   0.00688800  6.30825142  6.30825142
   4.24324154  2.13283170  2.13283170
   4.21606858  2.09797600  6.30825142
   4.21606858  6.30825142  2.09797600
   4.20460730  6.31971270  6.31971270
   2.11276527  8.41155473  2.11276527
   2.13283170  8.39148830  6.28107846
   2.13283170  4.24324154  2.13283170
   2.09797600  4.21606858  6.30825142
   6.28107846  8.39148830  2.13283170
   6.30825142  0.00688800  6.30825142
   6.30825142  4.21606858  2.09797600
   6.31971270  4.20460730  6.31971270
   2.11276527  2.11276527  8.41155473
   2.13283170  2.13283170  4.24324154
   2.13283170  6.28107846  8.39148830
   2.09797600  6.30825142  4.21606858
   6.28107846  2.13283170  8.39148830
   6.30825142  2.09797600  4.21606858
   6.30825142  6.30825142  0.00688800
   6.31971270  6.31971270  4.20460730
   1.05243200  1.05243200  1.05243200
   2.37208925  8.15223075  8.15223075
   2.11290143  8.41141857  4.22025180
   2.11290143  4.22025180  8.41141857
   2.10785603  4.26194528  4.26194528
   6.30406820  8.41141857  8.41141857
   6.26237472  8.41646397  4.26194528
   6.26237472  4.26194528  8.41646397
   6.31394440  4.21037560  4.21037560
   2.37208925  2.37208925  2.37208925
   2.11290143  2.11290143  6.30406820
   2.11290143  6.30406820  2.11290143
   2.10785603  6.26237472  6.26237472
   6.30406820  2.11290143  2.11290143
   6.26237472  2.10785603  6.26237472
   6.26237472  6.26237472  2.10785603
   6.31394440  6.31394440  6.31394440
   8.15223075  8.15223075  2.37208925
   8.41141857  8.41141857  6.30406820
   8.41141857  4.22025180  2.11290143
   8.41646397  4.26194528  6.26237472
   4.22025180  8.41141857  2.11290143
   4.26194528  8.41646397  6.26237472
   4.26194528  4.26194528  2.10785603
   4.21037560  4.21037560  6.31394440
   8.15223075  2.37208925  8.15223075
   8.41141857  2.11290143  4.22025180
   8.41141857  6.30406820  8.41141857
   8.41646397  6.26237472  4.26194528
   4.22025180  2.11290143  8.41141857
   4.26194528  2.10785603  4.26194528
   4.26194528  6.26237472  8.41646397
   4.21037560  6.31394440  4.21037560
 


--------------------------------------------------------------------------------------------------------


 k-point  1 :   0.2500 0.2500 0.2500  plane waves:   10834

 maximum and minimum number of plane-waves per node :     10834    10834

 maximum number of plane-waves:     10834
 maximum index in each direction: 
   IXMAX=   13   IYMAX=   13   IZMAX=   13
   IXMIN=  -13   IYMIN=  -13   IZMIN=  -13


 serial   3D FFT for wavefunctions
 parallel 3D FFT for charge:
    minimum data exchange during FFTs selected (reduces bandwidth)


 total amount of memory used by VASP MPI-rank0    50664. kBytes
=======================================================================

   base      :      30000. kBytes
   nonlr-proj:       8683. kBytes
   fftplans  :       1007. kBytes
   grid      :       7709. kBytes
   one-center:       1054. kBytes
   wavefun   :       2211. kBytes
 
     INWAV:  cpu time    0.2240: real time    0.3249
 Broyden mixing: mesh for mixing (old mesh)
   NGX = 27   NGY = 27   NGZ = 27
  (NGX  = 84   NGY  = 84   NGZ  = 84)
  gives a total of  19683 points

 charge density for first step will be calculated from the start-wavefunctions


--------------------------------------------------------------------------------------------------------


 Maximum index for non-local projection operator         1346
 Maximum index for augmentation-charges          357 (set IRDMAX)


--------------------------------------------------------------------------------------------------------


 initial charge from wavefunction
 First call to EWALD:  gamma=   0.211
 Maximum number of real-space cells 3x 3x 3
 Maximum number of reciprocal cells 3x 3x 3

    FEWALD:  cpu time    0.0040: real time    0.0029


--------------------------------------- Iteration      1(   1)  ---------------------------------------


    POTLOK:  cpu time    0.0320: real time    0.0338
    SETDIJ:  cpu time    0.5080: real time    0.5113
     EDDAV:  cpu time    0.7560: real time    0.7722
       DOS:  cpu time    0.0000: real time    0.0004
    CHARGE:  cpu time    0.0400: real time    0.0401
    MIXING:  cpu time    0.0000: real time    0.0005
    --------------------------------------------
      LOOP:  cpu time    1.3360: real time    1.3584

 eigenvalue-minimisations  :   936
 total energy-change (2. order) :-0.3906333E+03  (-0.2908185E-06)
 number of electron     264.0000883 magnetization       0.0000000
 augmentation part       22.0365362 magnetization       0.0000000

 Broyden mixing:
  rms(total) = 0.33414E-03    rms(broyden)= 0.33385E-03
  rms(prec ) = 0.50336E-03
  weight for this iteration     100.00

 Free energy of the ion-electron system (eV)
  ---------------------------------------------------
  alpha Z        PSCENC =       651.60264910
  Ewald energy   TEWEN  =    -11823.50977222
  -Hartree energ DENC   =     -4608.61974473
  -exchange      EXHF   =         0.00000000
  -V(xc)+E(xc)   XCENC  =      -520.42027239
  PAW double counting   =     18474.97325273   -16902.73803897
  entropy T*S    EENTRO =        -0.00000000
  eigenvalues    EBANDS =      -598.69831122
  atomic energy  EATOM  =     14936.77695065
  Solvation  Ediel_sol  =         0.00000000
  ---------------------------------------------------
  free energy    TOTEN  =      -390.63328705 eV

  energy without entropy =     -390.63328705  energy(sigma->0) =     -390.63328705


--------------------------------------------------------------------------------------------------------




--------------------------------------- Iteration      1(   2)  ---------------------------------------


    POTLOK:  cpu time    0.0320: real time    0.0358
    SETDIJ:  cpu time    0.5160: real time    0.5171
     EDDAV:  cpu time    0.6000: real time    0.5988
       DOS:  cpu time    0.0000: real time    0.0005
    --------------------------------------------
      LOOP:  cpu time    1.1480: real time    1.1522

 eigenvalue-minimisations  :   720
 total energy-change (2. order) : 0.3331661E-06  (-0.1259747E-06)
 number of electron     264.0000883 magnetization       0.0000000
 augmentation part       22.0365362 magnetization       0.0000000

 Free energy of the ion-electron system (eV)
  ---------------------------------------------------
  alpha Z        PSCENC =       651.60264910
  Ewald energy   TEWEN  =    -11823.50977222
  -Hartree energ DENC   =     -4608.61688430
  -exchange      EXHF   =         0.00000000
  -V(xc)+E(xc)   XCENC  =      -520.42049291
  PAW double counting   =     18474.96675933   -16902.73153121
  entropy T*S    EENTRO =        -0.00000000
  eigenvalues    EBANDS =      -598.70096515
  atomic energy  EATOM  =     14936.77695065
  Solvation  Ediel_sol  =         0.00000000
  ---------------------------------------------------
  free energy    TOTEN  =      -390.63328672 eV

  energy without entropy =     -390.63328672  energy(sigma->0) =     -390.63328672


--------------------------------------------------------------------------------------------------------




 average (electrostatic) potential at core
  the test charge radii are     1.0714  0.7215
  (the norm of the test charge is              1.0000)
       1 -34.1112       2 -34.4247       3 -34.4247       4 -34.7394       5 -34.4247
       6 -34.7394       7 -34.7394       8 -34.8806       9 -34.1112      10 -34.4247
      11 -34.4247      12 -34.7394      13 -34.4247      14 -34.7394      15 -34.7394
      16 -34.8806      17 -34.1112      18 -34.4247      19 -34.4247      20 -34.7394
      21 -34.4247      22 -34.7394      23 -34.7394      24 -34.8806      25 -34.1112
      26 -34.4247      27 -34.4247      28 -34.7394      29 -34.4247      30 -34.7394
      31 -34.7394      32 -34.8806      33 -66.6572      34 -68.1601      35 -69.8075
      36 -69.8075      37 -69.5401      38 -69.8075      39 -69.5401      40 -69.5401
      41 -69.7321      42 -68.1601      43 -69.8075      44 -69.8075      45 -69.5401
      46 -69.8075      47 -69.5401      48 -69.5401      49 -69.7321      50 -68.1601
      51 -69.8075      52 -69.8075      53 -69.5401      54 -69.8075      55 -69.5401
      56 -69.5401      57 -69.7321      58 -68.1601      59 -69.8075      60 -69.8075
      61 -69.5401      62 -69.8075      63 -69.5401      64 -69.5401      65 -69.7321
 
 
 
 E-fermi :   5.9924     XC(G=0): -11.4184     alpha+bet :-13.3269


 spin component 1

 k-point     1 :       0.2500    0.2500    0.2500
  band No.  band energies     occupation 
      1     -14.0662      1.00000
      2     -13.6967      1.00000
      3     -13.6967      1.00000
      4     -13.6160      1.00000
      5     -13.3776      1.00000
      6     -13.3776      1.00000
      7     -13.2674      1.00000
      8     -13.1362      1.00000
      9     -13.1287      1.00000
     10     -13.1287      1.00000
     11     -13.0105      1.00000
     12     -12.9688      1.00000
     13     -12.9567      1.00000
     14     -12.9567      1.00000
     15     -12.9151      1.00000
     16     -12.9151      1.00000
     17     -12.8994      1.00000
     18     -12.8715      1.00000
     19     -12.8715      1.00000
     20     -12.7667      1.00000
     21     -12.7620      1.00000
     22     -12.7620      1.00000
     23     -12.6598      1.00000
     24     -12.6527      1.00000
     25     -12.6527      1.00000
     26     -12.6286      1.00000
     27     -12.6231      1.00000
     28     -12.6231      1.00000
     29     -12.1017      1.00000
     30     -11.6141      1.00000
     31     -11.6097      1.00000
     32     -11.6097      1.00000
     33     -10.2248      1.00000
     34      -1.4045      1.00000
     35      -1.4017      1.00000
     36      -1.4017      1.00000
     37      -1.1372      1.00000
     38      -0.9595      1.00000
     39      -0.9595      1.00000
     40      -0.9098      1.00000
     41      -0.8797      1.00000
     42      -0.8797      1.00000
     43      -0.8470      1.00000
     44      -0.7823      1.00000
     45      -0.7823      1.00000
     46      -0.7655      1.00000
     47      -0.7018      1.00000
     48      -0.7018      1.00000
     49      -0.6196      1.00000
     50      -0.6166      1.00000
     51      -0.5450      1.00000
     52      -0.5450      1.00000
     53      -0.5014      1.00000
     54      -0.5014      1.00000
     55      -0.3761      1.00000
     56      -0.2879      1.00000
     57      -0.2879      1.00000
     58      -0.1254      1.00000
     59      -0.1254      1.00000
     60      -0.1228      1.00000
     61       0.1596      1.00000
     62       0.4235      1.00000
     63       0.4235      1.00000
     64       0.4419      1.00000
     65       0.4841      1.00000
     66       0.5388      1.00000
     67       0.5388      1.00000
     68       0.6063      1.00000
     69       0.6063      1.00000
     70       0.6995      1.00000
     71       0.9142      1.00000
     72       0.9142      1.00000
     73       0.9873      1.00000
     74       1.2004      1.00000
     75       1.2004      1.00000
     76       1.2280      1.00000
     77       1.2447      1.00000
     78       1.3083      1.00000
     79       1.3083      1.00000
     80       1.3321      1.00000
     81       1.3321      1.00000
     82       1.5404      1.00000
     83       1.5404      1.00000
     84       1.5587      1.00000
     85       1.6067      1.00000
     86       1.6522      1.00000
     87       1.6522      1.00000
     88       1.7302      1.00000
     89       1.7449      1.00000
     90       1.7475      1.00000
     91       1.7475      1.00000
     92       1.8170      1.00000
     93       1.8170      1.00000
     94       1.8206      1.00000
     95       1.9097      1.00000
     96       1.9097      1.00000
     97       1.9692      1.00000
     98       1.9692      1.00000
     99       1.9696      1.00000
    100       2.0202      1.00000
    101       2.0611      1.00000
    102       2.0611      1.00000
    103       2.0614      1.00000
    104       2.1104      1.00000
    105       2.1358      1.00000
    106       2.1358      1.00000
    107       2.1631      1.00000
    108       2.1631      1.00000
    109       2.1916      1.00000
    110       2.2795      1.00000
    111       2.3001      1.00000
    112       2.3001      1.00000
    113       2.3359      1.00000
    114       2.4126      1.00000
    115       2.4126      1.00000
    116       2.5100      1.00000
    117       2.5333      1.00000
    118       2.5333      1.00000
    119       2.6537      1.00000
    120       2.6537      1.00000
    121       2.8655      1.00000
    122       2.8655      1.00000
    123       2.9448      1.00000
    124       3.0531      1.00000
    125       3.0531      1.00000
    126       3.1193      1.00000
    127       3.2799      1.00000
    128       3.2799      1.00000
    129       3.6662      1.00000
    130       5.3809      1.00000
    131       5.4173      1.00000
    132       5.4173      1.00000
    133       8.7459      0.00000
    134      10.2600      0.00000
    135      10.2600      0.00000
    136      10.3791      0.00000
    137      10.8610      0.00000
    138      11.0680      0.00000
    139      11.0680      0.00000
    140      11.2808      0.00000
    141      11.5125      0.00000
    142      11.5125      0.00000
    143      11.7418      0.00000
    144      12.0654      0.00000
    145      12.0654      0.00000
    146      12.2922      0.00000
    147      12.3700      0.00000
    148      12.4261      0.00000
    149      12.4261      0.00000
    150      12.4504      0.00000
    151      12.4504      0.00000
    152      12.6716      0.00000
    153      12.6716      0.00000
    154      12.7034      0.00000
    155      12.9476      0.00000
    156      12.9476      0.00000
    157      12.9499      0.00000
    158      13.1521      0.00000
    159      13.3065      0.00000
    160      13.3065      0.00000
    161      13.3230      0.00000
    162      13.5796      0.00000
    163      13.5796      0.00000
    164      13.5801      0.00000
    165      13.7468      0.00000
    166      13.7773      0.00000
    167      13.7773      0.00000
    168      14.0578      0.00000
    169      14.0578      0.00000
    170      14.2799      0.00000
    171      14.2799      0.00000
    172      14.3212      0.00000
    173      14.4645      0.00000
    174      14.4645      0.00000
    175      14.5246      0.00000
    176      14.6219      0.00000
    177      14.7504      0.00000
    178      14.7840      0.00000
    179      14.7840      0.00000
    180      14.8075      0.00000
    181      14.8468      0.00000
    182      14.8468      0.00000
    183      14.9963      0.00000
    184      14.9963      0.00000
    185      15.1151      0.00000
    186      15.1151      0.00000
    187      15.1412      0.00000
    188      15.2487      0.00000
    189      15.2685      0.00000
    190      15.2685      0.00000
    191      15.4645      0.00000
    192      15.4994      0.00000
    193      15.4994      0.00000
    194      15.5636      0.00000
    195      15.5636      0.00000
    196      15.5899      0.00000
    197      15.7942      0.00000
    198      15.7942      0.00000
    199      15.8590      0.00000
    200      15.8707      0.00000
    201      16.0849      0.00000
    202      16.0849      0.00000
    203      16.3169      0.00000
    204      16.5446      0.00000
    205      16.5446      0.00000
    206      16.7690      0.00000
    207      16.9262      0.00000
    208      16.9262      0.00000
    209      17.0033      0.00000
    210      17.0216      0.00000
    211      17.1794      0.00000
    212      17.1794      0.00000
    213      17.2123      0.00000
    214      17.6500      0.00000
    215      17.6664      0.00000
    216      17.6664      0.00000

 spin component 2

 k-point     1 :       0.2500    0.2500    0.2500
  band No.  band energies     occupation 
      1     -14.0662      1.00000
      2     -13.6967      1.00000
      3     -13.6967      1.00000
      4     -13.6160      1.00000
      5     -13.3776      1.00000
      6     -13.3776      1.00000
      7     -13.2674      1.00000
      8     -13.1362      1.00000
      9     -13.1287      1.00000
     10     -13.1287      1.00000
     11     -13.0105      1.00000
     12     -12.9688      1.00000
     13     -12.9567      1.00000
     14     -12.9567      1.00000
     15     -12.9151      1.00000
     16     -12.9151      1.00000
     17     -12.8994      1.00000
     18     -12.8715      1.00000
     19     -12.8715      1.00000
     20     -12.7667      1.00000
     21     -12.7620      1.00000
     22     -12.7620      1.00000
     23     -12.6598      1.00000
     24     -12.6527      1.00000
     25     -12.6527      1.00000
     26     -12.6286      1.00000
     27     -12.6231      1.00000
     28     -12.6231      1.00000
     29     -12.1017      1.00000
     30     -11.6141      1.00000
     31     -11.6097      1.00000
     32     -11.6097      1.00000
     33     -10.2248      1.00000
     34      -1.4045      1.00000
     35      -1.4017      1.00000
     36      -1.4017      1.00000
     37      -1.1372      1.00000
     38      -0.9595      1.00000
     39      -0.9595      1.00000
     40      -0.9098      1.00000
     41      -0.8797      1.00000
     42      -0.8797      1.00000
     43      -0.8470      1.00000
     44      -0.7823      1.00000
     45      -0.7823      1.00000
     46      -0.7655      1.00000
     47      -0.7018      1.00000
     48      -0.7018      1.00000
     49      -0.6196      1.00000
     50      -0.6166      1.00000
     51      -0.5450      1.00000
     52      -0.5450      1.00000
     53      -0.5014      1.00000
     54      -0.5014      1.00000
     55      -0.3761      1.00000
     56      -0.2879      1.00000
     57      -0.2879      1.00000
     58      -0.1254      1.00000
     59      -0.1254      1.00000
     60      -0.1228      1.00000
     61       0.1596      1.00000
     62       0.4235      1.00000
     63       0.4235      1.00000
     64       0.4419      1.00000
     65       0.4841      1.00000
     66       0.5388      1.00000
     67       0.5388      1.00000
     68       0.6063      1.00000
     69       0.6063      1.00000
     70       0.6995      1.00000
     71       0.9142      1.00000
     72       0.9142      1.00000
     73       0.9873      1.00000
     74       1.2004      1.00000
     75       1.2004      1.00000
     76       1.2280      1.00000
     77       1.2447      1.00000
     78       1.3083      1.00000
     79       1.3083      1.00000
     80       1.3321      1.00000
     81       1.3321      1.00000
     82       1.5404      1.00000
     83       1.5404      1.00000
     84       1.5587      1.00000
     85       1.6067      1.00000
     86       1.6522      1.00000
     87       1.6522      1.00000
     88       1.7302      1.00000
     89       1.7449      1.00000
     90       1.7475      1.00000
     91       1.7475      1.00000
     92       1.8170      1.00000
     93       1.8170      1.00000
     94       1.8206      1.00000
     95       1.9097      1.00000
     96       1.9097      1.00000
     97       1.9692      1.00000
     98       1.9692      1.00000
     99       1.9696      1.00000
    100       2.0202      1.00000
    101       2.0611      1.00000
    102       2.0611      1.00000
    103       2.0614      1.00000
    104       2.1104      1.00000
    105       2.1358      1.00000
    106       2.1358      1.00000
    107       2.1631      1.00000
    108       2.1631      1.00000
    109       2.1916      1.00000
    110       2.2795      1.00000
    111       2.3001      1.00000
    112       2.3001      1.00000
    113       2.3359      1.00000
    114       2.4126      1.00000
    115       2.4126      1.00000
    116       2.5100      1.00000
    117       2.5333      1.00000
    118       2.5333      1.00000
    119       2.6537      1.00000
    120       2.6537      1.00000
    121       2.8655      1.00000
    122       2.8655      1.00000
    123       2.9448      1.00000
    124       3.0531      1.00000
    125       3.0531      1.00000
    126       3.1193      1.00000
    127       3.2799      1.00000
    128       3.2799      1.00000
    129       3.6662      1.00000
    130       5.3809      1.00000
    131       5.4173      1.00000
    132       5.4173      1.00000
    133       8.7459      0.00000
    134      10.2600      0.00000
    135      10.2600      0.00000
    136      10.3791      0.00000
    137      10.8610      0.00000
    138      11.0680      0.00000
    139      11.0680      0.00000
    140      11.2808      0.00000
    141      11.5125      0.00000
    142      11.5125      0.00000
    143      11.7418      0.00000
    144      12.0654      0.00000
    145      12.0654      0.00000
    146      12.2922      0.00000
    147      12.3700      0.00000
    148      12.4261      0.00000
    149      12.4261      0.00000
    150      12.4504      0.00000
    151      12.4504      0.00000
    152      12.6716      0.00000
    153      12.6716      0.00000
    154      12.7034      0.00000
    155      12.9476      0.00000
    156      12.9476      0.00000
    157      12.9499      0.00000
    158      13.1521      0.00000
    159      13.3065      0.00000
    160      13.3065      0.00000
    161      13.3230      0.00000
    162      13.5796      0.00000
    163      13.5796      0.00000
    164      13.5801      0.00000
    165      13.7468      0.00000
    166      13.7773      0.00000
    167      13.7773      0.00000
    168      14.0578      0.00000
    169      14.0578      0.00000
    170      14.2799      0.00000
    171      14.2799      0.00000
    172      14.3212      0.00000
    173      14.4645      0.00000
    174      14.4645      0.00000
    175      14.5246      0.00000
    176      14.6219      0.00000
    177      14.7504      0.00000
    178      14.7840      0.00000
    179      14.7840      0.00000
    180      14.8075      0.00000
    181      14.8468      0.00000
    182      14.8468      0.00000
    183      14.9963      0.00000
    184      14.9963      0.00000
    185      15.1151      0.00000
    186      15.1151      0.00000
    187      15.1412      0.00000
    188      15.2487      0.00000
    189      15.2685      0.00000
    190      15.2685      0.00000
    191      15.4645      0.00000
    192      15.4994      0.00000
    193      15.4994      0.00000
    194      15.5636      0.00000
    195      15.5636      0.00000
    196      15.5899      0.00000
    197      15.7942      0.00000
    198      15.7942      0.00000
    199      15.8590      0.00000
    200      15.8707      0.00000
    201      16.0849      0.00000
    202      16.0849      0.00000
    203      16.3169      0.00000
    204      16.5446      0.00000
    205      16.5446      0.00000
    206      16.7690      0.00000
    207      16.9262      0.00000
    208      16.9262      0.00000
    209      17.0033      0.00000
    210      17.0216      0.00000
    211      17.1794      0.00000
    212      17.1794      0.00000
    213      17.2123      0.00000
    214      17.6500      0.00000
    215      17.6664      0.00000
    216      17.6664      0.00000


--------------------------------------------------------------------------------------------------------


 soft charge-density along one line, spin component           1
         0         1         2         3         4         5         6         7         8         9
 total charge-density along one line
 
 soft charge-density along one line, spin component           2
         0         1         2         3         4         5         6         7         8         9
 total charge-density along one line
 
 pseudopotential strength for first ion, spin component:           1
  2.992   9.472  -0.003  -0.003  -0.003  -0.009  -0.009  -0.009
  9.472  29.845  -0.017  -0.017  -0.017  -0.036  -0.036  -0.036
 -0.003  -0.017   7.420  -0.001  -0.001  10.686  -0.003  -0.003
 -0.003  -0.017  -0.001   7.420  -0.001  -0.003  10.686  -0.003
 -0.003  -0.017  -0.001  -0.001   7.420  -0.003  -0.003  10.686
 -0.009  -0.036  10.686  -0.003  -0.003  14.625  -0.007  -0.007
 -0.009  -0.036  -0.003  10.686  -0.003  -0.007  14.625  -0.007
 -0.009  -0.036  -0.003  -0.003  10.686  -0.007  -0.007  14.625
 -0.002  -0.006  -0.011  -0.000  -0.011  -0.012  -0.000  -0.012
 -0.002  -0.006  -0.011  -0.011  -0.000  -0.012  -0.012  -0.000
 -0.000  -0.000   0.006  -0.013   0.006   0.007  -0.014   0.007
 -0.002  -0.006  -0.000  -0.011  -0.011  -0.000  -0.012  -0.012
 -0.000  -0.000   0.011  -0.000  -0.011   0.012  -0.000  -0.012
 pseudopotential strength for first ion, spin component:           2
  2.992   9.472  -0.003  -0.003  -0.003  -0.009  -0.009  -0.009
  9.472  29.845  -0.017  -0.017  -0.017  -0.036  -0.036  -0.036
 -0.003  -0.017   7.420  -0.001  -0.001  10.686  -0.003  -0.003
 -0.003  -0.017  -0.001   7.420  -0.001  -0.003  10.686  -0.003
 -0.003  -0.017  -0.001  -0.001   7.420  -0.003  -0.003  10.686
 -0.009  -0.036  10.686  -0.003  -0.003  14.625  -0.007  -0.007
 -0.009  -0.036  -0.003  10.686  -0.003  -0.007  14.625  -0.007
 -0.009  -0.036  -0.003  -0.003  10.686  -0.007  -0.007  14.625
 -0.002  -0.006  -0.011  -0.000  -0.011  -0.012  -0.000  -0.012
 -0.002  -0.006  -0.011  -0.011  -0.000  -0.012  -0.012  -0.000
 -0.000  -0.000   0.006  -0.013   0.006   0.007  -0.014   0.007
 -0.002  -0.006  -0.000  -0.011  -0.011  -0.000  -0.012  -0.012
 -0.000  -0.000   0.011  -0.000  -0.011   0.012  -0.000  -0.012
 total augmentation occupancy for first ion, spin component:           1
  1.151  -0.055   0.062   0.062   0.062  -0.009  -0.009  -0.009   0.064   0.064   0.000   0.064  -0.000
 -0.055   0.003  -0.002  -0.002  -0.002   0.000   0.000   0.000  -0.002  -0.002   0.000  -0.002  -0.000
  0.062  -0.002   0.130   0.033   0.033  -0.014  -0.004  -0.004   0.022   0.022   0.006   0.022   0.011
  0.062  -0.002   0.033   0.130   0.033  -0.004  -0.014  -0.004   0.022   0.022  -0.012   0.022   0.000
  0.062  -0.002   0.033   0.033   0.130  -0.004  -0.004  -0.014   0.022   0.022   0.006   0.022  -0.011
 -0.009   0.000  -0.014  -0.004  -0.004   0.002   0.000   0.000  -0.003  -0.003  -0.001  -0.002  -0.001
 -0.009   0.000  -0.004  -0.014  -0.004   0.000   0.002   0.000  -0.002  -0.003   0.001  -0.003   0.000
 -0.009   0.000  -0.004  -0.004  -0.014   0.000   0.000   0.002  -0.003  -0.002  -0.001  -0.003   0.001
  0.064  -0.002   0.022   0.022   0.022  -0.003  -0.002  -0.003   0.028   0.014  -0.002   0.014   0.000
  0.064  -0.002   0.022   0.022   0.022  -0.003  -0.003  -0.002   0.014   0.028   0.001   0.014  -0.002
  0.000   0.000   0.006  -0.012   0.006  -0.001   0.001  -0.001  -0.002   0.001   0.038   0.001  -0.000
  0.064  -0.002   0.022   0.022   0.022  -0.002  -0.003  -0.003   0.014   0.014   0.001   0.028   0.002
  0.000   0.000   0.011  -0.000  -0.011  -0.001  -0.000   0.001   0.000  -0.002  -0.000   0.002   0.038
 total augmentation occupancy for first ion, spin component:           2
 -0.000   0.000  -0.000  -0.000  -0.000  -0.000  -0.000  -0.000  -0.000  -0.000   0.000  -0.000   0.000
  0.000  -0.000   0.000   0.000   0.000  -0.000  -0.000  -0.000   0.000   0.000  -0.000   0.000  -0.000
 -0.000   0.000   0.000   0.000   0.000  -0.000  -0.000  -0.000   0.000   0.000   0.000   0.000   0.000
 -0.000   0.000   0.000   0.000   0.000  -0.000  -0.000  -0.000   0.000   0.000  -0.000   0.000  -0.000
 -0.000   0.000   0.000   0.000   0.000  -0.000  -0.000  -0.000   0.000   0.000   0.000   0.000  -0.000
 -0.000  -0.000  -0.000  -0.000  -0.000   0.000   0.000   0.000  -0.000  -0.000  -0.000  -0.000  -0.000
 -0.000  -0.000  -0.000  -0.000  -0.000   0.000   0.000   0.000  -0.000  -0.000   0.000  -0.000   0.000
 -0.000  -0.000  -0.000  -0.000  -0.000   0.000   0.000   0.000  -0.000  -0.000  -0.000  -0.000   0.000
 -0.000   0.000   0.000   0.000   0.000  -0.000  -0.000  -0.000  -0.000   0.000   0.000   0.000   0.000
 -0.000   0.000   0.000   0.000   0.000  -0.000  -0.000  -0.000   0.000  -0.000  -0.000   0.000   0.000
  0.000  -0.000   0.000  -0.000   0.000  -0.000   0.000  -0.000   0.000  -0.000  -0.000  -0.000  -0.000
 -0.000   0.000   0.000   0.000   0.000  -0.000  -0.000  -0.000   0.000   0.000  -0.000  -0.000  -0.000
  0.000   0.000   0.000   0.000  -0.000  -0.000   0.000   0.000  -0.000   0.000   0.000  -0.000  -0.000


------------------------ aborting loop because EDIFF is reached ----------------------------------------


 


 total charge     
 
# of ion       s       p       d       tot
------------------------------------------
    1        0.167   0.192   0.087   0.446
    2        0.162   0.201   0.093   0.456
    3        0.162   0.201   0.093   0.456
    4        0.157   0.194   0.088   0.438
    5        0.162   0.201   0.093   0.456
    6        0.157   0.194   0.088   0.438
    7        0.157   0.194   0.088   0.438
    8        0.153   0.185   0.082   0.420
    9        0.166   0.192   0.087   0.445
   10        0.162   0.201   0.093   0.455
   11        0.162   0.201   0.093   0.455
   12        0.157   0.194   0.088   0.438
   13        0.162   0.201   0.093   0.455
   14        0.157   0.194   0.088   0.438
   15        0.157   0.194   0.088   0.438
   16        0.153   0.185   0.082   0.420
   17        0.166   0.192   0.087   0.445
   18        0.162   0.201   0.093   0.455
   19        0.162   0.201   0.093   0.455
   20        0.157   0.194   0.088   0.438
   21        0.162   0.201   0.093   0.455
   22        0.157   0.194   0.088   0.438
   23        0.157   0.194   0.088   0.438
   24        0.153   0.185   0.082   0.420
   25        0.166   0.192   0.087   0.445
   26        0.162   0.201   0.093   0.455
   27        0.162   0.201   0.093   0.455
   28        0.157   0.194   0.088   0.438
   29        0.162   0.201   0.093   0.455
   30        0.157   0.194   0.088   0.438
   31        0.157   0.194   0.088   0.438
   32        0.153   0.185   0.082   0.420
   33        1.601   3.707   0.000   5.308
   34        1.577   3.597   0.000   5.174
   35        1.564   3.561   0.000   5.125
   36        1.564   3.561   0.000   5.125
   37        1.565   3.577   0.000   5.143
   38        1.564   3.561   0.000   5.125
   39        1.565   3.577   0.000   5.142
   40        1.565   3.577   0.000   5.142
   41        1.564   3.562   0.000   5.126
   42        1.577   3.597   0.000   5.174
   43        1.564   3.561   0.000   5.125
   44        1.564   3.561   0.000   5.125
   45        1.565   3.578   0.000   5.143
   46        1.564   3.561   0.000   5.125
   47        1.565   3.578   0.000   5.143
   48        1.565   3.578   0.000   5.143
   49        1.564   3.562   0.000   5.126
   50        1.577   3.597   0.000   5.174
   51        1.564   3.561   0.000   5.125
   52        1.564   3.561   0.000   5.125
   53        1.565   3.577   0.000   5.142
   54        1.564   3.561   0.000   5.125
   55        1.565   3.577   0.000   5.142
   56        1.565   3.577   0.000   5.143
   57        1.564   3.562   0.000   5.126
   58        1.577   3.597   0.000   5.174
   59        1.564   3.561   0.000   5.125
   60        1.564   3.561   0.000   5.125
   61        1.565   3.577   0.000   5.142
   62        1.564   3.561   0.000   5.125
   63        1.565   3.577   0.000   5.143
   64        1.565   3.577   0.000   5.142
   65        1.564   3.562   0.000   5.126
--------------------------------------------------
tot         56.820 124.246   2.838 183.904
 


 magnetization (x)
 
# of ion       s       p       d       tot
------------------------------------------
    1       -0.000  -0.000  -0.000  -0.000
    2       -0.000   0.000  -0.000  -0.000
    3       -0.000   0.000  -0.000   0.000
    4        0.000  -0.000   0.000  -0.000
    5       -0.000   0.000  -0.000   0.000
    6       -0.000   0.000   0.000  -0.000
    7       -0.000   0.000  -0.000   0.000
    8        0.000  -0.000  -0.000  -0.000
    9        0.000   0.000  -0.000   0.000
   10       -0.000   0.000  -0.000  -0.000
   11       -0.000  -0.000  -0.000  -0.000
   12       -0.000  -0.000  -0.000  -0.000
   13       -0.000  -0.000  -0.000  -0.000
   14       -0.000  -0.000  -0.000  -0.000
   15       -0.000  -0.000  -0.000  -0.000
   16        0.000  -0.000  -0.000  -0.000
   17       -0.000  -0.000  -0.000  -0.000
   18       -0.000   0.000  -0.000  -0.000
   19       -0.000   0.000   0.000   0.000
   20       -0.000  -0.000  -0.000  -0.000
   21       -0.000   0.000  -0.000  -0.000
   22       -0.000  -0.000  -0.000  -0.000
   23       -0.000  -0.000   0.000  -0.000
   24        0.000  -0.000  -0.000  -0.000
   25        0.000  -0.000   0.000  -0.000
   26       -0.000   0.000   0.000  -0.000
   27       -0.000   0.000  -0.000  -0.000
   28        0.000  -0.000  -0.000  -0.000
   29        0.000  -0.000  -0.000  -0.000
   30       -0.000   0.000   0.000   0.000
   31        0.000  -0.000   0.000  -0.000
   32        0.000  -0.000  -0.000  -0.000
   33       -0.000   0.000   0.000  -0.000
   34        0.000  -0.000   0.000   0.000
   35        0.000   0.000   0.000   0.000
   36        0.000   0.000   0.000   0.000
   37       -0.000  -0.000   0.000  -0.000
   38        0.000   0.000   0.000   0.000
   39        0.000  -0.000   0.000  -0.000
   40       -0.000   0.000   0.000   0.000
   41        0.000   0.000   0.000   0.000
   42        0.000   0.000   0.000   0.000
   43        0.000   0.000   0.000   0.000
   44        0.000   0.000   0.000   0.000
   45        0.000   0.000   0.000   0.000
   46        0.000   0.000   0.000   0.000
   47        0.000   0.000   0.000   0.000
   48        0.000  -0.000   0.000   0.000
   49        0.000   0.000   0.000   0.000
   50        0.000   0.000   0.000   0.000
   51        0.000   0.000   0.000   0.000
   52       -0.000   0.000   0.000   0.000
   53       -0.000   0.000   0.000  -0.000
   54       -0.000   0.000   0.000   0.000
   55        0.000  -0.000   0.000  -0.000
   56       -0.000  -0.000   0.000  -0.000
   57       -0.000  -0.000   0.000  -0.000
   58        0.000   0.000   0.000   0.000
   59        0.000   0.000   0.000   0.000
   60       -0.000   0.000   0.000   0.000
   61       -0.000   0.000   0.000   0.000
   62        0.000   0.000   0.000   0.000
   63        0.000  -0.000   0.000  -0.000
   64        0.000   0.000   0.000   0.000
   65        0.000   0.000   0.000   0.000
--------------------------------------------------
tot          0.000   0.000  -0.000   0.000
 
    CHARGE:  cpu time    0.0400: real time    0.0407
    FORLOC:  cpu time    0.0040: real time    0.0041
    FORNL :  cpu time    0.1560: real time    0.1571
    STRESS:  cpu time    0.5120: real time    0.5133
    FORCOR:  cpu time    0.0240: real time    0.0259
    FORHAR:  cpu time    0.0080: real time    0.0066
    MIXING:  cpu time    0.0040: real time    0.0047
    OFIELD:  cpu time    0.0000: real time    0.0000

  FORCE on cell =-STRESS in cart. coord.  units (eV):
  Direction    XX          YY          ZZ          XY          YZ          ZX
  --------------------------------------------------------------------------------------
  Alpha Z   651.60265   651.60265   651.60265
  Ewald   -3941.19105 -3941.19105 -3941.19105    -0.00000     0.00000    -0.00000
  Hartree  1536.20453  1536.20453  1536.20453    -0.00000    -0.00000    -0.00000
  E(xc)   -1195.61203 -1195.61203 -1195.61203    -0.00000    -0.00000     0.00000
  Local   -1338.98100 -1338.98100 -1338.98100     0.00000     0.00000     0.00000
  n-local  -615.26379  -615.26379  -615.26379     0.10767     0.10767     0.10767
  augment   226.63892   226.63892   226.63892     0.00000    -0.00000    -0.00000
  Kinetic  4697.61533  4697.61533  4697.61533    -1.74374    -1.74374    -1.74374
  Fock        0.00000     0.00000     0.00000     0.00000     0.00000     0.00000
  -------------------------------------------------------------------------------------
  Total      21.01357    21.01357    21.01357     0.00000     0.00000     0.00000
  in kB      56.41029    56.41029    56.41029     0.00000     0.00000     0.00000
  external pressure =       56.41 kB  Pullay stress =        0.00 kB


 VOLUME and BASIS-vectors are now :
 -----------------------------------------------------------------------------
  energy-cutoff  :      400.00
  volume of cell :      596.83
      direct lattice vectors                 reciprocal lattice vectors
     8.419456000  0.000000000  0.000000000     0.118772519  0.000000000  0.000000000
     0.000000000  8.419456000  0.000000000     0.000000000  0.118772519  0.000000000
     0.000000000  0.000000000  8.419456000     0.000000000  0.000000000  0.118772519

  length of vectors
     8.419456000  8.419456000  8.419456000     0.118772519  0.118772519  0.118772519


 FORCES acting on ions
    electron-ion (+dipol)            ewald-force                    non-local-force                 convergence-correction
 -----------------------------------------------------------------------------------------------
   0.114E+02 0.114E+02 0.114E+02   -.925E+01 -.925E+01 -.925E+01   -.213E+01 -.213E+01 -.213E+01   -.222E-03 -.222E-03 -.222E-03
   -.530E+01 -.530E+01 -.107E+02   0.473E+01 0.473E+01 0.852E+01   0.575E+00 0.575E+00 0.215E+01   -.206E-03 -.206E-03 0.242E-03
   -.530E+01 -.107E+02 -.530E+01   0.473E+01 0.852E+01 0.473E+01   0.575E+00 0.215E+01 0.575E+00   -.206E-03 0.242E-03 -.206E-03
   0.958E+00 0.468E+01 0.468E+01   -.891E+00 -.409E+01 -.409E+01   -.609E-01 -.594E+00 -.594E+00   -.191E-03 0.210E-03 0.210E-03
   -.107E+02 -.530E+01 -.530E+01   0.852E+01 0.473E+01 0.473E+01   0.215E+01 0.575E+00 0.575E+00   0.242E-03 -.206E-03 -.206E-03
   0.468E+01 0.958E+00 0.468E+01   -.409E+01 -.891E+00 -.409E+01   -.594E+00 -.609E-01 -.594E+00   0.210E-03 -.191E-03 0.210E-03
   0.468E+01 0.468E+01 0.958E+00   -.409E+01 -.409E+01 -.891E+00   -.594E+00 -.594E+00 -.609E-01   0.210E-03 0.210E-03 -.191E-03
   -.102E+01 -.102E+01 -.102E+01   0.995E+00 0.995E+00 0.995E+00   0.377E-01 0.377E-01 0.377E-01   0.196E-03 0.196E-03 0.196E-03
   0.114E+02 -.114E+02 -.114E+02   -.925E+01 0.925E+01 0.925E+01   -.213E+01 0.213E+01 0.213E+01   -.222E-03 0.222E-03 0.222E-03
   -.530E+01 0.530E+01 0.107E+02   0.473E+01 -.473E+01 -.852E+01   0.575E+00 -.575E+00 -.215E+01   -.206E-03 0.206E-03 -.242E-03
   -.530E+01 0.107E+02 0.530E+01   0.473E+01 -.852E+01 -.473E+01   0.575E+00 -.215E+01 -.575E+00   -.206E-03 -.242E-03 0.206E-03
   0.958E+00 -.468E+01 -.468E+01   -.891E+00 0.409E+01 0.409E+01   -.609E-01 0.594E+00 0.594E+00   -.191E-03 -.210E-03 -.210E-03
   -.107E+02 0.530E+01 0.530E+01   0.852E+01 -.473E+01 -.473E+01   0.215E+01 -.575E+00 -.575E+00   0.242E-03 0.206E-03 0.206E-03
   0.468E+01 -.958E+00 -.468E+01   -.409E+01 0.891E+00 0.409E+01   -.594E+00 0.609E-01 0.594E+00   0.210E-03 0.191E-03 -.210E-03
   0.468E+01 -.468E+01 -.958E+00   -.409E+01 0.409E+01 0.891E+00   -.594E+00 0.594E+00 0.609E-01   0.210E-03 -.210E-03 0.191E-03
   -.102E+01 0.102E+01 0.102E+01   0.995E+00 -.995E+00 -.995E+00   0.377E-01 -.377E-01 -.377E-01   0.196E-03 -.196E-03 -.196E-03
   -.114E+02 0.114E+02 -.114E+02   0.925E+01 -.925E+01 0.925E+01   0.213E+01 -.213E+01 0.213E+01   0.222E-03 -.222E-03 0.222E-03
   0.530E+01 -.530E+01 0.107E+02   -.473E+01 0.473E+01 -.852E+01   -.575E+00 0.575E+00 -.215E+01   0.206E-03 -.206E-03 -.242E-03
   0.530E+01 -.107E+02 0.530E+01   -.473E+01 0.852E+01 -.473E+01   -.575E+00 0.215E+01 -.575E+00   0.206E-03 0.242E-03 0.206E-03
   -.958E+00 0.468E+01 -.468E+01   0.891E+00 -.409E+01 0.409E+01   0.609E-01 -.594E+00 0.594E+00   0.191E-03 0.210E-03 -.210E-03
   0.107E+02 -.530E+01 0.530E+01   -.852E+01 0.473E+01 -.473E+01   -.215E+01 0.575E+00 -.575E+00   -.242E-03 -.206E-03 0.206E-03
   -.468E+01 0.958E+00 -.468E+01   0.409E+01 -.891E+00 0.409E+01   0.594E+00 -.609E-01 0.594E+00   -.210E-03 -.191E-03 -.210E-03
   -.468E+01 0.468E+01 -.958E+00   0.409E+01 -.409E+01 0.891E+00   0.594E+00 -.594E+00 0.609E-01   -.210E-03 0.210E-03 0.191E-03
   0.102E+01 -.102E+01 0.102E+01   -.995E+00 0.995E+00 -.995E+00   -.377E-01 0.377E-01 -.377E-01   -.196E-03 0.196E-03 -.196E-03
   -.114E+02 -.114E+02 0.114E+02   0.925E+01 0.925E+01 -.925E+01   0.213E+01 0.213E+01 -.213E+01   0.222E-03 0.222E-03 -.222E-03
   0.530E+01 0.530E+01 -.107E+02   -.473E+01 -.473E+01 0.852E+01   -.575E+00 -.575E+00 0.215E+01   0.206E-03 0.206E-03 0.242E-03
   0.530E+01 0.107E+02 -.530E+01   -.473E+01 -.852E+01 0.473E+01   -.575E+00 -.215E+01 0.575E+00   0.206E-03 -.242E-03 -.206E-03
   -.958E+00 -.468E+01 0.468E+01   0.891E+00 0.409E+01 -.409E+01   0.609E-01 0.594E+00 -.594E+00   0.191E-03 -.210E-03 0.210E-03
   0.107E+02 0.530E+01 -.530E+01   -.852E+01 -.473E+01 0.473E+01   -.215E+01 -.575E+00 0.575E+00   -.242E-03 0.206E-03 -.206E-03
   -.468E+01 -.958E+00 0.468E+01   0.409E+01 0.891E+00 -.409E+01   0.594E+00 0.609E-01 -.594E+00   -.210E-03 0.191E-03 0.210E-03
   -.468E+01 -.468E+01 0.958E+00   0.409E+01 0.409E+01 -.891E+00   0.594E+00 0.594E+00 -.609E-01   -.210E-03 -.210E-03 -.191E-03
   0.102E+01 0.102E+01 -.102E+01   -.995E+00 -.995E+00 0.995E+00   -.377E-01 -.377E-01 0.377E-01   -.196E-03 -.196E-03 0.196E-03
   0.404E-06 0.404E-06 -.117E-06   0.000E+00 -.622E-14 0.213E-13   -.477E-17 0.867E-18 -.130E-17   0.718E-13 0.814E-14 0.163E-13
   -.248E+01 0.248E+01 0.248E+01   -.190E+01 0.190E+01 0.190E+01   0.437E+01 -.437E+01 -.437E+01   0.136E-02 -.136E-02 -.136E-02
   0.184E+01 -.184E+01 0.178E+01   -.256E+01 0.256E+01 -.285E+01   0.727E+00 -.727E+00 0.107E+01   0.702E-03 -.702E-03 0.924E-03
   0.184E+01 0.178E+01 -.184E+01   -.256E+01 -.285E+01 0.256E+01   0.727E+00 0.107E+01 -.727E+00   0.702E-03 0.924E-03 -.702E-03
   0.793E+00 -.748E+00 -.748E+00   -.894E+00 -.268E+00 -.268E+00   0.103E+00 0.102E+01 0.102E+01   0.387E-03 0.802E-03 0.802E-03
   -.178E+01 -.184E+01 -.184E+01   0.285E+01 0.256E+01 0.256E+01   -.107E+01 -.727E+00 -.727E+00   -.924E-03 -.702E-03 -.702E-03
   0.748E+00 -.793E+00 -.748E+00   0.268E+00 0.894E+00 -.268E+00   -.102E+01 -.103E+00 0.102E+01   -.802E-03 -.387E-03 0.802E-03
   0.748E+00 -.748E+00 -.793E+00   0.268E+00 -.268E+00 0.894E+00   -.102E+01 0.102E+01 -.103E+00   -.802E-03 0.802E-03 -.387E-03
   -.280E+00 0.280E+00 0.280E+00   0.324E+00 -.324E+00 -.324E+00   -.475E-01 0.475E-01 0.475E-01   -.463E-03 0.463E-03 0.463E-03
   -.248E+01 -.248E+01 -.248E+01   -.190E+01 -.190E+01 -.190E+01   0.437E+01 0.437E+01 0.437E+01   0.136E-02 0.136E-02 0.136E-02
   0.184E+01 0.184E+01 -.178E+01   -.256E+01 -.256E+01 0.285E+01   0.727E+00 0.727E+00 -.107E+01   0.702E-03 0.702E-03 -.924E-03
   0.184E+01 -.178E+01 0.184E+01   -.256E+01 0.285E+01 -.256E+01   0.727E+00 -.107E+01 0.727E+00   0.702E-03 -.924E-03 0.702E-03
   0.793E+00 0.748E+00 0.748E+00   -.894E+00 0.268E+00 0.268E+00   0.103E+00 -.102E+01 -.102E+01   0.387E-03 -.802E-03 -.802E-03
   -.178E+01 0.184E+01 0.184E+01   0.285E+01 -.256E+01 -.256E+01   -.107E+01 0.727E+00 0.727E+00   -.924E-03 0.702E-03 0.702E-03
   0.748E+00 0.793E+00 0.748E+00   0.268E+00 -.894E+00 0.268E+00   -.102E+01 0.103E+00 -.102E+01   -.802E-03 0.387E-03 -.802E-03
   0.748E+00 0.748E+00 0.793E+00   0.268E+00 0.268E+00 -.894E+00   -.102E+01 -.102E+01 0.103E+00   -.802E-03 -.802E-03 0.387E-03
   -.280E+00 -.280E+00 -.280E+00   0.324E+00 0.324E+00 0.324E+00   -.475E-01 -.475E-01 -.475E-01   -.463E-03 -.463E-03 -.463E-03
   0.248E+01 0.248E+01 -.248E+01   0.190E+01 0.190E+01 -.190E+01   -.437E+01 -.437E+01 0.437E+01   -.136E-02 -.136E-02 0.136E-02
   -.184E+01 -.184E+01 -.178E+01   0.256E+01 0.256E+01 0.285E+01   -.727E+00 -.727E+00 -.107E+01   -.702E-03 -.702E-03 -.924E-03
   -.184E+01 0.178E+01 0.184E+01   0.256E+01 -.285E+01 -.256E+01   -.727E+00 0.107E+01 0.727E+00   -.702E-03 0.924E-03 0.702E-03
   -.793E+00 -.748E+00 0.748E+00   0.894E+00 -.268E+00 0.268E+00   -.103E+00 0.102E+01 -.102E+01   -.387E-03 0.802E-03 -.802E-03
   0.178E+01 -.184E+01 0.184E+01   -.285E+01 0.256E+01 -.256E+01   0.107E+01 -.727E+00 0.727E+00   0.924E-03 -.702E-03 0.702E-03
   -.748E+00 -.793E+00 0.748E+00   -.268E+00 0.894E+00 0.268E+00   0.102E+01 -.103E+00 -.102E+01   0.802E-03 -.387E-03 -.802E-03
   -.748E+00 -.748E+00 0.793E+00   -.268E+00 -.268E+00 -.894E+00   0.102E+01 0.102E+01 0.103E+00   0.802E-03 0.802E-03 0.387E-03
   0.280E+00 0.280E+00 -.280E+00   -.324E+00 -.324E+00 0.324E+00   0.475E-01 0.475E-01 -.475E-01   0.463E-03 0.463E-03 -.463E-03
   0.248E+01 -.248E+01 0.248E+01   0.190E+01 -.190E+01 0.190E+01   -.437E+01 0.437E+01 -.437E+01   -.136E-02 0.136E-02 -.136E-02
   -.184E+01 0.184E+01 0.178E+01   0.256E+01 -.256E+01 -.285E+01   -.727E+00 0.727E+00 0.107E+01   -.702E-03 0.702E-03 0.924E-03
   -.184E+01 -.178E+01 -.184E+01   0.256E+01 0.285E+01 0.256E+01   -.727E+00 -.107E+01 -.727E+00   -.702E-03 -.924E-03 -.702E-03
   -.793E+00 0.748E+00 -.748E+00   0.894E+00 0.268E+00 -.268E+00   -.103E+00 -.102E+01 0.102E+01   -.387E-03 -.802E-03 0.802E-03
   0.178E+01 0.184E+01 -.184E+01   -.285E+01 -.256E+01 0.256E+01   0.107E+01 0.727E+00 -.727E+00   0.924E-03 0.702E-03 -.702E-03
   -.748E+00 0.793E+00 -.748E+00   -.268E+00 -.894E+00 -.268E+00   0.102E+01 0.103E+00 0.102E+01   0.802E-03 0.387E-03 0.802E-03
   -.748E+00 0.748E+00 -.793E+00   -.268E+00 0.268E+00 0.894E+00   0.102E+01 -.102E+01 -.103E+00   0.802E-03 -.802E-03 -.387E-03
   0.280E+00 -.280E+00 0.280E+00   -.324E+00 0.324E+00 -.324E+00   0.475E-01 -.475E-01 0.475E-01   0.463E-03 -.463E-03 0.463E-03
 -----------------------------------------------------------------------------------------------
   -.644E-05 -.644E-05 -.535E-06   -.296E-13 -.158E-13 0.461E-13   -.694E-17 0.236E-15 0.305E-15   -.205E-12 -.909E-13 0.343E-12
 
 
 POSITION                                       TOTAL-FORCE (eV/Angst)
 -----------------------------------------------------------------------------------
      8.41155      8.41155      8.41155         0.012004      0.012004      0.012004
      8.39149      8.39149      4.24324        -0.001251     -0.001251     -0.003189
      8.39149      4.24324      8.39149        -0.001251     -0.003189     -0.001251
      0.00689      4.21607      4.21607         0.005875      0.001973      0.001973
      4.24324      8.39149      8.39149        -0.003189     -0.001251     -0.001251
      4.21607      0.00689      4.21607         0.001973      0.005875      0.001973
      4.21607      4.21607      0.00689         0.001973      0.001973      0.005875
      4.20461      4.20461      4.20461         0.010984      0.010984      0.010984
      8.41155      2.11277      2.11277         0.012004     -0.012004     -0.012004
      8.39149      2.13283      6.28108        -0.001251      0.001251      0.003189
      8.39149      6.28108      2.13283        -0.001251      0.003189      0.001251
      0.00689      6.30825      6.30825         0.005875     -0.001973     -0.001973
      4.24324      2.13283      2.13283        -0.003189      0.001251      0.001251
      4.21607      2.09798      6.30825         0.001973     -0.005875     -0.001973
      4.21607      6.30825      2.09798         0.001973     -0.001973     -0.005875
      4.20461      6.31971      6.31971         0.010984     -0.010984     -0.010984
      2.11277      8.41155      2.11277        -0.012004      0.012004     -0.012004
      2.13283      8.39149      6.28108         0.001251     -0.001251      0.003189
      2.13283      4.24324      2.13283         0.001251     -0.003189      0.001251
      2.09798      4.21607      6.30825        -0.005875      0.001973     -0.001973
      6.28108      8.39149      2.13283         0.003189     -0.001251      0.001251
      6.30825      0.00689      6.30825        -0.001973      0.005875     -0.001973
      6.30825      4.21607      2.09798        -0.001973      0.001973     -0.005875
      6.31971      4.20461      6.31971        -0.010984      0.010984     -0.010984
      2.11277      2.11277      8.41155        -0.012004     -0.012004      0.012004
      2.13283      2.13283      4.24324         0.001251      0.001251     -0.003189
      2.13283      6.28108      8.39149         0.001251      0.003189     -0.001251
      2.09798      6.30825      4.21607        -0.005875     -0.001973      0.001973
      6.28108      2.13283      8.39149         0.003189      0.001251     -0.001251
      6.30825      2.09798      4.21607        -0.001973     -0.005875      0.001973
      6.30825      6.30825      0.00689        -0.001973     -0.001973      0.005875
      6.31971      6.31971      4.20461        -0.010984     -0.010984      0.010984
      1.05243      1.05243      1.05243         0.000000      0.000000     -0.000000
      2.37209      8.15223      8.15223        -0.008769      0.008769      0.008769
      2.11290      8.41142      4.22025         0.003058     -0.003058      0.000759
      2.11290      4.22025      8.41142         0.003058      0.000759     -0.003058
      2.10786      4.26195      4.26195         0.002659      0.000490      0.000490
      6.30407      8.41142      8.41142        -0.000759     -0.003058     -0.003058
      6.26237      8.41646      4.26195        -0.000490     -0.002659      0.000490
      6.26237      4.26195      8.41646        -0.000490      0.000490     -0.002659
      6.31394      4.21038      4.21038        -0.003379      0.003379      0.003379
      2.37209      2.37209      2.37209        -0.008769     -0.008769     -0.008769
      2.11290      2.11290      6.30407         0.003058      0.003058     -0.000759
      2.11290      6.30407      2.11290         0.003058     -0.000759      0.003058
      2.10786      6.26237      6.26237         0.002659     -0.000490     -0.000490
      6.30407      2.11290      2.11290        -0.000759      0.003058      0.003058
      6.26237      2.10786      6.26237        -0.000490      0.002659     -0.000490
      6.26237      6.26237      2.10786        -0.000490     -0.000490      0.002659
      6.31394      6.31394      6.31394        -0.003379     -0.003379     -0.003379
      8.15223      8.15223      2.37209         0.008769      0.008769     -0.008769
      8.41142      8.41142      6.30407        -0.003058     -0.003058     -0.000759
      8.41142      4.22025      2.11290        -0.003058      0.000759      0.003058
      8.41646      4.26195      6.26237        -0.002659      0.000490     -0.000490
      4.22025      8.41142      2.11290         0.000759     -0.003058      0.003058
      4.26195      8.41646      6.26237         0.000490     -0.002659     -0.000490
      4.26195      4.26195      2.10786         0.000490      0.000490      0.002659
      4.21038      4.21038      6.31394         0.003379      0.003379     -0.003379
      8.15223      2.37209      8.15223         0.008769     -0.008769      0.008769
      8.41142      2.11290      4.22025        -0.003058      0.003058      0.000759
      8.41142      6.30407      8.41142        -0.003058     -0.000759     -0.003058
      8.41646      6.26237      4.26195        -0.002659     -0.000490      0.000490
      4.22025      2.11290      8.41142         0.000759      0.003058     -0.003058
      4.26195      2.10786      4.26195         0.000490      0.002659      0.000490
      4.26195      6.26237      8.41646         0.000490     -0.000490     -0.002659
      4.21038      6.31394      4.21038         0.003379     -0.003379      0.003379
 -----------------------------------------------------------------------------------
    total drift:                               -0.000006     -0.000006     -0.000001


--------------------------------------------------------------------------------------------------------



  FREE ENERGIE OF THE ION-ELECTRON SYSTEM (eV)
  ---------------------------------------------------
  free  energy   TOTEN  =      -390.63328672 eV

  energy  without entropy=     -390.63328672  energy(sigma->0) =     -390.63328672
 


--------------------------------------------------------------------------------------------------------


    POTLOK:  cpu time    0.5600: real time    0.5604


--------------------------------------------------------------------------------------------------------




--------------------------------------------------------------------------------------------------------


  
 reached required accuracy - stopping structural energy minimisation
 writing wavefunctions
     LOOP+:  cpu time    4.8120: real time    5.2181
    4ORBIT:  cpu time    0.0000: real time    0.0000
 


 total charge     
 
# of ion       s       p       d       tot
------------------------------------------
    1        0.167   0.192   0.087   0.446
    2        0.162   0.201   0.093   0.456
    3        0.162   0.201   0.093   0.456
    4        0.157   0.194   0.088   0.438
    5        0.162   0.201   0.093   0.456
    6        0.157   0.194   0.088   0.438
    7        0.157   0.194   0.088   0.438
    8        0.153   0.185   0.082   0.420
    9        0.166   0.192   0.087   0.445
   10        0.162   0.201   0.093   0.455
   11        0.162   0.201   0.093   0.455
   12        0.157   0.194   0.088   0.438
   13        0.162   0.201   0.093   0.455
   14        0.157   0.194   0.088   0.438
   15        0.157   0.194   0.088   0.438
   16        0.153   0.185   0.082   0.420
   17        0.166   0.192   0.087   0.445
   18        0.162   0.201   0.093   0.455
   19        0.162   0.201   0.093   0.455
   20        0.157   0.194   0.088   0.438
   21        0.162   0.201   0.093   0.455
   22        0.157   0.194   0.088   0.438
   23        0.157   0.194   0.088   0.438
   24        0.153   0.185   0.082   0.420
   25        0.166   0.192   0.087   0.445
   26        0.162   0.201   0.093   0.455
   27        0.162   0.201   0.093   0.455
   28        0.157   0.194   0.088   0.438
   29        0.162   0.201   0.093   0.455
   30        0.157   0.194   0.088   0.438
   31        0.157   0.194   0.088   0.438
   32        0.153   0.185   0.082   0.420
   33        1.601   3.707   0.000   5.308
   34        1.577   3.597   0.000   5.174
   35        1.564   3.561   0.000   5.125
   36        1.564   3.561   0.000   5.125
   37        1.565   3.577   0.000   5.143
   38        1.564   3.561   0.000   5.125
   39        1.565   3.577   0.000   5.142
   40        1.565   3.577   0.000   5.142
   41        1.564   3.562   0.000   5.126
   42        1.577   3.597   0.000   5.174
   43        1.564   3.561   0.000   5.125
   44        1.564   3.561   0.000   5.125
   45        1.565   3.578   0.000   5.143
   46        1.564   3.561   0.000   5.125
   47        1.565   3.578   0.000   5.143
   48        1.565   3.578   0.000   5.143
   49        1.564   3.562   0.000   5.126
   50        1.577   3.597   0.000   5.174
   51        1.564   3.561   0.000   5.125
   52        1.564   3.561   0.000   5.125
   53        1.565   3.577   0.000   5.142
   54        1.564   3.561   0.000   5.125
   55        1.565   3.577   0.000   5.142
   56        1.565   3.577   0.000   5.143
   57        1.564   3.562   0.000   5.126
   58        1.577   3.597   0.000   5.174
   59        1.564   3.561   0.000   5.125
   60        1.564   3.561   0.000   5.125
   61        1.565   3.577   0.000   5.142
   62        1.564   3.561   0.000   5.125
   63        1.565   3.577   0.000   5.143
   64        1.565   3.577   0.000   5.142
   65        1.564   3.562   0.000   5.126
--------------------------------------------------
tot         56.820 124.246   2.838 183.904
 


 magnetization (x)
 
# of ion       s       p       d       tot
------------------------------------------
    1       -0.000  -0.000  -0.000  -0.000
    2       -0.000   0.000  -0.000  -0.000
    3       -0.000   0.000  -0.000   0.000
    4        0.000  -0.000   0.000  -0.000
    5       -0.000   0.000  -0.000   0.000
    6       -0.000   0.000   0.000  -0.000
    7       -0.000   0.000  -0.000   0.000
    8        0.000  -0.000  -0.000  -0.000
    9        0.000   0.000  -0.000   0.000
   10       -0.000   0.000  -0.000  -0.000
   11       -0.000  -0.000  -0.000  -0.000
   12       -0.000  -0.000  -0.000  -0.000
   13       -0.000  -0.000  -0.000  -0.000
   14       -0.000  -0.000  -0.000  -0.000
   15       -0.000  -0.000  -0.000  -0.000
   16        0.000  -0.000  -0.000  -0.000
   17       -0.000  -0.000  -0.000  -0.000
   18       -0.000   0.000  -0.000  -0.000
   19       -0.000   0.000   0.000   0.000
   20       -0.000  -0.000  -0.000  -0.000
   21       -0.000   0.000  -0.000  -0.000
   22       -0.000  -0.000  -0.000  -0.000
   23       -0.000  -0.000   0.000  -0.000
   24        0.000  -0.000  -0.000  -0.000
   25        0.000  -0.000   0.000  -0.000
   26       -0.000   0.000   0.000  -0.000
   27       -0.000   0.000  -0.000  -0.000
   28        0.000  -0.000  -0.000  -0.000
   29        0.000  -0.000  -0.000  -0.000
   30       -0.000   0.000   0.000   0.000
   31        0.000  -0.000   0.000  -0.000
   32        0.000  -0.000  -0.000  -0.000
   33       -0.000   0.000   0.000  -0.000
   34        0.000  -0.000   0.000   0.000
   35        0.000   0.000   0.000   0.000
   36        0.000   0.000   0.000   0.000
   37       -0.000  -0.000   0.000  -0.000
   38        0.000   0.000   0.000   0.000
   39        0.000  -0.000   0.000  -0.000
   40       -0.000   0.000   0.000   0.000
   41        0.000   0.000   0.000   0.000
   42        0.000   0.000   0.000   0.000
   43        0.000   0.000   0.000   0.000
   44        0.000   0.000   0.000   0.000
   45        0.000   0.000   0.000   0.000
   46        0.000   0.000   0.000   0.000
   47        0.000   0.000   0.000   0.000
   48        0.000  -0.000   0.000   0.000
   49        0.000   0.000   0.000   0.000
   50        0.000   0.000   0.000   0.000
   51        0.000   0.000   0.000   0.000
   52       -0.000   0.000   0.000   0.000
   53       -0.000   0.000   0.000  -0.000
   54       -0.000   0.000   0.000   0.000
   55        0.000  -0.000   0.000  -0.000
   56       -0.000  -0.000   0.000  -0.000
   57       -0.000  -0.000   0.000  -0.000
   58        0.000   0.000   0.000   0.000
   59        0.000   0.000   0.000   0.000
   60       -0.000   0.000   0.000   0.000
   61       -0.000   0.000   0.000   0.000
   62        0.000   0.000   0.000   0.000
   63        0.000  -0.000   0.000  -0.000
   64        0.000   0.000   0.000   0.000
   65        0.000   0.000   0.000   0.000
--------------------------------------------------
tot          0.000   0.000  -0.000   0.000
 

 total amount of memory used by VASP MPI-rank0    50664. kBytes
=======================================================================

   base      :      30000. kBytes
   nonlr-proj:       8683. kBytes
   fftplans  :       1007. kBytes
   grid      :       7709. kBytes
   one-center:       1054. kBytes
   wavefun   :       2211. kBytes
 
  
  
 General timing and accounting informations for this job:
 ========================================================
  
                  Total CPU time used (sec):        6.588
                            User time (sec):        6.268
                          System time (sec):        0.320
                         Elapsed time (sec):        7.439
  
                   Maximum memory used (kb):      104884.
                   Average memory used (kb):           0.
  
                          Minor page faults:        34989
                          Major page faults:           11
                 Voluntary context switches:         2646
