   16   16   20    2
  0.9574673E+01  0.6006014E-09  0.6006014E-09  0.6006014E-09  0.5000000E-15
  1.000000000000000E-004
  CAR 
 unknown system                          
     65      8     52
 
  0.0000000E+00  0.0000000E+00  0.0000000E+00  0.1250000E+00
    1      -13.936055    -13.957980   1.000000   1.000000
    2      -12.757033    -12.777190   1.000000   1.000000
    3      -12.756419    -12.776664   1.000000   1.000000
    4      -12.752584    -12.772860   1.000000   1.000000
    5      -12.461809    -12.480514   1.000000   1.000000
    6      -12.457871    -12.476722   1.000000   1.000000
    7      -12.291847    -12.301583   1.000000   1.000000
    8      -12.150071    -12.161665   1.000000   1.000000
    9       -2.128550     -2.179282   1.000000   1.000000
   10       -1.140342     -1.159574   1.000000   1.000000
   11       -1.139380     -1.158620   1.000000   1.000000
   12       -1.139045     -1.158267   1.000000   1.000000
   13       -0.855400     -0.884512   1.000000   1.000000
   14       -0.855027     -0.884162   1.000000   1.000000
   15       -0.854889     -0.883986   1.000000   1.000000
   16        1.872839      1.853871   1.000000   1.000000
   17        1.874158      1.855220   1.000000   1.000000
   18        1.877542      1.858593   1.000000   1.000000
   19        1.964641      1.949387   1.000000   1.000000
   20        1.965281      1.950128   1.000000   1.000000
   21        1.965660      1.950451   1.000000   1.000000
   22        2.391255      2.367086   1.000000   1.000000
   23        2.395506      2.371241   1.000000   1.000000
   24        2.659397      2.645247   1.000000   1.000000
   25        2.659744      2.645538   1.000000   1.000000
   26        2.660091      2.645914   1.000000   1.000000
   27        2.861146      2.849385   1.000000   1.000000
   28        2.861370      2.849706   1.000000   1.000000
   29        2.862091      2.850382   1.000000   1.000000
   30        3.326512      3.312752   1.000000   1.000000
   31        3.326951      3.313171   1.000000   1.000000
   32        3.327254      3.313511   1.000000   1.000000
   33        7.256613      7.186526   1.000000   1.000000
   34       10.581533     10.510877   0.000000   0.000000
   35       10.587486     10.517150   0.000000   0.000000
   36       10.587970     10.517345   0.000000   0.000000
   37       11.116671     11.055966   0.000000   0.000000
   38       11.191920     11.156404   0.000000   0.000000
   39       12.261250     12.199445   0.000000   0.000000
   40       12.262137     12.200063   0.000000   0.000000
   41       12.262275     12.200237   0.000000   0.000000
   42       13.135498     13.117359   0.000000   0.000000
   43       13.136027     13.117834   0.000000   0.000000
   44       14.721566     14.658698   0.000000   0.000000
   45       15.689855     15.651233   0.000000   0.000000
   46       15.691047     15.652366   0.000000   0.000000
   47       15.693561     15.654693   0.000000   0.000000
   48       15.906510     15.843798   0.000000   0.000000
   49       15.907549     15.845346   0.000000   0.000000
   50       15.912438     15.850180   0.000000   0.000000
   51       17.899099     17.841672   0.000000   0.000000
   52       17.904881     17.845483   0.000000   0.000000
 
  0.5000000E+00  0.0000000E+00  0.0000000E+00  0.1250000E+00
    1      -13.465442    -13.488102   1.000000   1.000000
    2      -13.279198    -13.298793   1.000000   1.000000
    3      -12.673080    -12.692830   1.000000   1.000000
    4      -12.666555    -12.686625   1.000000   1.000000
    5      -12.571343    -12.590351   1.000000   1.000000
    6      -12.563307    -12.582682   1.000000   1.000000
    7      -12.273318    -12.284266   1.000000   1.000000
    8      -12.244852    -12.255713   1.000000   1.000000
    9       -1.299601     -1.346026   1.000000   1.000000
   10       -0.823394     -0.861424   1.000000   1.000000
   11       -0.405374     -0.425314   1.000000   1.000000
   12       -0.394126     -0.414790   1.000000   1.000000
   13       -0.390243     -0.410736   1.000000   1.000000
   14       -0.379144     -0.400303   1.000000   1.000000
   15        0.446774      0.424506   1.000000   1.000000
   16        0.714340      0.690194   1.000000   1.000000
   17        1.090353      1.065249   1.000000   1.000000
   18        1.094659      1.069538   1.000000   1.000000
   19        1.364775      1.339903   1.000000   1.000000
   20        1.371088      1.346146   1.000000   1.000000
   21        1.607512      1.595207   1.000000   1.000000
   22        1.710213      1.697739   1.000000   1.000000
   23        2.205083      2.187861   1.000000   1.000000
   24        2.209165      2.191697   1.000000   1.000000
   25        2.239734      2.225162   1.000000   1.000000
   26        2.305114      2.287624   1.000000   1.000000
   27        2.310256      2.292325   1.000000   1.000000
   28        2.347788      2.332791   1.000000   1.000000
   29        2.988798      2.975332   1.000000   1.000000
   30        2.990148      2.976805   1.000000   1.000000
   31        3.043211      3.029893   1.000000   1.000000
   32        3.043500      3.029956   1.000000   1.000000
   33        9.579860      9.501177   0.524680   0.988913
   34        9.815505      9.763378   0.000000   0.000000
   35       12.101600     12.045903   0.000000   0.000000
   36       12.426056     12.378379   0.000000   0.000000
   37       12.568169     12.518722   0.000000   0.000000
   38       12.575897     12.526948   0.000000   0.000000
   39       12.626752     12.560974   0.000000   0.000000
   40       12.636121     12.569819   0.000000   0.000000
   41       13.666272     13.601645   0.000000   0.000000
   42       14.367733     14.313521   0.000000   0.000000
   43       14.514037     14.467051   0.000000   0.000000
   44       14.517621     14.471188   0.000000   0.000000
   45       14.792306     14.746350   0.000000   0.000000
   46       14.798121     14.752475   0.000000   0.000000
   47       15.387934     15.343766   0.000000   0.000000
   48       15.477115     15.434488   0.000000   0.000000
   49       15.841592     15.789219   0.000000   0.000000
   50       15.873572     15.823143   0.000000   0.000000
   51       16.128775     16.083578   0.000000   0.000000
   52       16.137751     16.087847   0.000000   0.000000
 
  0.0000000E+00  0.5000000E+00  0.0000000E+00  0.1250000E+00
    1      -13.463155    -13.485913   1.000000   1.000000
    2      -13.282420    -13.301916   1.000000   1.000000
    3      -12.671791    -12.691620   1.000000   1.000000
    4      -12.664931    -12.685023   1.000000   1.000000
    5      -12.571018    -12.589998   1.000000   1.000000
    6      -12.565577    -12.584868   1.000000   1.000000
    7      -12.275464    -12.286349   1.000000   1.000000
    8      -12.242770    -12.253696   1.000000   1.000000
    9       -1.294823     -1.341505   1.000000   1.000000
   10       -0.827478     -0.865246   1.000000   1.000000
   11       -0.408888     -0.428814   1.000000   1.000000
   12       -0.397084     -0.418152   1.000000   1.000000
   13       -0.386622     -0.406784   1.000000   1.000000
   14       -0.374488     -0.395672   1.000000   1.000000
   15        0.443291      0.420992   1.000000   1.000000
   16        0.714354      0.690192   1.000000   1.000000
   17        1.086215      1.061059   1.000000   1.000000
   18        1.096556      1.071251   1.000000   1.000000
   19        1.365083      1.339975   1.000000   1.000000
   20        1.370447      1.345362   1.000000   1.000000
   21        1.605725      1.593320   1.000000   1.000000
   22        1.712487      1.699961   1.000000   1.000000
   23        2.205227      2.188014   1.000000   1.000000
   24        2.211424      2.194027   1.000000   1.000000
   25        2.241688      2.227163   1.000000   1.000000
   26        2.304242      2.286946   1.000000   1.000000
   27        2.310383      2.292909   1.000000   1.000000
   28        2.346487      2.331582   1.000000   1.000000
   29        2.987340      2.974120   1.000000   1.000000
   30        2.990680      2.977300   1.000000   1.000000
   31        3.042747      3.029396   1.000000   1.000000
   32        3.045125      3.031832   1.000000   1.000000
   33        9.582388      9.503448   0.496167   0.986897
   34        9.816538      9.764153   0.000000   0.000000
   35       12.105215     12.049432   0.000000   0.000000
   36       12.420283     12.371519   0.000000   0.000000
   37       12.567458     12.517731   0.000000   0.000000
   38       12.580291     12.531574   0.000000   0.000000
   39       12.621176     12.554955   0.000000   0.000000
   40       12.637044     12.571072   0.000000   0.000000
   41       13.651958     13.587118   0.000000   0.000000
   42       14.387835     14.334081   0.000000   0.000000
   43       14.522039     14.475724   0.000000   0.000000
   44       14.529595     14.483056   0.000000   0.000000
   45       14.780517     14.734966   0.000000   0.000000
   46       14.788032     14.742442   0.000000   0.000000
   47       15.399502     15.354938   0.000000   0.000000
   48       15.480594     15.438507   0.000000   0.000000
   49       15.820399     15.768249   0.000000   0.000000
   50       15.867420     15.816558   0.000000   0.000000
   51       16.119892     16.074596   0.000000   0.000000
   52       16.138668     16.089526   0.000000   0.000000
 
  0.5000000E+00  0.5000000E+00  0.0000000E+00  0.1250000E+00
    1      -13.339291    -13.362681   1.000000   1.000000
    2      -13.087357    -13.105244   1.000000   1.000000
    3      -12.821598    -12.841843   1.000000   1.000000
    4      -12.818827    -12.839113   1.000000   1.000000
    5      -12.784071    -12.804054   1.000000   1.000000
    6      -12.414969    -12.433792   1.000000   1.000000
    7      -12.360008    -12.369800   1.000000   1.000000
    8      -12.165115    -12.177225   1.000000   1.000000
    9       -1.055093     -1.102450   1.000000   1.000000
   10       -0.159834     -0.180931   1.000000   1.000000
   11       -0.070612     -0.092596   1.000000   1.000000
   12       -0.062786     -0.084664   1.000000   1.000000
   13        0.112725      0.084968   1.000000   1.000000
   14        0.117147      0.089445   1.000000   1.000000
   15        0.490836      0.455856   1.000000   1.000000
   16        0.497964      0.476571   1.000000   1.000000
   17        0.515216      0.497733   1.000000   1.000000
   18        0.541236      0.518796   1.000000   1.000000
   19        0.963475      0.931972   1.000000   1.000000
   20        1.339238      1.319984   1.000000   1.000000
   21        1.340483      1.321186   1.000000   1.000000
   22        1.560068      1.544930   1.000000   1.000000
   23        1.629805      1.616668   1.000000   1.000000
   24        1.660276      1.648953   1.000000   1.000000
   25        2.348076      2.327779   1.000000   1.000000
   26        2.376814      2.358145   1.000000   1.000000
   27        2.422104      2.399475   1.000000   1.000000
   28        2.658929      2.644705   1.000000   1.000000
   29        2.735154      2.722908   1.000000   1.000000
   30        2.735809      2.723584   1.000000   1.000000
   31        2.831431      2.819207   1.000000   1.000000
   32        2.832074      2.819825   1.000000   1.000000
   33       10.234829     10.155255   0.000000   0.000000
   34       11.133004     11.098093   0.000000   0.000000
   35       11.960206     11.899220   0.000000   0.000000
   36       12.131879     12.067221   0.000000   0.000000
   37       12.149722     12.086787   0.000000   0.000000
   38       12.629674     12.595109   0.000000   0.000000
   39       13.911250     13.873899   0.000000   0.000000
   40       14.059492     13.983130   0.000000   0.000000
   41       14.330798     14.248060   0.000000   0.000000
   42       14.516481     14.453195   0.000000   0.000000
   43       14.518404     14.458822   0.000000   0.000000
   44       14.523087     14.480911   0.000000   0.000000
   45       14.646937     14.592694   0.000000   0.000000
   46       14.657856     14.603228   0.000000   0.000000
   47       14.927202     14.871097   0.000000   0.000000
   48       14.938216     14.882618   0.000000   0.000000
   49       15.097823     15.057372   0.000000   0.000000
   50       15.297970     15.279965   0.000000   0.000000
   51       16.086709     16.053381   0.000000   0.000000
   52       16.590347     16.550304   0.000000   0.000000
 
  0.0000000E+00  0.0000000E+00  0.5000000E+00  0.1250000E+00
    1      -13.463284    -13.486067   1.000000   1.000000
    2      -13.282296    -13.301750   1.000000   1.000000
    3      -12.671623    -12.691548   1.000000   1.000000
    4      -12.664925    -12.684966   1.000000   1.000000
    5      -12.570826    -12.589841   1.000000   1.000000
    6      -12.566031    -12.585253   1.000000   1.000000
    7      -12.274084    -12.285013   1.000000   1.000000
    8      -12.244055    -12.254944   1.000000   1.000000
    9       -1.295556     -1.342275   1.000000   1.000000
   10       -0.826959     -0.864669   1.000000   1.000000
   11       -0.402980     -0.423044   1.000000   1.000000
   12       -0.396695     -0.417000   1.000000   1.000000
   13       -0.386434     -0.407369   1.000000   1.000000
   14       -0.381333     -0.402378   1.000000   1.000000
   15        0.443949      0.421673   1.000000   1.000000
   16        0.714287      0.690141   1.000000   1.000000
   17        1.086887      1.061786   1.000000   1.000000
   18        1.096488      1.071198   1.000000   1.000000
   19        1.365886      1.340753   1.000000   1.000000
   20        1.369700      1.344626   1.000000   1.000000
   21        1.606536      1.594128   1.000000   1.000000
   22        1.711936      1.699420   1.000000   1.000000
   23        2.205756      2.188359   1.000000   1.000000
   24        2.210966      2.193572   1.000000   1.000000
   25        2.241654      2.227108   1.000000   1.000000
   26        2.304654      2.287320   1.000000   1.000000
   27        2.308965      2.291624   1.000000   1.000000
   28        2.346367      2.331467   1.000000   1.000000
   29        2.989787      2.976526   1.000000   1.000000
   30        2.991015      2.977558   1.000000   1.000000
   31        3.041800      3.028448   1.000000   1.000000
   32        3.043386      3.030155   1.000000   1.000000
   33        9.582138      9.503223   0.498981   0.987110
   34        9.816350      9.764012   0.000000   0.000000
   35       12.104805     12.049121   0.000000   0.000000
   36       12.421991     12.373148   0.000000   0.000000
   37       12.567277     12.517816   0.000000   0.000000
   38       12.580950     12.532194   0.000000   0.000000
   39       12.619896     12.553788   0.000000   0.000000
   40       12.638399     12.572129   0.000000   0.000000
   41       13.654380     13.589626   0.000000   0.000000
   42       14.383738     14.329912   0.000000   0.000000
   43       14.519275     14.472978   0.000000   0.000000
   44       14.526340     14.479842   0.000000   0.000000
   45       14.784885     14.739250   0.000000   0.000000
   46       14.790380     14.744710   0.000000   0.000000
   47       15.400779     15.355807   0.000000   0.000000
   48       15.471667     15.429966   0.000000   0.000000
   49       15.830772     15.779019   0.000000   0.000000
   50       15.862583     15.811362   0.000000   0.000000
   51       16.120835     16.072765   0.000000   0.000000
   52       16.138488     16.095782   0.000000   0.000000
 
  0.5000000E+00  0.0000000E+00  0.5000000E+00  0.1250000E+00
    1      -13.338501    -13.361924   1.000000   1.000000
    2      -13.089680    -13.107517   1.000000   1.000000
    3      -12.821770    -12.842017   1.000000   1.000000
    4      -12.817914    -12.838196   1.000000   1.000000
    5      -12.782331    -12.802365   1.000000   1.000000
    6      -12.416290    -12.435046   1.000000   1.000000
    7      -12.360007    -12.369799   1.000000   1.000000
    8      -12.164746    -12.176892   1.000000   1.000000
    9       -1.054081     -1.101526   1.000000   1.000000
   10       -0.154610     -0.175829   1.000000   1.000000
   11       -0.071444     -0.093356   1.000000   1.000000
   12       -0.068341     -0.090114   1.000000   1.000000
   13        0.112581      0.084902   1.000000   1.000000
   14        0.117079      0.089473   1.000000   1.000000
   15        0.475122      0.442078   1.000000   1.000000
   16        0.514530      0.495202   1.000000   1.000000
   17        0.515594      0.497905   1.000000   1.000000
   18        0.537303      0.511210   1.000000   1.000000
   19        0.966462      0.934697   1.000000   1.000000
   20        1.339237      1.319958   1.000000   1.000000
   21        1.340284      1.320993   1.000000   1.000000
   22        1.559052      1.543973   1.000000   1.000000
   23        1.630354      1.617132   1.000000   1.000000
   24        1.660344      1.649014   1.000000   1.000000
   25        2.374396      2.354476   1.000000   1.000000
   26        2.377785      2.359030   1.000000   1.000000
   27        2.396258      2.373327   1.000000   1.000000
   28        2.658527      2.644345   1.000000   1.000000
   29        2.734403      2.722247   1.000000   1.000000
   30        2.735383      2.723160   1.000000   1.000000
   31        2.831130      2.818877   1.000000   1.000000
   32        2.833061      2.820736   1.000000   1.000000
   33       10.234153     10.154636   0.000000   0.000000
   34       11.132901     11.098051   0.000000   0.000000
   35       11.971320     11.911457   0.000000   0.000000
   36       12.132406     12.067643   0.000000   0.000000
   37       12.138555     12.074344   0.000000   0.000000
   38       12.629562     12.594981   0.000000   0.000000
   39       13.913620     13.876122   0.000000   0.000000
   40       14.061087     13.984969   0.000000   0.000000
   41       14.335232     14.252972   0.000000   0.000000
   42       14.512116     14.448515   0.000000   0.000000
   43       14.515128     14.452330   0.000000   0.000000
   44       14.522721     14.483790   0.000000   0.000000
   45       14.647685     14.593172   0.000000   0.000000
   46       14.659856     14.605413   0.000000   0.000000
   47       14.927135     14.870911   0.000000   0.000000
   48       14.939122     14.883055   0.000000   0.000000
   49       15.095740     15.055674   0.000000   0.000000
   50       15.295159     15.277269   0.000000   0.000000
   51       16.088344     16.055013   0.000000   0.000000
   52       16.586735     16.547556   0.000000   0.000000
 
  0.0000000E+00  0.5000000E+00  0.5000000E+00  0.1250000E+00
    1      -13.338059    -13.361471   1.000000   1.000000
    2      -13.090080    -13.107958   1.000000   1.000000
    3      -12.819504    -12.839755   1.000000   1.000000
    4      -12.817542    -12.837862   1.000000   1.000000
    5      -12.786339    -12.806274   1.000000   1.000000
    6      -12.413624    -12.432467   1.000000   1.000000
    7      -12.359980    -12.369775   1.000000   1.000000
    8      -12.166146    -12.178229   1.000000   1.000000
    9       -1.053631     -1.101004   1.000000   1.000000
   10       -0.157821     -0.178873   1.000000   1.000000
   11       -0.072550     -0.094568   1.000000   1.000000
   12       -0.068788     -0.090726   1.000000   1.000000
   13        0.117908      0.090168   1.000000   1.000000
   14        0.121398      0.093597   1.000000   1.000000
   15        0.490447      0.454793   1.000000   1.000000
   16        0.495950      0.475622   1.000000   1.000000
   17        0.513856      0.496383   1.000000   1.000000
   18        0.543738      0.520977   1.000000   1.000000
   19        0.955758      0.924334   1.000000   1.000000
   20        1.340457      1.321185   1.000000   1.000000
   21        1.341285      1.321982   1.000000   1.000000
   22        1.561016      1.545845   1.000000   1.000000
   23        1.628003      1.614940   1.000000   1.000000
   24        1.660758      1.649443   1.000000   1.000000
   25        2.347647      2.327442   1.000000   1.000000
   26        2.380342      2.361743   1.000000   1.000000
   27        2.423831      2.400967   1.000000   1.000000
   28        2.659277      2.645073   1.000000   1.000000
   29        2.734558      2.722428   1.000000   1.000000
   30        2.734758      2.722466   1.000000   1.000000
   31        2.830664      2.818514   1.000000   1.000000
   32        2.831096      2.818762   1.000000   1.000000
   33       10.235707     10.156043   0.000000   0.000000
   34       11.132744     11.097820   0.000000   0.000000
   35       11.956862     11.895853   0.000000   0.000000
   36       12.132222     12.066988   0.000000   0.000000
   37       12.150540     12.088100   0.000000   0.000000
   38       12.634164     12.599732   0.000000   0.000000
   39       13.913793     13.876607   0.000000   0.000000
   40       14.056068     13.979398   0.000000   0.000000
   41       14.343308     14.261111   0.000000   0.000000
   42       14.514487     14.451251   0.000000   0.000000
   43       14.517860     14.455605   0.000000   0.000000
   44       14.519290     14.478988   0.000000   0.000000
   45       14.641289     14.586934   0.000000   0.000000
   46       14.654400     14.600151   0.000000   0.000000
   47       14.932002     14.876209   0.000000   0.000000
   48       14.943870     14.888000   0.000000   0.000000
   49       15.096990     15.056701   0.000000   0.000000
   50       15.298312     15.280310   0.000000   0.000000
   51       16.081078     16.047728   0.000000   0.000000
   52       16.588705     16.546987   0.000000   0.000000
 
  0.5000000E+00  0.5000000E+00  0.5000000E+00  0.1250000E+00
    1      -13.465833    -13.488516   1.000000   1.000000
    2      -13.278705    -13.298258   1.000000   1.000000
    3      -12.672951    -12.692755   1.000000   1.000000
    4      -12.666151    -12.686254   1.000000   1.000000
    5      -12.571844    -12.590809   1.000000   1.000000
    6      -12.563370    -12.582718   1.000000   1.000000
    7      -12.275149    -12.286032   1.000000   1.000000
    8      -12.243074    -12.254000   1.000000   1.000000
    9       -1.299982     -1.346482   1.000000   1.000000
   10       -0.823017     -0.860914   1.000000   1.000000
   11       -0.410569     -0.430567   1.000000   1.000000
   12       -0.396465     -0.417097   1.000000   1.000000
   13       -0.387876     -0.408372   1.000000   1.000000
   14       -0.373693     -0.394880   1.000000   1.000000
   15        0.446991      0.424743   1.000000   1.000000
   16        0.714216      0.690094   1.000000   1.000000
   17        1.089409      1.064324   1.000000   1.000000
   18        1.096096      1.070996   1.000000   1.000000
   19        1.363354      1.338495   1.000000   1.000000
   20        1.371152      1.346165   1.000000   1.000000
   21        1.606313      1.593955   1.000000   1.000000
   22        1.711228      1.698822   1.000000   1.000000
   23        2.203519      2.186211   1.000000   1.000000
   24        2.208481      2.190993   1.000000   1.000000
   25        2.239489      2.224892   1.000000   1.000000
   26        2.306112      2.288618   1.000000   1.000000
   27        2.311849      2.293963   1.000000   1.000000
   28        2.348222      2.333237   1.000000   1.000000
   29        2.987513      2.974110   1.000000   1.000000
   30        2.988526      2.975177   1.000000   1.000000
   31        3.044440      3.030870   1.000000   1.000000
   32        3.045482      3.032122   1.000000   1.000000
   33        9.579552      9.500944   0.528147   0.989104
   34        9.815075      9.762942   0.000000   0.000000
   35       12.102473     12.047110   0.000000   0.000000
   36       12.427270     12.379176   0.000000   0.000000
   37       12.567958     12.517872   0.000000   0.000000
   38       12.571930     12.522831   0.000000   0.000000
   39       12.630696     12.565085   0.000000   0.000000
   40       12.635857     12.570100   0.000000   0.000000
   41       13.668047     13.603584   0.000000   0.000000
   42       14.364154     14.309903   0.000000   0.000000
   43       14.511358     14.464527   0.000000   0.000000
   44       14.514458     14.468042   0.000000   0.000000
   45       14.797120     14.751102   0.000000   0.000000
   46       14.800458     14.754626   0.000000   0.000000
   47       15.394028     15.349228   0.000000   0.000000
   48       15.461149     15.419227   0.000000   0.000000
   49       15.844645     15.792396   0.000000   0.000000
   50       15.874088     15.823565   0.000000   0.000000
   51       16.132164     16.086386   0.000000   0.000000
   52       16.137252     16.092242   0.000000   0.000000
