   16   16   20    2
  0.9574673E+01  0.6006014E-09  0.6006014E-09  0.6006014E-09  0.5000000E-15
  1.000000000000000E-004
  CAR 
 unknown system                          
     65     16     52
 
  0.2500000E+00  0.2500000E+00  0.2500000E+00  0.6250000E-01
    1      -13.912935    -13.869329   1.000000   1.000000
    2      -12.990909    -12.947003   1.000000   1.000000
    3      -12.797052    -12.754036   1.000000   1.000000
    4      -12.795879    -12.752858   1.000000   1.000000
    5      -12.523763    -12.480760   1.000000   1.000000
    6      -12.523194    -12.480192   1.000000   1.000000
    7      -12.327278    -12.300673   1.000000   1.000000
    8      -12.222565    -12.193863   1.000000   1.000000
    9       -1.905119     -1.811652   1.000000   1.000000
   10       -0.927309     -0.887955   1.000000   1.000000
   11       -0.926521     -0.887218   1.000000   1.000000
   12       -0.838419     -0.771284   1.000000   1.000000
   13       -0.721849     -0.680950   1.000000   1.000000
   14       -0.674177     -0.617604   1.000000   1.000000
   15       -0.673724     -0.617212   1.000000   1.000000
   16        1.450818      1.497933   1.000000   1.000000
   17        1.466001      1.507908   1.000000   1.000000
   18        1.467019      1.508888   1.000000   1.000000
   19        1.893251      1.939031   1.000000   1.000000
   20        1.893785      1.939526   1.000000   1.000000
   21        2.026009      2.074354   1.000000   1.000000
   22        2.026949      2.075714   1.000000   1.000000
   23        2.042007      2.076779   1.000000   1.000000
   24        2.277700      2.308748   1.000000   1.000000
   25        2.446273      2.483335   1.000000   1.000000
   26        2.495787      2.532860   1.000000   1.000000
   27        2.496052      2.533133   1.000000   1.000000
   28        2.593216      2.625650   1.000000   1.000000
   29        2.828990      2.858323   1.000000   1.000000
   30        2.829894      2.859215   1.000000   1.000000
   31        3.218709      3.251469   1.000000   1.000000
   32        3.218920      3.251691   1.000000   1.000000
   33        8.111640      8.257600   1.000000   1.000000
   34       10.319161     10.478761   0.000000   0.000000
   35       11.142315     11.303550   0.000000   0.000000
   36       11.144061     11.304763   0.000000   0.000000
   37       11.547654     11.642594   0.000000   0.000000
   38       11.876715     11.973309   0.000000   0.000000
   39       12.542880     12.685810   0.000000   0.000000
   40       12.548182     12.690072   0.000000   0.000000
   41       12.764510     12.901606   0.000000   0.000000
   42       13.523791     13.579091   0.000000   0.000000
   43       13.526595     13.581704   0.000000   0.000000
   44       14.513962     14.657328   0.000000   0.000000
   45       15.348698     15.423459   0.000000   0.000000
   46       15.511738     15.583267   0.000000   0.000000
   47       15.517446     15.588991   0.000000   0.000000
   48       15.685072     15.775836   0.000000   0.000000
   49       15.846511     15.948031   0.000000   0.000000
   50       15.853269     15.954644   0.000000   0.000000
   51       17.001240     17.091056   0.000000   0.000000
   52       17.330440     17.435140   0.000000   0.000000
 
  0.2500000E+00  0.0000000E+00  0.0000000E+00  0.6250000E-01
    1      -13.912931    -13.869328   1.000000   1.000000
    2      -12.990940    -12.947041   1.000000   1.000000
    3      -12.797019    -12.753994   1.000000   1.000000
    4      -12.795856    -12.752837   1.000000   1.000000
    5      -12.523825    -12.480816   1.000000   1.000000
    6      -12.523148    -12.480145   1.000000   1.000000
    7      -12.327274    -12.300668   1.000000   1.000000
    8      -12.222589    -12.193888   1.000000   1.000000
    9       -1.905137     -1.811699   1.000000   1.000000
   10       -0.927534     -0.888194   1.000000   1.000000
   11       -0.926400     -0.887091   1.000000   1.000000
   12       -0.838677     -0.771598   1.000000   1.000000
   13       -0.721744     -0.680841   1.000000   1.000000
   14       -0.674383     -0.617820   1.000000   1.000000
   15       -0.673354     -0.616818   1.000000   1.000000
   16        1.451052      1.498031   1.000000   1.000000
   17        1.466212      1.508194   1.000000   1.000000
   18        1.467820      1.509695   1.000000   1.000000
   19        1.893151      1.938904   1.000000   1.000000
   20        1.894249      1.939904   1.000000   1.000000
   21        2.025660      2.074182   1.000000   1.000000
   22        2.027071      2.075480   1.000000   1.000000
   23        2.041855      2.077012   1.000000   1.000000
   24        2.277985      2.308999   1.000000   1.000000
   25        2.446659      2.483721   1.000000   1.000000
   26        2.495259      2.532402   1.000000   1.000000
   27        2.495652      2.532735   1.000000   1.000000
   28        2.593027      2.625482   1.000000   1.000000
   29        2.828895      2.858238   1.000000   1.000000
   30        2.829491      2.858852   1.000000   1.000000
   31        3.218148      3.250972   1.000000   1.000000
   32        3.218820      3.251597   1.000000   1.000000
   33        8.111944      8.257809   1.000000   1.000000
   34       10.319922     10.479048   0.000000   0.000000
   35       11.142169     11.303415   0.000000   0.000000
   36       11.143740     11.304894   0.000000   0.000000
   37       11.547842     11.642646   0.000000   0.000000
   38       11.876877     11.973375   0.000000   0.000000
   39       12.543383     12.686110   0.000000   0.000000
   40       12.547999     12.689941   0.000000   0.000000
   41       12.764679     12.901780   0.000000   0.000000
   42       13.523260     13.578700   0.000000   0.000000
   43       13.526374     13.581617   0.000000   0.000000
   44       14.514020     14.657410   0.000000   0.000000
   45       15.348111     15.422868   0.000000   0.000000
   46       15.511981     15.583504   0.000000   0.000000
   47       15.517418     15.588964   0.000000   0.000000
   48       15.684482     15.775121   0.000000   0.000000
   49       15.846411     15.948142   0.000000   0.000000
   50       15.853622     15.955094   0.000000   0.000000
   51       17.001065     17.090881   0.000000   0.000000
   52       17.330943     17.435584   0.000000   0.000000
 
  0.0000000E+00  0.0000000E+00 -0.2500000E+00  0.6250000E-01
    1      -13.912801    -13.869193   1.000000   1.000000
    2      -12.991716    -12.947825   1.000000   1.000000
    3      -12.797395    -12.754372   1.000000   1.000000
    4      -12.794883    -12.751860   1.000000   1.000000
    5      -12.523750    -12.480742   1.000000   1.000000
    6      -12.523218    -12.480217   1.000000   1.000000
    7      -12.327328    -12.300725   1.000000   1.000000
    8      -12.222486    -12.193781   1.000000   1.000000
    9       -1.904896     -1.811401   1.000000   1.000000
   10       -0.927250     -0.887941   1.000000   1.000000
   11       -0.926305     -0.886994   1.000000   1.000000
   12       -0.838765     -0.771560   1.000000   1.000000
   13       -0.721812     -0.680897   1.000000   1.000000
   14       -0.674667     -0.618209   1.000000   1.000000
   15       -0.673371     -0.616811   1.000000   1.000000
   16        1.450075      1.497052   1.000000   1.000000
   17        1.464870      1.506768   1.000000   1.000000
   18        1.467816      1.509615   1.000000   1.000000
   19        1.893408      1.939204   1.000000   1.000000
   20        1.894398      1.940093   1.000000   1.000000
   21        2.025610      2.074140   1.000000   1.000000
   22        2.027007      2.076092   1.000000   1.000000
   23        2.042572      2.076880   1.000000   1.000000
   24        2.277801      2.308835   1.000000   1.000000
   25        2.447274      2.484328   1.000000   1.000000
   26        2.495430      2.532572   1.000000   1.000000
   27        2.496202      2.533361   1.000000   1.000000
   28        2.592955      2.625398   1.000000   1.000000
   29        2.828779      2.858136   1.000000   1.000000
   30        2.829913      2.859259   1.000000   1.000000
   31        3.218184      3.251015   1.000000   1.000000
   32        3.218865      3.251637   1.000000   1.000000
   33        8.111655      8.257604   1.000000   1.000000
   34       10.317463     10.477136   0.000000   0.000000
   35       11.141348     11.302672   0.000000   0.000000
   36       11.146729     11.307072   0.000000   0.000000
   37       11.546156     11.641184   0.000000   0.000000
   38       11.878324     11.975000   0.000000   0.000000
   39       12.544687     12.686920   0.000000   0.000000
   40       12.547543     12.689467   0.000000   0.000000
   41       12.762779     12.900193   0.000000   0.000000
   42       13.525225     13.580627   0.000000   0.000000
   43       13.527893     13.583022   0.000000   0.000000
   44       14.513421     14.656936   0.000000   0.000000
   45       15.355517     15.430189   0.000000   0.000000
   46       15.507748     15.579473   0.000000   0.000000
   47       15.511287     15.583162   0.000000   0.000000
   48       15.692963     15.783431   0.000000   0.000000
   49       15.845909     15.947499   0.000000   0.000000
   50       15.852962     15.954325   0.000000   0.000000
   51       16.999378     17.089356   0.000000   0.000000
   52       17.325556     17.430233   0.000000   0.000000
 
  0.0000000E+00  0.2500000E+00  0.0000000E+00  0.6250000E-01
    1      -13.912790    -13.869182   1.000000   1.000000
    2      -12.991740    -12.947846   1.000000   1.000000
    3      -12.797398    -12.754383   1.000000   1.000000
    4      -12.794874    -12.751849   1.000000   1.000000
    5      -12.523691    -12.480683   1.000000   1.000000
    6      -12.523312    -12.480310   1.000000   1.000000
    7      -12.327332    -12.300729   1.000000   1.000000
    8      -12.222440    -12.193732   1.000000   1.000000
    9       -1.904945     -1.811452   1.000000   1.000000
   10       -0.926928     -0.887617   1.000000   1.000000
   11       -0.926631     -0.887309   1.000000   1.000000
   12       -0.838617     -0.771387   1.000000   1.000000
   13       -0.722003     -0.681083   1.000000   1.000000
   14       -0.674423     -0.617994   1.000000   1.000000
   15       -0.673443     -0.616891   1.000000   1.000000
   16        1.449834      1.496743   1.000000   1.000000
   17        1.464842      1.506692   1.000000   1.000000
   18        1.468031      1.509944   1.000000   1.000000
   19        1.893479      1.939242   1.000000   1.000000
   20        1.893994      1.939691   1.000000   1.000000
   21        2.026162      2.074361   1.000000   1.000000
   22        2.026938      2.076209   1.000000   1.000000
   23        2.042478      2.076946   1.000000   1.000000
   24        2.277955      2.308989   1.000000   1.000000
   25        2.447272      2.484336   1.000000   1.000000
   26        2.495285      2.532417   1.000000   1.000000
   27        2.496056      2.533223   1.000000   1.000000
   28        2.592931      2.625374   1.000000   1.000000
   29        2.828787      2.858150   1.000000   1.000000
   30        2.830045      2.859383   1.000000   1.000000
   31        3.218188      3.251021   1.000000   1.000000
   32        3.218757      3.251526   1.000000   1.000000
   33        8.111616      8.257568   1.000000   1.000000
   34       10.317216     10.476931   0.000000   0.000000
   35       11.141910     11.303130   0.000000   0.000000
   36       11.146581     11.306977   0.000000   0.000000
   37       11.545979     11.641013   0.000000   0.000000
   38       11.878202     11.974886   0.000000   0.000000
   39       12.545619     12.687827   0.000000   0.000000
   40       12.547314     12.689170   0.000000   0.000000
   41       12.762020     12.899494   0.000000   0.000000
   42       13.525840     13.581191   0.000000   0.000000
   43       13.527752     13.582954   0.000000   0.000000
   44       14.513391     14.656902   0.000000   0.000000
   45       15.357246     15.431877   0.000000   0.000000
   46       15.507658     15.579421   0.000000   0.000000
   47       15.510062     15.581977   0.000000   0.000000
   48       15.694034     15.784508   0.000000   0.000000
   49       15.846514     15.948116   0.000000   0.000000
   50       15.852339     15.953673   0.000000   0.000000
   51       16.998543     17.088534   0.000000   0.000000
   52       17.324604     17.429357   0.000000   0.000000
 
 -0.2500000E+00  0.2500000E+00  0.2500000E+00  0.6250000E-01
    1      -13.622137    -13.579408   1.000000   1.000000
    2      -13.142208    -13.098466   1.000000   1.000000
    3      -12.914503    -12.872931   1.000000   1.000000
    4      -12.835099    -12.792006   1.000000   1.000000
    5      -12.638505    -12.594184   1.000000   1.000000
    6      -12.493224    -12.450259   1.000000   1.000000
    7      -12.320717    -12.292776   1.000000   1.000000
    8      -12.236038    -12.206589   1.000000   1.000000
    9       -1.290450     -1.207925   1.000000   1.000000
   10       -0.601880     -0.523696   1.000000   1.000000
   11       -0.366714     -0.327095   1.000000   1.000000
   12       -0.297634     -0.259336   1.000000   1.000000
   13       -0.246015     -0.196231   1.000000   1.000000
   14       -0.137749     -0.089044   1.000000   1.000000
   15        0.071017      0.113447   1.000000   1.000000
   16        0.608420      0.661237   1.000000   1.000000
   17        0.682858      0.732818   1.000000   1.000000
   18        0.789886      0.851483   1.000000   1.000000
   19        1.115320      1.156524   1.000000   1.000000
   20        1.532899      1.575467   1.000000   1.000000
   21        1.545267      1.587412   1.000000   1.000000
   22        1.819972      1.871992   1.000000   1.000000
   23        1.970386      2.005063   1.000000   1.000000
   24        2.103250      2.136194   1.000000   1.000000
   25        2.186673      2.234346   1.000000   1.000000
   26        2.244870      2.286655   1.000000   1.000000
   27        2.391027      2.427090   1.000000   1.000000
   28        2.503421      2.536873   1.000000   1.000000
   29        2.590484      2.620333   1.000000   1.000000
   30        2.852157      2.883029   1.000000   1.000000
   31        2.871905      2.905607   1.000000   1.000000
   32        2.988695      3.021516   1.000000   1.000000
   33        9.647819      9.806824   0.661684   0.000022
   34       10.528589     10.671511   0.000000   0.000000
   35       11.541827     11.676559   0.000000   0.000000
   36       11.950004     12.116927   0.000000   0.000000
   37       12.408323     12.505581   0.000000   0.000000
   38       12.698804     12.819138   0.000000   0.000000
   39       13.174209     13.307670   0.000000   0.000000
   40       13.483795     13.626872   0.000000   0.000000
   41       13.686721     13.815806   0.000000   0.000000
   42       14.040683     14.149903   0.000000   0.000000
   43       14.351930     14.449824   0.000000   0.000000
   44       14.369824     14.496766   0.000000   0.000000
   45       14.893851     14.957088   0.000000   0.000000
   46       15.018972     15.107153   0.000000   0.000000
   47       15.263318     15.315625   0.000000   0.000000
   48       15.362429     15.438496   0.000000   0.000000
   49       15.517737     15.593152   0.000000   0.000000
   50       15.576808     15.668101   0.000000   0.000000
   51       15.686007     15.790147   0.000000   0.000000
   52       16.583440     16.656903   0.000000   0.000000
 
  0.2500000E+00 -0.2500000E+00  0.2500000E+00  0.6250000E-01
    1      -13.621807    -13.579058   1.000000   1.000000
    2      -13.143059    -13.099325   1.000000   1.000000
    3      -12.913411    -12.871871   1.000000   1.000000
    4      -12.836105    -12.793020   1.000000   1.000000
    5      -12.638050    -12.593720   1.000000   1.000000
    6      -12.493675    -12.450704   1.000000   1.000000
    7      -12.320944    -12.293017   1.000000   1.000000
    8      -12.235343    -12.205870   1.000000   1.000000
    9       -1.290610     -1.207955   1.000000   1.000000
   10       -0.601907     -0.523501   1.000000   1.000000
   11       -0.367345     -0.327702   1.000000   1.000000
   12       -0.296289     -0.258050   1.000000   1.000000
   13       -0.245404     -0.195556   1.000000   1.000000
   14       -0.138927     -0.090289   1.000000   1.000000
   15        0.070374      0.112757   1.000000   1.000000
   16        0.606150      0.658793   1.000000   1.000000
   17        0.683948      0.733698   1.000000   1.000000
   18        0.789730      0.851199   1.000000   1.000000
   19        1.116374      1.157647   1.000000   1.000000
   20        1.533552      1.576255   1.000000   1.000000
   21        1.544977      1.587072   1.000000   1.000000
   22        1.820597      1.872601   1.000000   1.000000
   23        1.969617      2.004236   1.000000   1.000000
   24        2.103354      2.136311   1.000000   1.000000
   25        2.186375      2.234426   1.000000   1.000000
   26        2.245326      2.286813   1.000000   1.000000
   27        2.391112      2.427177   1.000000   1.000000
   28        2.503728      2.537153   1.000000   1.000000
   29        2.590437      2.620278   1.000000   1.000000
   30        2.853936      2.884819   1.000000   1.000000
   31        2.871727      2.905429   1.000000   1.000000
   32        2.988062      3.020845   1.000000   1.000000
   33        9.647260      9.806484   0.667443   0.000023
   34       10.525539     10.668901   0.000000   0.000000
   35       11.539886     11.674383   0.000000   0.000000
   36       11.951058     12.117701   0.000000   0.000000
   37       12.406541     12.504985   0.000000   0.000000
   38       12.697983     12.817683   0.000000   0.000000
   39       13.174062     13.307674   0.000000   0.000000
   40       13.487171     13.629172   0.000000   0.000000
   41       13.687160     13.816792   0.000000   0.000000
   42       14.045292     14.153373   0.000000   0.000000
   43       14.356403     14.454824   0.000000   0.000000
   44       14.370778     14.498713   0.000000   0.000000
   45       14.898936     14.961532   0.000000   0.000000
   46       15.022373     15.110529   0.000000   0.000000
   47       15.249590     15.301906   0.000000   0.000000
   48       15.365133     15.441190   0.000000   0.000000
   49       15.514085     15.589411   0.000000   0.000000
   50       15.581312     15.673288   0.000000   0.000000
   51       15.684372     15.788071   0.000000   0.000000
   52       16.590098     16.663081   0.000000   0.000000
 
  0.2500000E+00  0.2500000E+00 -0.2500000E+00  0.6250000E-01
    1      -13.621802    -13.579056   1.000000   1.000000
    2      -13.143112    -13.099385   1.000000   1.000000
    3      -12.913712    -12.872163   1.000000   1.000000
    4      -12.835671    -12.792576   1.000000   1.000000
    5      -12.638102    -12.593770   1.000000   1.000000
    6      -12.493531    -12.450566   1.000000   1.000000
    7      -12.320906    -12.292979   1.000000   1.000000
    8      -12.235568    -12.206101   1.000000   1.000000
    9       -1.290271     -1.207628   1.000000   1.000000
   10       -0.602131     -0.523753   1.000000   1.000000
   11       -0.367190     -0.327554   1.000000   1.000000
   12       -0.296660     -0.258414   1.000000   1.000000
   13       -0.245750     -0.195933   1.000000   1.000000
   14       -0.138239     -0.089579   1.000000   1.000000
   15        0.070306      0.112687   1.000000   1.000000
   16        0.606942      0.659616   1.000000   1.000000
   17        0.683114      0.732898   1.000000   1.000000
   18        0.789654      0.851137   1.000000   1.000000
   19        1.116278      1.157556   1.000000   1.000000
   20        1.533399      1.576053   1.000000   1.000000
   21        1.545229      1.587350   1.000000   1.000000
   22        1.820323      1.872336   1.000000   1.000000
   23        1.969815      2.004455   1.000000   1.000000
   24        2.103119      2.136066   1.000000   1.000000
   25        2.186507      2.234499   1.000000   1.000000
   26        2.245441      2.286947   1.000000   1.000000
   27        2.391101      2.427166   1.000000   1.000000
   28        2.503713      2.537146   1.000000   1.000000
   29        2.590524      2.620372   1.000000   1.000000
   30        2.853369      2.884250   1.000000   1.000000
   31        2.871816      2.905518   1.000000   1.000000
   32        2.988336      3.021134   1.000000   1.000000
   33        9.647308      9.806499   0.666952   0.000023
   34       10.525939     10.669284   0.000000   0.000000
   35       11.540333     11.674881   0.000000   0.000000
   36       11.951664     12.118188   0.000000   0.000000
   37       12.408043     12.506098   0.000000   0.000000
   38       12.697511     12.817501   0.000000   0.000000
   39       13.172930     13.306582   0.000000   0.000000
   40       13.485993     13.628225   0.000000   0.000000
   41       13.686606     13.816226   0.000000   0.000000
   42       14.045489     14.153694   0.000000   0.000000
   43       14.355220     14.453549   0.000000   0.000000
   44       14.370932     14.498720   0.000000   0.000000
   45       14.897680     14.960427   0.000000   0.000000
   46       15.022091     15.110255   0.000000   0.000000
   47       15.252035     15.304373   0.000000   0.000000
   48       15.364808     15.440786   0.000000   0.000000
   49       15.515361     15.590689   0.000000   0.000000
   50       15.580064     15.671983   0.000000   0.000000
   51       15.684512     15.788228   0.000000   0.000000
   52       16.586081     16.659715   0.000000   0.000000
 
  0.2500000E+00  0.0000000E+00  0.5000000E+00  0.6250000E-01
    1      -13.621839    -13.579090   1.000000   1.000000
    2      -13.142968    -13.099243   1.000000   1.000000
    3      -12.913461    -12.871913   1.000000   1.000000
    4      -12.836113    -12.793016   1.000000   1.000000
    5      -12.638000    -12.593682   1.000000   1.000000
    6      -12.493659    -12.450682   1.000000   1.000000
    7      -12.320980    -12.293057   1.000000   1.000000
    8      -12.235354    -12.205882   1.000000   1.000000
    9       -1.290506     -1.207848   1.000000   1.000000
   10       -0.602003     -0.523623   1.000000   1.000000
   11       -0.367327     -0.327703   1.000000   1.000000
   12       -0.296439     -0.258199   1.000000   1.000000
   13       -0.245407     -0.195543   1.000000   1.000000
   14       -0.138883     -0.090229   1.000000   1.000000
   15        0.070328      0.112721   1.000000   1.000000
   16        0.606423      0.659109   1.000000   1.000000
   17        0.683751      0.733454   1.000000   1.000000
   18        0.789414      0.850909   1.000000   1.000000
   19        1.116342      1.157598   1.000000   1.000000
   20        1.533729      1.576390   1.000000   1.000000
   21        1.545135      1.587286   1.000000   1.000000
   22        1.820750      1.872704   1.000000   1.000000
   23        1.969787      2.004403   1.000000   1.000000
   24        2.103394      2.136327   1.000000   1.000000
   25        2.186188      2.234131   1.000000   1.000000
   26        2.245034      2.286682   1.000000   1.000000
   27        2.391332      2.427385   1.000000   1.000000
   28        2.503681      2.537127   1.000000   1.000000
   29        2.590707      2.620519   1.000000   1.000000
   30        2.853318      2.884238   1.000000   1.000000
   31        2.872270      2.905929   1.000000   1.000000
   32        2.987802      3.020622   1.000000   1.000000
   33        9.647225      9.806440   0.667811   0.000024
   34       10.526047     10.669378   0.000000   0.000000
   35       11.540307     11.674504   0.000000   0.000000
   36       11.950077     12.117219   0.000000   0.000000
   37       12.406328     12.504736   0.000000   0.000000
   38       12.698518     12.817994   0.000000   0.000000
   39       13.174430     13.308047   0.000000   0.000000
   40       13.485819     13.628114   0.000000   0.000000
   41       13.687402     13.817157   0.000000   0.000000
   42       14.045370     14.153268   0.000000   0.000000
   43       14.356270     14.454410   0.000000   0.000000
   44       14.370812     14.498779   0.000000   0.000000
   45       14.897968     14.960731   0.000000   0.000000
   46       15.020856     15.108902   0.000000   0.000000
   47       15.250792     15.303140   0.000000   0.000000
   48       15.364288     15.440314   0.000000   0.000000
   49       15.514335     15.589726   0.000000   0.000000
   50       15.582706     15.674473   0.000000   0.000000
   51       15.685069     15.788807   0.000000   0.000000
   52       16.588226     16.662300   0.000000   0.000000
 
 -0.2500000E+00  0.5000000E+00  0.5000000E+00  0.6250000E-01
    1      -13.622141    -13.579404   1.000000   1.000000
    2      -13.142156    -13.098425   1.000000   1.000000
    3      -12.914570    -12.872987   1.000000   1.000000
    4      -12.835095    -12.792002   1.000000   1.000000
    5      -12.638475    -12.594164   1.000000   1.000000
    6      -12.493221    -12.450255   1.000000   1.000000
    7      -12.320730    -12.292790   1.000000   1.000000
    8      -12.236011    -12.206561   1.000000   1.000000
    9       -1.290430     -1.207861   1.000000   1.000000
   10       -0.601561     -0.523344   1.000000   1.000000
   11       -0.366638     -0.327019   1.000000   1.000000
   12       -0.297592     -0.259272   1.000000   1.000000
   13       -0.245888     -0.196091   1.000000   1.000000
   14       -0.137880     -0.089140   1.000000   1.000000
   15        0.070903      0.113351   1.000000   1.000000
   16        0.608095      0.660896   1.000000   1.000000
   17        0.682531      0.732445   1.000000   1.000000
   18        0.789304      0.850872   1.000000   1.000000
   19        1.115262      1.156460   1.000000   1.000000
   20        1.532880      1.575426   1.000000   1.000000
   21        1.544914      1.587092   1.000000   1.000000
   22        1.820125      1.872115   1.000000   1.000000
   23        1.970564      2.005201   1.000000   1.000000
   24        2.103222      2.136157   1.000000   1.000000
   25        2.186923      2.234552   1.000000   1.000000
   26        2.244969      2.286781   1.000000   1.000000
   27        2.391248      2.427297   1.000000   1.000000
   28        2.503425      2.536869   1.000000   1.000000
   29        2.590590      2.620416   1.000000   1.000000
   30        2.852195      2.883068   1.000000   1.000000
   31        2.872438      2.906108   1.000000   1.000000
   32        2.988691      3.021500   1.000000   1.000000
   33        9.647452      9.806563   0.665470   0.000023
   34       10.528076     10.671337   0.000000   0.000000
   35       11.542124     11.676607   0.000000   0.000000
   36       11.949772     12.116772   0.000000   0.000000
   37       12.408319     12.505596   0.000000   0.000000
   38       12.698811     12.818986   0.000000   0.000000
   39       13.173976     13.307681   0.000000   0.000000
   40       13.483304     13.626598   0.000000   0.000000
   41       13.686890     13.816091   0.000000   0.000000
   42       14.040727     14.149651   0.000000   0.000000
   43       14.352295     14.450121   0.000000   0.000000
   44       14.370172     14.496944   0.000000   0.000000
   45       14.894300     14.957486   0.000000   0.000000
   46       15.019166     15.107414   0.000000   0.000000
   47       15.263211     15.315553   0.000000   0.000000
   48       15.362687     15.438821   0.000000   0.000000
   49       15.517863     15.593156   0.000000   0.000000
   50       15.576515     15.667630   0.000000   0.000000
   51       15.685576     15.789678   0.000000   0.000000
   52       16.582721     16.657171   0.000000   0.000000
 
  0.2500000E+00  0.5000000E+00  0.0000000E+00  0.6250000E-01
    1      -13.621768    -13.579021   1.000000   1.000000
    2      -13.143163    -13.099441   1.000000   1.000000
    3      -12.913795    -12.872237   1.000000   1.000000
    4      -12.835533    -12.792443   1.000000   1.000000
    5      -12.638138    -12.593811   1.000000   1.000000
    6      -12.493558    -12.450589   1.000000   1.000000
    7      -12.320898    -12.292970   1.000000   1.000000
    8      -12.235529    -12.206061   1.000000   1.000000
    9       -1.290368     -1.207728   1.000000   1.000000
   10       -0.602140     -0.523766   1.000000   1.000000
   11       -0.367164     -0.327539   1.000000   1.000000
   12       -0.296594     -0.258352   1.000000   1.000000
   13       -0.245483     -0.195654   1.000000   1.000000
   14       -0.138386     -0.089710   1.000000   1.000000
   15        0.070451      0.112854   1.000000   1.000000
   16        0.606819      0.659514   1.000000   1.000000
   17        0.683142      0.732903   1.000000   1.000000
   18        0.789463      0.850931   1.000000   1.000000
   19        1.116275      1.157552   1.000000   1.000000
   20        1.532970      1.575611   1.000000   1.000000
   21        1.545380      1.587510   1.000000   1.000000
   22        1.820541      1.872515   1.000000   1.000000
   23        1.969855      2.004458   1.000000   1.000000
   24        2.103420      2.136350   1.000000   1.000000
   25        2.186568      2.234496   1.000000   1.000000
   26        2.245084      2.286743   1.000000   1.000000
   27        2.391294      2.427347   1.000000   1.000000
   28        2.503332      2.536783   1.000000   1.000000
   29        2.590734      2.620553   1.000000   1.000000
   30        2.853139      2.884054   1.000000   1.000000
   31        2.872438      2.906100   1.000000   1.000000
   32        2.987811      3.020641   1.000000   1.000000
   33        9.647207      9.806392   0.667991   0.000024
   34       10.525816     10.669183   0.000000   0.000000
   35       11.540790     11.674997   0.000000   0.000000