Automatically generated mesh
      16
Reciprocal lattice
    0.25000000000000    0.25000000000000    0.25000000000000            24
    0.25000000000000    0.00000000000000    0.00000000000000            24
    0.00000000000000    0.00000000000000   -0.25000000000000            24
    0.00000000000000    0.25000000000000    0.00000000000000            24
   -0.25000000000000    0.25000000000000    0.25000000000000            24
    0.25000000000000   -0.25000000000000    0.25000000000000            24
    0.25000000000000    0.25000000000000   -0.25000000000000            24
    0.25000000000000    0.00000000000000    0.50000000000000            24
   -0.25000000000000    0.50000000000000    0.50000000000000            24
    0.25000000000000    0.50000000000000    0.00000000000000            24
    0.00000000000000    0.50000000000000   -0.25000000000000            24
    0.50000000000000    0.00000000000000   -0.25000000000000            24
    0.50000000000000    0.50000000000000    0.25000000000000            24
    0.50000000000000   -0.25000000000000    0.50000000000000            24
    0.00000000000000    0.25000000000000    0.50000000000000            24
    0.50000000000000    0.25000000000000    0.00000000000000            24
