 vasp.5.4.1 05Feb16 (build Mar 31 2016 13:39:20) complex                        
  
 executed on           IFC91_ompi date 2018.04.28  12:46:59
 running on   16 total cores
 distrk:  each k-point on   16 cores,    1 groups
 distr:  one band on NCORES_PER_BAND=   4 cores,    4 groups


--------------------------------------------------------------------------------------------------------


 INCAR:
 POTCAR:    PAW_PBE Al 04Jan2001                  
 POTCAR:    PAW_PBE Mg 13Apr2007                  
 POTCAR:    PAW_PBE O 08Apr2002                   
 POTCAR:    PAW_PBE Al 04Jan2001                  
   VRHFIN =Al: s2p1                                                             
   LEXCH  = PE                                                                  
   EATOM  =    53.5387 eV,    3.9350 Ry                                         
                                                                                
   TITEL  = PAW_PBE Al 04Jan2001                                                
   LULTRA =        F    use ultrasoft PP ?                                      
   IUNSCR =        1    unscreen: 0-lin 1-nonlin 2-no                           
   RPACOR =    1.500    partial core radius                                     
   POMASS =   26.981; ZVAL   =    3.000    mass and valenz                      
   RCORE  =    1.900    outmost cutoff radius                                   
   RWIGS  =    2.650; RWIGS  =    1.402    wigner-seitz radius (au A)           
   ENMAX  =  240.300; ENMIN  =  180.225 eV                                      
   ICORE  =        2    local potential                                         
   LCOR   =        T    correct aug charges                                     
   LPAW   =        T    paw PP                                                  
   EAUG   =  291.052                                                            
   DEXC   =    0.000                                                            
   RMAX   =    1.939    core radius for proj-oper                               
   RAUG   =    1.300    factor for augmentation sphere                          
   RDEP   =    1.966    radius for radial grids                                 
   RDEPT  =    1.856    core radius for aug-charge                              
                                                                                
   Atomic configuration                                                         
    6 entries                                                                   
     n  l   j            E        occ.                                          
     1  0  0.50     -1511.1048   2.0000                                         
     2  0  0.50      -108.1629   2.0000                                         
     2  1  1.50       -69.6402   6.0000                                         
     3  0  0.50        -7.7528   2.0000                                         
     3  1  1.50        -2.7121   1.0000                                         
     3  2  2.50        -2.7212   0.0000                                         
   Description                                                                  
     l       E           TYP  RCUT    TYP  RCUT                                 
     0     -7.7528455     23  1.900                                             
     0     -3.3096929     23  1.900                                             
     1     -2.7120682     23  1.900                                             
     1     13.6058260     23  1.900                                             
     2     -2.7211652      7  1.900                                             
  local pseudopotential read in
  partial core-charges read in
  partial kinetic energy density read in
  atomic valenz-charges read in
  non local Contribution for L=           0  read in
    real space projection operators read in
  non local Contribution for L=           0  read in
    real space projection operators read in
  non local Contribution for L=           1  read in
    real space projection operators read in
  non local Contribution for L=           1  read in
    real space projection operators read in
    PAW grid and wavefunctions read in
 
   number of l-projection  operators is LMAX  =           4
   number of lm-projection operators is LMMAX =           8
 
 POTCAR:    PAW_PBE Mg 13Apr2007                  
   VRHFIN =Mg: s2p0                                                             
   LEXCH  = PE                                                                  
   EATOM  =    23.0369 eV,    1.6932 Ry                                         
                                                                                
   TITEL  = PAW_PBE Mg 13Apr2007                                                
   LULTRA =        F    use ultrasoft PP ?                                      
   IUNSCR =        1    unscreen: 0-lin 1-nonlin 2-no                           
   RPACOR =    1.500    partial core radius                                     
   POMASS =   24.305; ZVAL   =    2.000    mass and valenz                      
   RCORE  =    2.000    outmost cutoff radius                                   
   RWIGS  =    2.880; RWIGS  =    1.524    wigner-seitz radius (au A)           
   ENMAX  =  126.143; ENMIN  =   94.607 eV                                      
   RCLOC  =    1.506    cutoff for local pot                                    
   LCOR   =        T    correct aug charges                                     
   LPAW   =        T    paw PP                                                  
   EAUG   =  454.734                                                            
   DEXC   =    0.000                                                            
   RMAX   =    2.045    core radius for proj-oper                               
   RAUG   =    1.300    factor for augmentation sphere                          
   RDEP   =    2.025    radius for radial grids                                 
   RDEPT  =    1.942    core radius for aug-charge                              
                                                                                
   Atomic configuration                                                         
    6 entries                                                                   
     n  l   j            E        occ.                                          
     1  0  0.50     -1259.6230   2.0000                                         
     2  0  0.50       -79.8442   2.0000                                         
     2  1  1.50       -46.6121   6.0000                                         
     3  0  0.50        -4.7055   2.0000                                         
     3  1  0.50        -1.3660   0.0000                                         
     3  2  1.50        -1.3606   0.0000                                         
   Description                                                                  
     l       E           TYP  RCUT    TYP  RCUT                                 
     0     -4.7054661     23  2.000                                             
     0     27.2116520     23  2.000                                             
     1      1.3605826     23  2.000                                             
     1     27.2116520     23  2.000                                             
     2     -1.3605826     23  2.000                                             
  local pseudopotential read in
  partial core-charges read in
  partial kinetic energy density read in
  atomic valenz-charges read in
  non local Contribution for L=           0  read in
    real space projection operators read in
  non local Contribution for L=           0  read in
    real space projection operators read in
  non local Contribution for L=           1  read in
    real space projection operators read in
  non local Contribution for L=           1  read in
    real space projection operators read in
  non local Contribution for L=           2  read in
    real space projection operators read in
    PAW grid and wavefunctions read in
 
   number of l-projection  operators is LMAX  =           5
   number of lm-projection operators is LMMAX =          13
 
 POTCAR:    PAW_PBE O 08Apr2002                   
   VRHFIN =O: s2p4                                                              
   LEXCH  = PE                                                                  
   EATOM  =   432.3788 eV,   31.7789 Ry                                         
                                                                                
   TITEL  = PAW_PBE O 08Apr2002                                                 
   LULTRA =        F    use ultrasoft PP ?                                      
   IUNSCR =        1    unscreen: 0-lin 1-nonlin 2-no                           
   RPACOR =    1.200    partial core radius                                     
   POMASS =   16.000; ZVAL   =    6.000    mass and valenz                      
   RCORE  =    1.520    outmost cutoff radius                                   
   RWIGS  =    1.550; RWIGS  =    0.820    wigner-seitz radius (au A)           
   ENMAX  =  400.000; ENMIN  =  300.000 eV                                      
   ICORE  =        2    local potential                                         
   LCOR   =        T    correct aug charges                                     
   LPAW   =        T    paw PP                                                  
   EAUG   =  605.392                                                            
   DEXC   =    0.000                                                            
   RMAX   =    1.553    core radius for proj-oper                               
   RAUG   =    1.300    factor for augmentation sphere                          
   RDEP   =    1.550    radius for radial grids                                 
   RDEPT  =    1.329    core radius for aug-charge                              
                                                                                
   Atomic configuration                                                         
    4 entries                                                                   
     n  l   j            E        occ.                                          
     1  0  0.50      -514.6923   2.0000                                         
     2  0  0.50       -23.9615   2.0000                                         
     2  1  0.50        -9.0305   4.0000                                         
     3  2  1.50        -9.5241   0.0000                                         
   Description                                                                  
     l       E           TYP  RCUT    TYP  RCUT                                 
     0    -23.9615318     23  1.200                                             
     0     -9.5240782     23  1.200                                             
     1     -9.0304911     23  1.520                                             
     1      8.1634956     23  1.520                                             
     2     -9.5240782      7  1.500                                             
  local pseudopotential read in
  partial core-charges read in
  partial kinetic energy density read in
  kinetic energy density of atom read in
  atomic valenz-charges read in
  non local Contribution for L=           0  read in
    real space projection operators read in
  non local Contribution for L=           0  read in
    real space projection operators read in
  non local Contribution for L=           1  read in
    real space projection operators read in
  non local Contribution for L=           1  read in
    real space projection operators read in
    PAW grid and wavefunctions read in
 
   number of l-projection  operators is LMAX  =           4
   number of lm-projection operators is LMMAX =           8
 
 Optimization of the real space projectors (new method)

 maximal supplied QI-value         = 19.84
 optimisation between [QCUT,QGAM] = [ 10.12, 20.44] = [ 28.68,116.96] Ry 
 Optimized for a Real-space Cutoff    1.23 Angstroem

   l    n(q)    QCUT    max X(q) W(low)/X(q) W(high)/X(q)  e(spline) 
   0      7    10.119   176.870    0.49E-04    0.18E-03    0.39E-07
   0      7    10.119   105.762    0.46E-04    0.18E-03    0.38E-07
   1      7    10.119    55.370    0.30E-03    0.37E-03    0.12E-06
   1      7    10.119    20.208    0.27E-03    0.35E-03    0.11E-06
 Optimization of the real space projectors (new method)

 maximal supplied QI-value         = 18.90
 optimisation between [QCUT,QGAM] = [ 10.20, 20.41] = [ 29.16,116.64] Ry 
 Optimized for a Real-space Cutoff    1.30 Angstroem

   l    n(q)    QCUT    max X(q) W(low)/X(q) W(high)/X(q)  e(spline) 
   0      8    10.205    28.265    0.22E-03    0.17E-03    0.53E-07
   0      8    10.205    10.429    0.17E-03    0.15E-03    0.43E-07
   1      7    10.205    13.073    0.71E-04    0.41E-03    0.76E-07
   1      7    10.205     9.625    0.71E-04    0.33E-03    0.63E-07
   2      7    10.205     4.652    0.24E-03    0.41E-03    0.55E-07
 Optimization of the real space projectors (new method)

 maximal supplied QI-value         = 24.76
 optimisation between [QCUT,QGAM] = [ 10.15, 20.30] = [ 28.85,115.39] Ry 
 Optimized for a Real-space Cutoff    1.38 Angstroem

   l    n(q)    QCUT    max X(q) W(low)/X(q) W(high)/X(q)  e(spline) 
   0      8    10.150    20.381    0.22E-03    0.32E-03    0.29E-06
   0      8    10.150    15.268    0.23E-03    0.35E-03    0.30E-06
   1      8    10.150     5.964    0.46E-03    0.53E-03    0.21E-06
   1      8    10.150     5.382    0.38E-03    0.45E-03    0.19E-06
  PAW_PBE Al 04Jan2001                  :
 energy of atom  1       EATOM=  -53.5387
 kinetic energy error for atom=    0.0005 (will be added to EATOM!!)
  PAW_PBE Mg 13Apr2007                  :
 energy of atom  2       EATOM=  -23.0369
 kinetic energy error for atom=    0.0001 (will be added to EATOM!!)
  PAW_PBE O 08Apr2002                   :
 energy of atom  3       EATOM= -432.3788
 kinetic energy error for atom=    0.1156 (will be added to EATOM!!)
 
 
 POSCAR: Mg7 Al1 O8                              
  positions in direct lattice
  velocities in cartesian coordinates
 exchange correlation table for  LEXCH =        8
   RHO(1)=    0.500       N(1)  =     2000
   RHO(2)=  100.500       N(2)  =     4000
 


--------------------------------------------------------------------------------------------------------


 ion  position               nearest neighbor table
   1  0.994  0.007  1.000-  14 2.05  15 2.07  13 2.07  12 2.08  10 2.09  11 2.11   7 3.00   2 3.00
                             3 3.00   4 3.00   5 3.00   6 3.00   6 3.00   5 3.01   4 3.01   3 3.01
   2  0.997  0.005  0.500-  11 2.12  16 2.12  13 2.12   9 2.12  12 2.13  14 2.13   5 2.99   1 3.00
                             4 3.00   8 3.00   3 3.00   6 3.00   6 3.00   3 3.00   8 3.00   4 3.01
   3  0.996  0.506  0.000-  12 2.12   9 2.12  10 2.12  15 2.13  16 2.13  13 2.13   1 3.00   5 3.00
                             8 3.00   4 3.00   2 3.00   7 3.00   7 3.00   2 3.00   4 3.00   8 3.01
   4  0.997  0.506  0.500-  10 2.12  11 2.12   9 2.12  15 2.12  14 2.13  16 2.13   6 3.00   7 3.00
                             2 3.00   1 3.00   3 3.00   8 3.00   8 3.00   3 3.00   1 3.01   7 3.01
   5  0.494  0.005  0.001-  11 2.12  16 2.12   9 2.12  10 2.12  15 2.13  14 2.13   2 2.99   7 3.00
                             6 3.00   1 3.00   3 3.00   8 3.00   8 3.00   3 3.01   1 3.01   6 3.01
   6  0.496  0.007  0.501-  10 2.12  13 2.12  16 2.12   9 2.13  15 2.13  12 2.13   4 3.00   5 3.00
                             7 3.00   8 3.00   1 3.00   2 3.00   2 3.00   1 3.00   8 3.01   7 3.01
   7  0.496  0.506  0.001-   9 2.12  13 2.12  12 2.12  14 2.12  11 2.12  16 2.12   1 3.00   5 3.00
                             4 3.00   6 3.00   8 3.00   3 3.00   3 3.00   8 3.01   6 3.01   4 3.01
   8  0.496  0.506  0.501-  11 2.16  10 2.16  12 2.17  15 2.17  13 2.18  14 2.18   6 3.00   7 3.00
                             3 3.00   4 3.00   2 3.00   5 3.00   5 3.00   2 3.00   4 3.00   3 3.01
   9  0.246  0.257  0.250-   4 2.12   3 2.12   7 2.12   5 2.12   2 2.12   6 2.13
  10  0.241  0.252  0.755-   1 2.09   4 2.12   6 2.12   3 2.12   5 2.12   8 2.16
  11  0.242  0.760  0.247-   1 2.11   5 2.12   2 2.12   4 2.12   7 2.12   8 2.16
  12  0.241  0.761  0.756-   1 2.08   3 2.12   7 2.12   2 2.13   6 2.13   8 2.17
  13  0.752  0.250  0.245-   1 2.07   6 2.12   7 2.12   2 2.12   3 2.13   8 2.18
  14  0.753  0.249  0.758-   1 2.05   7 2.12   4 2.13   2 2.13   5 2.13   8 2.18
  15  0.752  0.762  0.245-   1 2.07   4 2.12   3 2.13   6 2.13   5 2.13   8 2.17
  16  0.745  0.757  0.751-   5 2.12   6 2.12   2 2.12   7 2.12   3 2.13   4 2.13
 
  LATTYP: Found a face centered cubic cell.
 ALAT       =     8.4937860000
  
  Lattice vectors:
  
 A1 = (   0.0000000000,   4.2468930000,   4.2468930000)
 A2 = (   4.2468930000,   0.0000000000,   4.2468930000)
 A3 = (   4.2468930000,   4.2468930000,   0.0000000000)


Analysis of symmetry for initial positions (statically):
=====================================================================
 Subroutine PRICEL returns:
 Original cell was already a primitive cell.
 

 Routine SETGRP: Setting up the symmetry group for a 
 face centered cubic supercell.


 Subroutine GETGRP returns: Found  1 space group operations
 (whereof  1 operations were pure point group operations)
 out of a pool of 48 trial point group operations.


The static configuration has the point symmetry C_1 .


Analysis of symmetry for dynamics (positions and initial velocities):
=====================================================================
 Subroutine PRICEL returns:
 Original cell was already a primitive cell.
 

 Routine SETGRP: Setting up the symmetry group for a 
 face centered cubic supercell.


 Subroutine GETGRP returns: Found  1 space group operations
 (whereof  1 operations were pure point group operations)
 out of a pool of 48 trial point group operations.


The dynamic configuration has the point symmetry C_1 .


Analysis of structural, dynamic, and magnetic symmetry:
=====================================================================
 Subroutine PRICEL returns:
 Original cell was already a primitive cell.
 

 Routine SETGRP: Setting up the symmetry group for a 
 face centered cubic supercell.


 Subroutine GETGRP returns: Found  1 space group operations
 (whereof  1 operations were pure point group operations)
 out of a pool of 48 trial point group operations.


The magnetic configuration has the point symmetry C_1 .


 Subroutine INISYM returns: Found  1 space group operations
 (whereof  1 operations are pure point group operations),
 and found     1 'primitive' translations

 
 
 KPOINTS: k-point mesh                            

Automatic generation of k-mesh.
Space group operators:
 irot       det(A)        alpha          n_x          n_y          n_z        tau_x        tau_y        tau_z
    1     1.000000     0.000000     1.000000     0.000000     0.000000     0.000000     0.000000     0.000000
 
 Subroutine IBZKPT returns following result:
 ===========================================
 
 Found      8 irreducible k-points:
 
 Following reciprocal coordinates:
            Coordinates               Weight
  0.000000  0.000000  0.000000      1.000000
  0.500000  0.000000  0.000000      1.000000
  0.000000  0.500000  0.000000      1.000000
  0.500000  0.500000  0.000000      1.000000
  0.000000  0.000000  0.500000      1.000000
  0.500000  0.000000  0.500000      1.000000
  0.000000  0.500000  0.500000      1.000000
  0.500000  0.500000  0.500000      1.000000
 
 Following cartesian coordinates:
            Coordinates               Weight
  0.000000  0.000000  0.000000      1.000000
 -0.058867  0.058867  0.058867      1.000000
  0.058867 -0.058867  0.058867      1.000000
  0.000000  0.000000  0.117733      1.000000
  0.058867  0.058867 -0.058867      1.000000
  0.000000  0.117733  0.000000      1.000000
  0.117733  0.000000  0.000000      1.000000
  0.058867  0.058867  0.058867      1.000000
 


--------------------------------------------------------------------------------------------------------




 Dimension of arrays:
   k-points           NKPTS =      8   k-points in BZ     NKDIM =      8   number of bands    NBANDS=     52
   number of dos      NEDOS =    301   number of ions     NIONS =     16
   non local maximal  LDIM  =      5   non local SUM 2l+1 LMDIM =     13
   total plane-waves  NPLWV =  27000
   max r-space proj   IRMAX =   1992   max aug-charges    IRDMAX=   7686
   dimension x,y,z NGX =    30 NGY =   30 NGZ =   30
   dimension x,y,z NGXF=    60 NGYF=   60 NGZF=   60
   support grid    NGXF=    60 NGYF=   60 NGZF=   60
   ions per type =               1   7   8
 NGX,Y,Z   is equivalent  to a cutoff of   8.30,  8.30,  8.30 a.u.
 NGXF,Y,Z  is equivalent  to a cutoff of  16.61, 16.61, 16.61 a.u.


 I would recommend the setting:
   dimension x,y,z NGX =    29 NGY =   29 NGZ =   29
 SYSTEM =  unknown system                          
 POSCAR =  Mg7 Al1 O8                              

 Startparameter for this run:
   NWRITE =      2    write-flag & timer
   PREC   = n         normal or accurate (medium, high low for compatibility)
   ISTART =      0    job   : 0-new  1-cont  2-samecut
   ICHARG =      2    charge: 1-file 2-atom 10-const
   ISPIN  =      2    spin polarized calculation?
   LNONCOLLINEAR =      F non collinear calculations
   LSORBIT =      F    spin-orbit coupling
   INIWAV =      1    electr: 0-lowe 1-rand  2-diag
   LASPH  =      T    aspherical Exc in radial PAW
   METAGGA=      F    non-selfconsistent MetaGGA calc.

 Electronic Relaxation 1
   ENCUT  =  400.0 eV  29.40 Ry    5.42 a.u.   9.79  9.79  9.79*2*pi/ulx,y,z
   ENINI  =  400.0     initial cutoff
   ENAUG  =  605.4 eV  augmentation charge cutoff
   NELM   =    100;   NELMIN=  4; NELMDL=  0     # of ELM steps 
   EDIFF  = 0.1E-05   stopping-criterion for ELM
   LREAL  =      T    real-space projection
   NLSPLINE    = F    spline interpolate recip. space projectors
   LCOMPAT=      F    compatible to vasp.4.4
   GGA_COMPAT  = T    GGA compatible to vasp.4.4-vasp.4.6
   LMAXPAW     = -100 max onsite density
   LMAXMIX     =    2 max onsite mixed and CHGCAR
   VOSKOWN=      0    Vosko Wilk Nusair interpolation
   ROPT   =   -0.00050  -0.00050  -0.00050
 Ionic relaxation
   EDIFFG = -.5E-01   stopping-criterion for IOM
   NSW    =     20    number of steps for IOM
   NBLOCK =      1;   KBLOCK =     20    inner block; outer block 
   IBRION =      2    ionic relax: 0-MD 1-quasi-New 2-CG
   NFREE  =      1    steps in history (QN), initial steepest desc. (CG)
   ISIF   =      2    stress and relaxation
   IWAVPR =     11    prediction:  0-non 1-charg 2-wave 3-comb
   ISYM   =      2    0-nonsym 1-usesym 2-fastsym
   LCORR  =      T    Harris-Foulkes like correction to forces

   POTIM  = 0.5000    time-step for ionic-motion
   TEIN   =    0.0    initial temperature
   TEBEG  =    0.0;   TEEND  =   0.0 temperature during run
   SMASS  =  -3.00    Nose mass-parameter (am)
   estimated Nose-frequenzy (Omega)   =  0.10E-29 period in steps =****** mass=  -0.824E-27a.u.
   SCALEE = 1.0000    scale energy and forces
   NPACO  =    256;   APACO  = 16.0  distance and # of slots for P.C.
   PSTRESS=    0.0 pullay stress

  Mass of Ions in am
   POMASS =  26.98 24.30 16.00
  Ionic Valenz
   ZVAL   =   3.00  2.00  6.00
  Atomic Wigner-Seitz radii
   RWIGS  =  -1.00 -1.00 -1.00
  virtual crystal weights 
   VCA    =   1.00  1.00  1.00
   NELECT =      65.0000    total number of electrons
   NUPDOWN=      -1.0000    fix difference up-down

 DOS related values:
   EMIN   =  10.00;   EMAX   =-10.00  energy-range for DOS
   EFERMI =   0.00
   ISMEAR =     0;   SIGMA  =   0.05  broadening in eV -4-tet -1-fermi 0-gaus

 Electronic relaxation 2 (details)
   IALGO  =     38    algorithm
   LDIAG  =      T    sub-space diagonalisation (order eigenvalues)
   LSUBROT=      F    optimize rotation matrix (better conditioning)
   TURBO    =      0    0=normal 1=particle mesh
   IRESTART =      0    0=no restart 2=restart with 2 vectors
   NREBOOT  =      0    no. of reboots
   NMIN     =      0    reboot dimension
   EREF     =   0.00    reference energy to select bands
   IMIX   =      4    mixing-type and parameters
     AMIX     =   0.40;   BMIX     =  1.00
     AMIX_MAG =   1.60;   BMIX_MAG =  1.00
     AMIN     =   0.10
     WC   =   100.;   INIMIX=   1;  MIXPRE=   1;  MAXMIX= -45

 Intra band minimization:
   WEIMIN = 0.0010     energy-eigenvalue tresh-hold
   EBREAK =  0.48E-08  absolut break condition
   DEPER  =   0.30     relativ break condition  

   TIME   =   0.40     timestep for ELM

  volume/ion in A,a.u.               =       9.57        64.61
  Fermi-wavevector in a.u.,A,eV,Ry     =   1.230169  2.324682 20.589897  1.513315
  Thomas-Fermi vector in A             =   2.365028
 
 Write flags
   LWAVE  =      F    write WAVECAR
   LCHARG =      F    write CHGCAR
   LVTOT  =      F    write LOCPOT, total local potential
   LVHAR  =      F    write LOCPOT, Hartree potential only
   LELF   =      F    write electronic localiz. function (ELF)
   LORBIT =     12    0 simple, 1 ext, 2 COOP (PROOUT)


 Dipole corrections
   LMONO  =      F    monopole corrections only (constant potential shift)
   LDIPOL =      F    correct potential (dipole corrections)
   IDIPOL =      0    1-x, 2-y, 3-z, 4-all directions 
   EPSILON=  1.0000000 bulk dielectric constant

 Exchange correlation treatment:
   GGA     =    --    GGA type
   LEXCH   =     8    internal setting for exchange type
   VOSKOWN=      0    Vosko Wilk Nusair interpolation
   LHFCALC =     F    Hartree Fock is set to
   LHFONE  =     F    Hartree Fock one center treatment
   AEXX    =    0.0000 exact exchange contribution

 Linear response parameters
   LEPSILON=     F    determine dielectric tensor
   LRPA    =     F    only Hartree local field effects (RPA)
   LNABLA  =     F    use nabla operator in PAW spheres
   LVEL    =     F    velocity operator in full k-point grid
   LINTERFAST=   F  fast interpolation
   KINTER  =     0    interpolate to denser k-point grid
   CSHIFT  =0.1000    complex shift for real part using Kramers Kronig
   OMEGAMAX=  -1.0    maximum frequency
   DEG_THRESHOLD= 0.2000000E-02 threshold for treating states as degnerate
   RTIME   =    0.100 relaxation time in fs

 Orbital magnetization related:
   ORBITALMAG=     F  switch on orbital magnetization
   LCHIMAG   =     F  perturbation theory with respect to B field
   DQ        =  0.001000  dq finite difference perturbation B field



--------------------------------------------------------------------------------------------------------


 conjugate gradient relaxation of ions
 charge density and potential will be updated during run
 spin polarized calculation
 Variant of blocked Davidson
 Davidson routine will perform the subspace rotation
 perform sub-space diagonalisation
    after iterative eigenvector-optimisation
 modified Broyden-mixing scheme, WC =      100.0
 initial mixing is a Kerker type mixing with AMIX =  0.4000 and BMIX =      1.0000
 Hartree-type preconditioning will be used
 using additional bands           19
 real space projection scheme for non local part
 use partial core corrections
 calculate Harris-corrections to forces 
   (improved forces if not selfconsistent)
 use gradient corrections 
 use of overlap-Matrix (Vanderbilt PP)
 Gauss-broadening in eV      SIGMA  =   0.05


--------------------------------------------------------------------------------------------------------


  energy-cutoff  :      400.00
  volume of cell :      153.19
      direct lattice vectors                 reciprocal lattice vectors
     0.000000000  4.246893000  4.246893000    -0.117733129  0.117733129  0.117733129
     4.246893000  0.000000000  4.246893000     0.117733129 -0.117733129  0.117733129
     4.246893000  4.246893000  0.000000000     0.117733129  0.117733129 -0.117733129

  length of vectors
     6.006013679  6.006013679  6.006013679     0.203919761  0.203919761  0.203919761


 
 k-points in units of 2pi/SCALE and weight: k-point mesh                            
   0.00000000  0.00000000  0.00000000       0.125
  -0.05886656  0.05886656  0.05886656       0.125
   0.05886656 -0.05886656  0.05886656       0.125
   0.00000000  0.00000000  0.11773313       0.125
   0.05886656  0.05886656 -0.05886656       0.125
   0.00000000  0.11773313  0.00000000       0.125
   0.11773313  0.00000000  0.00000000       0.125
   0.05886656  0.05886656  0.05886656       0.125
 
 k-points in reciprocal lattice and weights: k-point mesh                            
   0.00000000  0.00000000  0.00000000       0.125
   0.50000000  0.00000000  0.00000000       0.125
   0.00000000  0.50000000  0.00000000       0.125
   0.50000000  0.50000000  0.00000000       0.125
   0.00000000  0.00000000  0.50000000       0.125
   0.50000000  0.00000000  0.50000000       0.125
   0.00000000  0.50000000  0.50000000       0.125
   0.50000000  0.50000000  0.50000000       0.125
 
 position of ions in fractional coordinates (direct lattice) 
   0.99400462  0.00676854  0.99960542
   0.99653856  0.00544546  0.50001652
   0.99611424  0.50615285  0.00034874
   0.99699057  0.50603290  0.50029595
   0.49435508  0.00540446  0.00148660
   0.49551553  0.00696373  0.50081894
   0.49580073  0.50602891  0.00101236
   0.49639732  0.50568559  0.50140098
   0.24553624  0.25671138  0.25030868
   0.24064501  0.25174049  0.75500709
   0.24186621  0.75982639  0.24743277
   0.24053186  0.76088128  0.75648928
   0.75193772  0.24953857  0.24458265
   0.75291266  0.24925374  0.75789167
   0.75232961  0.76162005  0.24514876
   0.74522805  0.75689363  0.75056861
 
 position of ions in cartesian coordinates  (Angst):
   4.27396254  8.46664854  4.25017654
   2.14664293  6.35570928  4.25531893
   2.15105804  4.23187163  6.37996756
   4.27377095  6.35881560  6.38317986
   0.02926560  2.10578655  2.12242531
   2.15649867  4.23132588  2.13397565
   2.15335004  2.10991205  4.25466331
   4.27698891  4.23754261  4.25573891
   2.15325993  2.10580029  2.13299188
   4.27554924  4.22842794  2.09110856
   4.27772188  2.07800042  4.25408131
   6.44411039  4.23424206  4.25289444
   2.09847996  4.23211537  4.25316265
   4.27723881  6.41622434  4.25609349
   4.27563941  4.23618388  6.42958220
   6.40203086  6.35248839  6.37935006
 


--------------------------------------------------------------------------------------------------------


 k-point  1 :   0.0000 0.0000 0.0000  plane waves:    2733
 k-point  2 :   0.5000 0.0000 0.0000  plane waves:    2788
 k-point  3 :   0.0000 0.5000 0.0000  plane waves:    2788
 k-point  4 :   0.5000 0.5000 0.0000  plane waves:    2778
 k-point  5 :   0.0000 0.0000 0.5000  plane waves:    2788
 k-point  6 :   0.5000 0.0000 0.5000  plane waves:    2778
 k-point  7 :   0.0000 0.5000 0.5000  plane waves:    2778
 k-point  8 :   0.5000 0.5000 0.5000  plane waves:    2788

 maximum and minimum number of plane-waves per node :       715      668

 maximum number of plane-waves:      2788
 maximum index in each direction: 
   IXMAX=    9   IYMAX=    9   IZMAX=    9
   IXMIN=  -10   IYMIN=  -10   IZMIN=  -10

 WARNING: aliasing errors must be expected set NGX to  40 to avoid them
 WARNING: aliasing errors must be expected set NGY to  40 to avoid them
 WARNING: aliasing errors must be expected set NGZ to  40 to avoid them
 aliasing errors are usually negligible using standard VASP settings
 and one can safely disregard these warnings

 real space projection operators:
  total allocation   :       2133.73 KBytes
  max/ min on nodes  :        573.80        492.14


 parallel 3D FFT for wavefunctions:
    minimum data exchange during FFTs selected (reduces bandwidth)
 parallel 3D FFT for charge:
    minimum data exchange during FFTs selected (reduces bandwidth)


 total amount of memory used by VASP on root node    36422. kBytes
========================================================================

   base      :      30000. kBytes
   nonlr-proj:       1236. kBytes
   fftplans  :        708. kBytes
   grid      :       1885. kBytes
   one-center:         64. kBytes
   wavefun   :       2529. kBytes
 
     INWAV:  cpu time    0.0000: real time    0.0004
 Broyden mixing: mesh for mixing (old mesh)
   NGX = 19   NGY = 19   NGZ = 19
  (NGX  = 60   NGY  = 60   NGZ  = 60)
  gives a total of   6859 points

 initial charge density was supplied:
 charge density of overlapping atoms calculated
 number of electron      65.0000000 magnetization      16.0000000
 keeping initial charge density in first step


--------------------------------------------------------------------------------------------------------


 Maximum index for non-local projection operator          517
 Maximum index for augmentation-charges          499 (set IRDMAX)


--------------------------------------------------------------------------------------------------------


 First call to EWALD:  gamma=   0.331
 Maximum number of real-space cells 3x 3x 3
 Maximum number of reciprocal cells 3x 3x 3

 FEWALD executed in parallel
    FEWALD:  cpu time    0.0040: real time    0.0017


----------------------------------------- Iteration    1(   1)  ---------------------------------------


    POTLOK:  cpu time    0.0240: real time    0.0213
    SETDIJ:  cpu time    0.6720: real time    0.6751
     EDDAV:  cpu time    0.5640: real time    0.5675
       DOS:  cpu time    0.0000: real time    0.0009
    --------------------------------------------
      LOOP:  cpu time    1.2600: real time    1.2679

 eigenvalue-minimisations  :  1712
 total energy-change (2. order) : 0.2618536E+03  (-0.2687758E+04)
 number of electron      65.0000000 magnetization      16.0000000
 augmentation part       65.0000000 magnetization      16.0000000

 Free energy of the ion-electron system (eV)
  ---------------------------------------------------
  alpha Z        PSCENC =       144.97063842
  Ewald energy   TEWEN  =     -2892.49469061
  -Hartree energ DENC   =      -982.20688026
  -exchange      EXHF   =         0.00000000
  -V(xc)+E(xc)   XCENC  =      -138.42606070
  PAW double counting   =      3293.59363178    -2912.95377936
  entropy T*S    EENTRO =        -0.00288919
  eigenvalues    EBANDS =        76.47249069
  atomic energy  EATOM  =      3672.90113687
  Solvation  Ediel_sol  =         0.00000000
  ---------------------------------------------------
  free energy    TOTEN  =       261.85359763 eV

  energy without entropy =      261.85648683  energy(sigma->0) =      261.85504223


--------------------------------------------------------------------------------------------------------




----------------------------------------- Iteration    1(   2)  ---------------------------------------


     EDDAV:  cpu time    0.6480: real time    0.6486
       DOS:  cpu time    0.0000: real time    0.0005
    --------------------------------------------
      LOOP:  cpu time    0.6480: real time    0.6531

 eigenvalue-minimisations  :  2116
 total energy-change (2. order) :-0.3440969E+03  (-0.3332041E+03)
 number of electron      65.0000000 magnetization      16.0000000
 augmentation part       65.0000000 magnetization      16.0000000

 Free energy of the ion-electron system (eV)
  ---------------------------------------------------
  alpha Z        PSCENC =       144.97063842
  Ewald energy   TEWEN  =     -2892.49469061
  -Hartree energ DENC   =      -982.20688026
  -exchange      EXHF   =         0.00000000
  -V(xc)+E(xc)   XCENC  =      -138.42606070
  PAW double counting   =      3293.59363178    -2912.95377936
  entropy T*S    EENTRO =        -0.00185411
  eigenvalues    EBANDS =      -267.62548728
  atomic energy  EATOM  =      3672.90113687
  Solvation  Ediel_sol  =         0.00000000
  ---------------------------------------------------
  free energy    TOTEN  =       -82.24334525 eV

  energy without entropy =      -82.24149114  energy(sigma->0) =      -82.24241820


--------------------------------------------------------------------------------------------------------




----------------------------------------- Iteration    1(   3)  ---------------------------------------


     EDDAV:  cpu time    0.6400: real time    0.6414
       DOS:  cpu time    0.0000: real time    0.0006
    --------------------------------------------
      LOOP:  cpu time    0.6400: real time    0.6453

 eigenvalue-minimisations  :  2064
 total energy-change (2. order) :-0.1822154E+02  (-0.1809623E+02)
 number of electron      65.0000000 magnetization      16.0000000
 augmentation part       65.0000000 magnetization      16.0000000

 Free energy of the ion-electron system (eV)
  ---------------------------------------------------
  alpha Z        PSCENC =       144.97063842
  Ewald energy   TEWEN  =     -2892.49469061
  -Hartree energ DENC   =      -982.20688026
  -exchange      EXHF   =         0.00000000
  -V(xc)+E(xc)   XCENC  =      -138.42606070
  PAW double counting   =      3293.59363178    -2912.95377936
  entropy T*S    EENTRO =        -0.00645680
  eigenvalues    EBANDS =      -285.84242912
  atomic energy  EATOM  =      3672.90113687
  Solvation  Ediel_sol  =         0.00000000
  ---------------------------------------------------
  free energy    TOTEN  =      -100.46488979 eV

  energy without entropy =     -100.45843298  energy(sigma->0) =     -100.46166139


--------------------------------------------------------------------------------------------------------




----------------------------------------- Iteration    1(   4)  ---------------------------------------


     EDDAV:  cpu time    0.6080: real time    0.6104
       DOS:  cpu time    0.0000: real time    0.0006
    --------------------------------------------
      LOOP:  cpu time    0.6120: real time    0.6144

 eigenvalue-minimisations  :  1964
 total energy-change (2. order) :-0.1269410E+00  (-0.1262772E+00)
 number of electron      65.0000000 magnetization      16.0000000
 augmentation part       65.0000000 magnetization      16.0000000

 Free energy of the ion-electron system (eV)
  ---------------------------------------------------
  alpha Z        PSCENC =       144.97063842
  Ewald energy   TEWEN  =     -2892.49469061
  -Hartree energ DENC   =      -982.20688026
  -exchange      EXHF   =         0.00000000
  -V(xc)+E(xc)   XCENC  =      -138.42606070
  PAW double counting   =      3293.59363178    -2912.95377936
  entropy T*S    EENTRO =        -0.00704483
  eigenvalues    EBANDS =      -285.96878212
  atomic energy  EATOM  =      3672.90113687
  Solvation  Ediel_sol  =         0.00000000
  ---------------------------------------------------
  free energy    TOTEN  =      -100.59183082 eV

  energy without entropy =     -100.58478599  energy(sigma->0) =     -100.58830841


--------------------------------------------------------------------------------------------------------




----------------------------------------- Iteration    1(   5)  ---------------------------------------


     EDDAV:  cpu time    0.6160: real time    0.6167
       DOS:  cpu time    0.0000: real time    0.0006
    CHARGE:  cpu time    0.0240: real time    0.0218
    MIXING:  cpu time    0.0000: real time    0.0004
    --------------------------------------------
      LOOP:  cpu time    0.6400: real time    0.6426

 eigenvalue-minimisations  :  2000
 total energy-change (2. order) :-0.1009289E-02  (-0.1008967E-02)
 number of electron      65.0000019 magnetization       0.8366806
 augmentation part        6.2271536 magnetization       0.1513902

 Broyden mixing:
  rms(total) = 0.27937E+01    rms(broyden)= 0.27930E+01
  rms(prec ) = 0.46508E+01
  weight for this iteration     100.00

 Free energy of the ion-electron system (eV)
  ---------------------------------------------------
  alpha Z        PSCENC =       144.97063842
  Ewald energy   TEWEN  =     -2892.49469061
  -Hartree energ DENC   =      -982.20688026
  -exchange      EXHF   =         0.00000000
  -V(xc)+E(xc)   XCENC  =      -138.42606070
  PAW double counting   =      3293.59363178    -2912.95377936
  entropy T*S    EENTRO =        -0.00704545
  eigenvalues    EBANDS =      -285.96979079
  atomic energy  EATOM  =      3672.90113687
  Solvation  Ediel_sol  =         0.00000000
  ---------------------------------------------------
  free energy    TOTEN  =      -100.59284011 eV

  energy without entropy =     -100.58579466  energy(sigma->0) =     -100.58931738


--------------------------------------------------------------------------------------------------------




----------------------------------------- Iteration    1(   6)  ---------------------------------------


    POTLOK:  cpu time    0.0200: real time    0.0210
    SETDIJ:  cpu time    0.6760: real time    0.6762
     EDDAV:  cpu time    0.5960: real time    0.5971
       DOS:  cpu time    0.0040: real time    0.0006
    CHARGE:  cpu time    0.0200: real time    0.0223
    MIXING:  cpu time    0.0000: real time    0.0006
    --------------------------------------------
      LOOP:  cpu time    1.3160: real time    1.3208

 eigenvalue-minimisations  :  1868
 total energy-change (2. order) : 0.6321866E+01  (-0.3891333E+01)
 number of electron      65.0000016 magnetization       0.5355956
 augmentation part        5.1319174 magnetization      -0.1001289

 Broyden mixing:
  rms(total) = 0.75689E+00    rms(broyden)= 0.75533E+00
  rms(prec ) = 0.10272E+01
  weight for this iteration     100.00

 eigenvalues of (default mixing * dielectric matrix)
  average eigenvalue GAMMA=   0.8387
  0.8387

 Free energy of the ion-electron system (eV)
  ---------------------------------------------------
  alpha Z        PSCENC =       144.97063842
  Ewald energy   TEWEN  =     -2892.49469061
  -Hartree energ DENC   =     -1126.12254480
  -exchange      EXHF   =         0.00000000
  -V(xc)+E(xc)   XCENC  =      -130.98389315
  PAW double counting   =      3930.58995902    -3552.29175694
  entropy T*S    EENTRO =        -0.01122137
  eigenvalues    EBANDS =      -140.82860174
  atomic energy  EATOM  =      3672.90113687
  Solvation  Ediel_sol  =         0.00000000
  ---------------------------------------------------
  free energy    TOTEN  =       -94.27097432 eV

  energy without entropy =      -94.25975295  energy(sigma->0) =      -94.26536363


--------------------------------------------------------------------------------------------------------




----------------------------------------- Iteration    1(   7)  ---------------------------------------


    POTLOK:  cpu time    0.0240: real time    0.0213
    SETDIJ:  cpu time    0.6760: real time    0.6778
     EDDAV:  cpu time    0.5520: real time    0.5526
       DOS:  cpu time    0.0000: real time    0.0006
    CHARGE:  cpu time    0.0200: real time    0.0221
    MIXING:  cpu time    0.0040: real time    0.0006
    --------------------------------------------
      LOOP:  cpu time    1.2760: real time    1.2782

 eigenvalue-minimisations  :  1696
 total energy-change (2. order) :-0.1883994E+00  (-0.1180014E+00)
 number of electron      65.0000016 magnetization       0.0810589
 augmentation part        5.1369094 magnetization      -0.1854444

 Broyden mixing:
  rms(total) = 0.39949E+00    rms(broyden)= 0.39943E+00
  rms(prec ) = 0.61340E+00
  weight for this iteration     100.00

 eigenvalues of (default mixing * dielectric matrix)
  average eigenvalue GAMMA=   0.9693
  0.9945  0.9441

 Free energy of the ion-electron system (eV)
  ---------------------------------------------------
  alpha Z        PSCENC =       144.97063842
  Ewald energy   TEWEN  =     -2892.49469061
  -Hartree energ DENC   =     -1126.87236533
  -exchange      EXHF   =         0.00000000
  -V(xc)+E(xc)   XCENC  =      -130.83906642
  PAW double counting   =      4176.90003187    -3798.21428397
  entropy T*S    EENTRO =        -0.00710851
  eigenvalues    EBANDS =      -140.80366601
  atomic energy  EATOM  =      3672.90113687
  Solvation  Ediel_sol  =         0.00000000
  ---------------------------------------------------
  free energy    TOTEN  =       -94.45937370 eV

  energy without entropy =      -94.45226519  energy(sigma->0) =      -94.45581944


--------------------------------------------------------------------------------------------------------




----------------------------------------- Iteration    1(   8)  ---------------------------------------


    POTLOK:  cpu time    0.0200: real time    0.0208
    SETDIJ:  cpu time    0.6760: real time    0.6761
     EDDAV:  cpu time    0.6120: real time    0.6148
       DOS:  cpu time    0.0000: real time    0.0006
    CHARGE:  cpu time    0.0240: real time    0.0221
    MIXING:  cpu time    0.0000: real time    0.0006
    --------------------------------------------
      LOOP:  cpu time    1.3320: real time    1.3382

 eigenvalue-minimisations  :  1948
 total energy-change (2. order) : 0.7609971E-01  (-0.1583216E-01)
 number of electron      65.0000016 magnetization      -0.1062814
 augmentation part        5.1598890 magnetization      -0.1436563

 Broyden mixing:
  rms(total) = 0.16052E+00    rms(broyden)= 0.16051E+00
  rms(prec ) = 0.24342E+00
  weight for this iteration     100.00

 eigenvalues of (default mixing * dielectric matrix)
  average eigenvalue GAMMA=   1.2410
  2.0181  0.9031  0.8019

 Free energy of the ion-electron system (eV)
  ---------------------------------------------------
  alpha Z        PSCENC =       144.97063842
  Ewald energy   TEWEN  =     -2892.49469061
  -Hartree energ DENC   =     -1130.86745040
  -exchange      EXHF   =         0.00000000
  -V(xc)+E(xc)   XCENC  =      -130.21074852
  PAW double counting   =      4432.99274294    -4053.97559854
  entropy T*S    EENTRO =        -0.01117294
  eigenvalues    EBANDS =      -137.68813121
  atomic energy  EATOM  =      3672.90113687
  Solvation  Ediel_sol  =         0.00000000
  ---------------------------------------------------
  free energy    TOTEN  =       -94.38327399 eV

  energy without entropy =      -94.37210105  energy(sigma->0) =      -94.37768752


--------------------------------------------------------------------------------------------------------




----------------------------------------- Iteration    1(   9)  ---------------------------------------


    POTLOK:  cpu time    0.0200: real time    0.0208
    SETDIJ:  cpu time    0.6800: real time    0.6779
     EDDAV:  cpu time    0.6240: real time    0.6265
       DOS:  cpu time    0.0000: real time    0.0006
    CHARGE:  cpu time    0.0240: real time    0.0217
    MIXING:  cpu time    0.0000: real time    0.0006
    --------------------------------------------
      LOOP:  cpu time    1.3480: real time    1.3512

 eigenvalue-minimisations  :  2016
 total energy-change (2. order) : 0.3771352E-02  (-0.4461799E-02)
 number of electron      65.0000016 magnetization      -0.1305445
 augmentation part        5.1528570 magnetization       0.0052674

 Broyden mixing:
  rms(total) = 0.56638E-01    rms(broyden)= 0.56619E-01
  rms(prec ) = 0.65703E-01
  weight for this iteration     100.00

 eigenvalues of (default mixing * dielectric matrix)
  average eigenvalue GAMMA=   1.2272
  2.3953  0.9410  0.9410  0.6313

 Free energy of the ion-electron system (eV)
  ---------------------------------------------------
  alpha Z        PSCENC =       144.97063842
  Ewald energy   TEWEN  =     -2892.49469061
  -Hartree energ DENC   =     -1136.12448672
  -exchange      EXHF   =         0.00000000
  -V(xc)+E(xc)   XCENC  =      -129.59963345
  PAW double counting   =      4566.15460067    -4187.01582768
  entropy T*S    EENTRO =        -0.01019792
  eigenvalues    EBANDS =      -133.16104220
  atomic energy  EATOM  =      3672.90113687
  Solvation  Ediel_sol  =         0.00000000
  ---------------------------------------------------
  free energy    TOTEN  =       -94.37950264 eV

  energy without entropy =      -94.36930471  energy(sigma->0) =      -94.37440368


--------------------------------------------------------------------------------------------------------




----------------------------------------- Iteration    1(  10)  ---------------------------------------


    POTLOK:  cpu time    0.0200: real time    0.0206
    SETDIJ:  cpu time    0.6760: real time    0.6758
     EDDAV:  cpu time    0.6200: real time    0.6217
       DOS:  cpu time    0.0000: real time    0.0006
    CHARGE:  cpu time    0.0240: real time    0.0217
    MIXING:  cpu time    0.0000: real time    0.0006
    --------------------------------------------
      LOOP:  cpu time    1.3400: real time    1.3441

 eigenvalue-minimisations  :  1992
 total energy-change (2. order) : 0.7608019E-03  (-0.3956773E-03)
 number of electron      65.0000016 magnetization      -0.1690009
 augmentation part        5.1467911 magnetization      -0.0024675

 Broyden mixing:
  rms(total) = 0.19384E-01    rms(broyden)= 0.19371E-01
  rms(prec ) = 0.24726E-01
  weight for this iteration     100.00

 eigenvalues of (default mixing * dielectric matrix)
  average eigenvalue GAMMA=   1.1881
  2.4961  1.0263  1.0263  0.7692  0.6227

 Free energy of the ion-electron system (eV)
  ---------------------------------------------------
  alpha Z        PSCENC =       144.97063842
  Ewald energy   TEWEN  =     -2892.49469061
  -Hartree energ DENC   =     -1136.93750290
  -exchange      EXHF   =         0.00000000
  -V(xc)+E(xc)   XCENC  =      -129.52330969
  PAW double counting   =      4557.90881180    -4178.78578515
  entropy T*S    EENTRO =        -0.00965086
  eigenvalues    EBANDS =      -132.40838972
  atomic energy  EATOM  =      3672.90113687
  Solvation  Ediel_sol  =         0.00000000
  ---------------------------------------------------
  free energy    TOTEN  =       -94.37874184 eV

  energy without entropy =      -94.36909098  energy(sigma->0) =      -94.37391641


--------------------------------------------------------------------------------------------------------




----------------------------------------- Iteration    1(  11)  ---------------------------------------


    POTLOK:  cpu time    0.0200: real time    0.0205
    SETDIJ:  cpu time    0.6760: real time    0.6745
     EDDAV:  cpu time    0.6320: real time    0.6360
       DOS:  cpu time    0.0040: real time    0.0006
    CHARGE:  cpu time    0.0200: real time    0.0216
    MIXING:  cpu time    0.0000: real time    0.0007
    --------------------------------------------
      LOOP:  cpu time    1.3520: real time    1.3573

 eigenvalue-minimisations  :  2044
 total energy-change (2. order) :-0.6205344E-03  (-0.7780614E-04)
 number of electron      65.0000016 magnetization      -0.2350037
 augmentation part        5.1459146 magnetization      -0.0255258

 Broyden mixing:
  rms(total) = 0.10186E-01    rms(broyden)= 0.10177E-01
  rms(prec ) = 0.12923E-01
  weight for this iteration     100.00

 eigenvalues of (default mixing * dielectric matrix)
  average eigenvalue GAMMA=   1.3090
  2.6967  1.8342  1.0121  0.8868  0.8064  0.6179

 Free energy of the ion-electron system (eV)
  ---------------------------------------------------
  alpha Z        PSCENC =       144.97063842
  Ewald energy   TEWEN  =     -2892.49469061
  -Hartree energ DENC   =     -1137.08354827
  -exchange      EXHF   =         0.00000000
  -V(xc)+E(xc)   XCENC  =      -129.49801767
  PAW double counting   =      4545.09149813    -4165.97745559
  entropy T*S    EENTRO =        -0.00858987
  eigenvalues    EBANDS =      -132.28033378
  atomic energy  EATOM  =      3672.90113687
  Solvation  Ediel_sol  =         0.00000000
  ---------------------------------------------------
  free energy    TOTEN  =       -94.37936237 eV

  energy without entropy =      -94.37077250  energy(sigma->0) =      -94.37506744


--------------------------------------------------------------------------------------------------------




----------------------------------------- Iteration    1(  12)  ---------------------------------------


    POTLOK:  cpu time    0.0200: real time    0.0205
    SETDIJ:  cpu time    0.6760: real time    0.6750
     EDDAV:  cpu time    0.6440: real time    0.6444
       DOS:  cpu time    0.0000: real time    0.0006
    CHARGE:  cpu time    0.0200: real time    0.0217
    MIXING:  cpu time    0.0040: real time    0.0017
    --------------------------------------------
      LOOP:  cpu time    1.3640: real time    1.3671

 eigenvalue-minimisations  :  2084
 total energy-change (2. order) :-0.3762338E-03  (-0.5197297E-04)
 number of electron      65.0000016 magnetization      -0.2429848
 augmentation part        5.1466261 magnetization      -0.0045574

 Broyden mixing:
  rms(total) = 0.35751E-02    rms(broyden)= 0.35625E-02
  rms(prec ) = 0.43908E-02
  weight for this iteration     100.00

 eigenvalues of (default mixing * dielectric matrix)
  average eigenvalue GAMMA=   1.3110
  2.7674  2.2943  1.0039  1.0039  0.7732  0.7217  0.6124

 Free energy of the ion-electron system (eV)
  ---------------------------------------------------
  alpha Z        PSCENC =       144.97063842
  Ewald energy   TEWEN  =     -2892.49469061
  -Hartree energ DENC   =     -1137.05300912
  -exchange      EXHF   =         0.00000000
  -V(xc)+E(xc)   XCENC  =      -129.48585905
  PAW double counting   =      4533.94916923    -4154.84003628
  entropy T*S    EENTRO =        -0.00764810
  eigenvalues    EBANDS =      -132.31943996
  atomic energy  EATOM  =      3672.90113687
  Solvation  Ediel_sol  =         0.00000000
  ---------------------------------------------------
  free energy    TOTEN  =       -94.37973861 eV

  energy without entropy =      -94.37209051  energy(sigma->0) =      -94.37591456


--------------------------------------------------------------------------------------------------------




----------------------------------------- Iteration    1(  13)  ---------------------------------------


    POTLOK:  cpu time    0.0200: real time    0.0205
    SETDIJ:  cpu time    0.6760: real time    0.6758
     EDDAV:  cpu time    0.6440: real time    0.6443
       DOS:  cpu time    0.0000: real time    0.0006
    CHARGE:  cpu time    0.0200: real time    0.0220
    MIXING:  cpu time    0.0000: real time    0.0008
    --------------------------------------------
      LOOP:  cpu time    1.3600: real time    1.3674

 eigenvalue-minimisations  :  2044
 total energy-change (2. order) :-0.2973318E-04  (-0.3534198E-05)
 number of electron      65.0000016 magnetization      -0.2390325
 augmentation part        5.1467248 magnetization       0.0024844

 Broyden mixing:
  rms(total) = 0.17198E-02    rms(broyden)= 0.17176E-02
  rms(prec ) = 0.20921E-02
  weight for this iteration     100.00

 eigenvalues of (default mixing * dielectric matrix)
  average eigenvalue GAMMA=   1.2764
  2.6582  2.3874  0.9724  0.9724  0.9541  0.9541  0.6230  0.6900

 Free energy of the ion-electron system (eV)
  ---------------------------------------------------
  alpha Z        PSCENC =       144.97063842
  Ewald energy   TEWEN  =     -2892.49469061
  -Hartree energ DENC   =     -1137.05479756
  -exchange      EXHF   =         0.00000000
  -V(xc)+E(xc)   XCENC  =      -129.48314116
  PAW double counting   =      4530.86368431    -4151.75682309
  entropy T*S    EENTRO =        -0.00754887
  eigenvalues    EBANDS =      -132.31822664
  atomic energy  EATOM  =      3672.90113687
  Solvation  Ediel_sol  =         0.00000000
  ---------------------------------------------------
  free energy    TOTEN  =       -94.37976834 eV

  energy without entropy =      -94.37221946  energy(sigma->0) =      -94.37599390


--------------------------------------------------------------------------------------------------------




----------------------------------------- Iteration    1(  14)  ---------------------------------------


    POTLOK:  cpu time    0.0200: real time    0.0208
    SETDIJ:  cpu time    0.6760: real time    0.6769
     EDDAV:  cpu time    0.5920: real time    0.5943
       DOS:  cpu time    0.0000: real time    0.0006
    CHARGE:  cpu time    0.0240: real time    0.0217
    MIXING:  cpu time    0.0000: real time    0.0008
    --------------------------------------------
      LOOP:  cpu time    1.3160: real time    1.3185

 eigenvalue-minimisations  :  1888
 total energy-change (2. order) :-0.4882337E-05  (-0.7348305E-06)
 number of electron      65.0000016 magnetization      -0.2381440
 augmentation part        5.1466368 magnetization       0.0027404

 Broyden mixing:
  rms(total) = 0.53098E-03    rms(broyden)= 0.53062E-03
  rms(prec ) = 0.70610E-03
  weight for this iteration     100.00

 eigenvalues of (default mixing * dielectric matrix)
  average eigenvalue GAMMA=   1.2908
  2.7025  2.4409  1.2831  1.2831  0.8721  0.8721  0.8811  0.6271  0.6552

 Free energy of the ion-electron system (eV)
  ---------------------------------------------------
  alpha Z        PSCENC =       144.97063842
  Ewald energy   TEWEN  =     -2892.49469061
  -Hartree energ DENC   =     -1137.06698432
  -exchange      EXHF   =         0.00000000
  -V(xc)+E(xc)   XCENC  =      -129.48177085
  PAW double counting   =      4529.28775129    -4150.18255545
  entropy T*S    EENTRO =        -0.00757970
  eigenvalues    EBANDS =      -132.30571886
  atomic energy  EATOM  =      3672.90113687
  Solvation  Ediel_sol  =         0.00000000
  ---------------------------------------------------
  free energy    TOTEN  =       -94.37977322 eV

  energy without entropy =      -94.37219352  energy(sigma->0) =      -94.37598337


--------------------------------------------------------------------------------------------------------




----------------------------------------- Iteration    1(  15)  ---------------------------------------


    POTLOK:  cpu time    0.0200: real time    0.0206
    SETDIJ:  cpu time    0.6760: real time    0.6747
     EDDAV:  cpu time    0.4680: real time    0.4691
       DOS:  cpu time    0.0000: real time    0.0006
    --------------------------------------------
      LOOP:  cpu time    1.1640: real time    1.1689

 eigenvalue-minimisations  :  1324
 total energy-change (2. order) :-0.6951504E-06  (-0.1083529E-06)
 number of electron      65.0000016 magnetization      -0.2381440
 augmentation part        5.1466368 magnetization       0.0027404

 Free energy of the ion-electron system (eV)
  ---------------------------------------------------
  alpha Z        PSCENC =       144.97063842
  Ewald energy   TEWEN  =     -2892.49469061
  -Hartree energ DENC   =     -1137.06555066
  -exchange      EXHF   =         0.00000000
  -V(xc)+E(xc)   XCENC  =      -129.48167548
  PAW double counting   =      4528.89630823    -4149.79145600
  entropy T*S    EENTRO =        -0.00759614
  eigenvalues    EBANDS =      -132.30688854
  atomic energy  EATOM  =      3672.90113687
  Solvation  Ediel_sol  =         0.00000000
  ---------------------------------------------------
  free energy    TOTEN  =       -94.37977392 eV

  energy without entropy =      -94.37217778  energy(sigma->0) =      -94.37597585


--------------------------------------------------------------------------------------------------------




 average (electrostatic) potential at core
  the test charge radii are     1.0406  1.0714  0.7215
  (the norm of the test charge is              1.0000)
       1 -74.5779       2 -34.7568       3 -34.7541       4 -34.7437       5 -34.7625
       6 -34.7537       7 -34.7514       8 -35.2328       9 -69.1802      10 -69.6130
      11 -69.5852      12 -69.6204      13 -69.6267      14 -69.6564      15 -69.6282
      16 -69.1678
 
 
 
 E-fermi :   9.5820     XC(G=0): -11.0559     alpha+bet :-13.3257


 spin component 1

 k-point     1 :       0.0000    0.0000    0.0000
  band No.  band energies     occupation 
      1     -13.9361      1.00000
      2     -12.7570      1.00000
      3     -12.7564      1.00000
      4     -12.7526      1.00000
      5     -12.4618      1.00000
      6     -12.4579      1.00000
      7     -12.2918      1.00000
      8     -12.1501      1.00000
      9      -2.1286      1.00000
     10      -1.1403      1.00000
     11      -1.1394      1.00000
     12      -1.1390      1.00000
     13      -0.8554      1.00000
     14      -0.8550      1.00000
     15      -0.8549      1.00000
     16       1.8728      1.00000
     17       1.8742      1.00000
     18       1.8775      1.00000
     19       1.9646      1.00000
     20       1.9653      1.00000
     21       1.9657      1.00000
     22       2.3913      1.00000
     23       2.3955      1.00000
     24       2.6594      1.00000
     25       2.6597      1.00000
     26       2.6601      1.00000
     27       2.8611      1.00000
     28       2.8614      1.00000
     29       2.8621      1.00000
     30       3.3265      1.00000
     31       3.3270      1.00000
     32       3.3273      1.00000
     33       7.2566      1.00000
     34      10.5815      0.00000
     35      10.5875      0.00000
     36      10.5880      0.00000
     37      11.1167      0.00000
     38      11.1919      0.00000
     39      12.2612      0.00000
     40      12.2621      0.00000
     41      12.2623      0.00000
     42      13.1355      0.00000
     43      13.1360      0.00000
     44      14.7216      0.00000
     45      15.6899      0.00000
     46      15.6910      0.00000
     47      15.6936      0.00000
     48      15.9065      0.00000
     49      15.9075      0.00000
     50      15.9124      0.00000
     51      17.8991      0.00000
     52      17.9049      0.00000

 k-point     2 :       0.5000    0.0000    0.0000
  band No.  band energies     occupation 
      1     -13.4654      1.00000
      2     -13.2792      1.00000
      3     -12.6731      1.00000
      4     -12.6666      1.00000
      5     -12.5713      1.00000
      6     -12.5633      1.00000
      7     -12.2733      1.00000
      8     -12.2449      1.00000
      9      -1.2996      1.00000
     10      -0.8234      1.00000
     11      -0.4054      1.00000
     12      -0.3941      1.00000
     13      -0.3902      1.00000
     14      -0.3791      1.00000
     15       0.4468      1.00000
     16       0.7143      1.00000
     17       1.0904      1.00000
     18       1.0947      1.00000
     19       1.3648      1.00000
     20       1.3711      1.00000
     21       1.6075      1.00000
     22       1.7102      1.00000
     23       2.2051      1.00000
     24       2.2092      1.00000
     25       2.2397      1.00000
     26       2.3051      1.00000
     27       2.3103      1.00000
     28       2.3478      1.00000
     29       2.9888      1.00000
     30       2.9901      1.00000
     31       3.0432      1.00000
     32       3.0435      1.00000
     33       9.5799      0.52468
     34       9.8155      0.00000
     35      12.1016      0.00000
     36      12.4261      0.00000
     37      12.5682      0.00000
     38      12.5759      0.00000
     39      12.6268      0.00000
     40      12.6361      0.00000
     41      13.6663      0.00000
     42      14.3677      0.00000
     43      14.5140      0.00000
     44      14.5176      0.00000
     45      14.7923      0.00000
     46      14.7981      0.00000
     47      15.3879      0.00000
     48      15.4771      0.00000
     49      15.8416      0.00000
     50      15.8736      0.00000
     51      16.1288      0.00000
     52      16.1378      0.00000

 k-point     3 :       0.0000    0.5000    0.0000
  band No.  band energies     occupation 
      1     -13.4632      1.00000
      2     -13.2824      1.00000
      3     -12.6718      1.00000
      4     -12.6649      1.00000
      5     -12.5710      1.00000
      6     -12.5656      1.00000
      7     -12.2755      1.00000
      8     -12.2428      1.00000
      9      -1.2948      1.00000
     10      -0.8275      1.00000
     11      -0.4089      1.00000
     12      -0.3971      1.00000
     13      -0.3866      1.00000
     14      -0.3745      1.00000
     15       0.4433      1.00000
     16       0.7144      1.00000
     17       1.0862      1.00000
     18       1.0966      1.00000
     19       1.3651      1.00000
     20       1.3704      1.00000
     21       1.6057      1.00000
     22       1.7125      1.00000
     23       2.2052      1.00000
     24       2.2114      1.00000
     25       2.2417      1.00000
     26       2.3042      1.00000
     27       2.3104      1.00000
     28       2.3465      1.00000
     29       2.9873      1.00000
     30       2.9907      1.00000
     31       3.0427      1.00000
     32       3.0451      1.00000
     33       9.5824      0.49617
     34       9.8165      0.00000
     35      12.1052      0.00000
     36      12.4203      0.00000
     37      12.5675      0.00000
     38      12.5803      0.00000
     39      12.6212      0.00000
     40      12.6370      0.00000
     41      13.6520      0.00000
     42      14.3878      0.00000
     43      14.5220      0.00000
     44      14.5296      0.00000
     45      14.7805      0.00000
     46      14.7880      0.00000
     47      15.3995      0.00000
     48      15.4806      0.00000
     49      15.8204      0.00000
     50      15.8674      0.00000
     51      16.1199      0.00000
     52      16.1387      0.00000

 k-point     4 :       0.5000    0.5000    0.0000
  band No.  band energies     occupation 
      1     -13.3393      1.00000
      2     -13.0874      1.00000
      3     -12.8216      1.00000
      4     -12.8188      1.00000
      5     -12.7841      1.00000
      6     -12.4150      1.00000
      7     -12.3600      1.00000
      8     -12.1651      1.00000
      9      -1.0551      1.00000
     10      -0.1598      1.00000
     11      -0.0706      1.00000
     12      -0.0628      1.00000
     13       0.1127      1.00000
     14       0.1171      1.00000
     15       0.4908      1.00000
     16       0.4980      1.00000
     17       0.5152      1.00000
     18       0.5412      1.00000
     19       0.9635      1.00000
     20       1.3392      1.00000
     21       1.3405      1.00000
     22       1.5601      1.00000
     23       1.6298      1.00000
     24       1.6603      1.00000
     25       2.3481      1.00000
     26       2.3768      1.00000
     27       2.4221      1.00000
     28       2.6589      1.00000
     29       2.7352      1.00000
     30       2.7358      1.00000
     31       2.8314      1.00000
     32       2.8321      1.00000
     33      10.2348      0.00000
     34      11.1330      0.00000
     35      11.9602      0.00000
     36      12.1319      0.00000
     37      12.1497      0.00000
     38      12.6297      0.00000
     39      13.9113      0.00000
     40      14.0595      0.00000
     41      14.3308      0.00000
     42      14.5165      0.00000
     43      14.5184      0.00000
     44      14.5231      0.00000
     45      14.6469      0.00000
     46      14.6579      0.00000
     47      14.9272      0.00000
     48      14.9382      0.00000
     49      15.0978      0.00000
     50      15.2980      0.00000
     51      16.0867      0.00000
     52      16.5903      0.00000

 k-point     5 :       0.0000    0.0000    0.5000
  band No.  band energies     occupation 
      1     -13.4633      1.00000
      2     -13.2823      1.00000
      3     -12.6716      1.00000
      4     -12.6649      1.00000
      5     -12.5708      1.00000
      6     -12.5660      1.00000
      7     -12.2741      1.00000
      8     -12.2441      1.00000
      9      -1.2956      1.00000
     10      -0.8270      1.00000
     11      -0.4030      1.00000
     12      -0.3967      1.00000
     13      -0.3864      1.00000
     14      -0.3813      1.00000
     15       0.4439      1.00000
     16       0.7143      1.00000
     17       1.0869      1.00000
     18       1.0965      1.00000
     19       1.3659      1.00000
     20       1.3697      1.00000
     21       1.6065      1.00000
     22       1.7119      1.00000
     23       2.2058      1.00000
     24       2.2110      1.00000
     25       2.2417      1.00000
     26       2.3047      1.00000
     27       2.3090      1.00000
     28       2.3464      1.00000
     29       2.9898      1.00000
     30       2.9910      1.00000
     31       3.0418      1.00000
     32       3.0434      1.00000
     33       9.5821      0.49898
     34       9.8163      0.00000
     35      12.1048      0.00000
     36      12.4220      0.00000
     37      12.5673      0.00000
     38      12.5810      0.00000
     39      12.6199      0.00000
     40      12.6384      0.00000
     41      13.6544      0.00000
     42      14.3837      0.00000
     43      14.5193      0.00000
     44      14.5263      0.00000
     45      14.7849      0.00000
     46      14.7904      0.00000
     47      15.4008      0.00000
     48      15.4717      0.00000
     49      15.8308      0.00000
     50      15.8626      0.00000
     51      16.1208      0.00000
     52      16.1385      0.00000

 k-point     6 :       0.5000    0.0000    0.5000
  band No.  band energies     occupation 
      1     -13.3385      1.00000
      2     -13.0897      1.00000
      3     -12.8218      1.00000
      4     -12.8179      1.00000
      5     -12.7823      1.00000
      6     -12.4163      1.00000
      7     -12.3600      1.00000
      8     -12.1647      1.00000
      9      -1.0541      1.00000
     10      -0.1546      1.00000
     11      -0.0714      1.00000
     12      -0.0683      1.00000
     13       0.1126      1.00000
     14       0.1171      1.00000
     15       0.4751      1.00000
     16       0.5145      1.00000
     17       0.5156      1.00000
     18       0.5373      1.00000
     19       0.9665      1.00000
     20       1.3392      1.00000
     21       1.3403      1.00000
     22       1.5591      1.00000
     23       1.6304      1.00000
     24       1.6603      1.00000
     25       2.3744      1.00000
     26       2.3778      1.00000
     27       2.3963      1.00000
     28       2.6585      1.00000
     29       2.7344      1.00000
     30       2.7354      1.00000
     31       2.8311      1.00000
     32       2.8331      1.00000
     33      10.2342      0.00000
     34      11.1329      0.00000
     35      11.9713      0.00000
     36      12.1324      0.00000
     37      12.1386      0.00000
     38      12.6296      0.00000
     39      13.9136      0.00000
     40      14.0611      0.00000
     41      14.3352      0.00000
     42      14.5121      0.00000
     43      14.5151      0.00000
     44      14.5227      0.00000
     45      14.6477      0.00000
     46      14.6599      0.00000
     47      14.9271      0.00000
     48      14.9391      0.00000
     49      15.0957      0.00000
     50      15.2952      0.00000
     51      16.0883      0.00000
     52      16.5867      0.00000

 k-point     7 :       0.0000    0.5000    0.5000
  band No.  band energies     occupation 
      1     -13.3381      1.00000
      2     -13.0901      1.00000
      3     -12.8195      1.00000
      4     -12.8175      1.00000
      5     -12.7863      1.00000
      6     -12.4136      1.00000
      7     -12.3600      1.00000
      8     -12.1661      1.00000
      9      -1.0536      1.00000
     10      -0.1578      1.00000
     11      -0.0726      1.00000
     12      -0.0688      1.00000
     13       0.1179      1.00000
     14       0.1214      1.00000
     15       0.4904      1.00000
     16       0.4960      1.00000
     17       0.5139      1.00000
     18       0.5437      1.00000
     19       0.9558      1.00000
     20       1.3405      1.00000
     21       1.3413      1.00000
     22       1.5610      1.00000
     23       1.6280      1.00000
     24       1.6608      1.00000
     25       2.3476      1.00000
     26       2.3803      1.00000
     27       2.4238      1.00000
     28       2.6593      1.00000
     29       2.7346      1.00000
     30       2.7348      1.00000
     31       2.8307      1.00000
     32       2.8311      1.00000
     33      10.2357      0.00000
     34      11.1327      0.00000
     35      11.9569      0.00000
     36      12.1322      0.00000
     37      12.1505      0.00000
     38      12.6342      0.00000
     39      13.9138      0.00000
     40      14.0561      0.00000
     41      14.3433      0.00000
     42      14.5145      0.00000
     43      14.5179      0.00000
     44      14.5193      0.00000
     45      14.6413      0.00000
     46      14.6544      0.00000
     47      14.9320      0.00000
     48      14.9439      0.00000
     49      15.0970      0.00000
     50      15.2983      0.00000
     51      16.0811      0.00000
     52      16.5887      0.00000

 k-point     8 :       0.5000    0.5000    0.5000
  band No.  band energies     occupation 
      1     -13.4658      1.00000
      2     -13.2787      1.00000
      3     -12.6730      1.00000
      4     -12.6662      1.00000
      5     -12.5718      1.00000
      6     -12.5634      1.00000
      7     -12.2751      1.00000
      8     -12.2431      1.00000
      9      -1.3000      1.00000
     10      -0.8230      1.00000
     11      -0.4106      1.00000
     12      -0.3965      1.00000
     13      -0.3879      1.00000
     14      -0.3737      1.00000
     15       0.4470      1.00000
     16       0.7142      1.00000
     17       1.0894      1.00000
     18       1.0961      1.00000
     19       1.3634      1.00000
     20       1.3712      1.00000
     21       1.6063      1.00000
     22       1.7112      1.00000
     23       2.2035      1.00000
     24       2.2085      1.00000
     25       2.2395      1.00000
     26       2.3061      1.00000
     27       2.3118      1.00000
     28       2.3482      1.00000
     29       2.9875      1.00000
     30       2.9885      1.00000
     31       3.0444      1.00000
     32       3.0455      1.00000
     33       9.5796      0.52815
     34       9.8151      0.00000
     35      12.1025      0.00000
     36      12.4273      0.00000
     37      12.5680      0.00000
     38      12.5719      0.00000
     39      12.6307      0.00000
     40      12.6359      0.00000
     41      13.6680      0.00000
     42      14.3642      0.00000
     43      14.5114      0.00000
     44      14.5145      0.00000
     45      14.7971      0.00000
     46      14.8005      0.00000
     47      15.3940      0.00000
     48      15.4611      0.00000
     49      15.8446      0.00000
     50      15.8741      0.00000
     51      16.1322      0.00000
     52      16.1373      0.00000

 spin component 2

 k-point     1 :       0.0000    0.0000    0.0000
  band No.  band energies     occupation 
      1     -13.9580      1.00000
      2     -12.7772      1.00000
      3     -12.7767      1.00000
      4     -12.7729      1.00000
      5     -12.4805      1.00000
      6     -12.4767      1.00000
      7     -12.3016      1.00000
      8     -12.1617      1.00000
      9      -2.1793      1.00000
     10      -1.1596      1.00000
     11      -1.1586      1.00000
     12      -1.1583      1.00000
     13      -0.8845      1.00000
     14      -0.8842      1.00000
     15      -0.8840      1.00000
     16       1.8539      1.00000
     17       1.8552      1.00000
     18       1.8586      1.00000
     19       1.9494      1.00000
     20       1.9501      1.00000
     21       1.9505      1.00000
     22       2.3671      1.00000
     23       2.3712      1.00000
     24       2.6452      1.00000
     25       2.6455      1.00000
     26       2.6459      1.00000
     27       2.8494      1.00000
     28       2.8497      1.00000
     29       2.8504      1.00000
     30       3.3128      1.00000
     31       3.3132      1.00000
     32       3.3135      1.00000
     33       7.1865      1.00000
     34      10.5109      0.00000
     35      10.5172      0.00000
     36      10.5173      0.00000
     37      11.0560      0.00000
     38      11.1564      0.00000
     39      12.1994      0.00000
     40      12.2001      0.00000
     41      12.2002      0.00000
     42      13.1174      0.00000
     43      13.1178      0.00000
     44      14.6587      0.00000
     45      15.6512      0.00000
     46      15.6524      0.00000
     47      15.6547      0.00000
     48      15.8438      0.00000
     49      15.8453      0.00000
     50      15.8502      0.00000
     51      17.8417      0.00000
     52      17.8455      0.00000

 k-point     2 :       0.5000    0.0000    0.0000
  band No.  band energies     occupation 
      1     -13.4881      1.00000
      2     -13.2988      1.00000
      3     -12.6928      1.00000
      4     -12.6866      1.00000
      5     -12.5904      1.00000
      6     -12.5827      1.00000
      7     -12.2843      1.00000
      8     -12.2557      1.00000
      9      -1.3460      1.00000
     10      -0.8614      1.00000
     11      -0.4253      1.00000
     12      -0.4148      1.00000
     13      -0.4107      1.00000
     14      -0.4003      1.00000
     15       0.4245      1.00000
     16       0.6902      1.00000
     17       1.0652      1.00000
     18       1.0695      1.00000
     19       1.3399      1.00000
     20       1.3461      1.00000
     21       1.5952      1.00000
     22       1.6977      1.00000
     23       2.1879      1.00000
     24       2.1917      1.00000
     25       2.2252      1.00000
     26       2.2876      1.00000
     27       2.2923      1.00000
     28       2.3328      1.00000
     29       2.9753      1.00000
     30       2.9768      1.00000
     31       3.0299      1.00000
     32       3.0300      1.00000
     33       9.5012      0.98891
     34       9.7634      0.00000
     35      12.0459      0.00000
     36      12.3784      0.00000
     37      12.5187      0.00000
     38      12.5269      0.00000
     39      12.5610      0.00000
     40      12.5698      0.00000
     41      13.6016      0.00000
     42      14.3135      0.00000
     43      14.4671      0.00000
     44      14.4712      0.00000
     45      14.7464      0.00000
     46      14.7525      0.00000
     47      15.3438      0.00000
     48      15.4345      0.00000
     49      15.7892      0.00000
     50      15.8231      0.00000
     51      16.0836      0.00000
     52      16.0878      0.00000

 k-point     3 :       0.0000    0.5000    0.0000
  band No.  band energies     occupation 
      1     -13.4859      1.00000
      2     -13.3019      1.00000
      3     -12.6916      1.00000
      4     -12.6850      1.00000
      5     -12.5900      1.00000
      6     -12.5849      1.00000
      7     -12.2863      1.00000
      8     -12.2537      1.00000
      9      -1.3415      1.00000
     10      -0.8652      1.00000
     11      -0.4288      1.00000
     12      -0.4182      1.00000
     13      -0.4068      1.00000
     14      -0.3957      1.00000
     15       0.4210      1.00000
     16       0.6902      1.00000
     17       1.0611      1.00000
     18       1.0713      1.00000
     19       1.3400      1.00000
     20       1.3454      1.00000
     21       1.5933      1.00000
     22       1.7000      1.00000
     23       2.1880      1.00000
     24       2.1940      1.00000
     25       2.2272      1.00000
     26       2.2869      1.00000
     27       2.2929      1.00000
     28       2.3316      1.00000
     29       2.9741      1.00000
     30       2.9773      1.00000
     31       3.0294      1.00000
     32       3.0318      1.00000
     33       9.5034      0.98690
     34       9.7642      0.00000
     35      12.0494      0.00000
     36      12.3715      0.00000
     37      12.5177      0.00000
     38      12.5316      0.00000
     39      12.5550      0.00000
     40      12.5711      0.00000
[...]
     10      -0.1758      1.00000
     11      -0.0934      1.00000
     12      -0.0901      1.00000
     13       0.0849      1.00000
     14       0.0895      1.00000
     15       0.4421      1.00000
     16       0.4952      1.00000
     17       0.4979      1.00000
     18       0.5112      1.00000
     19       0.9347      1.00000
     20       1.3200      1.00000
     21       1.3210      1.00000
     22       1.5440      1.00000
     23       1.6171      1.00000
     24       1.6490      1.00000
     25       2.3545      1.00000
     26       2.3590      1.00000
     27       2.3733      1.00000
     28       2.6443      1.00000
     29       2.7222      1.00000
     30       2.7232      1.00000
     31       2.8189      1.00000
     32       2.8207      1.00000
     33      10.1546      0.00000
     34      11.0981      0.00000
     35      11.9115      0.00000
     36      12.0676      0.00000
     37      12.0743      0.00000
     38      12.5950      0.00000
     39      13.8761      0.00000
     40      13.9850      0.00000
     41      14.2530      0.00000
     42      14.4485      0.00000
     43      14.4523      0.00000
     44      14.4838      0.00000
     45      14.5932      0.00000
     46      14.6054      0.00000
     47      14.8709      0.00000
     48      14.8831      0.00000
     49      15.0557      0.00000
     50      15.2773      0.00000
     51      16.0550      0.00000
     52      16.5476      0.00000

 k-point     7 :       0.0000    0.5000    0.5000
  band No.  band energies     occupation 
      1     -13.3615      1.00000
      2     -13.1080      1.00000
      3     -12.8398      1.00000
      4     -12.8379      1.00000
      5     -12.8063      1.00000
      6     -12.4325      1.00000
      7     -12.3698      1.00000
      8     -12.1782      1.00000
      9      -1.1010      1.00000
     10      -0.1789      1.00000
     11      -0.0946      1.00000
     12      -0.0907      1.00000
     13       0.0902      1.00000
     14       0.0936      1.00000
     15       0.4548      1.00000
     16       0.4756      1.00000
     17       0.4964      1.00000
     18       0.5210      1.00000
     19       0.9243      1.00000
     20       1.3212      1.00000
     21       1.3220      1.00000
     22       1.5458      1.00000
     23       1.6149      1.00000
     24       1.6494      1.00000
     25       2.3274      1.00000
     26       2.3617      1.00000
     27       2.4010      1.00000
     28       2.6451      1.00000
     29       2.7224      1.00000
     30       2.7225      1.00000
     31       2.8185      1.00000
     32       2.8188      1.00000
     33      10.1560      0.00000
     34      11.0978      0.00000
     35      11.8959      0.00000
     36      12.0670      0.00000
     37      12.0881      0.00000
     38      12.5997      0.00000
     39      13.8766      0.00000
     40      13.9794      0.00000
     41      14.2611      0.00000
     42      14.4513      0.00000
     43      14.4556      0.00000
     44      14.4790      0.00000
     45      14.5869      0.00000
     46      14.6002      0.00000
     47      14.8762      0.00000
     48      14.8880      0.00000
     49      15.0567      0.00000
     50      15.2803      0.00000
     51      16.0477      0.00000
     52      16.5470      0.00000

 k-point     8 :       0.5000    0.5000    0.5000
  band No.  band energies     occupation 
      1     -13.4885      1.00000
      2     -13.2983      1.00000
      3     -12.6928      1.00000
      4     -12.6863      1.00000
      5     -12.5908      1.00000
      6     -12.5827      1.00000
      7     -12.2860      1.00000
      8     -12.2540      1.00000
      9      -1.3465      1.00000
     10      -0.8609      1.00000
     11      -0.4306      1.00000
     12      -0.4171      1.00000
     13      -0.4084      1.00000
     14      -0.3949      1.00000
     15       0.4247      1.00000
     16       0.6901      1.00000
     17       1.0643      1.00000
     18       1.0710      1.00000
     19       1.3385      1.00000
     20       1.3462      1.00000
     21       1.5940      1.00000
     22       1.6988      1.00000
     23       2.1862      1.00000
     24       2.1910      1.00000
     25       2.2249      1.00000
     26       2.2886      1.00000
     27       2.2940      1.00000
     28       2.3332      1.00000
     29       2.9741      1.00000
     30       2.9752      1.00000
     31       3.0309      1.00000
     32       3.0321      1.00000
     33       9.5009      0.98910
     34       9.7629      0.00000
     35      12.0471      0.00000
     36      12.3792      0.00000
     37      12.5179      0.00000
     38      12.5228      0.00000
     39      12.5651      0.00000
     40      12.5701      0.00000
     41      13.6036      0.00000
     42      14.3099      0.00000
     43      14.4645      0.00000
     44      14.4680      0.00000
     45      14.7511      0.00000
     46      14.7546      0.00000
     47      15.3492      0.00000
     48      15.4192      0.00000
     49      15.7924      0.00000
     50      15.8236      0.00000
     51      16.0864      0.00000
     52      16.0922      0.00000


--------------------------------------------------------------------------------------------------------


 soft charge-density along one line, spin component           1
         0         1         2         3         4         5         6         7         8         9
 total charge-density along one line
 
 soft charge-density along one line, spin component           2
         0         1         2         3         4         5         6         7         8         9
 total charge-density along one line
 
 pseudopotential strength for first ion, spin component:           1
  8.485  14.464   0.000   0.000  -0.000   0.000   0.000  -0.000
 14.464  24.658   0.000   0.000  -0.000   0.000   0.000  -0.000
  0.000   0.000   1.974   0.000   0.000   5.707   0.000   0.000
  0.000   0.000   0.000   1.974   0.000   0.000   5.707   0.000
 -0.000  -0.000   0.000   0.000   1.974   0.000   0.000   5.707
  0.000   0.000   5.707   0.000   0.000  16.404   0.000   0.000
  0.000   0.000   0.000   5.707   0.000   0.000  16.403   0.000
 -0.000  -0.000   0.000   0.000   5.707   0.000   0.000  16.403
 pseudopotential strength for first ion, spin component:           2
  8.492  14.476   0.000   0.000  -0.000   0.001   0.000  -0.000
 14.476  24.679   0.001   0.000  -0.000   0.001   0.001  -0.000
  0.000   0.001   1.976   0.000   0.000   5.713   0.000   0.000
  0.000   0.000   0.000   1.976  -0.000   0.000   5.713  -0.000
 -0.000  -0.000   0.000  -0.000   1.976   0.000  -0.000   5.713
  0.001   0.001   5.713   0.000   0.000  16.423   0.000   0.000
  0.000   0.001   0.000   5.713  -0.000   0.000  16.423  -0.000
 -0.000  -0.000   0.000  -0.000   5.713   0.000  -0.000  16.423
 total augmentation occupancy for first ion, spin component:           1
  3.833  -1.378  -0.058  -0.023   0.006   0.006   0.002  -0.000
 -1.378   0.718   0.033   0.013  -0.004  -0.002  -0.001   0.000
 -0.058   0.033   1.107  -0.001   0.000  -0.102   0.000  -0.000
 -0.023   0.013  -0.001   1.105  -0.000   0.000  -0.102   0.000
  0.006  -0.004   0.000  -0.000   1.111  -0.000   0.000  -0.103
  0.006  -0.002  -0.102   0.000  -0.000   0.010  -0.000   0.000
  0.002  -0.001   0.000  -0.102   0.000  -0.000   0.010  -0.000
 -0.000   0.000  -0.000   0.000  -0.103   0.000  -0.000   0.010
 total augmentation occupancy for first ion, spin component:           2
 -0.091   0.068   0.001   0.000  -0.000   0.000   0.000  -0.000
  0.068  -0.090  -0.004  -0.002   0.001  -0.000  -0.000   0.000
  0.001  -0.004  -0.009  -0.000   0.000   0.001  -0.000   0.000
  0.000  -0.002  -0.000  -0.009   0.000  -0.000   0.001   0.000
 -0.000   0.001   0.000   0.000  -0.009   0.000   0.000   0.001
  0.000  -0.000   0.001  -0.000   0.000  -0.000  -0.000  -0.000
  0.000  -0.000  -0.000   0.001   0.000  -0.000  -0.000   0.000
 -0.000   0.000   0.000   0.000   0.001  -0.000   0.000  -0.000


------------------------ aborting loop because EDIFF is reached ----------------------------------------


 


 total charge     
 
# of ion     s       p       d       tot
----------------------------------------
  1        0.386   0.288   0.000   0.674
  2        0.152   0.172   0.074   0.397
  3        0.152   0.172   0.074   0.398
  4        0.153   0.172   0.074   0.398
  5        0.152   0.171   0.073   0.397
  6        0.152   0.172   0.074   0.398
  7        0.152   0.172   0.074   0.398
  8        0.144   0.169   0.061   0.373
  9        1.576   3.553   0.000   5.129
 10        1.589   3.533   0.000   5.122
 11        1.589   3.532   0.000   5.121
 12        1.589   3.533   0.000   5.122
 13        1.589   3.533   0.000   5.122
 14        1.589   3.534   0.000   5.122
 15        1.588   3.533   0.000   5.121
 16        1.576   3.552   0.000   5.128
------------------------------------------------
tot       14.129  29.789   0.502  44.420
 


 magnetization (x)
 
# of ion     s       p       d       tot
----------------------------------------
  1       -0.033  -0.002   0.000  -0.034
  2       -0.002  -0.001  -0.000  -0.003
  3       -0.002  -0.001  -0.000  -0.003
  4       -0.002  -0.001  -0.000  -0.003
  5       -0.002  -0.001  -0.000  -0.003
  6       -0.002  -0.001  -0.000  -0.003
  7       -0.002  -0.001  -0.000  -0.003
  8       -0.000  -0.008  -0.000  -0.008
  9       -0.002  -0.003   0.000  -0.005
 10       -0.005  -0.004   0.000  -0.010
 11       -0.005  -0.005   0.000  -0.010
 12       -0.005  -0.004   0.000  -0.010
 13       -0.005  -0.004   0.000  -0.009
 14       -0.005  -0.004   0.000  -0.009
 15       -0.005  -0.004   0.000  -0.009
 16       -0.002  -0.003   0.000  -0.005
------------------------------------------------
tot       -0.077  -0.048  -0.001  -0.126
 
    CHARGE:  cpu time    0.0240: real time    0.0216
    FORLOC:  cpu time    0.0000: real time    0.0017
    FORNL :  cpu time    0.1440: real time    0.1461
    STRESS:  cpu time    0.4400: real time    0.4407
    FORCOR:  cpu time    0.0200: real time    0.0221
    FORHAR:  cpu time    0.0040: real time    0.0033
    MIXING:  cpu time    0.0000: real time    0.0009
    OFIELD:  cpu time    0.0000: real time    0.0000

  FORCE on cell =-STRESS in cart. coord.  units (eV):
  Direction    XX          YY          ZZ          XY          YZ          ZX
  --------------------------------------------------------------------------------------
  Alpha Z   144.97064   144.97064   144.97064
  Ewald    -963.98420  -964.23018  -964.28646    -0.06830    -0.34918     0.00206
  Hartree   379.05964   378.98657   379.01336    -0.04076    -0.21544    -0.00004
  E(xc)    -293.33380  -293.33759  -293.33567    -0.00143    -0.00352    -0.00120
  Local    -324.92874  -324.63057  -324.60330     0.11355     0.54165     0.00713
  n-local  -137.95162  -137.88906  -137.90757     0.01949     0.01723    -0.00058
  augment    52.32724    52.32883    52.32830     0.00124     0.00291     0.00087
  Kinetic  1143.33232  1143.38815  1143.38224     0.01386     0.02442     0.00875
  Fock        0.00000     0.00000     0.00000     0.00000     0.00000     0.00000
  -------------------------------------------------------------------------------------
  Total      -0.50852    -0.41321    -0.43845     0.03764     0.01806     0.01700
  in kB      -5.31830    -4.32158    -4.58555     0.39370     0.18892     0.17776
  external pressure =       -4.74 kB  Pullay stress =        0.00 kB


 VOLUME and BASIS-vectors are now :
 -----------------------------------------------------------------------------
  energy-cutoff  :      400.00
  volume of cell :      153.19
      direct lattice vectors                 reciprocal lattice vectors
     0.000000000  4.246893000  4.246893000    -0.117733129  0.117733129  0.117733129
     4.246893000  0.000000000  4.246893000     0.117733129 -0.117733129  0.117733129
     4.246893000  4.246893000  0.000000000     0.117733129  0.117733129 -0.117733129

  length of vectors
     6.006013679  6.006013679  6.006013679     0.203919761  0.203919761  0.203919761


 FORCES acting on ions
    electron-ion (+dipol)            ewald-force                    non-local-force                 convergence-correction
 -----------------------------------------------------------------------------------------------
   0.485E+00 -.267E+01 -.105E+01   -.477E+00 0.251E+01 0.100E+01   0.139E-01 0.182E+00 0.398E-01   -.124E-05 -.472E-05 -.620E-05
   -.547E+00 0.240E+00 -.186E+00   0.451E+00 -.236E+00 0.165E+00   0.107E+00 -.400E-02 0.116E-01   0.231E-04 -.126E-04 0.528E-05
   -.139E+00 0.122E+00 0.451E+00   0.119E+00 -.973E-01 -.412E+00   0.192E-01 -.339E-01 -.522E-01   0.144E-04 0.769E-05 -.919E-05
   -.186E+00 0.478E+00 0.447E+00   0.164E+00 -.444E+00 -.368E+00   0.523E-01 -.584E-01 -.660E-01   -.214E-05 -.219E-04 -.255E-04
   -.588E-01 0.660E-01 -.332E+00   0.341E-01 -.904E-01 0.239E+00   0.202E-01 0.380E-01 0.123E+00   -.109E-05 0.316E-05 0.155E-04
   0.158E+00 0.755E-01 0.410E+00   -.126E+00 -.361E-01 -.381E+00   -.613E-01 -.238E-01 -.545E-01   -.102E-04 0.673E-05 -.227E-05
   -.111E+00 0.282E+00 -.236E+00   0.144E+00 -.284E+00 0.229E+00   0.342E-02 -.102E-01 0.220E-01   -.177E-04 -.616E-05 0.426E-05
   0.453E+00 -.101E+01 -.520E+00   -.396E+00 0.854E+00 0.454E+00   -.615E-01 0.140E+00 0.767E-01   -.634E-05 0.315E-04 0.182E-04
   0.400E+00 0.125E+00 0.571E+00   -.393E+00 -.140E+00 -.565E+00   -.254E-01 0.393E-01 -.267E-01   -.120E-03 0.949E-05 -.508E-04
   0.893E-01 -.136E+01 -.307E+02   -.470E-01 0.141E+01 0.308E+02   -.452E-01 -.213E-01 -.171E+00   0.105E-04 0.230E-03 0.153E-02
   0.295E+00 -.296E+02 -.853E+00   -.376E+00 0.294E+02 0.785E+00   0.502E-01 0.101E+00 0.753E-01   -.297E-04 0.136E-02 0.154E-03
   0.313E+02 -.602E+00 -.732E+00   -.317E+02 0.655E+00 0.819E+00   0.376E+00 -.587E-01 -.517E-01   -.160E-02 0.455E-04 0.718E-04
   -.324E+02 -.915E+00 -.736E+00   0.329E+02 0.970E+00 0.809E+00   -.468E+00 -.557E-01 -.492E-01   0.173E-02 0.100E-03 0.785E-04
   0.509E+00 0.338E+02 0.492E-01   -.560E+00 -.347E+02 -.716E-01   0.303E-01 0.854E+00 0.129E-01   -.579E-04 -.193E-02 -.952E-04
   0.107E+00 -.252E+00 0.326E+02   -.539E-01 0.285E+00 -.332E+02   -.479E-01 -.576E-01 0.568E+00   -.103E-04 -.651E-04 -.177E-02
   -.343E+00 0.110E+00 0.317E+00   0.274E+00 -.125E+00 -.320E+00   0.610E-01 0.403E-01 -.832E-02   0.741E-04 0.177E-04 -.872E-05
 -----------------------------------------------------------------------------------------------
   0.109E-02 -.109E+01 -.432E+00   -.944E-15 -.183E-14 -.296E-13   0.246E-01 0.107E+01 0.449E+00   -.544E-05 -.229E-03 -.843E-04
 
 
 POSITION                                       TOTAL-FORCE (eV/Angst)
 -----------------------------------------------------------------------------------
      4.27396      8.46665      4.25018         0.020421      0.033090     -0.004436
      2.14664      6.35571      4.25532         0.008913      0.000944     -0.010389
      2.15106      4.23187      6.37997        -0.002172     -0.008346     -0.014239
      4.27377      6.35882      6.38318         0.029385     -0.023150      0.011328
      0.02927      2.10579      2.12243        -0.006031      0.014778      0.028651
      2.15650      4.23133      2.13398        -0.031518      0.016793     -0.026509
      2.15335      2.10991      4.25466         0.035003     -0.011481      0.014373
      4.27699      4.23754      4.25574        -0.006572     -0.017707      0.009413
      2.15326      2.10580      2.13299        -0.019278      0.026034     -0.021677
      4.27555      4.22843      2.09111        -0.004423      0.032931     -0.019059
      4.27772      2.07800      4.25408        -0.032244     -0.033567      0.006705
      6.44411      4.23424      4.25289         0.013651     -0.005078      0.034176
      2.09848      4.23212      4.25316         0.022286      0.000100      0.022033
      4.27724      6.41622      4.25609        -0.021952     -0.029295     -0.010720
      4.27564      4.23618      6.42958         0.003908     -0.022907     -0.007307
      6.40203      6.35249      6.37935        -0.009376      0.026862     -0.012342
 -----------------------------------------------------------------------------------
    total drift:                                0.025698     -0.018891      0.016928


--------------------------------------------------------------------------------------------------------



  FREE ENERGIE OF THE ION-ELECTRON SYSTEM (eV)
  ---------------------------------------------------
  free  energy   TOTEN  =       -94.37977392 eV

  energy  without entropy=      -94.37217778  energy(sigma->0) =      -94.37597585
 


--------------------------------------------------------------------------------------------------------


    POTLOK:  cpu time    0.7000: real time    0.6987


--------------------------------------------------------------------------------------------------------




--------------------------------------------------------------------------------------------------------


  
 reached required accuracy - stopping structural energy minimisation
     LOOP+:  cpu time   18.9840: real time   19.0607
    4ORBIT:  cpu time    0.0000: real time    0.0000
 


 total charge     
 
# of ion     s       p       d       tot
----------------------------------------
  1        0.386   0.288   0.000   0.674
  2        0.152   0.172   0.074   0.397
  3        0.152   0.172   0.074   0.398
  4        0.153   0.172   0.074   0.398
  5        0.152   0.171   0.073   0.397
  6        0.152   0.172   0.074   0.398
  7        0.152   0.172   0.074   0.398
  8        0.144   0.169   0.061   0.373
  9        1.576   3.553   0.000   5.129
 10        1.589   3.533   0.000   5.122
 11        1.589   3.532   0.000   5.121
 12        1.589   3.533   0.000   5.122
 13        1.589   3.533   0.000   5.122
 14        1.589   3.534   0.000   5.122
 15        1.588   3.533   0.000   5.121
 16        1.576   3.552   0.000   5.128
------------------------------------------------
tot       14.129  29.789   0.502  44.420
 


 magnetization (x)
 
# of ion     s       p       d       tot
----------------------------------------
  1       -0.033  -0.002   0.000  -0.034
  2       -0.002  -0.001  -0.000  -0.003
  3       -0.002  -0.001  -0.000  -0.003
  4       -0.002  -0.001  -0.000  -0.003
  5       -0.002  -0.001  -0.000  -0.003
  6       -0.002  -0.001  -0.000  -0.003
  7       -0.002  -0.001  -0.000  -0.003
  8       -0.000  -0.008  -0.000  -0.008
  9       -0.002  -0.003   0.000  -0.005
 10       -0.005  -0.004   0.000  -0.010
 11       -0.005  -0.005   0.000  -0.010
 12       -0.005  -0.004   0.000  -0.010
 13       -0.005  -0.004   0.000  -0.009
 14       -0.005  -0.004   0.000  -0.009
 15       -0.005  -0.004   0.000  -0.009
 16       -0.002  -0.003   0.000  -0.005
------------------------------------------------
tot       -0.077  -0.048  -0.001  -0.126
 

 total amount of memory used by VASP on root node    36422. kBytes
========================================================================

   base      :      30000. kBytes
   nonlr-proj:       1236. kBytes
   fftplans  :        708. kBytes
   grid      :       1885. kBytes
   one-center:         64. kBytes
   wavefun   :       2529. kBytes
 
  
  
 General timing and accounting informations for this job:
 ========================================================
  
                  Total CPU time used (sec):       20.236
                            User time (sec):       20.048
                          System time (sec):        0.188
                         Elapsed time (sec):       20.508
  
                   Maximum memory used (kb):       64648.
                   Average memory used (kb):           0.
  
                          Minor page faults:        19963
                          Major page faults:            6
                 Voluntary context switches:         1588
