<?xml version="1.0" encoding="ISO-8859-1"?>
<modeling>
 <generator>
  <i name="program" type="string">vasp </i>
  <i name="version" type="string">5.4.1  </i>
  <i name="subversion" type="string">05Feb16 (build Mar 31 2016 13:39:20) complex                          parallel </i>
  <i name="platform" type="string">IFC91_ompi </i>
  <i name="date" type="string">2018 04 12 </i>
  <i name="time" type="string">14:14:58 </i>
 </generator>
 <incar>
  <i type="string" name="PREC">n</i>
  <i type="string" name="ALGO"> N</i>
  <i type="int" name="ISPIN">     2</i>
  <i type="int" name="NELM">   100</i>
  <i type="int" name="NELMIN">     4</i>
  <i type="int" name="IBRION">     2</i>
  <i name="EDIFF">      0.00000100</i>
  <i name="EDIFFG">     -0.05000000</i>
  <i type="int" name="NSW">    20</i>
  <i type="int" name="ISIF">     2</i>
  <i name="ENCUT">    400.00000000</i>
  <i name="NELECT">     65.00000000</i>
  <i type="string" name="LREAL"> A</i>
  <i type="int" name="ISMEAR">     0</i>
  <i name="SIGMA">      0.05000000</i>
  <i type="logical" name="LWAVE"> F  </i>
  <i type="logical" name="LCHARG"> F  </i>
  <i type="logical" name="LORBIT"> F  </i>
  <i type="logical" name="LASPH"> T  </i>
  <v type="int" name="KPOINT_BSE">    -1     0     0     0</v>
  <i type="int" name="NELM">   100</i>
  <i type="logical" name="LASPH"> T  </i>
 </incar>
 <kpoints>
  <generation param="Monkhorst-Pack">
   <v type="int" name="divisions">       2        2        2 </v>
   <v name="usershift">      0.00000000       0.00000000       0.00000000 </v>
   <v name="genvec1">      0.50000000       0.00000000       0.00000000 </v>
   <v name="genvec2">      0.00000000       0.50000000       0.00000000 </v>
   <v name="genvec3">      0.00000000       0.00000000       0.50000000 </v>
   <v name="shift">      0.50000000       0.50000000       0.50000000 </v>
  </generation>
  <varray name="kpointlist" >
   <v>       0.25000000       0.25000000       0.25000000 </v>
   <v>       0.25000000       0.00000000       0.00000000 </v>
   <v>       0.00000000       0.00000000      -0.25000000 </v>
   <v>       0.00000000       0.25000000       0.00000000 </v>
   <v>      -0.25000000       0.25000000       0.25000000 </v>
   <v>       0.25000000      -0.25000000       0.25000000 </v>
   <v>       0.25000000       0.25000000      -0.25000000 </v>
   <v>       0.25000000       0.00000000       0.50000000 </v>
   <v>      -0.25000000       0.50000000       0.50000000 </v>
   <v>       0.25000000       0.50000000       0.00000000 </v>
   <v>       0.00000000       0.50000000      -0.25000000 </v>
   <v>       0.50000000       0.00000000      -0.25000000 </v>
   <v>       0.50000000       0.50000000       0.25000000 </v>
   <v>       0.50000000      -0.25000000       0.50000000 </v>
   <v>       0.00000000       0.25000000       0.50000000 </v>
   <v>       0.50000000       0.25000000       0.00000000 </v>
  </varray>
  <varray name="weights" >
   <v>       0.06250000 </v>
   <v>       0.06250000 </v>
   <v>       0.06250000 </v>
   <v>       0.06250000 </v>
   <v>       0.06250000 </v>
   <v>       0.06250000 </v>
   <v>       0.06250000 </v>
   <v>       0.06250000 </v>
   <v>       0.06250000 </v>
   <v>       0.06250000 </v>
   <v>       0.06250000 </v>
   <v>       0.06250000 </v>
   <v>       0.06250000 </v>
   <v>       0.06250000 </v>
   <v>       0.06250000 </v>
   <v>       0.06250000 </v>
  </varray>
 </kpoints>
 <parameters>
  <separator name="general" >
   <i type="string" name="SYSTEM">unknown system</i>
   <i type="logical" name="LCOMPAT"> F  </i>
  </separator>
  <separator name="electronic" >
   <i type="string" name="PREC">n</i>
   <i name="ENMAX">    400.00000000</i>
   <i name="ENAUG">    605.39200000</i>
   <i name="EDIFF">      0.00000100</i>
   <i type="int" name="IALGO">    38</i>
   <i type="int" name="IWAVPR">    11</i>
   <i type="int" name="NBANDS">    52</i>
   <i name="NELECT">     65.00000000</i>
   <i type="int" name="TURBO">     0</i>
   <i type="int" name="IRESTART">     0</i>
   <i type="int" name="NREBOOT">     0</i>
   <i type="int" name="NMIN">     0</i>
   <i name="EREF">      0.00000000</i>
   <separator name="electronic smearing" >
    <i type="int" name="ISMEAR">     0</i>
    <i name="SIGMA">      0.05000000</i>
    <i name="KSPACING">      0.50000000</i>
    <i type="logical" name="KGAMMA"> T  </i>
   </separator>
   <separator name="electronic projectors" >
    <i type="logical" name="LREAL"> T  </i>
    <v name="ROPT">     -0.00050000     -0.00050000     -0.00050000</v>
    <i type="int" name="LMAXPAW">  -100</i>
    <i type="int" name="LMAXMIX">     2</i>
    <i type="logical" name="NLSPLINE"> F  </i>
   </separator>
   <separator name="electronic startup" >
    <i type="int" name="ISTART">     0</i>
    <i type="int" name="ICHARG">     2</i>
    <i type="int" name="INIWAV">     1</i>
   </separator>
   <separator name="electronic spin" >
    <i type="int" name="ISPIN">     2</i>
    <i type="logical" name="LNONCOLLINEAR"> F  </i>
    <v name="MAGMOM">      1.00000000      1.00000000      1.00000000      1.00000000      1.00000000      1.00000000      1.00000000      1.00000000      1.00000000      1.00000000      1.00000000      1.00000000      1.00000000      1.00000000      1.00000000      1.00000000</v>
    <i name="NUPDOWN">     -1.00000000</i>
    <i type="logical" name="LSORBIT"> F  </i>
    <v name="SAXIS">      0.00000000      0.00000000      1.00000000</v>
    <i type="logical" name="LSPIRAL"> F  </i>
    <v name="QSPIRAL">      0.00000000      0.00000000      0.00000000</v>
    <i type="logical" name="LZEROZ"> F  </i>
   </separator>
   <separator name="electronic exchange-correlation" >
    <i type="logical" name="LASPH"> T  </i>
    <i type="logical" name="LMETAGGA"> F  </i>
   </separator>
   <separator name="electronic convergence" >
    <i type="int" name="NELM">   100</i>
    <i type="int" name="NELMDL">     0</i>
    <i type="int" name="NELMIN">     4</i>
    <i name="ENINI">    400.00000000</i>
    <separator name="electronic convergence detail" >
     <i type="logical" name="LDIAG"> T  </i>
     <i type="logical" name="LSUBROT"> F  </i>
     <i name="WEIMIN">      0.00100000</i>
     <i name="EBREAK">      0.00000000</i>
     <i name="DEPER">      0.30000000</i>
     <i type="int" name="NRMM">     4</i>
     <i name="TIME">      0.40000000</i>
    </separator>
   </separator>
   <separator name="electronic mixer" >
    <i name="AMIX">      0.40000000</i>
    <i name="BMIX">      1.00000000</i>
    <i name="AMIN">      0.10000000</i>
    <i name="AMIX_MAG">      1.60000000</i>
    <i name="BMIX_MAG">      1.00000000</i>
    <separator name="electronic mixer details" >
     <i type="int" name="IMIX">     4</i>
     <i type="logical" name="MIXFIRST"> F  </i>
     <i type="int" name="MAXMIX">   -45</i>
     <i name="WC">    100.00000000</i>
     <i type="int" name="INIMIX">     1</i>
     <i type="int" name="MIXPRE">     1</i>
     <i type="int" name="MREMOVE">     5</i>
    </separator>
   </separator>
   <separator name="electronic dipolcorrection" >
    <i type="logical" name="LDIPOL"> F  </i>
    <i type="logical" name="LMONO"> F  </i>
    <i type="int" name="IDIPOL">     0</i>
    <i name="EPSILON">      1.00000000</i>
    <v name="DIPOL">   -100.00000000   -100.00000000   -100.00000000</v>
    <i name="EFIELD">      0.00000000</i>
   </separator>
  </separator>
  <separator name="grids" >
   <i type="int" name="NGX">    30</i>
   <i type="int" name="NGY">    30</i>
   <i type="int" name="NGZ">    30</i>
   <i type="int" name="NGXF">    60</i>
   <i type="int" name="NGYF">    60</i>
   <i type="int" name="NGZF">    60</i>
   <i type="logical" name="ADDGRID"> F  </i>
  </separator>
  <separator name="ionic" >
   <i type="int" name="NSW">    20</i>
   <i type="int" name="IBRION">     2</i>
   <i type="int" name="ISIF">     2</i>
   <i name="PSTRESS">      0.00000000</i>
   <i name="EDIFFG">     -0.05000000</i>
   <i type="int" name="NFREE">     1</i>
   <i name="POTIM">      0.50000000</i>
   <i name="SMASS">     -3.00000000</i>
   <i name="SCALEE">      1.00000000</i>
  </separator>
  <separator name="ionic md" >
   <i name="TEBEG">      0.00010000</i>
   <i name="TEEND">      0.00010000</i>
   <i type="int" name="NBLOCK">     1</i>
   <i type="int" name="KBLOCK">    20</i>
   <i type="int" name="NPACO">   256</i>
   <i name="APACO">     16.00000000</i>
  </separator>
  <separator name="symmetry" >
   <i type="int" name="ISYM">     2</i>
   <i name="SYMPREC">      0.00001000</i>
  </separator>
  <separator name="dos" >
   <i type="logical" name="LORBIT"> F  </i>
   <v name="RWIGS">     -1.00000000     -1.00000000     -1.00000000</v>
   <i type="int" name="NEDOS">   301</i>
   <i name="EMIN">     10.00000000</i>
   <i name="EMAX">    -10.00000000</i>
   <i name="EFERMI">      0.00000000</i>
  </separator>
  <separator name="writing" >
   <i type="int" name="NWRITE">     2</i>
   <i type="logical" name="LWAVE"> F  </i>
   <i type="logical" name="LCHARG"> F  </i>
   <i type="logical" name="LPARD"> F  </i>
   <i type="logical" name="LVTOT"> F  </i>
   <i type="logical" name="LVHAR"> F  </i>
   <i type="logical" name="LELF"> F  </i>
   <i type="logical" name="LOPTICS"> F  </i>
   <v name="STM">      0.00000000      0.00000000      0.00000000      0.00000000      0.00000000      0.00000000      0.00000000</v>
  </separator>
  <separator name="performance" >
   <i type="int" name="NPAR">     4</i>
   <i type="int" name="NSIM">     4</i>
   <i type="int" name="NBLK">    -1</i>
   <i type="logical" name="LPLANE"> T  </i>
   <i type="logical" name="LSCALAPACK"> T  </i>
   <i type="logical" name="LSCAAWARE"> F  </i>
   <i type="logical" name="LSCALU"> F  </i>
   <i type="logical" name="LASYNC"> F  </i>
   <i type="logical" name="LORBITALREAL"> F  </i>
  </separator>
  <separator name="miscellaneous" >
   <i type="int" name="IDIOT">     3</i>
   <i type="logical" name="LMUSIC"> F  </i>
   <v name="POMASS">     26.98100000     24.30500000     16.00000000</v>
   <v name="DARWINR">      0.00000000      0.00000000      0.00000000</v>
   <v name="DARWINV">      1.00000000      1.00000000      1.00000000</v>
   <i type="logical" name="LCORR"> T  </i>
  </separator>
  <i type="logical" name="GGA_COMPAT"> T  </i>
  <i type="logical" name="LBERRY"> F  </i>
  <i type="int" name="ICORELEVEL">     0</i>
  <i type="logical" name="LDAU"> F  </i>
  <i type="int" name="I_CONSTRAINED_M">     0</i>
  <separator name="electronic exchange-correlation" >
   <i type="string" name="GGA">--</i>
   <i type="int" name="VOSKOWN">     0</i>
   <i type="logical" name="LHFCALC"> F  </i>
   <i type="string" name="PRECFOCK"></i>
   <i type="logical" name="LSYMGRAD"> F  </i>
   <i type="logical" name="LHFONE"> F  </i>
   <i type="logical" name="LRHFCALC"> F  </i>
   <i type="logical" name="LTHOMAS"> F  </i>
   <i type="logical" name="LMODELHF"> F  </i>
   <i name="ENCUT4O">     -1.00000000</i>
   <i type="int" name="EXXOEP">     0</i>
   <i type="int" name="FOURORBIT">     0</i>
   <i name="AEXX">      0.00000000</i>
   <i name="HFALPHA">      0.00000000</i>
   <i name="MCALPHA">      0.00000000</i>
   <i name="ALDAX">      1.00000000</i>
   <i name="AGGAX">      1.00000000</i>
   <i name="ALDAC">      1.00000000</i>
   <i name="AGGAC">      1.00000000</i>
   <i type="int" name="NKREDX">     1</i>
   <i type="int" name="NKREDY">     1</i>
   <i type="int" name="NKREDZ">     1</i>
   <i type="logical" name="SHIFTRED"> F  </i>
   <i type="logical" name="ODDONLY"> F  </i>
   <i type="logical" name="EVENONLY"> F  </i>
   <i type="int" name="LMAXFOCK">     0</i>
   <i type="int" name="NMAXFOCKAE">     0</i>
   <i type="logical" name="LFOCKAEDFT"> F  </i>
   <i name="HFSCREEN">      0.00000000</i>
   <i name="HFSCREENC">      0.00000000</i>
   <i type="int" name="NBANDSGWLOW">     0</i>
  </separator>
  <separator name="vdW DFT" >
   <i type="logical" name="LUSE_VDW"> F  </i>
   <i name="Zab_VDW">     -0.84910000</i>
   <i name="PARAM1">      0.12340000</i>
   <i name="PARAM2">      1.00000000</i>
   <i name="PARAM3">      0.00000000</i>
  </separator>
  <separator name="model GW" >
   <i type="int" name="MODEL_GW">     0</i>
   <i name="MODEL_EPS0">      5.74480406</i>
   <i name="MODEL_ALPHA">      1.00000000</i>
  </separator>
  <separator name="linear response parameters" >
   <i type="logical" name="LEPSILON"> F  </i>
   <i type="logical" name="LRPA"> F  </i>
   <i type="logical" name="LNABLA"> F  </i>
   <i type="logical" name="LVEL"> F  </i>
   <i type="int" name="KINTER">     0</i>
   <i name="CSHIFT">      0.10000000</i>
   <i name="OMEGAMAX">     -1.00000000</i>
   <i name="DEG_THRESHOLD">      0.00200000</i>
  </separator>
  <separator name="orbital magnetization" >
   <i type="logical" name="NUCIND"> F  </i>
   <v name="MAGPOS">      0.00000000      0.00000000      0.00000000</v>
   <i type="logical" name="LNICSALL"> T  </i>
   <i type="logical" name="ORBITALMAG"> F  </i>
   <i type="logical" name="LMAGBLOCH"> F  </i>
   <i type="logical" name="LCHIMAG"> F  </i>
   <i type="logical" name="LGAUGE"> T  </i>
   <i type="int" name="MAGATOM">     0</i>
   <v name="MAGDIPOL">      0.00000000      0.00000000      0.00000000</v>
   <v name="AVECCONST">      0.00000000      0.00000000      0.00000000</v>
  </separator>
  <separator name="response functions" >
   <i type="logical" name="LADDER"> F  </i>
   <i type="logical" name="LFXC"> F  </i>
   <i type="logical" name="LHARTREE"> T  </i>
   <i type="int" name="IBSE">     0</i>
   <v type="int" name="KPOINT">    -1     0     0     0</v>
   <i type="logical" name="LTCTE"> F  </i>
   <i type="logical" name="LTETE"> F  </i>
   <i type="logical" name="LTRIPLET"> F  </i>
   <i type="logical" name="LFXCEPS"> F  </i>
   <i type="logical" name="LFXHEG"> F  </i>
   <i type="int" name="NATURALO">     0</i>
   <i type="logical" name="L2ORDER"> F  </i>
   <i type="logical" name="LUSEW"> F  </i>
   <i name="ENCUTGW">     -2.00000000</i>
   <i name="ENCUTGWSOFT">     -2.00000000</i>
   <i name="ENCUTLF">     -1.00000000</i>
   <i type="int" name="LMAXMP2">    -1</i>
   <i name="SCISSOR">      0.00000000</i>
   <i type="int" name="NOMEGA">     0</i>
   <i type="int" name="NOMEGAR">     0</i>
   <i type="int" name="NBANDSGW">    -1</i>
   <i type="int" name="NBANDSO">    -1</i>
   <i type="int" name="NBANDSV">    -1</i>
   <i type="int" name="NELM">   100</i>
   <i type="int" name="NELMHF">     1</i>
   <i type="int" name="DIM">     3</i>
   <i type="int" name="ANTIRES">     0</i>
   <i name="OMEGAMAX">    -30.00000000</i>
   <i name="OMEGAMIN">    -30.00000000</i>
   <i name="OMEGATL">   -200.00000000</i>
   <i type="int" name="OMEGAGRID">     0</i>
   <i name="CSHIFT">     -0.10000000</i>
   <i type="logical" name="SELFENERGY"> F  </i>
   <i type="logical" name="LSPECTRAL"> F  </i>
   <i type="logical" name="LSPECTRALGW"> F  </i>
   <i type="logical" name="LSINGLES"> F  </i>
   <i type="logical" name="LFERMIGW"> F  </i>
   <i type="logical" name="ODDONLYGW"> F  </i>
   <i type="logical" name="EVENONLYGW"> F  </i>
   <i type="int" name="NKREDLFX">     1</i>
   <i type="int" name="NKREDLFY">     1</i>
   <i type="int" name="NKREDLFZ">     1</i>
   <i type="int" name="MAXMEM">  1800</i>
   <i type="int" name="TELESCOPE">     0</i>
   <i type="int" name="TAUPAR">     1</i>
   <i type="int" name="OMEGAPAR">    -1</i>
   <i name="LAMBDA">      1.00000000</i>
  </separator>
  <separator name="External order field" >
   <i name="OFIELD_KAPPA">      0.00000000</i>
   <v name="OFIELD_K">      0.00000000      0.00000000      0.00000000</v>
   <i name="OFIELD_Q6_NEAR">      0.00000000</i>
   <i name="OFIELD_Q6_FAR">      0.00000000</i>
   <i name="OFIELD_A">      0.00000000</i>
  </separator>
 </parameters>
 <atominfo>
  <atoms>      16 </atoms>
  <types>       3 </types>
  <array name="atoms" >
   <dimension dim="1">ion</dimension>
   <field type="string">element</field>
   <field type="int">atomtype</field>
   <set>
    <rc><c>Al</c><c>   1</c></rc>
    <rc><c>Mg</c><c>   2</c></rc>
    <rc><c>Mg</c><c>   2</c></rc>
    <rc><c>Mg</c><c>   2</c></rc>
    <rc><c>Mg</c><c>   2</c></rc>
    <rc><c>Mg</c><c>   2</c></rc>
    <rc><c>Mg</c><c>   2</c></rc>
    <rc><c>Mg</c><c>   2</c></rc>
    <rc><c>O </c><c>   3</c></rc>
    <rc><c>O </c><c>   3</c></rc>
    <rc><c>O </c><c>   3</c></rc>
    <rc><c>O </c><c>   3</c></rc>
    <rc><c>O </c><c>   3</c></rc>
    <rc><c>O </c><c>   3</c></rc>
    <rc><c>O </c><c>   3</c></rc>
    <rc><c>O </c><c>   3</c></rc>
   </set>
  </array>
  <array name="atomtypes" >
   <dimension dim="1">type</dimension>
   <field type="int">atomspertype</field>
   <field type="string">element</field>
   <field>mass</field>
   <field>valence</field>
   <field type="string">pseudopotential</field>
   <set>
    <rc><c>   1</c><c>Al</c><c>     26.98100000</c><c>      3.00000000</c><c>  PAW_PBE Al 04Jan2001                  </c></rc>
    <rc><c>   7</c><c>Mg</c><c>     24.30500000</c><c>      2.00000000</c><c>  PAW_PBE Mg 13Apr2007                  </c></rc>
    <rc><c>   8</c><c>O </c><c>     16.00000000</c><c>      6.00000000</c><c>  PAW_PBE O 08Apr2002                   </c></rc>
   </set>
  </array>
 </atominfo>
 <structure name="initialpos" >
  <crystal>
   <varray name="basis" >
    <v>       0.00000000       4.24689300       4.24689300 </v>
    <v>       4.24689300       0.00000000       4.24689300 </v>
    <v>       4.24689300       4.24689300       0.00000000 </v>
   </varray>
   <i name="volume">    153.19477498 </i>
   <varray name="rec_basis" >
    <v>      -0.11773313       0.11773313       0.11773313 </v>
    <v>       0.11773313      -0.11773313       0.11773313 </v>
    <v>       0.11773313       0.11773313      -0.11773313 </v>
   </varray>
  </crystal>
  <varray name="positions" >
   <v>       0.99630430       0.00574028       0.00109000 </v>
   <v>       0.99571170       0.00630341       0.50074532 </v>
   <v>       0.99590900       0.50595442       0.00093110 </v>
   <v>       0.99608541       0.50610137       0.50056745 </v>
   <v>       0.49615417       0.00606568       0.00054377 </v>
   <v>       0.49624707       0.00622806       0.50063363 </v>
   <v>       0.49621671       0.50579818       0.00079528 </v>
   <v>       0.49587705       0.50680268       0.50079362 </v>
   <v>       0.24584259       0.25610213       0.25091443 </v>
   <v>       0.23113424       0.24126278       0.76537949 </v>
   <v>       0.23163440       0.77003504       0.23648686 </v>
   <v>       0.23171566       0.77038988       0.76511402 </v>
   <v>       0.76103926       0.24104286       0.23577588 </v>
   <v>       0.76044404       0.24146946       0.76500953 </v>
   <v>       0.76027354       0.76989260       0.23681663 </v>
   <v>       0.74611488       0.75575918       0.75081801 </v>
  </varray>
 </structure>
 <calculation>
  <scstep>
   <time name="dav">    0.73    0.74</time>
   <time name="total">    1.10    1.11</time>
   <energy>
    <i name="alphaZ">    144.97063842 </i>
    <i name="ewald">  -2871.44934684 </i>
    <i name="hartreedc">  -1000.88060052 </i>
    <i name="XCdc">   -138.26483932 </i>
    <i name="pawpsdc">   3293.59363178 </i>
    <i name="pawaedc">  -2912.95377936 </i>
    <i name="eentropy">     -0.00217235 </i>
    <i name="bandstr">     77.34886784 </i>
    <i name="atom">   3672.90113687 </i>
    <i name="e_fr_energy">    265.26353652 </i>
    <i name="e_wo_entrp">    265.26570887 </i>
    <i name="e_0_energy">    265.26462269 </i>
   </energy>
  </scstep>
  <scstep>
   <time name="dav">    0.81    0.81</time>
   <time name="total">    0.81    0.81</time>
   <energy>
    <i name="e_fr_energy">    -82.83195157 </i>
    <i name="e_wo_entrp">    -82.83033942 </i>
    <i name="e_0_energy">    -82.83114549 </i>
   </energy>
  </scstep>
  <scstep>
   <time name="dav">    0.78    0.78</time>
   <time name="total">    0.78    0.78</time>
   <energy>
    <i name="e_fr_energy">   -100.79521275 </i>
    <i name="e_wo_entrp">   -100.79519233 </i>
    <i name="e_0_energy">   -100.79520254 </i>
   </energy>
  </scstep>
  <scstep>
   <time name="dav">    0.76    0.76</time>
   <time name="total">    0.76    0.77</time>
   <energy>
    <i name="e_fr_energy">   -100.91669877 </i>
    <i name="e_wo_entrp">   -100.91668615 </i>
    <i name="e_0_energy">   -100.91669246 </i>
   </energy>
  </scstep>
  <scstep>
   <time name="dav">    0.74    0.74</time>
   <time name="total">    0.76    0.76</time>
   <energy>
    <i name="e_fr_energy">   -100.91765011 </i>
    <i name="e_wo_entrp">   -100.91763755 </i>
    <i name="e_0_energy">   -100.91764383 </i>
   </energy>
  </scstep>
  <scstep>
   <time name="dav">    0.71    0.71</time>
   <time name="total">    1.09    1.10</time>
   <energy>
    <i name="e_fr_energy">    -94.47245627 </i>
    <i name="e_wo_entrp">    -94.46281510 </i>
    <i name="e_0_energy">    -94.46763569 </i>
   </energy>
  </scstep>
  <scstep>
   <time name="dav">    0.73    0.74</time>
   <time name="total">    1.12    1.12</time>
   <energy>
    <i name="e_fr_energy">    -94.67622940 </i>
    <i name="e_wo_entrp">    -94.66658738 </i>
    <i name="e_0_energy">    -94.67140839 </i>
   </energy>
  </scstep>
  <scstep>
   <time name="dav">    0.75    0.75</time>
   <time name="total">    1.14    1.14</time>
   <energy>
    <i name="e_fr_energy">    -94.59519809 </i>
    <i name="e_wo_entrp">    -94.58543504 </i>
    <i name="e_0_energy">    -94.59031656 </i>
   </energy>
  </scstep>
  <scstep>
   <time name="dav">    0.77    0.77</time>
   <time name="total">    1.15    1.16</time>
   <energy>
    <i name="e_fr_energy">    -94.58953600 </i>
    <i name="e_wo_entrp">    -94.57988901 </i>
    <i name="e_0_energy">    -94.58471251 </i>
   </energy>
  </scstep>
  <scstep>
   <time name="dav">    0.75    0.75</time>
   <time name="total">    1.14    1.14</time>
   <energy>
    <i name="e_fr_energy">    -94.58856691 </i>
    <i name="e_wo_entrp">    -94.57892301 </i>
    <i name="e_0_energy">    -94.58374496 </i>
   </energy>
  </scstep>
  <scstep>
   <time name="dav">    0.77    0.77</time>
   <time name="total">    1.16    1.16</time>
   <energy>
    <i name="e_fr_energy">    -94.58895047 </i>
    <i name="e_wo_entrp">    -94.57930628 </i>
    <i name="e_0_energy">    -94.58412838 </i>
   </energy>
  </scstep>
  <scstep>
   <time name="dav">    0.71    0.71</time>
   <time name="total">    1.10    1.10</time>
   <energy>
    <i name="e_fr_energy">    -94.58910281 </i>
    <i name="e_wo_entrp">    -94.57945889 </i>
    <i name="e_0_energy">    -94.58428085 </i>
   </energy>
  </scstep>
  <scstep>
   <time name="dav">    0.79    0.79</time>
   <time name="total">    1.18    1.18</time>
   <energy>
    <i name="e_fr_energy">    -94.58911588 </i>
    <i name="e_wo_entrp">    -94.57947164 </i>
    <i name="e_0_energy">    -94.58429376 </i>
   </energy>
  </scstep>
  <scstep>
   <time name="dav">    0.72    0.73</time>
   <time name="total">    1.11    1.11</time>
   <energy>
    <i name="e_fr_energy">    -94.58911803 </i>
    <i name="e_wo_entrp">    -94.57947377 </i>
    <i name="e_0_energy">    -94.58429590 </i>
   </energy>
  </scstep>
  <scstep>
   <time name="dav">    0.52    0.52</time>
   <time name="total">    0.88    0.89</time>
   <energy>
    <i name="alphaZ">    144.97063842 </i>
    <i name="ewald">  -2871.44934684 </i>
    <i name="hartreedc">  -1157.63358772 </i>
    <i name="XCdc">   -129.29006038 </i>
    <i name="pawpsdc">   4571.56916504 </i>
    <i name="pawaedc">  -4192.49176711 </i>
    <i name="eentropy">     -0.00964418 </i>
    <i name="bandstr">   -133.15565225 </i>
    <i name="atom">   3672.90113687 </i>
    <i name="e_fr_energy">    -94.58911815 </i>
    <i name="e_wo_entrp">    -94.57947397 </i>
    <i name="e_0_energy">    -94.58429606 </i>
   </energy>
  </scstep>
  <structure>
   <crystal>
    <varray name="basis" >
     <v>       0.00000000       4.24689300       4.24689300 </v>
     <v>       4.24689300       0.00000000       4.24689300 </v>
     <v>       4.24689300       4.24689300       0.00000000 </v>
    </varray>
    <i name="volume">    153.19477498 </i>
    <varray name="rec_basis" >
     <v>      -0.11773313       0.11773313       0.11773313 </v>
     <v>       0.11773313      -0.11773313       0.11773313 </v>
     <v>       0.11773313       0.11773313      -0.11773313 </v>
    </varray>
   </crystal>
   <varray name="positions" >
    <v>       0.99630430       0.00574028       0.00109000 </v>
    <v>       0.99571170       0.00630341       0.50074532 </v>
    <v>       0.99590900       0.50595442       0.00093110 </v>
    <v>       0.99608541       0.50610137       0.50056745 </v>
    <v>       0.49615417       0.00606568       0.00054377 </v>
    <v>       0.49624707       0.00622806       0.50063363 </v>
    <v>       0.49621671       0.50579818       0.00079528 </v>
    <v>       0.49587705       0.50680268       0.50079362 </v>
    <v>       0.24584259       0.25610213       0.25091443 </v>
    <v>       0.23113424       0.24126278       0.76537949 </v>
    <v>       0.23163440       0.77003504       0.23648686 </v>
    <v>       0.23171566       0.77038988       0.76511402 </v>
    <v>       0.76103926       0.24104286       0.23577588 </v>
    <v>       0.76044404       0.24146946       0.76500953 </v>
    <v>       0.76027354       0.76989260       0.23681663 </v>
    <v>       0.74611488       0.75575918       0.75081801 </v>
   </varray>
  </structure>
  <varray name="forces" >
   <v>      -0.01526992      -0.03230221       0.00920525 </v>
   <v>      -0.00207435       0.01649370       0.00170685 </v>
   <v>      -0.01245458      -0.00285600       0.00613234 </v>
   <v>       0.00080852       0.01916714      -0.01325648 </v>
   <v>       0.00487085      -0.00329366      -0.00233674 </v>
   <v>       0.00755218      -0.00657425      -0.01328690 </v>
   <v>      -0.00245810      -0.00393912      -0.00015307 </v>
   <v>      -0.00448173       0.00288802      -0.01197862 </v>
   <v>      -0.01586658       0.00148509       0.00383930 </v>
   <v>      -0.00080945       0.01594097       0.02770922 </v>
   <v>       0.00553472       0.01236941       0.01162423 </v>
   <v>      -0.01557120       0.00404584      -0.00566831 </v>
   <v>       0.02810547       0.00195253      -0.01197077 </v>
   <v>       0.00890879      -0.00931960      -0.00559396 </v>
   <v>       0.00412423      -0.00972969      -0.00068225 </v>
   <v>       0.00908115      -0.00632817       0.00470991 </v>
  </varray>
  <varray name="stress" >
   <v>       1.78828924       0.43760298       0.23101561 </v>
   <v>       0.43760309       2.05254510       0.47934716 </v>
   <v>       0.23101563       0.47934715       2.15241332 </v>
  </varray>
  <energy>
   <i name="e_fr_energy">    -94.58911815 </i>
   <i name="e_wo_entrp">    -94.58429606 </i>
   <i name="e_0_energy">     -0.00964418 </i>
  </energy>
  <time name="totalsc">   16.53   16.59</time>
  <eigenvalues>
   <array>
    <dimension dim="1">band</dimension>
    <dimension dim="2">kpoint</dimension>
    <dimension dim="3">spin</dimension>
    <field>eigene</field>
    <field>occ</field>
    <set>
     <set comment="spin 1">
      <set comment="kpoint 1">
       <r>  -13.9129    1.0000 </r>
       <r>  -12.9909    1.0000 </r>
       <r>  -12.7971    1.0000 </r>
       <r>  -12.7959    1.0000 </r>
       <r>  -12.5238    1.0000 </r>
       <r>  -12.5232    1.0000 </r>
       <r>  -12.3273    1.0000 </r>
       <r>  -12.2226    1.0000 </r>
       <r>   -1.9051    1.0000 </r>
       <r>   -0.9273    1.0000 </r>
       <r>   -0.9265    1.0000 </r>
       <r>   -0.8384    1.0000 </r>
       <r>   -0.7218    1.0000 </r>
       <r>   -0.6742    1.0000 </r>
       <r>   -0.6737    1.0000 </r>
       <r>    1.4508    1.0000 </r>
       <r>    1.4660    1.0000 </r>
       <r>    1.4670    1.0000 </r>
       <r>    1.8933    1.0000 </r>
       <r>    1.8938    1.0000 </r>
       <r>    2.0260    1.0000 </r>
       <r>    2.0269    1.0000 </r>
       <r>    2.0420    1.0000 </r>
       <r>    2.2777    1.0000 </r>
       <r>    2.4463    1.0000 </r>
       <r>    2.4958    1.0000 </r>
       <r>    2.4961    1.0000 </r>
       <r>    2.5932    1.0000 </r>
       <r>    2.8290    1.0000 </r>
       <r>    2.8299    1.0000 </r>
       <r>    3.2187    1.0000 </r>
       <r>    3.2189    1.0000 </r>
       <r>    8.1116    1.0000 </r>
       <r>   10.3192    0.0000 </r>
       <r>   11.1423    0.0000 </r>
       <r>   11.1441    0.0000 </r>
       <r>   11.5477    0.0000 </r>
       <r>   11.8767    0.0000 </r>
       <r>   12.5429    0.0000 </r>
       <r>   12.5482    0.0000 </r>
       <r>   12.7645    0.0000 </r>
       <r>   13.5238    0.0000 </r>
       <r>   13.5266    0.0000 </r>
       <r>   14.5140    0.0000 </r>
       <r>   15.3487    0.0000 </r>
       <r>   15.5117    0.0000 </r>
       <r>   15.5174    0.0000 </r>
       <r>   15.6851    0.0000 </r>
       <r>   15.8465    0.0000 </r>
       <r>   15.8533    0.0000 </r>
       <r>   17.0012    0.0000 </r>
       <r>   17.3304    0.0000 </r>
      </set>
      <set comment="kpoint 2">
       <r>  -13.9129    1.0000 </r>
       <r>  -12.9909    1.0000 </r>
       <r>  -12.7970    1.0000 </r>
       <r>  -12.7959    1.0000 </r>
       <r>  -12.5238    1.0000 </r>
       <r>  -12.5231    1.0000 </r>
       <r>  -12.3273    1.0000 </r>
       <r>  -12.2226    1.0000 </r>
       <r>   -1.9051    1.0000 </r>
       <r>   -0.9275    1.0000 </r>
       <r>   -0.9264    1.0000 </r>
       <r>   -0.8387    1.0000 </r>
       <r>   -0.7217    1.0000 </r>
       <r>   -0.6744    1.0000 </r>
       <r>   -0.6734    1.0000 </r>
       <r>    1.4511    1.0000 </r>
       <r>    1.4662    1.0000 </r>
       <r>    1.4678    1.0000 </r>
       <r>    1.8932    1.0000 </r>
       <r>    1.8942    1.0000 </r>
       <r>    2.0257    1.0000 </r>
       <r>    2.0271    1.0000 </r>
       <r>    2.0419    1.0000 </r>
       <r>    2.2780    1.0000 </r>
       <r>    2.4467    1.0000 </r>
       <r>    2.4953    1.0000 </r>
       <r>    2.4957    1.0000 </r>
       <r>    2.5930    1.0000 </r>
       <r>    2.8289    1.0000 </r>
       <r>    2.8295    1.0000 </r>
       <r>    3.2181    1.0000 </r>
       <r>    3.2188    1.0000 </r>
       <r>    8.1119    1.0000 </r>
       <r>   10.3199    0.0000 </r>
       <r>   11.1422    0.0000 </r>
       <r>   11.1437    0.0000 </r>
       <r>   11.5478    0.0000 </r>
       <r>   11.8769    0.0000 </r>
       <r>   12.5434    0.0000 </r>
       <r>   12.5480    0.0000 </r>
       <r>   12.7647    0.0000 </r>
       <r>   13.5233    0.0000 </r>
       <r>   13.5264    0.0000 </r>
       <r>   14.5140    0.0000 </r>
       <r>   15.3481    0.0000 </r>
       <r>   15.5120    0.0000 </r>
       <r>   15.5174    0.0000 </r>
       <r>   15.6845    0.0000 </r>
       <r>   15.8464    0.0000 </r>
       <r>   15.8536    0.0000 </r>
       <r>   17.0011    0.0000 </r>
       <r>   17.3309    0.0000 </r>
      </set>
      <set comment="kpoint 3">
       <r>  -13.9128    1.0000 </r>
       <r>  -12.9917    1.0000 </r>
       <r>  -12.7974    1.0000 </r>
       <r>  -12.7949    1.0000 </r>
       <r>  -12.5237    1.0000 </r>
       <r>  -12.5232    1.0000 </r>
       <r>  -12.3273    1.0000 </r>
       <r>  -12.2225    1.0000 </r>
       <r>   -1.9049    1.0000 </r>
       <r>   -0.9272    1.0000 </r>
       <r>   -0.9263    1.0000 </r>
       <r>   -0.8388    1.0000 </r>
       <r>   -0.7218    1.0000 </r>
       <r>   -0.6747    1.0000 </r>
       <r>   -0.6734    1.0000 </r>
       <r>    1.4501    1.0000 </r>
       <r>    1.4649    1.0000 </r>
       <r>    1.4678    1.0000 </r>
       <r>    1.8934    1.0000 </r>
       <r>    1.8944    1.0000 </r>
       <r>    2.0256    1.0000 </r>
       <r>    2.0270    1.0000 </r>
       <r>    2.0426    1.0000 </r>
       <r>    2.2778    1.0000 </r>
       <r>    2.4473    1.0000 </r>
       <r>    2.4954    1.0000 </r>
       <r>    2.4962    1.0000 </r>
       <r>    2.5930    1.0000 </r>
       <r>    2.8288    1.0000 </r>
       <r>    2.8299    1.0000 </r>
       <r>    3.2182    1.0000 </r>
       <r>    3.2189    1.0000 </r>
       <r>    8.1117    1.0000 </r>
       <r>   10.3175    0.0000 </r>
       <r>   11.1413    0.0000 </r>
       <r>   11.1467    0.0000 </r>
       <r>   11.5462    0.0000 </r>
       <r>   11.8783    0.0000 </r>
       <r>   12.5447    0.0000 </r>
       <r>   12.5475    0.0000 </r>
       <r>   12.7628    0.0000 </r>
       <r>   13.5252    0.0000 </r>
       <r>   13.5279    0.0000 </r>
       <r>   14.5134    0.0000 </r>
       <r>   15.3555    0.0000 </r>
       <r>   15.5077    0.0000 </r>
       <r>   15.5113    0.0000 </r>
       <r>   15.6930    0.0000 </r>
       <r>   15.8459    0.0000 </r>
       <r>   15.8530    0.0000 </r>
       <r>   16.9994    0.0000 </r>
       <r>   17.3256    0.0000 </r>
      </set>
      <set comment="kpoint 4">
       <r>  -13.9128    1.0000 </r>
       <r>  -12.9917    1.0000 </r>
       <r>  -12.7974    1.0000 </r>
       <r>  -12.7949    1.0000 </r>
       <r>  -12.5237    1.0000 </r>
       <r>  -12.5233    1.0000 </r>
       <r>  -12.3273    1.0000 </r>
       <r>  -12.2224    1.0000 </r>
       <r>   -1.9049    1.0000 </r>
       <r>   -0.9269    1.0000 </r>
       <r>   -0.9266    1.0000 </r>
       <r>   -0.8386    1.0000 </r>
       <r>   -0.7220    1.0000 </r>
       <r>   -0.6744    1.0000 </r>
       <r>   -0.6734    1.0000 </r>
       <r>    1.4498    1.0000 </r>
       <r>    1.4648    1.0000 </r>
       <r>    1.4680    1.0000 </r>
       <r>    1.8935    1.0000 </r>
       <r>    1.8940    1.0000 </r>
       <r>    2.0262    1.0000 </r>
       <r>    2.0269    1.0000 </r>
       <r>    2.0425    1.0000 </r>
       <r>    2.2780    1.0000 </r>
       <r>    2.4473    1.0000 </r>
       <r>    2.4953    1.0000 </r>
       <r>    2.4961    1.0000 </r>
       <r>    2.5929    1.0000 </r>
       <r>    2.8288    1.0000 </r>
       <r>    2.8300    1.0000 </r>
       <r>    3.2182    1.0000 </r>
       <r>    3.2188    1.0000 </r>
       <r>    8.1116    1.0000 </r>
       <r>   10.3172    0.0000 </r>
       <r>   11.1419    0.0000 </r>
       <r>   11.1466    0.0000 </r>
       <r>   11.5460    0.0000 </r>
       <r>   11.8782    0.0000 </r>
       <r>   12.5456    0.0000 </r>
       <r>   12.5473    0.0000 </r>
       <r>   12.7620    0.0000 </r>
       <r>   13.5258    0.0000 </r>
       <r>   13.5278    0.0000 </r>
       <r>   14.5134    0.0000 </r>
       <r>   15.3572    0.0000 </r>
       <r>   15.5077    0.0000 </r>
       <r>   15.5101    0.0000 </r>
       <r>   15.6940    0.0000 </r>
       <r>   15.8465    0.0000 </r>
       <r>   15.8523    0.0000 </r>
       <r>   16.9985    0.0000 </r>
       <r>   17.3246    0.0000 </r>
      </set>
      <set comment="kpoint 5">
       <r>  -13.6221    1.0000 </r>
       <r>  -13.1422    1.0000 </r>
       <r>  -12.9145    1.0000 </r>
       <r>  -12.8351    1.0000 </r>
       <r>  -12.6385    1.0000 </r>
       <r>  -12.4932    1.0000 </r>
       <r>  -12.3207    1.0000 </r>
       <r>  -12.2360    1.0000 </r>
       <r>   -1.2904    1.0000 </r>
       <r>   -0.6019    1.0000 </r>
       <r>   -0.3667    1.0000 </r>
       <r>   -0.2976    1.0000 </r>
       <r>   -0.2460    1.0000 </r>
       <r>   -0.1377    1.0000 </r>
       <r>    0.0710    1.0000 </r>
       <r>    0.6084    1.0000 </r>
       <r>    0.6829    1.0000 </r>
       <r>    0.7899    1.0000 </r>
       <r>    1.1153    1.0000 </r>
       <r>    1.5329    1.0000 </r>
       <r>    1.5453    1.0000 </r>
       <r>    1.8200    1.0000 </r>
       <r>    1.9704    1.0000 </r>
       <r>    2.1032    1.0000 </r>
       <r>    2.1867    1.0000 </r>
       <r>    2.2449    1.0000 </r>
       <r>    2.3910    1.0000 </r>
       <r>    2.5034    1.0000 </r>
       <r>    2.5905    1.0000 </r>
       <r>    2.8522    1.0000 </r>
       <r>    2.8719    1.0000 </r>
       <r>    2.9887    1.0000 </r>
       <r>    9.6478    0.6617 </r>
       <r>   10.5286    0.0000 </r>
       <r>   11.5418    0.0000 </r>
       <r>   11.9500    0.0000 </r>
       <r>   12.4083    0.0000 </r>
       <r>   12.6988    0.0000 </r>
       <r>   13.1742    0.0000 </r>
       <r>   13.4838    0.0000 </r>
       <r>   13.6867    0.0000 </r>
       <r>   14.0407    0.0000 </r>
       <r>   14.3519    0.0000 </r>
       <r>   14.3698    0.0000 </r>
       <r>   14.8939    0.0000 </r>
       <r>   15.0190    0.0000 </r>
       <r>   15.2633    0.0000 </r>
       <r>   15.3624    0.0000 </r>
       <r>   15.5177    0.0000 </r>
       <r>   15.5768    0.0000 </r>
       <r>   15.6860    0.0000 </r>
       <r>   16.5834    0.0000 </r>
      </set>
      <set comment="kpoint 6">
       <r>  -13.6218    1.0000 </r>
       <r>  -13.1431    1.0000 </r>
       <r>  -12.9134    1.0000 </r>
       <r>  -12.8361    1.0000 </r>
       <r>  -12.6380    1.0000 </r>
       <r>  -12.4937    1.0000 </r>
       <r>  -12.3209    1.0000 </r>
       <r>  -12.2353    1.0000 </r>
       <r>   -1.2906    1.0000 </r>
       <r>   -0.6019    1.0000 </r>
       <r>   -0.3673    1.0000 </r>
       <r>   -0.2963    1.0000 </r>
       <r>   -0.2454    1.0000 </r>
       <r>   -0.1389    1.0000 </r>
       <r>    0.0704    1.0000 </r>
       <r>    0.6061    1.0000 </r>
       <r>    0.6839    1.0000 </r>
       <r>    0.7897    1.0000 </r>
       <r>    1.1164    1.0000 </r>
       <r>    1.5336    1.0000 </r>
       <r>    1.5450    1.0000 </r>
       <r>    1.8206    1.0000 </r>
       <r>    1.9696    1.0000 </r>
       <r>    2.1034    1.0000 </r>
       <r>    2.1864    1.0000 </r>
       <r>    2.2453    1.0000 </r>
       <r>    2.3911    1.0000 </r>
       <r>    2.5037    1.0000 </r>
       <r>    2.5904    1.0000 </r>
       <r>    2.8539    1.0000 </r>
       <r>    2.8717    1.0000 </r>
       <r>    2.9881    1.0000 </r>
       <r>    9.6473    0.6674 </r>
       <r>   10.5255    0.0000 </r>
       <r>   11.5399    0.0000 </r>
       <r>   11.9511    0.0000 </r>
       <r>   12.4065    0.0000 </r>
       <r>   12.6980    0.0000 </r>
       <r>   13.1741    0.0000 </r>
       <r>   13.4872    0.0000 </r>
       <r>   13.6872    0.0000 </r>
       <r>   14.0453    0.0000 </r>
       <r>   14.3564    0.0000 </r>
       <r>   14.3708    0.0000 </r>
       <r>   14.8989    0.0000 </r>
       <r>   15.0224    0.0000 </r>
       <r>   15.2496    0.0000 </r>
       <r>   15.3651    0.0000 </r>
       <r>   15.5141    0.0000 </r>
       <r>   15.5813    0.0000 </r>
       <r>   15.6844    0.0000 </r>
       <r>   16.5901    0.0000 </r>
      </set>
      <set comment="kpoint 7">
       <r>  -13.6218    1.0000 </r>
       <r>  -13.1431    1.0000 </r>
       <r>  -12.9137    1.0000 </r>
       <r>  -12.8357    1.0000 </r>
       <r>  -12.6381    1.0000 </r>
       <r>  -12.4935    1.0000 </r>
       <r>  -12.3209    1.0000 </r>
       <r>  -12.2356    1.0000 </r>
       <r>   -1.2903    1.0000 </r>
       <r>   -0.6021    1.0000 </r>
       <r>   -0.3672    1.0000 </r>
       <r>   -0.2967    1.0000 </r>
       <r>   -0.2458    1.0000 </r>
       <r>   -0.1382    1.0000 </r>
       <r>    0.0703    1.0000 </r>
       <r>    0.6069    1.0000 </r>
       <r>    0.6831    1.0000 </r>
       <r>    0.7897    1.0000 </r>
       <r>    1.1163    1.0000 </r>
       <r>    1.5334    1.0000 </r>
       <r>    1.5452    1.0000 </r>
       <r>    1.8203    1.0000 </r>
       <r>    1.9698    1.0000 </r>
       <r>    2.1031    1.0000 </r>
       <r>    2.1865    1.0000 </r>
       <r>    2.2454    1.0000 </r>
       <r>    2.3911    1.0000 </r>
       <r>    2.5037    1.0000 </r>
       <r>    2.5905    1.0000 </r>
       <r>    2.8534    1.0000 </r>
       <r>    2.8718    1.0000 </r>
       <r>    2.9883    1.0000 </r>
       <r>    9.6473    0.6670 </r>
       <r>   10.5259    0.0000 </r>
       <r>   11.5403    0.0000 </r>
       <r>   11.9517    0.0000 </r>
       <r>   12.4080    0.0000 </r>
       <r>   12.6975    0.0000 </r>
       <r>   13.1729    0.0000 </r>
       <r>   13.4860    0.0000 </r>
       <r>   13.6866    0.0000 </r>
       <r>   14.0455    0.0000 </r>
       <r>   14.3552    0.0000 </r>
       <r>   14.3709    0.0000 </r>
       <r>   14.8977    0.0000 </r>
       <r>   15.0221    0.0000 </r>
       <r>   15.2520    0.0000 </r>
       <r>   15.3648    0.0000 </r>
       <r>   15.5154    0.0000 </r>
       <r>   15.5801    0.0000 </r>
       <r>   15.6845    0.0000 </r>
       <r>   16.5861    0.0000 </r>
      </set>
      <set comment="kpoint 8">
       <r>  -13.6218    1.0000 </r>
       <r>  -13.1430    1.0000 </r>
       <r>  -12.9135    1.0000 </r>
       <r>  -12.8361    1.0000 </r>
       <r>  -12.6380    1.0000 </r>
       <r>  -12.4937    1.0000 </r>
       <r>  -12.3210    1.0000 </r>
       <r>  -12.2354    1.0000 </r>
       <r>   -1.2905    1.0000 </r>
       <r>   -0.6020    1.0000 </r>
       <r>   -0.3673    1.0000 </r>
       <r>   -0.2964    1.0000 </r>
       <r>   -0.2454    1.0000 </r>
       <r>   -0.1389    1.0000 </r>
       <r>    0.0703    1.0000 </r>
       <r>    0.6064    1.0000 </r>
       <r>    0.6838    1.0000 </r>
       <r>    0.7894    1.0000 </r>
       <r>    1.1163    1.0000 </r>
       <r>    1.5337    1.0000 </r>
       <r>    1.5451    1.0000 </r>
       <r>    1.8208    1.0000 </r>
       <r>    1.9698    1.0000 </r>
       <r>    2.1034    1.0000 </r>
       <r>    2.1862    1.0000 </r>
       <r>    2.2450    1.0000 </r>
       <r>    2.3913    1.0000 </r>
       <r>    2.5037    1.0000 </r>
       <r>    2.5907    1.0000 </r>
       <r>    2.8533    1.0000 </r>
       <r>    2.8723    1.0000 </r>
       <r>    2.9878    1.0000 </r>
       <r>    9.6472    0.6678 </r>
       <r>   10.5260    0.0000 </r>
       <r>   11.5403    0.0000 </r>
       <r>   11.9501    0.0000 </r>
       <r>   12.4063    0.0000 </r>
       <r>   12.6985    0.0000 </r>
       <r>   13.1744    0.0000 </r>
       <r>   13.4858    0.0000 </r>
       <r>   13.6874    0.0000 </r>
       <r>   14.0454    0.0000 </r>
       <r>   14.3563    0.0000 </r>
       <r>   14.3708    0.0000 </r>
       <r>   14.8980    0.0000 </r>
       <r>   15.0209    0.0000 </r>
       <r>   15.2508    0.0000 </r>
       <r>   15.3643    0.0000 </r>
       <r>   15.5143    0.0000 </r>
       <r>   15.5827    0.0000 </r>
       <r>   15.6851    0.0000 </r>
       <r>   16.5882    0.0000 </r>
      </set>
      <set comment="kpoint 9">
       <r>  -13.6221    1.0000 </r>
       <r>  -13.1422    1.0000 </r>
       <r>  -12.9146    1.0000 </r>
       <r>  -12.8351    1.0000 </r>
       <r>  -12.6385    1.0000 </r>
       <r>  -12.4932    1.0000 </r>
       <r>  -12.3207    1.0000 </r>
       <r>  -12.2360    1.0000 </r>
       <r>   -1.2904    1.0000 </r>
       <r>   -0.6016    1.0000 </r>
       <r>   -0.3666    1.0000 </r>
       <r>   -0.2976    1.0000 </r>
       <r>   -0.2459    1.0000 </r>
       <r>   -0.1379    1.0000 </r>
       <r>    0.0709    1.0000 </r>
       <r>    0.6081    1.0000 </r>
       <r>    0.6825    1.0000 </r>
       <r>    0.7893    1.0000 </r>
       <r>    1.1153    1.0000 </r>
       <r>    1.5329    1.0000 </r>
       <r>    1.5449    1.0000 </r>
       <r>    1.8201    1.0000 </r>
       <r>    1.9706    1.0000 </r>
       <r>    2.1032    1.0000 </r>
       <r>    2.1869    1.0000 </r>
       <r>    2.2450    1.0000 </r>
       <r>    2.3912    1.0000 </r>
       <r>    2.5034    1.0000 </r>
       <r>    2.5906    1.0000 </r>
       <r>    2.8522    1.0000 </r>
       <r>    2.8724    1.0000 </r>
       <r>    2.9887    1.0000 </r>
       <r>    9.6475    0.6655 </r>
       <r>   10.5281    0.0000 </r>
       <r>   11.5421    0.0000 </r>
       <r>   11.9498    0.0000 </r>
       <r>   12.4083    0.0000 </r>
       <r>   12.6988    0.0000 </r>
       <r>   13.1740    0.0000 </r>
       <r>   13.4833    0.0000 </r>
       <r>   13.6869    0.0000 </r>
       <r>   14.0407    0.0000 </r>
       <r>   14.3523    0.0000 </r>
       <r>   14.3702    0.0000 </r>
       <r>   14.8943    0.0000 </r>
       <r>   15.0192    0.0000 </r>
       <r>   15.2632    0.0000 </r>
       <r>   15.3627    0.0000 </r>
       <r>   15.5179    0.0000 </r>
       <r>   15.5765    0.0000 </r>
       <r>   15.6856    0.0000 </r>
       <r>   16.5827    0.0000 </r>
      </set>
      <set comment="kpoint 10">
       <r>  -13.6218    1.0000 </r>
       <r>  -13.1432    1.0000 </r>
       <r>  -12.9138    1.0000 </r>
       <r>  -12.8355    1.0000 </r>
       <r>  -12.6381    1.0000 </r>
       <r>  -12.4936    1.0000 </r>
       <r>  -12.3209    1.0000 </r>
       <r>  -12.2355    1.0000 </r>
       <r>   -1.2904    1.0000 </r>
       <r>   -0.6021    1.0000 </r>
       <r>   -0.3672    1.0000 </r>
       <r>   -0.2966    1.0000 </r>
       <r>   -0.2455    1.0000 </r>
       <r>   -0.1384    1.0000 </r>
       <r>    0.0705    1.0000 </r>
       <r>    0.6068    1.0000 </r>
       <r>    0.6831    1.0000 </r>
       <r>    0.7895    1.0000 </r>
       <r>    1.1163    1.0000 </r>
       <r>    1.5330    1.0000 </r>
       <r>    1.5454    1.0000 </r>
       <r>    1.8205    1.0000 </r>
       <r>    1.9699    1.0000 </r>
       <r>    2.1034    1.0000 </r>
       <r>    2.1866    1.0000 </r>
       <r>    2.2451    1.0000 </r>
       <r>    2.3913    1.0000 </r>
       <r>    2.5033    1.0000 </r>
       <r>    2.5907    1.0000 </r>
       <r>    2.8531    1.0000 </r>
       <r>    2.8724    1.0000 </r>
       <r>    2.9878    1.0000 </r>
       <r>    9.6472    0.6680 </r>
       <r>   10.5258    0.0000 </r>
       <r>   11.5408    0.0000 </r>
       <r>   11.9512    0.0000 </r>
       <r>   12.4078    0.0000 </r>
       <r>   12.6978    0.0000 </r>
       <r>   13.1728    0.0000 </r>
       <r>   13.4863    0.0000 </r>
       <r>   13.6869    0.0000 </r>
       <r>   14.0452    0.0000 </r>
       <r>   14.3560    0.0000 </r>
       <r>   14.3708    0.0000 </r>
       <r>   14.8989    0.0000 </r>
       <r>   15.0228    0.0000 </r>
       <r>   15.2513    0.0000 </r>
       <r>   15.3653    0.0000 </r>
       <r>   15.5152    0.0000 </r>
       <r>   15.5788    0.0000 </r>
       <r>   15.6838    0.0000 </r>
       <r>   16.5861    0.0000 </r>
      </set>
      <set comment="kpoint 11">
       <r>  -13.6217    1.0000 </r>
       <r>  -13.1431    1.0000 </r>
       <r>  -12.9153    1.0000 </r>
       <r>  -12.8342    1.0000 </r>
       <r>  -12.6381    1.0000 </r>
       <r>  -12.4933    1.0000 </r>
       <r>  -12.3208    1.0000 </r>
       <r>  -12.2360    1.0000 </r>
       <r>   -1.2899    1.0000 </r>
       <r>   -0.6023    1.0000 </r>
       <r>   -0.3669    1.0000 </r>
       <r>   -0.2972    1.0000 </r>
       <r>   -0.2456    1.0000 </r>
       <r>   -0.1376    1.0000 </r>
       <r>    0.0706    1.0000 </r>
       <r>    0.6082    1.0000 </r>
       <r>    0.6819    1.0000 </r>
       <r>    0.7896    1.0000 </r>
       <r>    1.1157    1.0000 </r>
       <r>    1.5329    1.0000 </r>
       <r>    1.5444    1.0000 </r>
       <r>    1.8198    1.0000 </r>
       <r>    1.9703    1.0000 </r>
       <r>    2.1031    1.0000 </r>
       <r>    2.1872    1.0000 </r>
       <r>    2.2459    1.0000 </r>
       <r>    2.3910    1.0000 </r>
       <r>    2.5033    1.0000 </r>
       <r>    2.5906    1.0000 </r>
       <r>    2.8532    1.0000 </r>
       <r>    2.8723    1.0000 </r>
       <r>    2.9878    1.0000 </r>
       <r>    9.6471    0.6691 </r>
       <r>   10.5270    0.0000 </r>
       <r>   11.5367    0.0000 </r>
       <r>   11.9573    0.0000 </r>
       <r>   12.4121    0.0000 </r>
       <r>   12.6967    0.0000 </r>
       <r>   13.1698    0.0000 </r>
       <r>   13.4861    0.0000 </r>
       <r>   13.6842    0.0000 </r>
       <r>   14.0444    0.0000 </r>
       <r>   14.3511    0.0000 </r>
       <r>   14.3720    0.0000 </r>
       <r>   14.8992    0.0000 </r>
       <r>   15.0289    0.0000 </r>
       <r>   15.2522    0.0000 </r>
       <r>   15.3691    0.0000 </r>
       <r>   15.5150    0.0000 </r>
       <r>   15.5754    0.0000 </r>
       <r>   15.6812    0.0000 </r>
       <r>   16.5796    0.0000 </r>
      </set>
      <set comment="kpoint 12">
       <r>  -13.6223    1.0000 </r>
       <r>  -13.1415    1.0000 </r>
       <r>  -12.9146    1.0000 </r>
       <r>  -12.8361    1.0000 </r>
       <r>  -12.6379    1.0000 </r>
       <r>  -12.4937    1.0000 </r>
       <r>  -12.3209    1.0000 </r>
       <r>  -12.2355    1.0000 </r>
       <r>   -1.2911    1.0000 </r>
       <r>   -0.6015    1.0000 </r>
       <r>   -0.3677    1.0000 </r>
       <r>   -0.2965    1.0000 </r>
       <r>   -0.2457    1.0000 </r>
       <r>   -0.1387    1.0000 </r>
       <r>    0.0709    1.0000 </r>
       <r>    0.6073    1.0000 </r>
       <r>    0.6843    1.0000 </r>
       <r>    0.7895    1.0000 </r>
       <r>    1.1163    1.0000 </r>
       <r>    1.5333    1.0000 </r>
       <r>    1.5451    1.0000 </r>
       <r>    1.8209    1.0000 </r>
       <r>    1.9696    1.0000 </r>
       <r>    2.1040    1.0000 </r>
       <r>    2.1858    1.0000 </r>
       <r>    2.2450    1.0000 </r>
       <r>    2.3904    1.0000 </r>
       <r>    2.5042    1.0000 </r>
       <r>    2.5907    1.0000 </r>
       <r>    2.8524    1.0000 </r>
       <r>    2.8720    1.0000 </r>
       <r>    2.9883    1.0000 </r>
       <r>    9.6475    0.6647 </r>
       <r>   10.5291    0.0000 </r>
       <r>   11.5366    0.0000 </r>
       <r>   11.9511    0.0000 </r>
       <r>   12.4069    0.0000 </r>
       <r>   12.6993    0.0000 </r>
       <r>   13.1741    0.0000 </r>
       <r>   13.4867    0.0000 </r>
       <r>   13.6862    0.0000 </r>
       <r>   14.0439    0.0000 </r>
       <r>   14.3478    0.0000 </r>
       <r>   14.3717    0.0000 </r>
       <r>   14.8916    0.0000 </r>
       <r>   15.0216    0.0000 </r>
       <r>   15.2593    0.0000 </r>
       <r>   15.3657    0.0000 </r>
       <r>   15.5134    0.0000 </r>
       <r>   15.5846    0.0000 </r>
       <r>   15.6867    0.0000 </r>
       <r>   16.5884    0.0000 </r>
      </set>
      <set comment="kpoint 13">
       <r>  -13.6222    1.0000 </r>
       <r>  -13.1416    1.0000 </r>
       <r>  -12.9149    1.0000 </r>
       <r>  -12.8357    1.0000 </r>
       <r>  -12.6380    1.0000 </r>
       <r>  -12.4936    1.0000 </r>
       <r>  -12.3209    1.0000 </r>
       <r>  -12.2356    1.0000 </r>
       <r>   -1.2909    1.0000 </r>
       <r>   -0.6012    1.0000 </r>
       <r>   -0.3674    1.0000 </r>
       <r>   -0.2967    1.0000 </r>
       <r>   -0.2458    1.0000 </r>
       <r>   -0.1386    1.0000 </r>
       <r>    0.0708    1.0000 </r>
       <r>    0.6073    1.0000 </r>
       <r>    0.6837    1.0000 </r>
       <r>    0.7893    1.0000 </r>
       <r>    1.1158    1.0000 </r>
       <r>    1.5332    1.0000 </r>
       <r>    1.5446    1.0000 </r>
       <r>    1.8205    1.0000 </r>
       <r>    1.9700    1.0000 </r>
       <r>    2.1036    1.0000 </r>
       <r>    2.1863    1.0000 </r>
       <r>    2.2457    1.0000 </r>
       <r>    2.3906    1.0000 </r>
       <r>    2.5041    1.0000 </r>
       <r>    2.5905    1.0000 </r>
       <r>    2.8529    1.0000 </r>
       <r>    2.8720    1.0000 </r>
       <r>    2.9887    1.0000 </r>
       <r>    9.6472    0.6678 </r>
       <r>   10.5287    0.0000 </r>
       <r>   11.5366    0.0000 </r>
       <r>   11.9525    0.0000 </r>
       <r>   12.4080    0.0000 </r>
       <r>   12.6988    0.0000 </r>
       <r>   13.1736    0.0000 </r>
       <r>   13.4862    0.0000 </r>
       <r>   13.6857    0.0000 </r>
       <r>   14.0426    0.0000 </r>
       <r>   14.3472    0.0000 </r>
       <r>   14.3726    0.0000 </r>
       <r>   14.8930    0.0000 </r>
       <r>   15.0229    0.0000 </r>
       <r>   15.2597    0.0000 </r>
       <r>   15.3657    0.0000 </r>
       <r>   15.5143    0.0000 </r>
       <r>   15.5826    0.0000 </r>
       <r>   15.6854    0.0000 </r>
       <r>   16.5855    0.0000 </r>
      </set>
      <set comment="kpoint 14">
       <r>  -13.6223    1.0000 </r>
       <r>  -13.1414    1.0000 </r>
       <r>  -12.9147    1.0000 </r>
       <r>  -12.8361    1.0000 </r>
       <r>  -12.6378    1.0000 </r>
       <r>  -12.4937    1.0000 </r>
       <r>  -12.3209    1.0000 </r>
       <r>  -12.2355    1.0000 </r>
       <r>   -1.2911    1.0000 </r>
       <r>   -0.6012    1.0000 </r>
       <r>   -0.3677    1.0000 </r>
       <r>   -0.2964    1.0000 </r>
       <r>   -0.2456    1.0000 </r>
       <r>   -0.1389    1.0000 </r>
       <r>    0.0707    1.0000 </r>
       <r>    0.6068    1.0000 </r>
       <r>    0.6843    1.0000 </r>
       <r>    0.7891    1.0000 </r>
       <r>    1.1165    1.0000 </r>
       <r>    1.5330    1.0000 </r>
       <r>    1.5446    1.0000 </r>
       <r>    1.8209    1.0000 </r>
       <r>    1.9696    1.0000 </r>
       <r>    2.1039    1.0000 </r>
       <r>    2.1864    1.0000 </r>
       <r>    2.2453    1.0000 </r>
       <r>    2.3906    1.0000 </r>
       <r>    2.5044    1.0000 </r>
       <r>    2.5906    1.0000 </r>
       <r>    2.8529    1.0000 </r>
       <r>    2.8720    1.0000 </r>
       <r>    2.9886    1.0000 </r>
       <r>    9.6472    0.6676 </r>
       <r>   10.5284    0.0000 </r>
       <r>   11.5361    0.0000 </r>
       <r>   11.9520    0.0000 </r>
       <r>   12.4074    0.0000 </r>
       <r>   12.6989    0.0000 </r>
       <r>   13.1728    0.0000 </r>
       <r>   13.4877    0.0000 </r>
       <r>   13.6856    0.0000 </r>
       <r>   14.0447    0.0000 </r>
       <r>   14.3477    0.0000 </r>
       <r>   14.3716    0.0000 </r>
       <r>   14.8915    0.0000 </r>
       <r>   15.0227    0.0000 </r>
       <r>   15.2586    0.0000 </r>
       <r>   15.3671    0.0000 </r>
       <r>   15.5131    0.0000 </r>
       <r>   15.5841    0.0000 </r>
       <r>   15.6864    0.0000 </r>
       <r>   16.5875    0.0000 </r>
      </set>
      <set comment="kpoint 15">
       <r>  -13.6218    1.0000 </r>
       <r>  -13.1430    1.0000 </r>
       <r>  -12.9153    1.0000 </r>
       <r>  -12.8342    1.0000 </r>
       <r>  -12.6381    1.0000 </r>
       <r>  -12.4933    1.0000 </r>
       <r>  -12.3208    1.0000 </r>
       <r>  -12.2360    1.0000 </r>
       <r>   -1.2898    1.0000 </r>
       <r>   -0.6023    1.0000 </r>
       <r>   -0.3669    1.0000 </r>
       <r>   -0.2974    1.0000 </r>
       <r>   -0.2454    1.0000 </r>
       <r>   -0.1378    1.0000 </r>
       <r>    0.0705    1.0000 </r>
       <r>    0.6083    1.0000 </r>
       <r>    0.6820    1.0000 </r>
       <r>    0.7897    1.0000 </r>
       <r>    1.1157    1.0000 </r>
       <r>    1.5330    1.0000 </r>
       <r>    1.5442    1.0000 </r>
       <r>    1.8198    1.0000 </r>
       <r>    1.9703    1.0000 </r>
       <r>    2.1031    1.0000 </r>
       <r>    2.1873    1.0000 </r>
       <r>    2.2458    1.0000 </r>
       <r>    2.3912    1.0000 </r>
       <r>    2.5034    1.0000 </r>
       <r>    2.5906    1.0000 </r>
       <r>    2.8530    1.0000 </r>
       <r>    2.8722    1.0000 </r>
       <r>    2.9878    1.0000 </r>
       <r>    9.6471    0.6686 </r>
       <r>   10.5274    0.0000 </r>
       <r>   11.5363    0.0000 </r>
       <r>   11.9574    0.0000 </r>
       <r>   12.4122    0.0000 </r>
       <r>   12.6969    0.0000 </r>
       <r>   13.1695    0.0000 </r>
       <r>   13.4861    0.0000 </r>
       <r>   13.6837    0.0000 </r>
       <r>   14.0447    0.0000 </r>
       <r>   14.3506    0.0000 </r>
       <r>   14.3717    0.0000 </r>
       <r>   14.8982    0.0000 </r>
       <r>   15.0283    0.0000 </r>
       <r>   15.2524    0.0000 </r>
       <r>   15.3689    0.0000 </r>
       <r>   15.5150    0.0000 </r>
       <r>   15.5770    0.0000 </r>
       <r>   15.6819    0.0000 </r>
       <r>   16.5820    0.0000 </r>
      </set>
      <set comment="kpoint 16">
       <r>  -13.6222    1.0000 </r>
       <r>  -13.1416    1.0000 </r>
       <r>  -12.9150    1.0000 </r>
       <r>  -12.8355    1.0000 </r>
       <r>  -12.6380    1.0000 </r>
       <r>  -12.4936    1.0000 </r>
       <r>  -12.3208    1.0000 </r>
       <r>  -12.2357    1.0000 </r>
       <r>   -1.2909    1.0000 </r>
       <r>   -0.6016    1.0000 </r>
       <r>   -0.3675    1.0000 </r>
       <r>   -0.2967    1.0000 </r>
       <r>   -0.2456    1.0000 </r>
       <r>   -0.1387    1.0000 </r>
       <r>    0.0709    1.0000 </r>
       <r>    0.6076    1.0000 </r>
       <r>    0.6842    1.0000 </r>
       <r>    0.7896    1.0000 </r>
       <r>    1.1160    1.0000 </r>
       <r>    1.5328    1.0000 </r>
       <r>    1.5450    1.0000 </r>
       <r>    1.8206    1.0000 </r>
       <r>    1.9698    1.0000 </r>
       <r>    2.1039    1.0000 </r>
       <r>    2.1863    1.0000 </r>
       <r>    2.2450    1.0000 </r>
       <r>    2.3907    1.0000 </r>
       <r>    2.5038    1.0000 </r>
       <r>    2.5907    1.0000 </r>
       <r>    2.8524    1.0000 </r>
       <r>    2.8721    1.0000 </r>
       <r>    2.9882    1.0000 </r>
       <r>    9.6475    0.6645 </r>
       <r>   10.5294    0.0000 </r>
       <r>   11.5364    0.0000 </r>
       <r>   11.9523    0.0000 </r>
       <r>   12.4081    0.0000 </r>
       <r>   12.6991    0.0000 </r>
       <r>   13.1732    0.0000 </r>
       <r>   13.4870    0.0000 </r>
       <r>   13.6854    0.0000 </r>
       <r>   14.0429    0.0000 </r>
       <r>   14.3471    0.0000 </r>
       <r>   14.3719    0.0000 </r>
       <r>   14.8922    0.0000 </r>
       <r>   15.0225    0.0000 </r>
       <r>   15.2593    0.0000 </r>
       <r>   15.3663    0.0000 </r>
       <r>   15.5145    0.0000 </r>
       <r>   15.5828    0.0000 </r>
       <r>   15.6858    0.0000 </r>
       <r>   16.5853    0.0000 </r>
      </set>
     </set>
     <set comment="spin 2">
      <set comment="kpoint 1">
       <r>  -13.8693    1.0000 </r>
       <r>  -12.9470    1.0000 </r>
       <r>  -12.7540    1.0000 </r>
       <r>  -12.7529    1.0000 </r>
       <r>  -12.4808    1.0000 </r>
       <r>  -12.4802    1.0000 </r>
       <r>  -12.3007    1.0000 </r>
       <r>  -12.1939    1.0000 </r>
       <r>   -1.8117    1.0000 </r>
       <r>   -0.8880    1.0000 </r>
       <r>   -0.8872    1.0000 </r>
       <r>   -0.7713    1.0000 </r>
       <r>   -0.6810    1.0000 </r>
       <r>   -0.6176    1.0000 </r>
       <r>   -0.6172    1.0000 </r>
       <r>    1.4979    1.0000 </r>
       <r>    1.5079    1.0000 </r>
       <r>    1.5089    1.0000 </r>
       <r>    1.9390    1.0000 </r>
       <r>    1.9395    1.0000 </r>
       <r>    2.0744    1.0000 </r>
       <r>    2.0757    1.0000 </r>
       <r>    2.0768    1.0000 </r>
       <r>    2.3087    1.0000 </r>
       <r>    2.4833    1.0000 </r>
       <r>    2.5329    1.0000 </r>
       <r>    2.5331    1.0000 </r>
       <r>    2.6257    1.0000 </r>
       <r>    2.8583    1.0000 </r>
       <r>    2.8592    1.0000 </r>
       <r>    3.2515    1.0000 </r>
       <r>    3.2517    1.0000 </r>
       <r>    8.2576    1.0000 </r>
       <r>   10.4788    0.0000 </r>
       <r>   11.3035    0.0000 </r>
       <r>   11.3048    0.0000 </r>
       <r>   11.6426    0.0000 </r>
       <r>   11.9733    0.0000 </r>
       <r>   12.6858    0.0000 </r>
       <r>   12.6901    0.0000 </r>
       <r>   12.9016    0.0000 </r>
       <r>   13.5791    0.0000 </r>
       <r>   13.5817    0.0000 </r>
       <r>   14.6573    0.0000 </r>
       <r>   15.4235    0.0000 </r>
       <r>   15.5833    0.0000 </r>
       <r>   15.5890    0.0000 </r>
       <r>   15.7758    0.0000 </r>
       <r>   15.9480    0.0000 </r>
       <r>   15.9546    0.0000 </r>
       <r>   17.0911    0.0000 </r>
       <r>   17.4351    0.0000 </r>
      </set>
      <set comment="kpoint 2">
       <r>  -13.8693    1.0000 </r>
       <r>  -12.9470    1.0000 </r>
       <r>  -12.7540    1.0000 </r>
       <r>  -12.7528    1.0000 </r>
       <r>  -12.4808    1.0000 </r>
       <r>  -12.4801    1.0000 </r>
       <r>  -12.3007    1.0000 </r>
       <r>  -12.1939    1.0000 </r>
       <r>   -1.8117    1.0000 </r>
       <r>   -0.8882    1.0000 </r>
       <r>   -0.8871    1.0000 </r>
       <r>   -0.7716    1.0000 </r>
       <r>   -0.6808    1.0000 </r>
       <r>   -0.6178    1.0000 </r>
       <r>   -0.6168    1.0000 </r>
       <r>    1.4980    1.0000 </r>
       <r>    1.5082    1.0000 </r>
       <r>    1.5097    1.0000 </r>
       <r>    1.9389    1.0000 </r>
       <r>    1.9399    1.0000 </r>
       <r>    2.0742    1.0000 </r>
       <r>    2.0755    1.0000 </r>
       <r>    2.0770    1.0000 </r>
       <r>    2.3090    1.0000 </r>
       <r>    2.4837    1.0000 </r>
       <r>    2.5324    1.0000 </r>
       <r>    2.5327    1.0000 </r>
       <r>    2.6255    1.0000 </r>
       <r>    2.8582    1.0000 </r>
       <r>    2.8589    1.0000 </r>
       <r>    3.2510    1.0000 </r>
       <r>    3.2516    1.0000 </r>
       <r>    8.2578    1.0000 </r>
       <r>   10.4790    0.0000 </r>
       <r>   11.3034    0.0000 </r>
       <r>   11.3049    0.0000 </r>
       <r>   11.6426    0.0000 </r>
       <r>   11.9734    0.0000 </r>
       <r>   12.6861    0.0000 </r>
       <r>   12.6899    0.0000 </r>
       <r>   12.9018    0.0000 </r>
       <r>   13.5787    0.0000 </r>
       <r>   13.5816    0.0000 </r>
       <r>   14.6574    0.0000 </r>
       <r>   15.4229    0.0000 </r>
       <r>   15.5835    0.0000 </r>
       <r>   15.5890    0.0000 </r>
       <r>   15.7751    0.0000 </r>
       <r>   15.9481    0.0000 </r>
       <r>   15.9551    0.0000 </r>
       <r>   17.0909    0.0000 </r>
       <r>   17.4356    0.0000 </r>
      </set>
      <set comment="kpoint 3">
       <r>  -13.8692    1.0000 </r>
       <r>  -12.9478    1.0000 </r>
       <r>  -12.7544    1.0000 </r>
       <r>  -12.7519    1.0000 </r>
       <r>  -12.4807    1.0000 </r>
       <r>  -12.4802    1.0000 </r>
       <r>  -12.3007    1.0000 </r>
       <r>  -12.1938    1.0000 </r>
       <r>   -1.8114    1.0000 </r>
       <r>   -0.8879    1.0000 </r>
       <r>   -0.8870    1.0000 </r>
       <r>   -0.7716    1.0000 </r>
       <r>   -0.6809    1.0000 </r>
       <r>   -0.6182    1.0000 </r>
       <r>   -0.6168    1.0000 </r>
       <r>    1.4971    1.0000 </r>
       <r>    1.5068    1.0000 </r>
       <r>    1.5096    1.0000 </r>
       <r>    1.9392    1.0000 </r>
       <r>    1.9401    1.0000 </r>
       <r>    2.0741    1.0000 </r>
       <r>    2.0761    1.0000 </r>
       <r>    2.0769    1.0000 </r>
       <r>    2.3088    1.0000 </r>
       <r>    2.4843    1.0000 </r>
       <r>    2.5326    1.0000 </r>
       <r>    2.5334    1.0000 </r>
       <r>    2.6254    1.0000 </r>
       <r>    2.8581    1.0000 </r>
       <r>    2.8593    1.0000 </r>
       <r>    3.2510    1.0000 </r>
       <r>    3.2516    1.0000 </r>
       <r>    8.2576    1.0000 </r>
       <r>   10.4771    0.0000 </r>
       <r>   11.3027    0.0000 </r>
       <r>   11.3071    0.0000 </r>
       <r>   11.6412    0.0000 </r>
       <r>   11.9750    0.0000 </r>
       <r>   12.6869    0.0000 </r>
       <r>   12.6895    0.0000 </r>
       <r>   12.9002    0.0000 </r>
       <r>   13.5806    0.0000 </r>
       <r>   13.5830    0.0000 </r>
       <r>   14.6569    0.0000 </r>
       <r>   15.4302    0.0000 </r>
       <r>   15.5795    0.0000 </r>
       <r>   15.5832    0.0000 </r>
       <r>   15.7834    0.0000 </r>
       <r>   15.9475    0.0000 </r>
       <r>   15.9543    0.0000 </r>
       <r>   17.0894    0.0000 </r>
       <r>   17.4302    0.0000 </r>
      </set>
      <set comment="kpoint 4">
       <r>  -13.8692    1.0000 </r>
       <r>  -12.9478    1.0000 </r>
       <r>  -12.7544    1.0000 </r>
       <r>  -12.7518    1.0000 </r>
       <r>  -12.4807    1.0000 </r>
       <r>  -12.4803    1.0000 </r>
       <r>  -12.3007    1.0000 </r>
       <r>  -12.1937    1.0000 </r>
       <r>   -1.8115    1.0000 </r>
       <r>   -0.8876    1.0000 </r>
       <r>   -0.8873    1.0000 </r>
       <r>   -0.7714    1.0000 </r>
       <r>   -0.6811    1.0000 </r>
       <r>   -0.6180    1.0000 </r>
       <r>   -0.6169    1.0000 </r>
       <r>    1.4967    1.0000 </r>
       <r>    1.5067    1.0000 </r>
       <r>    1.5099    1.0000 </r>
       <r>    1.9392    1.0000 </r>
       <r>    1.9397    1.0000 </r>
       <r>    2.0744    1.0000 </r>
       <r>    2.0762    1.0000 </r>
       <r>    2.0769    1.0000 </r>
       <r>    2.3090    1.0000 </r>
       <r>    2.4843    1.0000 </r>
       <r>    2.5324    1.0000 </r>
       <r>    2.5332    1.0000 </r>
       <r>    2.6254    1.0000 </r>
       <r>    2.8582    1.0000 </r>
       <r>    2.8594    1.0000 </r>
       <r>    3.2510    1.0000 </r>
       <r>    3.2515    1.0000 </r>
       <r>    8.2576    1.0000 </r>
       <r>   10.4769    0.0000 </r>
       <r>   11.3031    0.0000 </r>
       <r>   11.3070    0.0000 </r>
       <r>   11.6410    0.0000 </r>
       <r>   11.9749    0.0000 </r>
       <r>   12.6878    0.0000 </r>
       <r>   12.6892    0.0000 </r>
       <r>   12.8995    0.0000 </r>
       <r>   13.5812    0.0000 </r>
       <r>   13.5830    0.0000 </r>
       <r>   14.6569    0.0000 </r>
       <r>   15.4319    0.0000 </r>
       <r>   15.5794    0.0000 </r>
       <r>   15.5820    0.0000 </r>
       <r>   15.7845    0.0000 </r>
       <r>   15.9481    0.0000 </r>
       <r>   15.9537    0.0000 </r>
       <r>   17.0885    0.0000 </r>
       <r>   17.4294    0.0000 </r>
      </set>
      <set comment="kpoint 5">
       <r>  -13.5794    1.0000 </r>
       <r>  -13.0985    1.0000 </r>
       <r>  -12.8729    1.0000 </r>
       <r>  -12.7920    1.0000 </r>
       <r>  -12.5942    1.0000 </r>
       <r>  -12.4503    1.0000 </r>
       <r>  -12.2928    1.0000 </r>
       <r>  -12.2066    1.0000 </r>
       <r>   -1.2079    1.0000 </r>
       <r>   -0.5237    1.0000 </r>
       <r>   -0.3271    1.0000 </r>
       <r>   -0.2593    1.0000 </r>
       <r>   -0.1962    1.0000 </r>
       <r>   -0.0890    1.0000 </r>
       <r>    0.1134    1.0000 </r>
       <r>    0.6612    1.0000 </r>
       <r>    0.7328    1.0000 </r>
       <r>    0.8515    1.0000 </r>
       <r>    1.1565    1.0000 </r>
       <r>    1.5755    1.0000 </r>
       <r>    1.5874    1.0000 </r>
       <r>    1.8720    1.0000 </r>
       <r>    2.0051    1.0000 </r>
       <r>    2.1362    1.0000 </r>
       <r>    2.2343    1.0000 </r>
       <r>    2.2867    1.0000 </r>
       <r>    2.4271    1.0000 </r>
       <r>    2.5369    1.0000 </r>
       <r>    2.6203    1.0000 </r>
       <r>    2.8830    1.0000 </r>
       <r>    2.9056    1.0000 </r>
       <r>    3.0215    1.0000 </r>
       <r>    9.8068    0.0000 </r>
       <r>   10.6715    0.0000 </r>
       <r>   11.6766    0.0000 </r>
       <r>   12.1169    0.0000 </r>
       <r>   12.5056    0.0000 </r>
       <r>   12.8191    0.0000 </r>
       <r>   13.3077    0.0000 </r>
       <r>   13.6269    0.0000 </r>
       <r>   13.8158    0.0000 </r>
       <r>   14.1499    0.0000 </r>
       <r>   14.4498    0.0000 </r>
       <r>   14.4968    0.0000 </r>
       <r>   14.9571    0.0000 </r>
       <r>   15.1072    0.0000 </r>
       <r>   15.3156    0.0000 </r>
       <r>   15.4385    0.0000 </r>
       <r>   15.5932    0.0000 </r>
       <r>   15.6681    0.0000 </r>
       <r>   15.7901    0.0000 </r>
       <r>   16.6569    0.0000 </r>
      </set>
      <set comment="kpoint 6">
       <r>  -13.5791    1.0000 </r>
       <r>  -13.0993    1.0000 </r>
       <r>  -12.8719    1.0000 </r>
       <r>  -12.7930    1.0000 </r>
       <r>  -12.5937    1.0000 </r>
       <r>  -12.4507    1.0000 </r>
       <r>  -12.2930    1.0000 </r>
       <r>  -12.2059    1.0000 </r>
       <r>   -1.2080    1.0000 </r>
       <r>   -0.5235    1.0000 </r>
       <r>   -0.3277    1.0000 </r>
       <r>   -0.2581    1.0000 </r>
       <r>   -0.1956    1.0000 </r>
       <r>   -0.0903    1.0000 </r>
       <r>    0.1128    1.0000 </r>
       <r>    0.6588    1.0000 </r>
       <r>    0.7337    1.0000 </r>
       <r>    0.8512    1.0000 </r>
       <r>    1.1576    1.0000 </r>
       <r>    1.5763    1.0000 </r>
       <r>    1.5871    1.0000 </r>
       <r>    1.8726    1.0000 </r>
       <r>    2.0042    1.0000 </r>
       <r>    2.1363    1.0000 </r>
       <r>    2.2344    1.0000 </r>
       <r>    2.2868    1.0000 </r>
       <r>    2.4272    1.0000 </r>
       <r>    2.5372    1.0000 </r>
       <r>    2.6203    1.0000 </r>
       <r>    2.8848    1.0000 </r>
       <r>    2.9054    1.0000 </r>
       <r>    3.0208    1.0000 </r>
       <r>    9.8065    0.0000 </r>
       <r>   10.6689    0.0000 </r>
       <r>   11.6744    0.0000 </r>
       <r>   12.1177    0.0000 </r>
       <r>   12.5050    0.0000 </r>
       <r>   12.8177    0.0000 </r>
       <r>   13.3077    0.0000 </r>
       <r>   13.6292    0.0000 </r>
       <r>   13.8168    0.0000 </r>
       <r>   14.1534    0.0000 </r>
       <r>   14.4548    0.0000 </r>
       <r>   14.4987    0.0000 </r>
       <r>   14.9615    0.0000 </r>
       <r>   15.1105    0.0000 </r>
       <r>   15.3019    0.0000 </r>
       <r>   15.4412    0.0000 </r>
       <r>   15.5894    0.0000 </r>
       <r>   15.6733    0.0000 </r>
       <r>   15.7881    0.0000 </r>
       <r>   16.6631    0.0000 </r>
      </set>
      <set comment="kpoint 7">
       <r>  -13.5791    1.0000 </r>
       <r>  -13.0994    1.0000 </r>
       <r>  -12.8722    1.0000 </r>
       <r>  -12.7926    1.0000 </r>
       <r>  -12.5938    1.0000 </r>
       <r>  -12.4506    1.0000 </r>
       <r>  -12.2930    1.0000 </r>
       <r>  -12.2061    1.0000 </r>
       <r>   -1.2076    1.0000 </r>
       <r>   -0.5238    1.0000 </r>
       <r>   -0.3276    1.0000 </r>
       <r>   -0.2584    1.0000 </r>
       <r>   -0.1959    1.0000 </r>
       <r>   -0.0896    1.0000 </r>
       <r>    0.1127    1.0000 </r>
       <r>    0.6596    1.0000 </r>
       <r>    0.7329    1.0000 </r>
       <r>    0.8511    1.0000 </r>
       <r>    1.1576    1.0000 </r>
       <r>    1.5761    1.0000 </r>
       <r>    1.5874    1.0000 </r>
       <r>    1.8723    1.0000 </r>
       <r>    2.0045    1.0000 </r>
       <r>    2.1361    1.0000 </r>
       <r>    2.2345    1.0000 </r>
       <r>    2.2869    1.0000 </r>
       <r>    2.4272    1.0000 </r>
       <r>    2.5371    1.0000 </r>
       <r>    2.6204    1.0000 </r>
       <r>    2.8843    1.0000 </r>
       <r>    2.9055    1.0000 </r>
       <r>    3.0211    1.0000 </r>
       <r>    9.8065    0.0000 </r>
       <r>   10.6693    0.0000 </r>
       <r>   11.6749    0.0000 </r>
       <r>   12.1182    0.0000 </r>
       <r>   12.5061    0.0000 </r>
       <r>   12.8175    0.0000 </r>
       <r>   13.3066    0.0000 </r>
       <r>   13.6282    0.0000 </r>
       <r>   13.8162    0.0000 </r>
       <r>   14.1537    0.0000 </r>
       <r>   14.4535    0.0000 </r>
       <r>   14.4987    0.0000 </r>
       <r>   14.9604    0.0000 </r>
       <r>   15.1103    0.0000 </r>
       <r>   15.3044    0.0000 </r>
       <r>   15.4408    0.0000 </r>
       <r>   15.5907    0.0000 </r>
       <r>   15.6720    0.0000 </r>
       <r>   15.7882    0.0000 </r>
       <r>   16.6597    0.0000 </r>
      </set>
      <set comment="kpoint 8">
       <r>  -13.5791    1.0000 </r>
       <r>  -13.0992    1.0000 </r>
       <r>  -12.8719    1.0000 </r>
       <r>  -12.7930    1.0000 </r>
       <r>  -12.5937    1.0000 </r>
       <r>  -12.4507    1.0000 </r>
       <r>  -12.2931    1.0000 </r>
       <r>  -12.2059    1.0000 </r>
       <r>   -1.2078    1.0000 </r>
       <r>   -0.5236    1.0000 </r>
       <r>   -0.3277    1.0000 </r>
       <r>   -0.2582    1.0000 </r>
       <r>   -0.1955    1.0000 </r>
       <r>   -0.0902    1.0000 </r>
       <r>    0.1127    1.0000 </r>
       <r>    0.6591    1.0000 </r>
       <r>    0.7335    1.0000 </r>
       <r>    0.8509    1.0000 </r>
       <r>    1.1576    1.0000 </r>
       <r>    1.5764    1.0000 </r>
       <r>    1.5873    1.0000 </r>
       <r>    1.8727    1.0000 </r>
       <r>    2.0044    1.0000 </r>
       <r>    2.1363    1.0000 </r>
       <r>    2.2341    1.0000 </r>
       <r>    2.2867    1.0000 </r>
       <r>    2.4274    1.0000 </r>
       <r>    2.5371    1.0000 </r>
       <r>    2.6205    1.0000 </r>
       <r>    2.8842    1.0000 </r>
       <r>    2.9059    1.0000 </r>
       <r>    3.0206    1.0000 </r>
       <r>    9.8064    0.0000 </r>
       <r>   10.6694    0.0000 </r>
       <r>   11.6745    0.0000 </r>
       <r>   12.1172    0.0000 </r>
       <r>   12.5047    0.0000 </r>
       <r>   12.8180    0.0000 </r>
       <r>   13.3080    0.0000 </r>
       <r>   13.6281    0.0000 </r>
       <r>   13.8172    0.0000 </r>
       <r>   14.1533    0.0000 </r>
       <r>   14.4544    0.0000 </r>
       <r>   14.4988    0.0000 </r>
       <r>   14.9607    0.0000 </r>
       <r>   15.1089    0.0000 </r>
       <r>   15.3031    0.0000 </r>
       <r>   15.4403    0.0000 </r>
       <r>   15.5897    0.0000 </r>
       <r>   15.6745    0.0000 </r>
       <r>   15.7888    0.0000 </r>
       <r>   16.6623    0.0000 </r>
      </set>
      <set comment="kpoint 9">
       <r>  -13.5794    1.0000 </r>
       <r>  -13.0984    1.0000 </r>
       <r>  -12.8730    1.0000 </r>
       <r>  -12.7920    1.0000 </r>
       <r>  -12.5942    1.0000 </r>
       <r>  -12.4503    1.0000 </r>
       <r>  -12.2928    1.0000 </r>
       <r>  -12.2066    1.0000 </r>
       <r>   -1.2079    1.0000 </r>
       <r>   -0.5233    1.0000 </r>
       <r>   -0.3270    1.0000 </r>
       <r>   -0.2593    1.0000 </r>
       <r>   -0.1961    1.0000 </r>
       <r>   -0.0891    1.0000 </r>
       <r>    0.1134    1.0000 </r>
       <r>    0.6609    1.0000 </r>
       <r>    0.7324    1.0000 </r>
       <r>    0.8509    1.0000 </r>
       <r>    1.1565    1.0000 </r>
       <r>    1.5754    1.0000 </r>
       <r>    1.5871    1.0000 </r>
       <r>    1.8721    1.0000 </r>
       <r>    2.0052    1.0000 </r>
       <r>    2.1362    1.0000 </r>
       <r>    2.2346    1.0000 </r>
       <r>    2.2868    1.0000 </r>
       <r>    2.4273    1.0000 </r>
       <r>    2.5369    1.0000 </r>
       <r>    2.6204    1.0000 </r>
       <r>    2.8831    1.0000 </r>
       <r>    2.9061    1.0000 </r>
       <r>    3.0215    1.0000 </r>
       <r>    9.8066    0.0000 </r>
       <r>   10.6713    0.0000 </r>
       <r>   11.6766    0.0000 </r>
       <r>   12.1168    0.0000 </r>
       <r>   12.5056    0.0000 </r>
       <r>   12.8190    0.0000 </r>
       <r>   13.3077    0.0000 </r>
       <r>   13.6266    0.0000 </r>
       <r>   13.8161    0.0000 </r>
       <r>   14.1497    0.0000 </r>
       <r>   14.4501    0.0000 </r>
       <r>   14.4969    0.0000 </r>
       <r>   14.9575    0.0000 </r>
       <r>   15.1074    0.0000 </r>
       <r>   15.3156    0.0000 </r>
       <r>   15.4388    0.0000 </r>
       <r>   15.5932    0.0000 </r>
       <r>   15.6676    0.0000 </r>
       <r>   15.7897    0.0000 </r>
       <r>   16.6572    0.0000 </r>
      </set>
      <set comment="kpoint 10">
       <r>  -13.5790    1.0000 </r>
       <r>  -13.0994    1.0000 </r>
       <r>  -12.8722    1.0000 </r>
       <r>  -12.7924    1.0000 </r>
       <r>  -12.5938    1.0000 </r>
       <r>  -12.4506    1.0000 </r>
       <r>  -12.2930    1.0000 </r>
       <r>  -12.2061    1.0000 </r>
       <r>   -1.2077    1.0000 </r>
       <r>   -0.5238    1.0000 </r>
       <r>   -0.3275    1.0000 </r>
       <r>   -0.2584    1.0000 </r>
       <r>   -0.1957    1.0000 </r>
       <r>   -0.0897    1.0000 </r>
       <r>    0.1129    1.0000 </r>
       <r>    0.6595    1.0000 </r>
       <r>    0.7329    1.0000 </r>
       <r>    0.8509    1.0000 </r>
       <r>    1.1576    1.0000 </r>
       <r>    1.5756    1.0000 </r>
       <r>    1.5875    1.0000 </r>
       <r>    1.8725    1.0000 </r>
       <r>    2.0045    1.0000 </r>
       <r>    2.1363    1.0000 </r>
       <r>    2.2345    1.0000 </r>
       <r>    2.2867    1.0000 </r>
       <r>    2.4273    1.0000 </r>
       <r>    2.5368    1.0000 </r>
       <r>    2.6206    1.0000 </r>
       <r>    2.8841    1.0000 </r>
       <r>    2.9061    1.0000 </r>
       <r>    3.0206    1.0000 </r>
       <r>    9.8064    0.0000 </r>
       <r>   10.6692    0.0000 </r>
       <r>   11.6750    0.0000 </r>
       <r>   12.1182    0.0000 </r>
       <r>   12.5059    0.0000 </r>
       <r>   12.8175    0.0000 </r>
       <r>   13.3065    0.0000 </r>
       <r>   13.6286    0.0000 </r>
       <r>   13.8167    0.0000 </r>
       <r>   14.1533    0.0000 </r>
       <r>   14.4543    0.0000 </r>
       <r>   14.4986    0.0000 </r>
       <r>   14.9615    0.0000 </r>
       <r>   15.1111    0.0000 </r>
       <r>   15.3037    0.0000 </r>
       <r>   15.4413    0.0000 </r>
       <r>   15.5906    0.0000 </r>
       <r>   15.6707    0.0000 </r>
       <r>   15.7874    0.0000 </r>
       <r>   16.6601    0.0000 </r>
      </set>
      <set comment="kpoint 11">
       <r>  -13.5790    1.0000 </r>
       <r>  -13.0993    1.0000 </r>
       <r>  -12.8737    1.0000 </r>
       <r>  -12.7911    1.0000 </r>
       <r>  -12.5938    1.0000 </r>
       <r>  -12.4503    1.0000 </r>
       <r>  -12.2929    1.0000 </r>
       <r>  -12.2065    1.0000 </r>
       <r>   -1.2073    1.0000 </r>
       <r>   -0.5239    1.0000 </r>
       <r>   -0.3272    1.0000 </r>
       <r>   -0.2590    1.0000 </r>
       <r>   -0.1959    1.0000 </r>
       <r>   -0.0889    1.0000 </r>
       <r>    0.1130    1.0000 </r>
       <r>    0.6609    1.0000 </r>
       <r>    0.7318    1.0000 </r>
       <r>    0.8511    1.0000 </r>
       <r>    1.1570    1.0000 </r>
       <r>    1.5755    1.0000 </r>
       <r>    1.5865    1.0000 </r>
       <r>    1.8718    1.0000 </r>
       <r>    2.0049    1.0000 </r>
       <r>    2.1360    1.0000 </r>
       <r>    2.2352    1.0000 </r>
       <r>    2.2874    1.0000 </r>
       <r>    2.4270    1.0000 </r>
       <r>    2.5368    1.0000 </r>
       <r>    2.6204    1.0000 </r>
       <r>    2.8841    1.0000 </r>
       <r>    2.9059    1.0000 </r>
       <r>    3.0207    1.0000 </r>
       <r>    9.8062    0.0000 </r>
       <r>   10.6704    0.0000 </r>
       <r>   11.6715    0.0000 </r>
       <r>   12.1233    0.0000 </r>
       <r>   12.5098    0.0000 </r>
       <r>   12.8167    0.0000 </r>
       <r>   13.3040    0.0000 </r>
       <r>   13.6279    0.0000 </r>
       <r>   13.8140    0.0000 </r>
       <r>   14.1529    0.0000 </r>
       <r>   14.4498    0.0000 </r>
       <r>   14.4995    0.0000 </r>
       <r>   14.9621    0.0000 </r>
       <r>   15.1170    0.0000 </r>
       <r>   15.3046    0.0000 </r>
       <r>   15.4452    0.0000 </r>
       <r>   15.5902    0.0000 </r>
       <r>   15.6670    0.0000 </r>
       <r>   15.7851    0.0000 </r>
       <r>   16.6538    0.0000 </r>
      </set>
      <set comment="kpoint 12">
       <r>  -13.5795    1.0000 </r>
       <r>  -13.0977    1.0000 </r>
       <r>  -12.8731    1.0000 </r>
       <r>  -12.7930    1.0000 </r>
       <r>  -12.5935    1.0000 </r>
       <r>  -12.4507    1.0000 </r>
       <r>  -12.2930    1.0000 </r>
       <r>  -12.2060    1.0000 </r>
       <r>   -1.2086    1.0000 </r>
       <r>   -0.5233    1.0000 </r>
       <r>   -0.3281    1.0000 </r>
       <r>   -0.2583    1.0000 </r>
       <r>   -0.1959    1.0000 </r>
       <r>   -0.0900    1.0000 </r>
       <r>    0.1133    1.0000 </r>
       <r>    0.6600    1.0000 </r>
       <r>    0.7341    1.0000 </r>
       <r>    0.8510    1.0000 </r>
       <r>    1.1576    1.0000 </r>
       <r>    1.5759    1.0000 </r>
       <r>    1.5872    1.0000 </r>
       <r>    1.8729    1.0000 </r>
       <r>    2.0042    1.0000 </r>
       <r>    2.1369    1.0000 </r>
       <r>    2.2336    1.0000 </r>
       <r>    2.2867    1.0000 </r>
[...]
        <r>  0.0000  0.0042  0.0000  0.0039  0.0000  0.0000  0.0000  0.0000  0.0000 </r>
        <r>  0.0054  0.0127  0.0077  0.0115  0.0000  0.0000  0.0000  0.0000  0.0000 </r>
        <r>  0.0054  0.0116  0.0079  0.0130  0.0000  0.0000  0.0000  0.0000  0.0000 </r>
        <r>  0.0054  0.0116  0.0077  0.0127  0.0000  0.0000  0.0000  0.0000  0.0000 </r>
        <r>  0.0054  0.0130  0.0077  0.0115  0.0000  0.0000  0.0000  0.0000  0.0000 </r>
        <r>  0.0000  0.0041  0.0000  0.0040  0.0000  0.0000  0.0000  0.0000  0.0000 </r>
        <r>  0.0000  0.0042  0.0000  0.0039  0.0000  0.0000  0.0000  0.0000  0.0000 </r>
       </set>
       <set comment="band 41">
        <r>  0.0001  0.0002  0.0000  0.0002  0.0000  0.0000  0.0000  0.0000  0.0000 </r>
        <r>  0.0011  0.0003  0.0010  0.0003  0.0190  0.0009  0.0001  0.0009  0.0000 </r>
        <r>  0.0003  0.0008  0.0002  0.0001  0.0141  0.0012  0.0000  0.0019  0.0001 </r>
        <r>  0.0003  0.0001  0.0001  0.0008  0.0141  0.0019  0.0000  0.0012  0.0001 </r>
        <r>  0.0042  0.0013  0.0001  0.0062  0.0092  0.0000  0.0000  0.0008  0.0000 </r>
        <r>  0.0042  0.0061  0.0001  0.0013  0.0092  0.0008  0.0000  0.0000  0.0000 </r>
        <r>  0.0092  0.0000  0.0030  0.0000  0.0141  0.0000  0.0007  0.0000  0.0000 </r>
        <r>  0.0006  0.0032  0.0026  0.0032  0.0165  0.0002  0.0000  0.0002  0.0000 </r>
        <r>  0.0035  0.0039  0.0093  0.0040  0.0000  0.0000  0.0000  0.0000  0.0000 </r>
        <r>  0.0008  0.0016  0.0024  0.0016  0.0000  0.0000  0.0000  0.0000  0.0000 </r>
        <r>  0.0004  0.0054  0.0013  0.0024  0.0000  0.0000  0.0000  0.0000  0.0000 </r>
        <r>  0.0004  0.0024  0.0013  0.0053  0.0000  0.0000  0.0000  0.0000  0.0000 </r>
        <r>  0.0005  0.0024  0.0013  0.0053  0.0000  0.0000  0.0000  0.0000  0.0000 </r>
        <r>  0.0004  0.0054  0.0013  0.0024  0.0000  0.0000  0.0000  0.0000  0.0000 </r>
        <r>  0.0008  0.0017  0.0026  0.0017  0.0000  0.0000  0.0000  0.0000  0.0000 </r>
        <r>  0.0035  0.0039  0.0100  0.0038  0.0000  0.0000  0.0000  0.0000  0.0000 </r>
       </set>
       <set comment="band 42">
        <r>  0.0731  0.0018  0.0000  0.0017  0.0000  0.0000  0.0000  0.0000  0.0000 </r>
        <r>  0.0417  0.0003  0.0000  0.0003  0.0000  0.0024  0.0012  0.0023  0.0000 </r>
        <r>  0.0009  0.0001  0.0057  0.0000  0.0000  0.0013  0.0000  0.0002  0.0000 </r>
        <r>  0.0009  0.0000  0.0058  0.0001  0.0000  0.0002  0.0000  0.0013  0.0000 </r>
        <r>  0.0008  0.0033  0.0002  0.0016  0.0000  0.0053  0.0000  0.0012  0.0001 </r>
        <r>  0.0009  0.0016  0.0001  0.0033  0.0000  0.0013  0.0000  0.0053  0.0001 </r>
        <r>  0.0682  0.0001  0.0000  0.0001  0.0016  0.0002  0.0005  0.0002  0.0000 </r>
        <r>  0.0289  0.0001  0.0022  0.0001  0.0000  0.0059  0.0002  0.0060  0.0000 </r>
        <r>  0.0005  0.0045  0.0424  0.0040  0.0000  0.0000  0.0000  0.0000  0.0000 </r>
        <r>  0.0004  0.0031  0.0144  0.0029  0.0000  0.0000  0.0000  0.0000  0.0000 </r>
        <r>  0.0018  0.0121  0.0030  0.0086  0.0000  0.0000  0.0000  0.0000  0.0000 </r>
        <r>  0.0017  0.0089  0.0032  0.0119  0.0000  0.0000  0.0000  0.0000  0.0000 </r>
        <r>  0.0018  0.0091  0.0031  0.0119  0.0000  0.0000  0.0000  0.0000  0.0000 </r>
        <r>  0.0019  0.0123  0.0029  0.0088  0.0000  0.0000  0.0000  0.0000  0.0000 </r>
        <r>  0.0005  0.0028  0.0151  0.0032  0.0000  0.0000  0.0000  0.0000  0.0000 </r>
        <r>  0.0005  0.0040  0.0413  0.0046  0.0000  0.0000  0.0000  0.0000  0.0000 </r>
       </set>
       <set comment="band 43">
        <r>  0.0006  0.0060  0.0001  0.0059  0.0000  0.0000  0.0000  0.0000  0.0000 </r>
        <r>  0.0000  0.0036  0.0000  0.0041  0.0000  0.0006  0.0000  0.0009  0.0001 </r>
        <r>  0.0083  0.0001  0.0003  0.0012  0.0000  0.0013  0.0003  0.0026  0.0000 </r>
        <r>  0.0074  0.0005  0.0003  0.0001  0.0000  0.0011  0.0005  0.0018  0.0000 </r>
        <r>  0.0696  0.0007  0.0098  0.0001  0.0006  0.0001  0.0001  0.0000  0.0000 </r>
        <r>  0.0597  0.0001  0.0100  0.0004  0.0006  0.0000  0.0001  0.0008  0.0000 </r>
        <r>  0.0000  0.0002  0.0000  0.0001  0.0000  0.0033  0.0000  0.0036  0.0009 </r>
        <r>  0.0004  0.0005  0.0001  0.0006  0.0000  0.0060  0.0000  0.0071  0.0011 </r>
        <r>  0.0000  0.0152  0.0001  0.0171  0.0000  0.0000  0.0000  0.0000  0.0000 </r>
        <r>  0.0000  0.0186  0.0008  0.0172  0.0000  0.0000  0.0000  0.0000  0.0000 </r>
        <r>  0.0072  0.0047  0.0228  0.0056  0.0000  0.0000  0.0000  0.0000  0.0000 </r>
        <r>  0.0070  0.0050  0.0200  0.0054  0.0000  0.0000  0.0000  0.0000  0.0000 </r>
        <r>  0.0068  0.0049  0.0206  0.0050  0.0000  0.0000  0.0000  0.0000  0.0000 </r>
        <r>  0.0071  0.0050  0.0227  0.0057  0.0000  0.0000  0.0000  0.0000  0.0000 </r>
        <r>  0.0000  0.0190  0.0006  0.0177  0.0000  0.0000  0.0000  0.0000  0.0000 </r>
        <r>  0.0000  0.0154  0.0000  0.0176  0.0000  0.0000  0.0000  0.0000  0.0000 </r>
       </set>
       <set comment="band 44">
        <r>  0.0585  0.0000  0.0137  0.0001  0.0000  0.0000  0.0000  0.0000  0.0000 </r>
        <r>  0.0013  0.0006  0.0005  0.0001  0.0000  0.0008  0.0000  0.0005  0.0000 </r>
        <r>  0.0001  0.0001  0.0002  0.0036  0.0001  0.0017  0.0008  0.0068  0.0000 </r>
        <r>  0.0007  0.0043  0.0001  0.0001  0.0000  0.0083  0.0006  0.0010  0.0000 </r>
        <r>  0.0055  0.0009  0.0003  0.0000  0.0002  0.0092  0.0003  0.0005  0.0000 </r>
        <r>  0.0149  0.0000  0.0000  0.0012  0.0001  0.0004  0.0002  0.0085  0.0000 </r>
        <r>  0.0001  0.0000  0.0012  0.0001  0.0022  0.0005  0.0001  0.0001  0.0000 </r>
        <r>  0.0377  0.0000  0.0138  0.0000  0.0009  0.0026  0.0002  0.0012  0.0000 </r>
        <r>  0.0012  0.0041  0.0049  0.0020  0.0000  0.0000  0.0000  0.0000  0.0000 </r>
        <r>  0.0031  0.0001  0.0691  0.0014  0.0000  0.0000  0.0000  0.0000  0.0000 </r>
        <r>  0.0000  0.0248  0.0014  0.0005  0.0000  0.0000  0.0000  0.0000  0.0000 </r>
        <r>  0.0004  0.0010  0.0036  0.0241  0.0000  0.0000  0.0000  0.0000  0.0000 </r>
        <r>  0.0004  0.0008  0.0034  0.0234  0.0000  0.0000  0.0000  0.0000  0.0000 </r>
        <r>  0.0000  0.0233  0.0014  0.0004  0.0000  0.0000  0.0000  0.0000  0.0000 </r>
        <r>  0.0026  0.0001  0.0689  0.0013  0.0000  0.0000  0.0000  0.0000  0.0000 </r>
        <r>  0.0013  0.0046  0.0047  0.0020  0.0000  0.0000  0.0000  0.0000  0.0000 </r>
       </set>
       <set comment="band 45">
        <r>  0.0005  0.0000  0.0005  0.0000  0.0000  0.0000  0.0000  0.0000  0.0000 </r>
        <r>  0.0099  0.0012  0.0105  0.0011  0.0014  0.0007  0.0000  0.0007  0.0000 </r>
        <r>  0.0001  0.0031  0.0013  0.0019  0.0084  0.0033  0.0000  0.0003  0.0000 </r>
        <r>  0.0001  0.0018  0.0012  0.0031  0.0084  0.0003  0.0000  0.0033  0.0000 </r>
        <r>  0.0011  0.0001  0.0007  0.0000  0.0133  0.0003  0.0000  0.0135  0.0000 </r>
        <r>  0.0008  0.0000  0.0007  0.0001  0.0133  0.0134  0.0000  0.0002  0.0000 </r>
        <r>  0.0146  0.0004  0.0056  0.0004  0.0024  0.0070  0.0000  0.0070  0.0000 </r>
        <r>  0.0010  0.0000  0.0004  0.0000  0.0055  0.0010  0.0000  0.0010  0.0000 </r>
        <r>  0.0000  0.0040  0.0390  0.0037  0.0000  0.0000  0.0000  0.0000  0.0000 </r>
        <r>  0.0001  0.0018  0.0012  0.0020  0.0000  0.0000  0.0000  0.0000  0.0000 </r>
        <r>  0.0002  0.0003  0.0023  0.0095  0.0000  0.0000  0.0000  0.0000  0.0000 </r>
        <r>  0.0001  0.0094  0.0026  0.0003  0.0000  0.0000  0.0000  0.0000  0.0000 </r>
        <r>  0.0002  0.0103  0.0022  0.0002  0.0000  0.0000  0.0000  0.0000  0.0000 </r>
        <r>  0.0002  0.0002  0.0028  0.0102  0.0000  0.0000  0.0000  0.0000  0.0000 </r>
        <r>  0.0000  0.0022  0.0011  0.0017  0.0000  0.0000  0.0000  0.0000  0.0000 </r>
        <r>  0.0000  0.0032  0.0391  0.0038  0.0000  0.0000  0.0000  0.0000  0.0000 </r>
       </set>
       <set comment="band 46">
        <r>  0.0177  0.0050  0.0088  0.0049  0.0000  0.0000  0.0000  0.0000  0.0000 </r>
        <r>  0.0002  0.0006  0.0009  0.0007  0.0009  0.0001  0.0002  0.0001  0.0000 </r>
        <r>  0.0117  0.0001  0.0002  0.0001  0.0026  0.0028  0.0003  0.0075  0.0002 </r>
        <r>  0.0108  0.0001  0.0002  0.0001  0.0026  0.0075  0.0003  0.0028  0.0002 </r>
        <r>  0.0061  0.0081  0.0017  0.0072  0.0007  0.0007  0.0005  0.0021  0.0001 </r>
        <r>  0.0060  0.0071  0.0017  0.0082  0.0007  0.0020  0.0005  0.0007  0.0001 </r>
        <r>  0.0000  0.0113  0.0021  0.0113  0.0000  0.0001  0.0000  0.0001  0.0000 </r>
        <r>  0.0073  0.0081  0.0006  0.0082  0.0000  0.0005  0.0009  0.0005  0.0000 </r>
        <r>  0.0012  0.0194  0.0000  0.0194  0.0000  0.0000  0.0000  0.0000  0.0000 </r>
        <r>  0.0026  0.0060  0.0030  0.0056  0.0000  0.0000  0.0000  0.0000  0.0000 </r>
        <r>  0.0019  0.0159  0.0002  0.0222  0.0000  0.0000  0.0000  0.0000  0.0000 </r>
        <r>  0.0021  0.0221  0.0002  0.0159  0.0000  0.0000  0.0000  0.0000  0.0000 </r>
        <r>  0.0021  0.0200  0.0002  0.0176  0.0000  0.0000  0.0000  0.0000  0.0000 </r>
        <r>  0.0021  0.0176  0.0001  0.0203  0.0000  0.0000  0.0000  0.0000  0.0000 </r>
        <r>  0.0028  0.0063  0.0030  0.0069  0.0000  0.0000  0.0000  0.0000  0.0000 </r>
        <r>  0.0013  0.0185  0.0001  0.0179  0.0000  0.0000  0.0000  0.0000  0.0000 </r>
       </set>
       <set comment="band 47">
        <r>  0.0000  0.0002  0.0000  0.0001  0.0000  0.0000  0.0000  0.0000  0.0000 </r>
        <r>  0.0000  0.0002  0.0000  0.0002  0.0000  0.0114  0.0000  0.0118  0.0001 </r>
        <r>  0.0660  0.0002  0.0053  0.0000  0.0006  0.0040  0.0000  0.0019  0.0000 </r>
        <r>  0.0664  0.0000  0.0057  0.0002  0.0005  0.0019  0.0000  0.0038  0.0000 </r>
        <r>  0.0106  0.0000  0.0014  0.0006  0.0001  0.0000  0.0004  0.0000  0.0000 </r>
        <r>  0.0113  0.0006  0.0011  0.0000  0.0001  0.0000  0.0004  0.0000  0.0000 </r>
        <r>  0.0000  0.0001  0.0000  0.0001  0.0000  0.0001  0.0000  0.0002  0.0000 </r>
        <r>  0.0000  0.0000  0.0000  0.0000  0.0000  0.0004  0.0000  0.0004  0.0000 </r>
        <r>  0.0000  0.0148  0.0000  0.0154  0.0000  0.0000  0.0000  0.0000  0.0000 </r>
        <r>  0.0000  0.0151  0.0000  0.0148  0.0000  0.0000  0.0000  0.0000  0.0000 </r>
        <r>  0.0010  0.0004  0.0384  0.0007  0.0000  0.0000  0.0000  0.0000  0.0000 </r>
        <r>  0.0009  0.0006  0.0361  0.0003  0.0000  0.0000  0.0000  0.0000  0.0000 </r>
        <r>  0.0010  0.0008  0.0345  0.0004  0.0000  0.0000  0.0000  0.0000  0.0000 </r>
        <r>  0.0010  0.0004  0.0362  0.0005  0.0000  0.0000  0.0000  0.0000  0.0000 </r>
        <r>  0.0000  0.0159  0.0000  0.0152  0.0000  0.0000  0.0000  0.0000  0.0000 </r>
        <r>  0.0000  0.0157  0.0000  0.0157  0.0000  0.0000  0.0000  0.0000  0.0000 </r>
       </set>
       <set comment="band 48">
        <r>  0.0002  0.0006  0.0034  0.0003  0.0000  0.0000  0.0000  0.0000  0.0000 </r>
        <r>  0.0151  0.0000  0.0005  0.0000  0.0036  0.0000  0.0000  0.0000  0.0000 </r>
        <r>  0.0047  0.0037  0.0044  0.0000  0.0017  0.0039  0.0000  0.0000  0.0001 </r>
        <r>  0.0024  0.0001  0.0043  0.0032  0.0016  0.0000  0.0000  0.0041  0.0001 </r>
        <r>  0.0087  0.0012  0.0074  0.0004  0.0010  0.0000  0.0000  0.0004  0.0002 </r>
        <r>  0.0067  0.0007  0.0074  0.0008  0.0010  0.0005  0.0000  0.0000  0.0002 </r>
        <r>  0.0009  0.0000  0.0133  0.0000  0.0002  0.0065  0.0003  0.0061  0.0000 </r>
        <r>  0.0019  0.0008  0.0006  0.0005  0.0000  0.0020  0.0001  0.0022  0.0000 </r>
        <r>  0.0008  0.0110  0.0291  0.0106  0.0000  0.0000  0.0000  0.0000  0.0000 </r>
        <r>  0.0011  0.0113  0.0054  0.0103  0.0000  0.0000  0.0000  0.0000  0.0000 </r>
        <r>  0.0002  0.0017  0.0295  0.0086  0.0000  0.0000  0.0000  0.0000  0.0000 </r>
        <r>  0.0001  0.0077  0.0312  0.0011  0.0000  0.0000  0.0000  0.0000  0.0000 </r>
        <r>  0.0001  0.0094  0.0298  0.0011  0.0000  0.0000  0.0000  0.0000  0.0000 </r>
        <r>  0.0001  0.0014  0.0306  0.0089  0.0000  0.0000  0.0000  0.0000  0.0000 </r>
        <r>  0.0009  0.0100  0.0049  0.0106  0.0000  0.0000  0.0000  0.0000  0.0000 </r>
        <r>  0.0008  0.0126  0.0302  0.0111  0.0000  0.0000  0.0000  0.0000  0.0000 </r>
       </set>
       <set comment="band 49">
        <r>  0.0000  0.0033  0.0000  0.0034  0.0000  0.0000  0.0000  0.0000  0.0000 </r>
        <r>  0.0000  0.0026  0.0000  0.0026  0.0000  0.0052  0.0000  0.0054  0.0000 </r>
        <r>  0.0481  0.0050  0.0005  0.0042  0.0004  0.0000  0.0001  0.0000  0.0000 </r>
        <r>  0.0499  0.0041  0.0003  0.0057  0.0004  0.0000  0.0001  0.0000  0.0000 </r>
        <r>  0.0219  0.0103  0.0004  0.0098  0.0001  0.0010  0.0009  0.0006  0.0000 </r>
        <r>  0.0237  0.0095  0.0005  0.0103  0.0002  0.0006  0.0009  0.0010  0.0000 </r>
        <r>  0.0000  0.0022  0.0000  0.0022  0.0000  0.0008  0.0000  0.0011  0.0001 </r>
        <r>  0.0000  0.0051  0.0000  0.0055  0.0000  0.0009  0.0000  0.0008  0.0000 </r>
        <r>  0.0000  0.0101  0.0001  0.0111  0.0000  0.0000  0.0000  0.0000  0.0000 </r>
        <r>  0.0000  0.0115  0.0000  0.0125  0.0000  0.0000  0.0000  0.0000  0.0000 </r>
        <r>  0.0004  0.0089  0.0082  0.0074  0.0000  0.0000  0.0000  0.0000  0.0000 </r>
        <r>  0.0004  0.0089  0.0082  0.0097  0.0000  0.0000  0.0000  0.0000  0.0000 </r>
        <r>  0.0005  0.0079  0.0108  0.0093  0.0000  0.0000  0.0000  0.0000  0.0000 </r>
        <r>  0.0005  0.0092  0.0089  0.0084  0.0000  0.0000  0.0000  0.0000  0.0000 </r>
        <r>  0.0000  0.0110  0.0000  0.0110  0.0000  0.0000  0.0000  0.0000  0.0000 </r>
        <r>  0.0000  0.0090  0.0001  0.0103  0.0000  0.0000  0.0000  0.0000  0.0000 </r>
       </set>
       <set comment="band 50">
        <r>  0.0048  0.0196  0.0039  0.0192  0.0000  0.0000  0.0000  0.0000  0.0000 </r>
        <r>  0.0574  0.0002  0.0017  0.0002  0.0008  0.0002  0.0002  0.0002  0.0000 </r>
        <r>  0.0318  0.0002  0.0002  0.0103  0.0000  0.0028  0.0000  0.0003  0.0001 </r>
        <r>  0.0332  0.0103  0.0002  0.0002  0.0000  0.0003  0.0000  0.0029  0.0001 </r>
        <r>  0.0101  0.0023  0.0060  0.0014  0.0006  0.0046  0.0004  0.0000  0.0001 </r>
        <r>  0.0100  0.0014  0.0060  0.0023  0.0006  0.0000  0.0004  0.0046  0.0001 </r>
        <r>  0.0049  0.0047  0.0064  0.0047  0.0005  0.0000  0.0008  0.0000  0.0000 </r>
        <r>  0.0352  0.0000  0.0154  0.0000  0.0000  0.0002  0.0000  0.0002  0.0000 </r>
        <r>  0.0001  0.0066  0.0084  0.0065  0.0000  0.0000  0.0000  0.0000  0.0000 </r>
        <r>  0.0022  0.0051  0.0107  0.0049  0.0000  0.0000  0.0000  0.0000  0.0000 </r>
        <r>  0.0003  0.0085  0.0009  0.0034  0.0000  0.0000  0.0000  0.0000  0.0000 </r>
        <r>  0.0003  0.0035  0.0011  0.0084  0.0000  0.0000  0.0000  0.0000  0.0000 </r>
        <r>  0.0003  0.0034  0.0009  0.0081  0.0000  0.0000  0.0000  0.0000  0.0000 </r>
        <r>  0.0003  0.0081  0.0009  0.0036  0.0000  0.0000  0.0000  0.0000  0.0000 </r>
        <r>  0.0023  0.0049  0.0115  0.0045  0.0000  0.0000  0.0000  0.0000  0.0000 </r>
        <r>  0.0001  0.0067  0.0082  0.0072  0.0000  0.0000  0.0000  0.0000  0.0000 </r>
       </set>
       <set comment="band 51">
        <r>  0.0044  0.0022  0.0002  0.0020  0.0000  0.0000  0.0000  0.0000  0.0000 </r>
        <r>  0.0062  0.0002  0.0052  0.0002  0.0070  0.0056  0.0001  0.0052  0.0000 </r>
        <r>  0.0005  0.0021  0.0012  0.0001  0.0127  0.0068  0.0000  0.0008  0.0002 </r>
        <r>  0.0006  0.0001  0.0011  0.0019  0.0128  0.0008  0.0000  0.0066  0.0002 </r>
        <r>  0.0000  0.0042  0.0044  0.0002  0.0097  0.0000  0.0000  0.0019  0.0000 </r>
        <r>  0.0000  0.0001  0.0045  0.0044  0.0097  0.0019  0.0000  0.0000  0.0000 </r>
        <r>  0.0003  0.0013  0.0013  0.0014  0.0082  0.0021  0.0002  0.0022  0.0000 </r>
        <r>  0.0026  0.0006  0.0003  0.0005  0.0052  0.0001  0.0000  0.0001  0.0000 </r>
        <r>  0.0014  0.0011  0.0117  0.0008  0.0000  0.0000  0.0000  0.0000  0.0000 </r>
        <r>  0.0002  0.0047  0.0003  0.0053  0.0000  0.0000  0.0000  0.0000  0.0000 </r>
        <r>  0.0000  0.0023  0.0088  0.0090  0.0000  0.0000  0.0000  0.0000  0.0000 </r>
        <r>  0.0000  0.0086  0.0090  0.0021  0.0000  0.0000  0.0000  0.0000  0.0000 </r>
        <r>  0.0000  0.0089  0.0093  0.0020  0.0000  0.0000  0.0000  0.0000  0.0000 </r>
        <r>  0.0000  0.0021  0.0088  0.0087  0.0000  0.0000  0.0000  0.0000  0.0000 </r>
        <r>  0.0003  0.0051  0.0002  0.0052  0.0000  0.0000  0.0000  0.0000  0.0000 </r>
        <r>  0.0014  0.0009  0.0112  0.0008  0.0000  0.0000  0.0000  0.0000  0.0000 </r>
       </set>
       <set comment="band 52">
        <r>  0.0001  0.0399  0.0001  0.0380  0.0000  0.0000  0.0000  0.0000  0.0000 </r>
        <r>  0.0004  0.0030  0.0001  0.0025  0.0000  0.0003  0.0000  0.0003  0.0000 </r>
        <r>  0.0443  0.0046  0.0028  0.0038  0.0000  0.0001  0.0013  0.0004  0.0000 </r>
        <r>  0.0412  0.0043  0.0029  0.0038  0.0000  0.0004  0.0013  0.0001  0.0000 </r>
        <r>  0.0724  0.0014  0.0038  0.0013  0.0001  0.0000  0.0006  0.0004  0.0000 </r>
        <r>  0.0739  0.0017  0.0043  0.0011  0.0001  0.0004  0.0006  0.0000  0.0000 </r>
        <r>  0.0011  0.0087  0.0000  0.0077  0.0000  0.0013  0.0000  0.0012  0.0000 </r>
        <r>  0.0001  0.0106  0.0000  0.0104  0.0000  0.0006  0.0000  0.0006  0.0002 </r>
        <r>  0.0000  0.0068  0.0000  0.0070  0.0000  0.0000  0.0000  0.0000  0.0000 </r>
        <r>  0.0000  0.0028  0.0000  0.0044  0.0000  0.0000  0.0000  0.0000  0.0000 </r>
        <r>  0.0002  0.0091  0.0003  0.0032  0.0000  0.0000  0.0000  0.0000  0.0000 </r>
        <r>  0.0003  0.0035  0.0007  0.0083  0.0000  0.0000  0.0000  0.0000  0.0000 </r>
        <r>  0.0003  0.0028  0.0004  0.0088  0.0000  0.0000  0.0000  0.0000  0.0000 </r>
        <r>  0.0003  0.0085  0.0006  0.0040  0.0000  0.0000  0.0000  0.0000  0.0000 </r>
        <r>  0.0000  0.0038  0.0000  0.0035  0.0000  0.0000  0.0000  0.0000  0.0000 </r>
        <r>  0.0000  0.0068  0.0000  0.0070  0.0000  0.0000  0.0000  0.0000  0.0000 </r>
       </set>
      </set>
     </set>
    </set>
   </array>
  </projected>
 </calculation>
 <structure name="finalpos" >
  <crystal>
   <varray name="basis" >
    <v>       0.00000000       4.24689300       4.24689300 </v>
    <v>       4.24689300       0.00000000       4.24689300 </v>
    <v>       4.24689300       4.24689300       0.00000000 </v>
   </varray>
   <i name="volume">    153.19477498 </i>
   <varray name="rec_basis" >
    <v>      -0.11773313       0.11773313       0.11773313 </v>
    <v>       0.11773313      -0.11773313       0.11773313 </v>
    <v>       0.11773313       0.11773313      -0.11773313 </v>
   </varray>
  </crystal>
  <varray name="positions" >
   <v>       0.99630430       0.00574028       0.00109000 </v>
   <v>       0.99571170       0.00630341       0.50074532 </v>
   <v>       0.99590900       0.50595442       0.00093110 </v>
   <v>       0.99608541       0.50610137       0.50056745 </v>
   <v>       0.49615417       0.00606568       0.00054377 </v>
   <v>       0.49624707       0.00622806       0.50063363 </v>
   <v>       0.49621671       0.50579818       0.00079528 </v>
   <v>       0.49587705       0.50680268       0.50079362 </v>
   <v>       0.24584259       0.25610213       0.25091443 </v>
   <v>       0.23113424       0.24126278       0.76537949 </v>
   <v>       0.23163440       0.77003504       0.23648686 </v>
   <v>       0.23171566       0.77038988       0.76511402 </v>
   <v>       0.76103926       0.24104286       0.23577588 </v>
   <v>       0.76044404       0.24146946       0.76500953 </v>
   <v>       0.76027354       0.76989260       0.23681663 </v>
   <v>       0.74611488       0.75575918       0.75081801 </v>
  </varray>
 </structure>
</modeling>
