<?xml version="1.0" encoding="ISO-8859-1"?>
<modeling>
 <generator>
  <i name="program" type="string">vasp </i>
  <i name="version" type="string">5.4.1  </i>
  <i name="subversion" type="string">05Feb16 (build Mar 31 2016 13:39:20) complex                          parallel </i>
  <i name="platform" type="string">IFC91_ompi </i>
  <i name="date" type="string">2018 04 28 </i>
  <i name="time" type="string">12:46:59 </i>
 </generator>
 <incar>
  <i type="string" name="PREC">n</i>
  <i type="string" name="ALGO"> N</i>
  <i type="int" name="ISPIN">     2</i>
  <i type="int" name="NELM">   100</i>
  <i type="int" name="NELMIN">     4</i>
  <i type="int" name="IBRION">     2</i>
  <i name="EDIFF">      0.00000100</i>
  <i name="EDIFFG">     -0.05000000</i>
  <i type="int" name="NSW">    20</i>
  <i type="int" name="ISIF">     2</i>
  <i name="ENCUT">    400.00000000</i>
  <i name="NELECT">     65.00000000</i>
  <i type="string" name="LREAL"> A</i>
  <i type="int" name="ISMEAR">     0</i>
  <i name="SIGMA">      0.05000000</i>
  <i type="logical" name="LWAVE"> F  </i>
  <i type="logical" name="LCHARG"> F  </i>
  <i type="logical" name="LORBIT"> F  </i>
  <i type="logical" name="LASPH"> T  </i>
  <v type="int" name="KPOINT_BSE">    -1     0     0     0</v>
  <i type="int" name="NELM">   100</i>
  <i type="logical" name="LASPH"> T  </i>
 </incar>
 <kpoints>
  <generation param="Gamma">
   <v type="int" name="divisions">       2        2        2 </v>
   <v name="usershift">      0.00000000       0.00000000       0.00000000 </v>
   <v name="genvec1">      0.50000000       0.00000000       0.00000000 </v>
   <v name="genvec2">      0.00000000       0.50000000       0.00000000 </v>
   <v name="genvec3">      0.00000000       0.00000000       0.50000000 </v>
   <v name="shift">      0.00000000       0.00000000       0.00000000 </v>
  </generation>
  <varray name="kpointlist" >
   <v>       0.00000000       0.00000000       0.00000000 </v>
   <v>       0.50000000       0.00000000       0.00000000 </v>
   <v>       0.00000000       0.50000000       0.00000000 </v>
   <v>       0.50000000       0.50000000       0.00000000 </v>
   <v>       0.00000000       0.00000000       0.50000000 </v>
   <v>       0.50000000       0.00000000       0.50000000 </v>
   <v>       0.00000000       0.50000000       0.50000000 </v>
   <v>       0.50000000       0.50000000       0.50000000 </v>
  </varray>
  <varray name="weights" >
   <v>       0.12500000 </v>
   <v>       0.12500000 </v>
   <v>       0.12500000 </v>
   <v>       0.12500000 </v>
   <v>       0.12500000 </v>
   <v>       0.12500000 </v>
   <v>       0.12500000 </v>
   <v>       0.12500000 </v>
  </varray>
 </kpoints>
 <parameters>
  <separator name="general" >
   <i type="string" name="SYSTEM">unknown system</i>
   <i type="logical" name="LCOMPAT"> F  </i>
  </separator>
  <separator name="electronic" >
   <i type="string" name="PREC">n</i>
   <i name="ENMAX">    400.00000000</i>
   <i name="ENAUG">    605.39200000</i>
   <i name="EDIFF">      0.00000100</i>
   <i type="int" name="IALGO">    38</i>
   <i type="int" name="IWAVPR">    11</i>
   <i type="int" name="NBANDS">    52</i>
   <i name="NELECT">     65.00000000</i>
   <i type="int" name="TURBO">     0</i>
   <i type="int" name="IRESTART">     0</i>
   <i type="int" name="NREBOOT">     0</i>
   <i type="int" name="NMIN">     0</i>
   <i name="EREF">      0.00000000</i>
   <separator name="electronic smearing" >
    <i type="int" name="ISMEAR">     0</i>
    <i name="SIGMA">      0.05000000</i>
    <i name="KSPACING">      0.50000000</i>
    <i type="logical" name="KGAMMA"> T  </i>
   </separator>
   <separator name="electronic projectors" >
    <i type="logical" name="LREAL"> T  </i>
    <v name="ROPT">     -0.00050000     -0.00050000     -0.00050000</v>
    <i type="int" name="LMAXPAW">  -100</i>
    <i type="int" name="LMAXMIX">     2</i>
    <i type="logical" name="NLSPLINE"> F  </i>
   </separator>
   <separator name="electronic startup" >
    <i type="int" name="ISTART">     0</i>
    <i type="int" name="ICHARG">     2</i>
    <i type="int" name="INIWAV">     1</i>
   </separator>
   <separator name="electronic spin" >
    <i type="int" name="ISPIN">     2</i>
    <i type="logical" name="LNONCOLLINEAR"> F  </i>
    <v name="MAGMOM">      1.00000000      1.00000000      1.00000000      1.00000000      1.00000000      1.00000000      1.00000000      1.00000000      1.00000000      1.00000000      1.00000000      1.00000000      1.00000000      1.00000000      1.00000000      1.00000000</v>
    <i name="NUPDOWN">     -1.00000000</i>
    <i type="logical" name="LSORBIT"> F  </i>
    <v name="SAXIS">      0.00000000      0.00000000      1.00000000</v>
    <i type="logical" name="LSPIRAL"> F  </i>
    <v name="QSPIRAL">      0.00000000      0.00000000      0.00000000</v>
    <i type="logical" name="LZEROZ"> F  </i>
   </separator>
   <separator name="electronic exchange-correlation" >
    <i type="logical" name="LASPH"> T  </i>
    <i type="logical" name="LMETAGGA"> F  </i>
   </separator>
   <separator name="electronic convergence" >
    <i type="int" name="NELM">   100</i>
    <i type="int" name="NELMDL">     0</i>
    <i type="int" name="NELMIN">     4</i>
    <i name="ENINI">    400.00000000</i>
    <separator name="electronic convergence detail" >
     <i type="logical" name="LDIAG"> T  </i>
     <i type="logical" name="LSUBROT"> F  </i>
     <i name="WEIMIN">      0.00100000</i>
     <i name="EBREAK">      0.00000000</i>
     <i name="DEPER">      0.30000000</i>
     <i type="int" name="NRMM">     4</i>
     <i name="TIME">      0.40000000</i>
    </separator>
   </separator>
   <separator name="electronic mixer" >
    <i name="AMIX">      0.40000000</i>
    <i name="BMIX">      1.00000000</i>
    <i name="AMIN">      0.10000000</i>
    <i name="AMIX_MAG">      1.60000000</i>
    <i name="BMIX_MAG">      1.00000000</i>
    <separator name="electronic mixer details" >
     <i type="int" name="IMIX">     4</i>
     <i type="logical" name="MIXFIRST"> F  </i>
     <i type="int" name="MAXMIX">   -45</i>
     <i name="WC">    100.00000000</i>
     <i type="int" name="INIMIX">     1</i>
     <i type="int" name="MIXPRE">     1</i>
     <i type="int" name="MREMOVE">     5</i>
    </separator>
   </separator>
   <separator name="electronic dipolcorrection" >
    <i type="logical" name="LDIPOL"> F  </i>
    <i type="logical" name="LMONO"> F  </i>
    <i type="int" name="IDIPOL">     0</i>
    <i name="EPSILON">      1.00000000</i>
    <v name="DIPOL">   -100.00000000   -100.00000000   -100.00000000</v>
    <i name="EFIELD">      0.00000000</i>
   </separator>
  </separator>
  <separator name="grids" >
   <i type="int" name="NGX">    30</i>
   <i type="int" name="NGY">    30</i>
   <i type="int" name="NGZ">    30</i>
   <i type="int" name="NGXF">    60</i>
   <i type="int" name="NGYF">    60</i>
   <i type="int" name="NGZF">    60</i>
   <i type="logical" name="ADDGRID"> F  </i>
  </separator>
  <separator name="ionic" >
   <i type="int" name="NSW">    20</i>
   <i type="int" name="IBRION">     2</i>
   <i type="int" name="ISIF">     2</i>
   <i name="PSTRESS">      0.00000000</i>
   <i name="EDIFFG">     -0.05000000</i>
   <i type="int" name="NFREE">     1</i>
   <i name="POTIM">      0.50000000</i>
   <i name="SMASS">     -3.00000000</i>
   <i name="SCALEE">      1.00000000</i>
  </separator>
  <separator name="ionic md" >
   <i name="TEBEG">      0.00010000</i>
   <i name="TEEND">      0.00010000</i>
   <i type="int" name="NBLOCK">     1</i>
   <i type="int" name="KBLOCK">    20</i>
   <i type="int" name="NPACO">   256</i>
   <i name="APACO">     16.00000000</i>
  </separator>
  <separator name="symmetry" >
   <i type="int" name="ISYM">     2</i>
   <i name="SYMPREC">      0.00001000</i>
  </separator>
  <separator name="dos" >
   <i type="logical" name="LORBIT"> F  </i>
   <v name="RWIGS">     -1.00000000     -1.00000000     -1.00000000</v>
   <i type="int" name="NEDOS">   301</i>
   <i name="EMIN">     10.00000000</i>
   <i name="EMAX">    -10.00000000</i>
   <i name="EFERMI">      0.00000000</i>
  </separator>
  <separator name="writing" >
   <i type="int" name="NWRITE">     2</i>
   <i type="logical" name="LWAVE"> F  </i>
   <i type="logical" name="LCHARG"> F  </i>
   <i type="logical" name="LPARD"> F  </i>
   <i type="logical" name="LVTOT"> F  </i>
   <i type="logical" name="LVHAR"> F  </i>
   <i type="logical" name="LELF"> F  </i>
   <i type="logical" name="LOPTICS"> F  </i>
   <v name="STM">      0.00000000      0.00000000      0.00000000      0.00000000      0.00000000      0.00000000      0.00000000</v>
  </separator>
  <separator name="performance" >
   <i type="int" name="NPAR">     4</i>
   <i type="int" name="NSIM">     4</i>
   <i type="int" name="NBLK">    -1</i>
   <i type="logical" name="LPLANE"> T  </i>
   <i type="logical" name="LSCALAPACK"> T  </i>
   <i type="logical" name="LSCAAWARE"> F  </i>
   <i type="logical" name="LSCALU"> F  </i>
   <i type="logical" name="LASYNC"> F  </i>
   <i type="logical" name="LORBITALREAL"> F  </i>
  </separator>
  <separator name="miscellaneous" >
   <i type="int" name="IDIOT">     3</i>
   <i type="logical" name="LMUSIC"> F  </i>
   <v name="POMASS">     26.98100000     24.30500000     16.00000000</v>
   <v name="DARWINR">      0.00000000      0.00000000      0.00000000</v>
   <v name="DARWINV">      1.00000000      1.00000000      1.00000000</v>
   <i type="logical" name="LCORR"> T  </i>
  </separator>
  <i type="logical" name="GGA_COMPAT"> T  </i>
  <i type="logical" name="LBERRY"> F  </i>
  <i type="int" name="ICORELEVEL">     0</i>
  <i type="logical" name="LDAU"> F  </i>
  <i type="int" name="I_CONSTRAINED_M">     0</i>
  <separator name="electronic exchange-correlation" >
   <i type="string" name="GGA">--</i>
   <i type="int" name="VOSKOWN">     0</i>
   <i type="logical" name="LHFCALC"> F  </i>
   <i type="string" name="PRECFOCK"></i>
   <i type="logical" name="LSYMGRAD"> F  </i>
   <i type="logical" name="LHFONE"> F  </i>
   <i type="logical" name="LRHFCALC"> F  </i>
   <i type="logical" name="LTHOMAS"> F  </i>
   <i type="logical" name="LMODELHF"> F  </i>
   <i name="ENCUT4O">     -1.00000000</i>
   <i type="int" name="EXXOEP">     0</i>
   <i type="int" name="FOURORBIT">     0</i>
   <i name="AEXX">      0.00000000</i>
   <i name="HFALPHA">      0.00000000</i>
   <i name="MCALPHA">      0.00000000</i>
   <i name="ALDAX">      1.00000000</i>
   <i name="AGGAX">      1.00000000</i>
   <i name="ALDAC">      1.00000000</i>
   <i name="AGGAC">      1.00000000</i>
   <i type="int" name="NKREDX">     1</i>
   <i type="int" name="NKREDY">     1</i>
   <i type="int" name="NKREDZ">     1</i>
   <i type="logical" name="SHIFTRED"> F  </i>
   <i type="logical" name="ODDONLY"> F  </i>
   <i type="logical" name="EVENONLY"> F  </i>
   <i type="int" name="LMAXFOCK">     0</i>
   <i type="int" name="NMAXFOCKAE">     0</i>
   <i type="logical" name="LFOCKAEDFT"> F  </i>
   <i name="HFSCREEN">      0.00000000</i>
   <i name="HFSCREENC">      0.00000000</i>
   <i type="int" name="NBANDSGWLOW">     0</i>
  </separator>
  <separator name="vdW DFT" >
   <i type="logical" name="LUSE_VDW"> F  </i>
   <i name="Zab_VDW">     -0.84910000</i>
   <i name="PARAM1">      0.12340000</i>
   <i name="PARAM2">      1.00000000</i>
   <i name="PARAM3">      0.00000000</i>
  </separator>
  <separator name="model GW" >
   <i type="int" name="MODEL_GW">     0</i>
   <i name="MODEL_EPS0">      5.74480406</i>
   <i name="MODEL_ALPHA">      1.00000000</i>
  </separator>
  <separator name="linear response parameters" >
   <i type="logical" name="LEPSILON"> F  </i>
   <i type="logical" name="LRPA"> F  </i>
   <i type="logical" name="LNABLA"> F  </i>
   <i type="logical" name="LVEL"> F  </i>
   <i type="int" name="KINTER">     0</i>
   <i name="CSHIFT">      0.10000000</i>
   <i name="OMEGAMAX">     -1.00000000</i>
   <i name="DEG_THRESHOLD">      0.00200000</i>
  </separator>
  <separator name="orbital magnetization" >
   <i type="logical" name="NUCIND"> F  </i>
   <v name="MAGPOS">      0.00000000      0.00000000      0.00000000</v>
   <i type="logical" name="LNICSALL"> T  </i>
   <i type="logical" name="ORBITALMAG"> F  </i>
   <i type="logical" name="LMAGBLOCH"> F  </i>
   <i type="logical" name="LCHIMAG"> F  </i>
   <i type="logical" name="LGAUGE"> T  </i>
   <i type="int" name="MAGATOM">     0</i>
   <v name="MAGDIPOL">      0.00000000      0.00000000      0.00000000</v>
   <v name="AVECCONST">      0.00000000      0.00000000      0.00000000</v>
  </separator>
  <separator name="response functions" >
   <i type="logical" name="LADDER"> F  </i>
   <i type="logical" name="LFXC"> F  </i>
   <i type="logical" name="LHARTREE"> T  </i>
   <i type="int" name="IBSE">     0</i>
   <v type="int" name="KPOINT">    -1     0     0     0</v>
   <i type="logical" name="LTCTE"> F  </i>
   <i type="logical" name="LTETE"> F  </i>
   <i type="logical" name="LTRIPLET"> F  </i>
   <i type="logical" name="LFXCEPS"> F  </i>
   <i type="logical" name="LFXHEG"> F  </i>
   <i type="int" name="NATURALO">     0</i>
   <i type="logical" name="L2ORDER"> F  </i>
   <i type="logical" name="LUSEW"> F  </i>
   <i name="ENCUTGW">     -2.00000000</i>
   <i name="ENCUTGWSOFT">     -2.00000000</i>
   <i name="ENCUTLF">     -1.00000000</i>
   <i type="int" name="LMAXMP2">    -1</i>
   <i name="SCISSOR">      0.00000000</i>
   <i type="int" name="NOMEGA">     0</i>
   <i type="int" name="NOMEGAR">     0</i>
   <i type="int" name="NBANDSGW">    -1</i>
   <i type="int" name="NBANDSO">    -1</i>
   <i type="int" name="NBANDSV">    -1</i>
   <i type="int" name="NELM">   100</i>
   <i type="int" name="NELMHF">     1</i>
   <i type="int" name="DIM">     3</i>
   <i type="int" name="ANTIRES">     0</i>
   <i name="OMEGAMAX">    -30.00000000</i>
   <i name="OMEGAMIN">    -30.00000000</i>
   <i name="OMEGATL">   -200.00000000</i>
   <i type="int" name="OMEGAGRID">     0</i>
   <i name="CSHIFT">     -0.10000000</i>
   <i type="logical" name="SELFENERGY"> F  </i>
   <i type="logical" name="LSPECTRAL"> F  </i>
   <i type="logical" name="LSPECTRALGW"> F  </i>
   <i type="logical" name="LSINGLES"> F  </i>
   <i type="logical" name="LFERMIGW"> F  </i>
   <i type="logical" name="ODDONLYGW"> F  </i>
   <i type="logical" name="EVENONLYGW"> F  </i>
   <i type="int" name="NKREDLFX">     1</i>
   <i type="int" name="NKREDLFY">     1</i>
   <i type="int" name="NKREDLFZ">     1</i>
   <i type="int" name="MAXMEM">  1800</i>
   <i type="int" name="TELESCOPE">     0</i>
   <i type="int" name="TAUPAR">     1</i>
   <i type="int" name="OMEGAPAR">    -1</i>
   <i name="LAMBDA">      1.00000000</i>
  </separator>
  <separator name="External order field" >
   <i name="OFIELD_KAPPA">      0.00000000</i>
   <v name="OFIELD_K">      0.00000000      0.00000000      0.00000000</v>
   <i name="OFIELD_Q6_NEAR">      0.00000000</i>
   <i name="OFIELD_Q6_FAR">      0.00000000</i>
   <i name="OFIELD_A">      0.00000000</i>
  </separator>
 </parameters>
 <atominfo>
  <atoms>      16 </atoms>
  <types>       3 </types>
  <array name="atoms" >
   <dimension dim="1">ion</dimension>
   <field type="string">element</field>
   <field type="int">atomtype</field>
   <set>
    <rc><c>Al</c><c>   1</c></rc>
    <rc><c>Mg</c><c>   2</c></rc>
    <rc><c>Mg</c><c>   2</c></rc>
    <rc><c>Mg</c><c>   2</c></rc>
    <rc><c>Mg</c><c>   2</c></rc>
    <rc><c>Mg</c><c>   2</c></rc>
    <rc><c>Mg</c><c>   2</c></rc>
    <rc><c>Mg</c><c>   2</c></rc>
    <rc><c>O </c><c>   3</c></rc>
    <rc><c>O </c><c>   3</c></rc>
    <rc><c>O </c><c>   3</c></rc>
    <rc><c>O </c><c>   3</c></rc>
    <rc><c>O </c><c>   3</c></rc>
    <rc><c>O </c><c>   3</c></rc>
    <rc><c>O </c><c>   3</c></rc>
    <rc><c>O </c><c>   3</c></rc>
   </set>
  </array>
  <array name="atomtypes" >
   <dimension dim="1">type</dimension>
   <field type="int">atomspertype</field>
   <field type="string">element</field>
   <field>mass</field>
   <field>valence</field>
   <field type="string">pseudopotential</field>
   <set>
    <rc><c>   1</c><c>Al</c><c>     26.98100000</c><c>      3.00000000</c><c>  PAW_PBE Al 04Jan2001                  </c></rc>
    <rc><c>   7</c><c>Mg</c><c>     24.30500000</c><c>      2.00000000</c><c>  PAW_PBE Mg 13Apr2007                  </c></rc>
    <rc><c>   8</c><c>O </c><c>     16.00000000</c><c>      6.00000000</c><c>  PAW_PBE O 08Apr2002                   </c></rc>
   </set>
  </array>
 </atominfo>
 <structure name="initialpos" >
  <crystal>
   <varray name="basis" >
    <v>       0.00000000       4.24689300       4.24689300 </v>
    <v>       4.24689300       0.00000000       4.24689300 </v>
    <v>       4.24689300       4.24689300       0.00000000 </v>
   </varray>
   <i name="volume">    153.19477498 </i>
   <varray name="rec_basis" >
    <v>      -0.11773313       0.11773313       0.11773313 </v>
    <v>       0.11773313      -0.11773313       0.11773313 </v>
    <v>       0.11773313       0.11773313      -0.11773313 </v>
   </varray>
  </crystal>
  <varray name="positions" >
   <v>       0.99400462       0.00676854       0.99960542 </v>
   <v>       0.99653856       0.00544546       0.50001652 </v>
   <v>       0.99611424       0.50615285       0.00034874 </v>
   <v>       0.99699057       0.50603290       0.50029595 </v>
   <v>       0.49435508       0.00540446       0.00148660 </v>
   <v>       0.49551553       0.00696373       0.50081894 </v>
   <v>       0.49580073       0.50602891       0.00101236 </v>
   <v>       0.49639732       0.50568559       0.50140098 </v>
   <v>       0.24553624       0.25671138       0.25030868 </v>
   <v>       0.24064501       0.25174049       0.75500709 </v>
   <v>       0.24186621       0.75982639       0.24743277 </v>
   <v>       0.24053186       0.76088128       0.75648928 </v>
   <v>       0.75193772       0.24953857       0.24458265 </v>
   <v>       0.75291266       0.24925374       0.75789167 </v>
   <v>       0.75232961       0.76162005       0.24514876 </v>
   <v>       0.74522805       0.75689363       0.75056861 </v>
  </varray>
 </structure>
 <calculation>
  <scstep>
   <time name="dav">    0.56    0.57</time>
   <time name="total">    1.26    1.27</time>
   <energy>
    <i name="alphaZ">    144.97063842 </i>
    <i name="ewald">  -2892.49469061 </i>
    <i name="hartreedc">   -982.20688026 </i>
    <i name="XCdc">   -138.42606070 </i>
    <i name="pawpsdc">   3293.59363178 </i>
    <i name="pawaedc">  -2912.95377936 </i>
    <i name="eentropy">     -0.00288919 </i>
    <i name="bandstr">     76.47249069 </i>
    <i name="atom">   3672.90113687 </i>
    <i name="e_fr_energy">    261.85359763 </i>
    <i name="e_wo_entrp">    261.85648683 </i>
    <i name="e_0_energy">    261.85504223 </i>
   </energy>
  </scstep>
  <scstep>
   <time name="dav">    0.65    0.65</time>
   <time name="total">    0.65    0.65</time>
   <energy>
    <i name="e_fr_energy">    -82.24334525 </i>
    <i name="e_wo_entrp">    -82.24149114 </i>
    <i name="e_0_energy">    -82.24241820 </i>
   </energy>
  </scstep>
  <scstep>
   <time name="dav">    0.64    0.64</time>
   <time name="total">    0.64    0.65</time>
   <energy>
    <i name="e_fr_energy">   -100.46488979 </i>
    <i name="e_wo_entrp">   -100.45843298 </i>
    <i name="e_0_energy">   -100.46166139 </i>
   </energy>
  </scstep>
  <scstep>
   <time name="dav">    0.61    0.61</time>
   <time name="total">    0.61    0.61</time>
   <energy>
    <i name="e_fr_energy">   -100.59183082 </i>
    <i name="e_wo_entrp">   -100.58478599 </i>
    <i name="e_0_energy">   -100.58830841 </i>
   </energy>
  </scstep>
  <scstep>
   <time name="dav">    0.62    0.62</time>
   <time name="total">    0.64    0.64</time>
   <energy>
    <i name="e_fr_energy">   -100.59284011 </i>
    <i name="e_wo_entrp">   -100.58579466 </i>
    <i name="e_0_energy">   -100.58931738 </i>
   </energy>
  </scstep>
  <scstep>
   <time name="dav">    0.60    0.60</time>
   <time name="total">    1.32    1.32</time>
   <energy>
    <i name="e_fr_energy">    -94.27097432 </i>
    <i name="e_wo_entrp">    -94.25975295 </i>
    <i name="e_0_energy">    -94.26536363 </i>
   </energy>
  </scstep>
  <scstep>
   <time name="dav">    0.55    0.55</time>
   <time name="total">    1.28    1.28</time>
   <energy>
    <i name="e_fr_energy">    -94.45937370 </i>
    <i name="e_wo_entrp">    -94.45226519 </i>
    <i name="e_0_energy">    -94.45581944 </i>
   </energy>
  </scstep>
  <scstep>
   <time name="dav">    0.61    0.61</time>
   <time name="total">    1.33    1.34</time>
   <energy>
    <i name="e_fr_energy">    -94.38327399 </i>
    <i name="e_wo_entrp">    -94.37210105 </i>
    <i name="e_0_energy">    -94.37768752 </i>
   </energy>
  </scstep>
  <scstep>
   <time name="dav">    0.62    0.63</time>
   <time name="total">    1.35    1.35</time>
   <energy>
    <i name="e_fr_energy">    -94.37950264 </i>
    <i name="e_wo_entrp">    -94.36930471 </i>
    <i name="e_0_energy">    -94.37440368 </i>
   </energy>
  </scstep>
  <scstep>
   <time name="dav">    0.62    0.62</time>
   <time name="total">    1.34    1.34</time>
   <energy>
    <i name="e_fr_energy">    -94.37874184 </i>
    <i name="e_wo_entrp">    -94.36909098 </i>
    <i name="e_0_energy">    -94.37391641 </i>
   </energy>
  </scstep>
  <scstep>
   <time name="dav">    0.63    0.64</time>
   <time name="total">    1.35    1.36</time>
   <energy>
    <i name="e_fr_energy">    -94.37936237 </i>
    <i name="e_wo_entrp">    -94.37077250 </i>
    <i name="e_0_energy">    -94.37506744 </i>
   </energy>
  </scstep>
  <scstep>
   <time name="dav">    0.64    0.64</time>
   <time name="total">    1.36    1.37</time>
   <energy>
    <i name="e_fr_energy">    -94.37973861 </i>
    <i name="e_wo_entrp">    -94.37209051 </i>
    <i name="e_0_energy">    -94.37591456 </i>
   </energy>
  </scstep>
  <scstep>
   <time name="dav">    0.64    0.64</time>
   <time name="total">    1.36    1.37</time>
   <energy>
    <i name="e_fr_energy">    -94.37976834 </i>
    <i name="e_wo_entrp">    -94.37221946 </i>
    <i name="e_0_energy">    -94.37599390 </i>
   </energy>
  </scstep>
  <scstep>
   <time name="dav">    0.59    0.59</time>
   <time name="total">    1.32    1.32</time>
   <energy>
    <i name="e_fr_energy">    -94.37977322 </i>
    <i name="e_wo_entrp">    -94.37219352 </i>
    <i name="e_0_energy">    -94.37598337 </i>
   </energy>
  </scstep>
  <scstep>
   <time name="dav">    0.47    0.47</time>
   <time name="total">    1.16    1.17</time>
   <energy>
    <i name="alphaZ">    144.97063842 </i>
    <i name="ewald">  -2892.49469061 </i>
    <i name="hartreedc">  -1137.06555066 </i>
    <i name="XCdc">   -129.48167548 </i>
    <i name="pawpsdc">   4528.89630823 </i>
    <i name="pawaedc">  -4149.79145600 </i>
    <i name="eentropy">     -0.00759614 </i>
    <i name="bandstr">   -132.30688854 </i>
    <i name="atom">   3672.90113687 </i>
    <i name="e_fr_energy">    -94.37977392 </i>
    <i name="e_wo_entrp">    -94.37217778 </i>
    <i name="e_0_energy">    -94.37597585 </i>
   </energy>
  </scstep>
  <structure>
   <crystal>
    <varray name="basis" >
     <v>       0.00000000       4.24689300       4.24689300 </v>
     <v>       4.24689300       0.00000000       4.24689300 </v>
     <v>       4.24689300       4.24689300       0.00000000 </v>
    </varray>
    <i name="volume">    153.19477498 </i>
    <varray name="rec_basis" >
     <v>      -0.11773313       0.11773313       0.11773313 </v>
     <v>       0.11773313      -0.11773313       0.11773313 </v>
     <v>       0.11773313       0.11773313      -0.11773313 </v>
    </varray>
   </crystal>
   <varray name="positions" >
    <v>       0.99400462       0.00676854       0.99960542 </v>
    <v>       0.99653856       0.00544546       0.50001652 </v>
    <v>       0.99611424       0.50615285       0.00034874 </v>
    <v>       0.99699057       0.50603290       0.50029595 </v>
    <v>       0.49435508       0.00540446       0.00148660 </v>
    <v>       0.49551553       0.00696373       0.50081894 </v>
    <v>       0.49580073       0.50602891       0.00101236 </v>
    <v>       0.49639732       0.50568559       0.50140098 </v>
    <v>       0.24553624       0.25671138       0.25030868 </v>
    <v>       0.24064501       0.25174049       0.75500709 </v>
    <v>       0.24186621       0.75982639       0.24743277 </v>
    <v>       0.24053186       0.76088128       0.75648928 </v>
    <v>       0.75193772       0.24953857       0.24458265 </v>
    <v>       0.75291266       0.24925374       0.75789167 </v>
    <v>       0.75232961       0.76162005       0.24514876 </v>
    <v>       0.74522805       0.75689363       0.75056861 </v>
   </varray>
  </structure>
  <varray name="forces" >
   <v>       0.02042144       0.03308955      -0.00443578 </v>
   <v>       0.00891317       0.00094429      -0.01038903 </v>
   <v>      -0.00217152      -0.00834588      -0.01423892 </v>
   <v>       0.02938452      -0.02314953       0.01132775 </v>
   <v>      -0.00603135       0.01477771       0.02865052 </v>
   <v>      -0.03151790       0.01679289      -0.02650930 </v>
   <v>       0.03500261      -0.01148101       0.01437263 </v>
   <v>      -0.00657205      -0.01770697       0.00941348 </v>
   <v>      -0.01927843       0.02603373      -0.02167711 </v>
   <v>      -0.00442287       0.03293134      -0.01905906 </v>
   <v>      -0.03224448      -0.03356706       0.00670482 </v>
   <v>       0.01365116      -0.00507822       0.03417585 </v>
   <v>       0.02228592       0.00009970       0.02203304 </v>
   <v>      -0.02195188      -0.02929480      -0.01071997 </v>
   <v>       0.00390808      -0.02290729      -0.00730668 </v>
   <v>      -0.00937640       0.02686157      -0.01234224 </v>
  </varray>
  <varray name="stress" >
   <v>      -5.31830392       0.39369757       0.17776224 </v>
   <v>       0.39369756      -4.32157787       0.18891915 </v>
   <v>       0.17776229       0.18891915      -4.58554684 </v>
  </varray>
  <energy>
   <i name="e_fr_energy">    -94.37977392 </i>
   <i name="e_wo_entrp">    -94.37597585 </i>
   <i name="e_0_energy">     -0.00759614 </i>
  </energy>
  <time name="totalsc">   18.98   19.06</time>
  <eigenvalues>
   <array>
    <dimension dim="1">band</dimension>
    <dimension dim="2">kpoint</dimension>
    <dimension dim="3">spin</dimension>
    <field>eigene</field>
    <field>occ</field>
    <set>
     <set comment="spin 1">
      <set comment="kpoint 1">
       <r>  -13.9361    1.0000 </r>
       <r>  -12.7570    1.0000 </r>
       <r>  -12.7564    1.0000 </r>
       <r>  -12.7526    1.0000 </r>
       <r>  -12.4618    1.0000 </r>
       <r>  -12.4579    1.0000 </r>
       <r>  -12.2918    1.0000 </r>
       <r>  -12.1501    1.0000 </r>
       <r>   -2.1286    1.0000 </r>
       <r>   -1.1403    1.0000 </r>
       <r>   -1.1394    1.0000 </r>
       <r>   -1.1390    1.0000 </r>
       <r>   -0.8554    1.0000 </r>
       <r>   -0.8550    1.0000 </r>
       <r>   -0.8549    1.0000 </r>
       <r>    1.8728    1.0000 </r>
       <r>    1.8742    1.0000 </r>
       <r>    1.8775    1.0000 </r>
       <r>    1.9646    1.0000 </r>
       <r>    1.9653    1.0000 </r>
       <r>    1.9657    1.0000 </r>
       <r>    2.3913    1.0000 </r>
       <r>    2.3955    1.0000 </r>
       <r>    2.6594    1.0000 </r>
       <r>    2.6597    1.0000 </r>
       <r>    2.6601    1.0000 </r>
       <r>    2.8611    1.0000 </r>
       <r>    2.8614    1.0000 </r>
       <r>    2.8621    1.0000 </r>
       <r>    3.3265    1.0000 </r>
       <r>    3.3270    1.0000 </r>
       <r>    3.3273    1.0000 </r>
       <r>    7.2566    1.0000 </r>
       <r>   10.5815    0.0000 </r>
       <r>   10.5875    0.0000 </r>
       <r>   10.5880    0.0000 </r>
       <r>   11.1167    0.0000 </r>
       <r>   11.1919    0.0000 </r>
       <r>   12.2612    0.0000 </r>
       <r>   12.2621    0.0000 </r>
       <r>   12.2623    0.0000 </r>
       <r>   13.1355    0.0000 </r>
       <r>   13.1360    0.0000 </r>
       <r>   14.7216    0.0000 </r>
       <r>   15.6899    0.0000 </r>
       <r>   15.6910    0.0000 </r>
       <r>   15.6936    0.0000 </r>
       <r>   15.9065    0.0000 </r>
       <r>   15.9075    0.0000 </r>
       <r>   15.9124    0.0000 </r>
       <r>   17.8991    0.0000 </r>
       <r>   17.9049    0.0000 </r>
      </set>
      <set comment="kpoint 2">
       <r>  -13.4654    1.0000 </r>
       <r>  -13.2792    1.0000 </r>
       <r>  -12.6731    1.0000 </r>
       <r>  -12.6666    1.0000 </r>
       <r>  -12.5713    1.0000 </r>
       <r>  -12.5633    1.0000 </r>
       <r>  -12.2733    1.0000 </r>
       <r>  -12.2449    1.0000 </r>
       <r>   -1.2996    1.0000 </r>
       <r>   -0.8234    1.0000 </r>
       <r>   -0.4054    1.0000 </r>
       <r>   -0.3941    1.0000 </r>
       <r>   -0.3902    1.0000 </r>
       <r>   -0.3791    1.0000 </r>
       <r>    0.4468    1.0000 </r>
       <r>    0.7143    1.0000 </r>
       <r>    1.0904    1.0000 </r>
       <r>    1.0947    1.0000 </r>
       <r>    1.3648    1.0000 </r>
       <r>    1.3711    1.0000 </r>
       <r>    1.6075    1.0000 </r>
       <r>    1.7102    1.0000 </r>
       <r>    2.2051    1.0000 </r>
       <r>    2.2092    1.0000 </r>
       <r>    2.2397    1.0000 </r>
       <r>    2.3051    1.0000 </r>
       <r>    2.3103    1.0000 </r>
       <r>    2.3478    1.0000 </r>
       <r>    2.9888    1.0000 </r>
       <r>    2.9901    1.0000 </r>
       <r>    3.0432    1.0000 </r>
       <r>    3.0435    1.0000 </r>
       <r>    9.5799    0.5247 </r>
       <r>    9.8155    0.0000 </r>
       <r>   12.1016    0.0000 </r>
       <r>   12.4261    0.0000 </r>
       <r>   12.5682    0.0000 </r>
       <r>   12.5759    0.0000 </r>
       <r>   12.6268    0.0000 </r>
       <r>   12.6361    0.0000 </r>
       <r>   13.6663    0.0000 </r>
       <r>   14.3677    0.0000 </r>
       <r>   14.5140    0.0000 </r>
       <r>   14.5176    0.0000 </r>
       <r>   14.7923    0.0000 </r>
       <r>   14.7981    0.0000 </r>
       <r>   15.3879    0.0000 </r>
       <r>   15.4771    0.0000 </r>
       <r>   15.8416    0.0000 </r>
       <r>   15.8736    0.0000 </r>
       <r>   16.1288    0.0000 </r>
       <r>   16.1378    0.0000 </r>
      </set>
      <set comment="kpoint 3">
       <r>  -13.4632    1.0000 </r>
       <r>  -13.2824    1.0000 </r>
       <r>  -12.6718    1.0000 </r>
       <r>  -12.6649    1.0000 </r>
       <r>  -12.5710    1.0000 </r>
       <r>  -12.5656    1.0000 </r>
       <r>  -12.2755    1.0000 </r>
       <r>  -12.2428    1.0000 </r>
       <r>   -1.2948    1.0000 </r>
       <r>   -0.8275    1.0000 </r>
       <r>   -0.4089    1.0000 </r>
       <r>   -0.3971    1.0000 </r>
       <r>   -0.3866    1.0000 </r>
       <r>   -0.3745    1.0000 </r>
       <r>    0.4433    1.0000 </r>
       <r>    0.7144    1.0000 </r>
       <r>    1.0862    1.0000 </r>
       <r>    1.0966    1.0000 </r>
       <r>    1.3651    1.0000 </r>
       <r>    1.3704    1.0000 </r>
       <r>    1.6057    1.0000 </r>
       <r>    1.7125    1.0000 </r>
       <r>    2.2052    1.0000 </r>
       <r>    2.2114    1.0000 </r>
       <r>    2.2417    1.0000 </r>
       <r>    2.3042    1.0000 </r>
       <r>    2.3104    1.0000 </r>
       <r>    2.3465    1.0000 </r>
       <r>    2.9873    1.0000 </r>
       <r>    2.9907    1.0000 </r>
       <r>    3.0427    1.0000 </r>
       <r>    3.0451    1.0000 </r>
       <r>    9.5824    0.4962 </r>
       <r>    9.8165    0.0000 </r>
       <r>   12.1052    0.0000 </r>
       <r>   12.4203    0.0000 </r>
       <r>   12.5675    0.0000 </r>
       <r>   12.5803    0.0000 </r>
       <r>   12.6212    0.0000 </r>
       <r>   12.6370    0.0000 </r>
       <r>   13.6520    0.0000 </r>
       <r>   14.3878    0.0000 </r>
       <r>   14.5220    0.0000 </r>
       <r>   14.5296    0.0000 </r>
       <r>   14.7805    0.0000 </r>
       <r>   14.7880    0.0000 </r>
       <r>   15.3995    0.0000 </r>
       <r>   15.4806    0.0000 </r>
       <r>   15.8204    0.0000 </r>
       <r>   15.8674    0.0000 </r>
       <r>   16.1199    0.0000 </r>
       <r>   16.1387    0.0000 </r>
      </set>
      <set comment="kpoint 4">
       <r>  -13.3393    1.0000 </r>
       <r>  -13.0874    1.0000 </r>
       <r>  -12.8216    1.0000 </r>
       <r>  -12.8188    1.0000 </r>
       <r>  -12.7841    1.0000 </r>
       <r>  -12.4150    1.0000 </r>
       <r>  -12.3600    1.0000 </r>
       <r>  -12.1651    1.0000 </r>
       <r>   -1.0551    1.0000 </r>
       <r>   -0.1598    1.0000 </r>
       <r>   -0.0706    1.0000 </r>
       <r>   -0.0628    1.0000 </r>
       <r>    0.1127    1.0000 </r>
       <r>    0.1171    1.0000 </r>
       <r>    0.4908    1.0000 </r>
       <r>    0.4980    1.0000 </r>
       <r>    0.5152    1.0000 </r>
       <r>    0.5412    1.0000 </r>
       <r>    0.9635    1.0000 </r>
       <r>    1.3392    1.0000 </r>
       <r>    1.3405    1.0000 </r>
       <r>    1.5601    1.0000 </r>
       <r>    1.6298    1.0000 </r>
       <r>    1.6603    1.0000 </r>
       <r>    2.3481    1.0000 </r>
       <r>    2.3768    1.0000 </r>
       <r>    2.4221    1.0000 </r>
       <r>    2.6589    1.0000 </r>
       <r>    2.7352    1.0000 </r>
       <r>    2.7358    1.0000 </r>
       <r>    2.8314    1.0000 </r>
       <r>    2.8321    1.0000 </r>
       <r>   10.2348    0.0000 </r>
       <r>   11.1330    0.0000 </r>
       <r>   11.9602    0.0000 </r>
       <r>   12.1319    0.0000 </r>
       <r>   12.1497    0.0000 </r>
       <r>   12.6297    0.0000 </r>
       <r>   13.9113    0.0000 </r>
       <r>   14.0595    0.0000 </r>
       <r>   14.3308    0.0000 </r>
       <r>   14.5165    0.0000 </r>
       <r>   14.5184    0.0000 </r>
       <r>   14.5231    0.0000 </r>
       <r>   14.6469    0.0000 </r>
       <r>   14.6579    0.0000 </r>
       <r>   14.9272    0.0000 </r>
       <r>   14.9382    0.0000 </r>
       <r>   15.0978    0.0000 </r>
       <r>   15.2980    0.0000 </r>
       <r>   16.0867    0.0000 </r>
       <r>   16.5903    0.0000 </r>
      </set>
      <set comment="kpoint 5">
       <r>  -13.4633    1.0000 </r>
       <r>  -13.2823    1.0000 </r>
       <r>  -12.6716    1.0000 </r>
       <r>  -12.6649    1.0000 </r>
       <r>  -12.5708    1.0000 </r>
       <r>  -12.5660    1.0000 </r>
       <r>  -12.2741    1.0000 </r>
       <r>  -12.2441    1.0000 </r>
       <r>   -1.2956    1.0000 </r>
       <r>   -0.8270    1.0000 </r>
       <r>   -0.4030    1.0000 </r>
       <r>   -0.3967    1.0000 </r>
       <r>   -0.3864    1.0000 </r>
       <r>   -0.3813    1.0000 </r>
       <r>    0.4439    1.0000 </r>
       <r>    0.7143    1.0000 </r>
       <r>    1.0869    1.0000 </r>
       <r>    1.0965    1.0000 </r>
       <r>    1.3659    1.0000 </r>
       <r>    1.3697    1.0000 </r>
       <r>    1.6065    1.0000 </r>
       <r>    1.7119    1.0000 </r>
       <r>    2.2058    1.0000 </r>
       <r>    2.2110    1.0000 </r>
       <r>    2.2417    1.0000 </r>
       <r>    2.3047    1.0000 </r>
       <r>    2.3090    1.0000 </r>
       <r>    2.3464    1.0000 </r>
       <r>    2.9898    1.0000 </r>
       <r>    2.9910    1.0000 </r>
       <r>    3.0418    1.0000 </r>
       <r>    3.0434    1.0000 </r>
       <r>    9.5821    0.4990 </r>
       <r>    9.8163    0.0000 </r>
       <r>   12.1048    0.0000 </r>
       <r>   12.4220    0.0000 </r>
       <r>   12.5673    0.0000 </r>
       <r>   12.5810    0.0000 </r>
       <r>   12.6199    0.0000 </r>
       <r>   12.6384    0.0000 </r>
       <r>   13.6544    0.0000 </r>
       <r>   14.3837    0.0000 </r>
       <r>   14.5193    0.0000 </r>
       <r>   14.5263    0.0000 </r>
       <r>   14.7849    0.0000 </r>
       <r>   14.7904    0.0000 </r>
       <r>   15.4008    0.0000 </r>
       <r>   15.4717    0.0000 </r>
       <r>   15.8308    0.0000 </r>
       <r>   15.8626    0.0000 </r>
       <r>   16.1208    0.0000 </r>
       <r>   16.1385    0.0000 </r>
      </set>
      <set comment="kpoint 6">
       <r>  -13.3385    1.0000 </r>
       <r>  -13.0897    1.0000 </r>
       <r>  -12.8218    1.0000 </r>
       <r>  -12.8179    1.0000 </r>
       <r>  -12.7823    1.0000 </r>
       <r>  -12.4163    1.0000 </r>
       <r>  -12.3600    1.0000 </r>
       <r>  -12.1647    1.0000 </r>
       <r>   -1.0541    1.0000 </r>
       <r>   -0.1546    1.0000 </r>
       <r>   -0.0714    1.0000 </r>
       <r>   -0.0683    1.0000 </r>
       <r>    0.1126    1.0000 </r>
       <r>    0.1171    1.0000 </r>
       <r>    0.4751    1.0000 </r>
       <r>    0.5145    1.0000 </r>
       <r>    0.5156    1.0000 </r>
       <r>    0.5373    1.0000 </r>
       <r>    0.9665    1.0000 </r>
       <r>    1.3392    1.0000 </r>
       <r>    1.3403    1.0000 </r>
       <r>    1.5591    1.0000 </r>
       <r>    1.6304    1.0000 </r>
       <r>    1.6603    1.0000 </r>
       <r>    2.3744    1.0000 </r>
       <r>    2.3778    1.0000 </r>
       <r>    2.3963    1.0000 </r>
       <r>    2.6585    1.0000 </r>
       <r>    2.7344    1.0000 </r>
       <r>    2.7354    1.0000 </r>
       <r>    2.8311    1.0000 </r>
       <r>    2.8331    1.0000 </r>
       <r>   10.2342    0.0000 </r>
       <r>   11.1329    0.0000 </r>
       <r>   11.9713    0.0000 </r>
       <r>   12.1324    0.0000 </r>
       <r>   12.1386    0.0000 </r>
       <r>   12.6296    0.0000 </r>
       <r>   13.9136    0.0000 </r>
       <r>   14.0611    0.0000 </r>
       <r>   14.3352    0.0000 </r>
       <r>   14.5121    0.0000 </r>
       <r>   14.5151    0.0000 </r>
       <r>   14.5227    0.0000 </r>
       <r>   14.6477    0.0000 </r>
       <r>   14.6599    0.0000 </r>
       <r>   14.9271    0.0000 </r>
       <r>   14.9391    0.0000 </r>
       <r>   15.0957    0.0000 </r>
       <r>   15.2952    0.0000 </r>
       <r>   16.0883    0.0000 </r>
       <r>   16.5867    0.0000 </r>
      </set>
      <set comment="kpoint 7">
       <r>  -13.3381    1.0000 </r>
       <r>  -13.0901    1.0000 </r>
       <r>  -12.8195    1.0000 </r>
       <r>  -12.8175    1.0000 </r>
       <r>  -12.7863    1.0000 </r>
       <r>  -12.4136    1.0000 </r>
       <r>  -12.3600    1.0000 </r>
       <r>  -12.1661    1.0000 </r>
       <r>   -1.0536    1.0000 </r>
       <r>   -0.1578    1.0000 </r>
       <r>   -0.0726    1.0000 </r>
       <r>   -0.0688    1.0000 </r>
       <r>    0.1179    1.0000 </r>
       <r>    0.1214    1.0000 </r>
       <r>    0.4904    1.0000 </r>
       <r>    0.4960    1.0000 </r>
       <r>    0.5139    1.0000 </r>
       <r>    0.5437    1.0000 </r>
       <r>    0.9558    1.0000 </r>
       <r>    1.3405    1.0000 </r>
       <r>    1.3413    1.0000 </r>
       <r>    1.5610    1.0000 </r>
       <r>    1.6280    1.0000 </r>
       <r>    1.6608    1.0000 </r>
       <r>    2.3476    1.0000 </r>
       <r>    2.3803    1.0000 </r>
       <r>    2.4238    1.0000 </r>
       <r>    2.6593    1.0000 </r>
       <r>    2.7346    1.0000 </r>
       <r>    2.7348    1.0000 </r>
       <r>    2.8307    1.0000 </r>
       <r>    2.8311    1.0000 </r>
       <r>   10.2357    0.0000 </r>
       <r>   11.1327    0.0000 </r>
       <r>   11.9569    0.0000 </r>
       <r>   12.1322    0.0000 </r>
       <r>   12.1505    0.0000 </r>
       <r>   12.6342    0.0000 </r>
       <r>   13.9138    0.0000 </r>
       <r>   14.0561    0.0000 </r>
       <r>   14.3433    0.0000 </r>
       <r>   14.5145    0.0000 </r>
       <r>   14.5179    0.0000 </r>
       <r>   14.5193    0.0000 </r>
       <r>   14.6413    0.0000 </r>
       <r>   14.6544    0.0000 </r>
       <r>   14.9320    0.0000 </r>
       <r>   14.9439    0.0000 </r>
       <r>   15.0970    0.0000 </r>
       <r>   15.2983    0.0000 </r>
       <r>   16.0811    0.0000 </r>
       <r>   16.5887    0.0000 </r>
      </set>
      <set comment="kpoint 8">
       <r>  -13.4658    1.0000 </r>
       <r>  -13.2787    1.0000 </r>
       <r>  -12.6730    1.0000 </r>
       <r>  -12.6662    1.0000 </r>
       <r>  -12.5718    1.0000 </r>
       <r>  -12.5634    1.0000 </r>
       <r>  -12.2751    1.0000 </r>
       <r>  -12.2431    1.0000 </r>
       <r>   -1.3000    1.0000 </r>
       <r>   -0.8230    1.0000 </r>
       <r>   -0.4106    1.0000 </r>
       <r>   -0.3965    1.0000 </r>
       <r>   -0.3879    1.0000 </r>
       <r>   -0.3737    1.0000 </r>
       <r>    0.4470    1.0000 </r>
       <r>    0.7142    1.0000 </r>
       <r>    1.0894    1.0000 </r>
       <r>    1.0961    1.0000 </r>
       <r>    1.3634    1.0000 </r>
       <r>    1.3712    1.0000 </r>
       <r>    1.6063    1.0000 </r>
       <r>    1.7112    1.0000 </r>
       <r>    2.2035    1.0000 </r>
       <r>    2.2085    1.0000 </r>
       <r>    2.2395    1.0000 </r>
       <r>    2.3061    1.0000 </r>
       <r>    2.3118    1.0000 </r>
       <r>    2.3482    1.0000 </r>
       <r>    2.9875    1.0000 </r>
       <r>    2.9885    1.0000 </r>
       <r>    3.0444    1.0000 </r>
       <r>    3.0455    1.0000 </r>
       <r>    9.5796    0.5281 </r>
       <r>    9.8151    0.0000 </r>
       <r>   12.1025    0.0000 </r>
       <r>   12.4273    0.0000 </r>
       <r>   12.5680    0.0000 </r>
       <r>   12.5719    0.0000 </r>
       <r>   12.6307    0.0000 </r>
       <r>   12.6359    0.0000 </r>
       <r>   13.6680    0.0000 </r>
       <r>   14.3642    0.0000 </r>
       <r>   14.5114    0.0000 </r>
       <r>   14.5145    0.0000 </r>
       <r>   14.7971    0.0000 </r>
       <r>   14.8005    0.0000 </r>
       <r>   15.3940    0.0000 </r>
       <r>   15.4611    0.0000 </r>
       <r>   15.8446    0.0000 </r>
       <r>   15.8741    0.0000 </r>
       <r>   16.1322    0.0000 </r>
       <r>   16.1373    0.0000 </r>
      </set>
     </set>
     <set comment="spin 2">
      <set comment="kpoint 1">
       <r>  -13.9580    1.0000 </r>
       <r>  -12.7772    1.0000 </r>
       <r>  -12.7767    1.0000 </r>
       <r>  -12.7729    1.0000 </r>
       <r>  -12.4805    1.0000 </r>
       <r>  -12.4767    1.0000 </r>
       <r>  -12.3016    1.0000 </r>
       <r>  -12.1617    1.0000 </r>
       <r>   -2.1793    1.0000 </r>
       <r>   -1.1596    1.0000 </r>
       <r>   -1.1586    1.0000 </r>
       <r>   -1.1583    1.0000 </r>
       <r>   -0.8845    1.0000 </r>
       <r>   -0.8842    1.0000 </r>
       <r>   -0.8840    1.0000 </r>
       <r>    1.8539    1.0000 </r>
       <r>    1.8552    1.0000 </r>
       <r>    1.8586    1.0000 </r>
       <r>    1.9494    1.0000 </r>
       <r>    1.9501    1.0000 </r>
       <r>    1.9505    1.0000 </r>
       <r>    2.3671    1.0000 </r>
       <r>    2.3712    1.0000 </r>
       <r>    2.6452    1.0000 </r>
       <r>    2.6455    1.0000 </r>
       <r>    2.6459    1.0000 </r>
       <r>    2.8494    1.0000 </r>
       <r>    2.8497    1.0000 </r>
       <r>    2.8504    1.0000 </r>
       <r>    3.3128    1.0000 </r>
       <r>    3.3132    1.0000 </r>
       <r>    3.3135    1.0000 </r>
       <r>    7.1865    1.0000 </r>
       <r>   10.5109    0.0000 </r>
       <r>   10.5172    0.0000 </r>
       <r>   10.5173    0.0000 </r>
       <r>   11.0560    0.0000 </r>
       <r>   11.1564    0.0000 </r>
       <r>   12.1994    0.0000 </r>
       <r>   12.2001    0.0000 </r>
       <r>   12.2002    0.0000 </r>
       <r>   13.1174    0.0000 </r>
       <r>   13.1178    0.0000 </r>
       <r>   14.6587    0.0000 </r>
       <r>   15.6512    0.0000 </r>
       <r>   15.6524    0.0000 </r>
       <r>   15.6547    0.0000 </r>
       <r>   15.8438    0.0000 </r>
       <r>   15.8453    0.0000 </r>
       <r>   15.8502    0.0000 </r>
       <r>   17.8417    0.0000 </r>
       <r>   17.8455    0.0000 </r>
      </set>
      <set comment="kpoint 2">
       <r>  -13.4881    1.0000 </r>
       <r>  -13.2988    1.0000 </r>
       <r>  -12.6928    1.0000 </r>
       <r>  -12.6866    1.0000 </r>
       <r>  -12.5904    1.0000 </r>
       <r>  -12.5827    1.0000 </r>
       <r>  -12.2843    1.0000 </r>
       <r>  -12.2557    1.0000 </r>
       <r>   -1.3460    1.0000 </r>
       <r>   -0.8614    1.0000 </r>
       <r>   -0.4253    1.0000 </r>
       <r>   -0.4148    1.0000 </r>
       <r>   -0.4107    1.0000 </r>
       <r>   -0.4003    1.0000 </r>
       <r>    0.4245    1.0000 </r>
       <r>    0.6902    1.0000 </r>
       <r>    1.0652    1.0000 </r>
       <r>    1.0695    1.0000 </r>
       <r>    1.3399    1.0000 </r>
       <r>    1.3461    1.0000 </r>
       <r>    1.5952    1.0000 </r>
       <r>    1.6977    1.0000 </r>
       <r>    2.1879    1.0000 </r>
       <r>    2.1917    1.0000 </r>
       <r>    2.2252    1.0000 </r>
       <r>    2.2876    1.0000 </r>
       <r>    2.2923    1.0000 </r>
       <r>    2.3328    1.0000 </r>
       <r>    2.9753    1.0000 </r>
       <r>    2.9768    1.0000 </r>
       <r>    3.0299    1.0000 </r>
       <r>    3.0300    1.0000 </r>
       <r>    9.5012    0.9889 </r>
       <r>    9.7634    0.0000 </r>
       <r>   12.0459    0.0000 </r>
       <r>   12.3784    0.0000 </r>
       <r>   12.5187    0.0000 </r>
       <r>   12.5269    0.0000 </r>
       <r>   12.5610    0.0000 </r>
       <r>   12.5698    0.0000 </r>
       <r>   13.6016    0.0000 </r>
       <r>   14.3135    0.0000 </r>
       <r>   14.4671    0.0000 </r>
       <r>   14.4712    0.0000 </r>
       <r>   14.7464    0.0000 </r>
       <r>   14.7525    0.0000 </r>
       <r>   15.3438    0.0000 </r>
       <r>   15.4345    0.0000 </r>
       <r>   15.7892    0.0000 </r>
       <r>   15.8231    0.0000 </r>
       <r>   16.0836    0.0000 </r>
       <r>   16.0878    0.0000 </r>
      </set>
      <set comment="kpoint 3">
       <r>  -13.4859    1.0000 </r>
       <r>  -13.3019    1.0000 </r>
       <r>  -12.6916    1.0000 </r>
       <r>  -12.6850    1.0000 </r>
       <r>  -12.5900    1.0000 </r>
       <r>  -12.5849    1.0000 </r>
       <r>  -12.2863    1.0000 </r>
       <r>  -12.2537    1.0000 </r>
       <r>   -1.3415    1.0000 </r>
       <r>   -0.8652    1.0000 </r>
       <r>   -0.4288    1.0000 </r>
       <r>   -0.4182    1.0000 </r>
       <r>   -0.4068    1.0000 </r>
       <r>   -0.3957    1.0000 </r>
       <r>    0.4210    1.0000 </r>
       <r>    0.6902    1.0000 </r>
       <r>    1.0611    1.0000 </r>
       <r>    1.0713    1.0000 </r>
       <r>    1.3400    1.0000 </r>
       <r>    1.3454    1.0000 </r>
       <r>    1.5933    1.0000 </r>
       <r>    1.7000    1.0000 </r>
       <r>    2.1880    1.0000 </r>
       <r>    2.1940    1.0000 </r>
       <r>    2.2272    1.0000 </r>
       <r>    2.2869    1.0000 </r>
       <r>    2.2929    1.0000 </r>
       <r>    2.3316    1.0000 </r>
       <r>    2.9741    1.0000 </r>
       <r>    2.9773    1.0000 </r>
       <r>    3.0294    1.0000 </r>
       <r>    3.0318    1.0000 </r>
       <r>    9.5034    0.9869 </r>
       <r>    9.7642    0.0000 </r>
       <r>   12.0494    0.0000 </r>
       <r>   12.3715    0.0000 </r>
       <r>   12.5177    0.0000 </r>
       <r>   12.5316    0.0000 </r>
       <r>   12.5550    0.0000 </r>
       <r>   12.5711    0.0000 </r>
       <r>   13.5871    0.0000 </r>
       <r>   14.3341    0.0000 </r>
       <r>   14.4757    0.0000 </r>
       <r>   14.4831    0.0000 </r>
       <r>   14.7350    0.0000 </r>
       <r>   14.7424    0.0000 </r>
       <r>   15.3549    0.0000 </r>
       <r>   15.4385    0.0000 </r>
       <r>   15.7682    0.0000 </r>
       <r>   15.8166    0.0000 </r>
       <r>   16.0746    0.0000 </r>
       <r>   16.0895    0.0000 </r>
      </set>
      <set comment="kpoint 4">
       <r>  -13.3627    1.0000 </r>
       <r>  -13.1052    1.0000 </r>
       <r>  -12.8418    1.0000 </r>
       <r>  -12.8391    1.0000 </r>
       <r>  -12.8041    1.0000 </r>
       <r>  -12.4338    1.0000 </r>
       <r>  -12.3698    1.0000 </r>
       <r>  -12.1772    1.0000 </r>
       <r>   -1.1024    1.0000 </r>
       <r>   -0.1809    1.0000 </r>
       <r>   -0.0926    1.0000 </r>
       <r>   -0.0847    1.0000 </r>
       <r>    0.0850    1.0000 </r>
       <r>    0.0894    1.0000 </r>
       <r>    0.4559    1.0000 </r>
       <r>    0.4766    1.0000 </r>
       <r>    0.4977    1.0000 </r>
       <r>    0.5188    1.0000 </r>
       <r>    0.9320    1.0000 </r>
       <r>    1.3200    1.0000 </r>
       <r>    1.3212    1.0000 </r>
       <r>    1.5449    1.0000 </r>
       <r>    1.6167    1.0000 </r>
       <r>    1.6490    1.0000 </r>
       <r>    2.3278    1.0000 </r>
       <r>    2.3581    1.0000 </r>
       <r>    2.3995    1.0000 </r>
       <r>    2.6447    1.0000 </r>
       <r>    2.7229    1.0000 </r>
       <r>    2.7236    1.0000 </r>
       <r>    2.8192    1.0000 </r>
       <r>    2.8198    1.0000 </r>
       <r>   10.1553    0.0000 </r>
       <r>   11.0981    0.0000 </r>
       <r>   11.8992    0.0000 </r>
       <r>   12.0672    0.0000 </r>
       <r>   12.0868    0.0000 </r>
       <r>   12.5951    0.0000 </r>
       <r>   13.8739    0.0000 </r>
       <r>   13.9831    0.0000 </r>
       <r>   14.2481    0.0000 </r>
       <r>   14.4532    0.0000 </r>
       <r>   14.4588    0.0000 </r>
       <r>   14.4809    0.0000 </r>
       <r>   14.5927    0.0000 </r>
       <r>   14.6032    0.0000 </r>
       <r>   14.8711    0.0000 </r>
       <r>   14.8826    0.0000 </r>
       <r>   15.0574    0.0000 </r>
       <r>   15.2800    0.0000 </r>
       <r>   16.0534    0.0000 </r>
       <r>   16.5503    0.0000 </r>
      </set>
      <set comment="kpoint 5">
       <r>  -13.4861    1.0000 </r>
       <r>  -13.3017    1.0000 </r>
       <r>  -12.6915    1.0000 </r>
       <r>  -12.6850    1.0000 </r>
       <r>  -12.5898    1.0000 </r>
       <r>  -12.5853    1.0000 </r>
       <r>  -12.2850    1.0000 </r>
       <r>  -12.2549    1.0000 </r>
       <r>   -1.3423    1.0000 </r>
       <r>   -0.8647    1.0000 </r>
       <r>   -0.4230    1.0000 </r>
       <r>   -0.4170    1.0000 </r>
       <r>   -0.4074    1.0000 </r>
       <r>   -0.4024    1.0000 </r>
       <r>    0.4217    1.0000 </r>
       <r>    0.6901    1.0000 </r>
       <r>    1.0618    1.0000 </r>
       <r>    1.0712    1.0000 </r>
       <r>    1.3408    1.0000 </r>
       <r>    1.3446    1.0000 </r>
       <r>    1.5941    1.0000 </r>
       <r>    1.6994    1.0000 </r>
       <r>    2.1884    1.0000 </r>
       <r>    2.1936    1.0000 </r>
       <r>    2.2271    1.0000 </r>
       <r>    2.2873    1.0000 </r>
       <r>    2.2916    1.0000 </r>
       <r>    2.3315    1.0000 </r>
       <r>    2.9765    1.0000 </r>
       <r>    2.9776    1.0000 </r>
       <r>    3.0284    1.0000 </r>
       <r>    3.0302    1.0000 </r>
       <r>    9.5032    0.9871 </r>
       <r>    9.7640    0.0000 </r>
       <r>   12.0491    0.0000 </r>
       <r>   12.3731    0.0000 </r>
       <r>   12.5178    0.0000 </r>
       <r>   12.5322    0.0000 </r>
       <r>   12.5538    0.0000 </r>
       <r>   12.5721    0.0000 </r>
       <r>   13.5896    0.0000 </r>
       <r>   14.3299    0.0000 </r>
       <r>   14.4730    0.0000 </r>
       <r>   14.4798    0.0000 </r>
       <r>   14.7393    0.0000 </r>
       <r>   14.7447    0.0000 </r>
       <r>   15.3558    0.0000 </r>
       <r>   15.4300    0.0000 </r>
       <r>   15.7790    0.0000 </r>
       <r>   15.8114    0.0000 </r>
       <r>   16.0728    0.0000 </r>
       <r>   16.0958    0.0000 </r>
      </set>
      <set comment="kpoint 6">
       <r>  -13.3619    1.0000 </r>
       <r>  -13.1075    1.0000 </r>
       <r>  -12.8420    1.0000 </r>
       <r>  -12.8382    1.0000 </r>
       <r>  -12.8024    1.0000 </r>
       <r>  -12.4350    1.0000 </r>
       <r>  -12.3698    1.0000 </r>
       <r>  -12.1769    1.0000 </r>
       <r>   -1.1015    1.0000 </r>
       <r>   -0.1758    1.0000 </r>
       <r>   -0.0934    1.0000 </r>
       <r>   -0.0901    1.0000 </r>
       <r>    0.0849    1.0000 </r>
       <r>    0.0895    1.0000 </r>
       <r>    0.4421    1.0000 </r>
       <r>    0.4952    1.0000 </r>
       <r>    0.4979    1.0000 </r>
       <r>    0.5112    1.0000 </r>
       <r>    0.9347    1.0000 </r>
       <r>    1.3200    1.0000 </r>
       <r>    1.3210    1.0000 </r>
       <r>    1.5440    1.0000 </r>
       <r>    1.6171    1.0000 </r>
       <r>    1.6490    1.0000 </r>
       <r>    2.3545    1.0000 </r>
       <r>    2.3590    1.0000 </r>
       <r>    2.3733    1.0000 </r>
       <r>    2.6443    1.0000 </r>
       <r>    2.7222    1.0000 </r>
       <r>    2.7232    1.0000 </r>
       <r>    2.8189    1.0000 </r>
       <r>    2.8207    1.0000 </r>
       <r>   10.1546    0.0000 </r>
       <r>   11.0981    0.0000 </r>
       <r>   11.9115    0.0000 </r>
       <r>   12.0676    0.0000 </r>
       <r>   12.0743    0.0000 </r>
       <r>   12.5950    0.0000 </r>
       <r>   13.8761    0.0000 </r>
       <r>   13.9850    0.0000 </r>
       <r>   14.2530    0.0000 </r>
       <r>   14.4485    0.0000 </r>
       <r>   14.4523    0.0000 </r>
       <r>   14.4838    0.0000 </r>
       <r>   14.5932    0.0000 </r>
       <r>   14.6054    0.0000 </r>
       <r>   14.8709    0.0000 </r>
       <r>   14.8831    0.0000 </r>
       <r>   15.0557    0.0000 </r>
       <r>   15.2773    0.0000 </r>
       <r>   16.0550    0.0000 </r>
       <r>   16.5476    0.0000 </r>
      </set>
      <set comment="kpoint 7">
       <r>  -13.3615    1.0000 </r>
       <r>  -13.1080    1.0000 </r>
       <r>  -12.8398    1.0000 </r>
       <r>  -12.8379    1.0000 </r>
       <r>  -12.8063    1.0000 </r>
       <r>  -12.4325    1.0000 </r>
       <r>  -12.3698    1.0000 </r>
       <r>  -12.1782    1.0000 </r>
       <r>   -1.1010    1.0000 </r>
       <r>   -0.1789    1.0000 </r>
       <r>   -0.0946    1.0000 </r>
       <r>   -0.0907    1.0000 </r>
       <r>    0.0902    1.0000 </r>
       <r>    0.0936    1.0000 </r>
       <r>    0.4548    1.0000 </r>
       <r>    0.4756    1.0000 </r>
       <r>    0.4964    1.0000 </r>
       <r>    0.5210    1.0000 </r>
       <r>    0.9243    1.0000 </r>
       <r>    1.3212    1.0000 </r>
       <r>    1.3220    1.0000 </r>
       <r>    1.5458    1.0000 </r>
       <r>    1.6149    1.0000 </r>
       <r>    1.6494    1.0000 </r>
       <r>    2.3274    1.0000 </r>
       <r>    2.3617    1.0000 </r>
       <r>    2.4010    1.0000 </r>
       <r>    2.6451    1.0000 </r>
       <r>    2.7224    1.0000 </r>
       <r>    2.7225    1.0000 </r>
       <r>    2.8185    1.0000 </r>
       <r>    2.8188    1.0000 </r>
       <r>   10.1560    0.0000 </r>
       <r>   11.0978    0.0000 </r>
       <r>   11.8959    0.0000 </r>
       <r>   12.0670    0.0000 </r>
       <r>   12.0881    0.0000 </r>
       <r>   12.5997    0.0000 </r>
       <r>   13.8766    0.0000 </r>
       <r>   13.9794    0.0000 </r>
       <r>   14.2611    0.0000 </r>
       <r>   14.4513    0.0000 </r>
       <r>   14.4556    0.0000 </r>
       <r>   14.4790    0.0000 </r>
       <r>   14.5869    0.0000 </r>
       <r>   14.6002    0.0000 </r>
       <r>   14.8762    0.0000 </r>
       <r>   14.8880    0.0000 </r>
       <r>   15.0567    0.0000 </r>
       <r>   15.2803    0.0000 </r>
       <r>   16.0477    0.0000 </r>
       <r>   16.5470    0.0000 </r>
      </set>
      <set comment="kpoint 8">
       <r>  -13.4885    1.0000 </r>
       <r>  -13.2983    1.0000 </r>
       <r>  -12.6928    1.0000 </r>
       <r>  -12.6863    1.0000 </r>
       <r>  -12.5908    1.0000 </r>
       <r>  -12.5827    1.0000 </r>
       <r>  -12.2860    1.0000 </r>
       <r>  -12.2540    1.0000 </r>
       <r>   -1.3465    1.0000 </r>
       <r>   -0.8609    1.0000 </r>
       <r>   -0.4306    1.0000 </r>
       <r>   -0.4171    1.0000 </r>
       <r>   -0.4084    1.0000 </r>
       <r>   -0.3949    1.0000 </r>
       <r>    0.4247    1.0000 </r>
       <r>    0.6901    1.0000 </r>
       <r>    1.0643    1.0000 </r>
       <r>    1.0710    1.0000 </r>
       <r>    1.3385    1.0000 </r>
       <r>    1.3462    1.0000 </r>
       <r>    1.5940    1.0000 </r>
       <r>    1.6988    1.0000 </r>
       <r>    2.1862    1.0000 </r>
       <r>    2.1910    1.0000 </r>
       <r>    2.2249    1.0000 </r>
       <r>    2.2886    1.0000 </r>
       <r>    2.2940    1.0000 </r>
       <r>    2.3332    1.0000 </r>
       <r>    2.9741    1.0000 </r>
       <r>    2.9752    1.0000 </r>
       <r>    3.0309    1.0000 </r>
       <r>    3.0321    1.0000 </r>
       <r>    9.5009    0.9891 </r>
       <r>    9.7629    0.0000 </r>
       <r>   12.0471    0.0000 </r>
       <r>   12.3792    0.0000 </r>
       <r>   12.5179    0.0000 </r>
       <r>   12.5228    0.0000 </r>
       <r>   12.5651    0.0000 </r>
       <r>   12.5701    0.0000 </r>
       <r>   13.6036    0.0000 </r>
       <r>   14.3099    0.0000 </r>
       <r>   14.4645    0.0000 </r>
       <r>   14.4680    0.0000 </r>
       <r>   14.7511    0.0000 </r>
       <r>   14.7546    0.0000 </r>
       <r>   15.3492    0.0000 </r>
       <r>   15.4192    0.0000 </r>
       <r>   15.7924    0.0000 </r>
       <r>   15.8236    0.0000 </r>
       <r>   16.0864    0.0000 </r>
       <r>   16.0922    0.0000 </r>
      </set>
     </set>
    </set>
   </array>
  </eigenvalues>
  <separator name="orbital magnetization" >
   <v name="MAGDIPOLOUT">      0.00000000      0.00000000      0.00000000</v>
  </separator>
  <dos>
   <i name="efermi">      9.58204810 </i>
   <total>
    <array>
     <dimension dim="1">gridpoints</dimension>
     <dimension dim="2">spin</dimension>
     <field>energy</field>
     <field>total</field>
     <field>integrated</field>
     <set>
      <set comment="spin 1">
       <r>   -15.5511     0.0000     0.0000 </r>
       <r>   -15.4343     0.0000     0.0000 </r>
       <r>   -15.3175     0.0000     0.0000 </r>
       <r>   -15.2006     0.0000     0.0000 </r>
       <r>   -15.0838     0.0000     0.0000 </r>
       <r>   -14.9670     0.0000     0.0000 </r>
       <r>   -14.8501     0.0000     0.0000 </r>
       <r>   -14.7333     0.0000     0.0000 </r>
       <r>   -14.6165     0.0000     0.0000 </r>
       <r>   -14.4996     0.0000     0.0000 </r>
       <r>   -14.3828     0.0000     0.0000 </r>
       <r>   -14.2660     0.0000     0.0000 </r>
       <r>   -14.1492     0.0000     0.0000 </r>
       <r>   -14.0323     0.0035     0.0004 </r>
       <r>   -13.9155     0.7664     0.0899 </r>
       <r>   -13.7987     0.3000     0.1250 </r>
       <r>   -13.6818     0.0001     0.1250 </r>
       <r>   -13.5650     0.0096     0.1261 </r>
       <r>   -13.4482     2.8911     0.4639 </r>
       <r>   -13.3313     3.5706     0.8810 </r>
       <r>   -13.2145     5.1658     1.4846 </r>
       <r>   -13.0977     1.4272     1.6513 </r>
       <r>   -12.9809     1.9111     1.8746 </r>
       <r>   -12.8640     0.7157     1.9582 </r>
       <r>   -12.7472    10.3278     3.1648 </r>
       <r>   -12.6304     9.5108     4.2760 </r>
       <r>   -12.5135     9.0157     5.3293 </r>
       <r>   -12.3967     5.1723     5.9336 </r>
       <r>   -12.2799     6.9568     6.7463 </r>
       <r>   -12.1630     8.4690     7.7358 </r>
       <r>   -12.0462     2.2588     7.9997 </r>
       <r>   -11.9294     0.0030     8.0000 </r>
       <r>   -11.8125     0.0000     8.0000 </r>
       <r>   -11.6957     0.0000     8.0000 </r>
       <r>   -11.5789     0.0000     8.0000 </r>
       <r>   -11.4621     0.0000     8.0000 </r>
       <r>   -11.3452     0.0000     8.0000 </r>
       <r>   -11.2284     0.0000     8.0000 </r>
       <r>   -11.1116     0.0000     8.0000 </r>
       <r>   -10.9947     0.0000     8.0000 </r>
       <r>   -10.8779     0.0000     8.0000 </r>
       <r>   -10.7611     0.0000     8.0000 </r>
       <r>   -10.6442     0.0000     8.0000 </r>
       <r>   -10.5274     0.0000     8.0000 </r>
       <r>   -10.4106     0.0000     8.0000 </r>
       <r>   -10.2938     0.0000     8.0000 </r>
       <r>   -10.1769     0.0000     8.0000 </r>
       <r>   -10.0601     0.0000     8.0000 </r>
       <r>    -9.9433     0.0000     8.0000 </r>
       <r>    -9.8264     0.0000     8.0000 </r>
       <r>    -9.7096     0.0000     8.0000 </r>
       <r>    -9.5928     0.0000     8.0000 </r>
       <r>    -9.4759     0.0000     8.0000 </r>
       <r>    -9.3591     0.0000     8.0000 </r>
       <r>    -9.2423     0.0000     8.0000 </r>
       <r>    -9.1254     0.0000     8.0000 </r>
       <r>    -9.0086     0.0000     8.0000 </r>
       <r>    -8.8918     0.0000     8.0000 </r>
       <r>    -8.7750     0.0000     8.0000 </r>
       <r>    -8.6581     0.0000     8.0000 </r>
       <r>    -8.5413     0.0000     8.0000 </r>
       <r>    -8.4245     0.0000     8.0000 </r>
       <r>    -8.3076     0.0000     8.0000 </r>
       <r>    -8.1908     0.0000     8.0000 </r>
       <r>    -8.0740     0.0000     8.0000 </r>
       <r>    -7.9571     0.0000     8.0000 </r>
       <r>    -7.8403     0.0000     8.0000 </r>
       <r>    -7.7235     0.0000     8.0000 </r>
       <r>    -7.6066     0.0000     8.0000 </r>
       <r>    -7.4898     0.0000     8.0000 </r>
       <r>    -7.3730     0.0000     8.0000 </r>
       <r>    -7.2562     0.0000     8.0000 </r>
       <r>    -7.1393     0.0000     8.0000 </r>
       <r>    -7.0225     0.0000     8.0000 </r>
       <r>    -6.9057     0.0000     8.0000 </r>
       <r>    -6.7888     0.0000     8.0000 </r>
       <r>    -6.6720     0.0000     8.0000 </r>
       <r>    -6.5552     0.0000     8.0000 </r>
       <r>    -6.4383     0.0000     8.0000 </r>
       <r>    -6.3215     0.0000     8.0000 </r>
       <r>    -6.2047     0.0000     8.0000 </r>
       <r>    -6.0879     0.0000     8.0000 </r>
       <r>    -5.9710     0.0000     8.0000 </r>
       <r>    -5.8542     0.0000     8.0000 </r>
       <r>    -5.7374     0.0000     8.0000 </r>
       <r>    -5.6205     0.0000     8.0000 </r>
       <r>    -5.5037     0.0000     8.0000 </r>
       <r>    -5.3869     0.0000     8.0000 </r>
       <r>    -5.2700     0.0000     8.0000 </r>
       <r>    -5.1532     0.0000     8.0000 </r>
       <r>    -5.0364     0.0000     8.0000 </r>
       <r>    -4.9195     0.0000     8.0000 </r>
       <r>    -4.8027     0.0000     8.0000 </r>
       <r>    -4.6859     0.0000     8.0000 </r>
       <r>    -4.5691     0.0000     8.0000 </r>
       <r>    -4.4522     0.0000     8.0000 </r>
       <r>    -4.3354     0.0000     8.0000 </r>
       <r>    -4.2186     0.0000     8.0000 </r>
       <r>    -4.1017     0.0000     8.0000 </r>
       <r>    -3.9849     0.0000     8.0000 </r>
       <r>    -3.8681     0.0000     8.0000 </r>
       <r>    -3.7512     0.0000     8.0000 </r>
       <r>    -3.6344     0.0000     8.0000 </r>
       <r>    -3.5176     0.0000     8.0000 </r>
       <r>    -3.4008     0.0000     8.0000 </r>
       <r>    -3.2839     0.0000     8.0000 </r>
       <r>    -3.1671     0.0000     8.0000 </r>
       <r>    -3.0503     0.0000     8.0000 </r>
       <r>    -2.9334     0.0000     8.0000 </r>
       <r>    -2.8166     0.0000     8.0000 </r>
       <r>    -2.6998     0.0000     8.0000 </r>
       <r>    -2.5829     0.0000     8.0000 </r>
       <r>    -2.4661     0.0000     8.0000 </r>
       <r>    -2.3493     0.0000     8.0000 </r>
       <r>    -2.2324     0.0018     8.0002 </r>
       <r>    -2.1156     0.6859     8.0803 </r>
       <r>    -1.9988     0.3821     8.1250 </r>
       <r>    -1.8820     0.0001     8.1250 </r>
       <r>    -1.7651     0.0000     8.1250 </r>
       <r>    -1.6483     0.0000     8.1250 </r>
       <r>    -1.5315     0.0000     8.1250 </r>
       <r>    -1.4146     0.0020     8.1252 </r>
       <r>    -1.2978     2.1228     8.3732 </r>
       <r>    -1.1810     2.5414     8.6702 </r>
       <r>    -1.0641     4.0224     9.1401 </r>
       <r>    -0.9473     2.0224     9.3764 </r>
       <r>    -0.8305     4.3045     9.8793 </r>
       <r>    -0.7137     3.1696    10.2496 </r>
       <r>    -0.5968     0.0036    10.2500 </r>
       <r>    -0.4800     0.1502    10.2675 </r>
       <r>    -0.3632    13.2271    11.8129 </r>
       <r>    -0.2463     3.7602    12.2522 </r>
       <r>    -0.1295     2.7850    12.5776 </r>
       <r>    -0.0127     6.4669    13.3331 </r>
       <r>     0.1042     2.6976    13.6483 </r>
       <r>     0.2210     4.0703    14.1238 </r>
       <r>     0.3378     0.0156    14.1256 </r>
       <r>     0.4547     3.6769    14.5552 </r>
       <r>     0.5715    12.5185    16.0177 </r>
       <r>     0.6883     1.9076    16.2406 </r>
       <r>     0.8051     3.2686    16.6225 </r>
       <r>     0.9220     0.4434    16.6743 </r>
       <r>     1.0388     3.3139    17.0614 </r>
       <r>     1.1556     7.7164    17.9629 </r>
       <r>     1.2725     0.5268    18.0245 </r>
       <r>     1.3893    11.9191    19.4170 </r>
       <r>     1.5061     3.0648    19.7751 </r>
       <r>     1.6230     7.6438    20.6681 </r>
       <r>     1.7398     9.3820    21.7642 </r>
       <r>     1.8566     1.9256    21.9892 </r>
       <r>     1.9735     4.1252    22.4711 </r>
       <r>     2.0903     1.3207    22.6254 </r>
       <r>     2.2071     4.9975    23.2093 </r>
       <r>     2.3239    15.5734    25.0287 </r>
       <r>     2.4408    15.7264    26.8660 </r>
       <r>     2.5576     1.1594    27.0015 </r>
       <r>     2.6744     4.5370    27.5315 </r>
       <r>     2.7913     8.8220    28.5622 </r>
       <r>     2.9081     8.7913    29.5893 </r>
       <r>     3.0249    10.0734    30.7662 </r>
       <r>     3.1418     7.3269    31.6222 </r>
       <r>     3.2586     0.1095    31.6350 </r>
       <r>     3.3754     2.8513    31.9681 </r>
       <r>     3.4922     0.2729    32.0000 </r>
       <r>     3.6091     0.0000    32.0000 </r>
       <r>     3.7259     0.0000    32.0000 </r>
       <r>     3.8427     0.0000    32.0000 </r>
       <r>     3.9596     0.0000    32.0000 </r>
       <r>     4.0764     0.0000    32.0000 </r>
       <r>     4.1932     0.0000    32.0000 </r>
       <r>     4.3101     0.0000    32.0000 </r>
       <r>     4.4269     0.0000    32.0000 </r>
       <r>     4.5437     0.0000    32.0000 </r>
       <r>     4.6606     0.0000    32.0000 </r>
       <r>     4.7774     0.0000    32.0000 </r>
       <r>     4.8942     0.0000    32.0000 </r>
       <r>     5.0110     0.0000    32.0000 </r>
       <r>     5.1279     0.0000    32.0000 </r>
       <r>     5.2447     0.0000    32.0000 </r>
       <r>     5.3615     0.0000    32.0000 </r>
       <r>     5.4784     0.0000    32.0000 </r>
       <r>     5.5952     0.0000    32.0000 </r>
       <r>     5.7120     0.0000    32.0000 </r>
       <r>     5.8289     0.0000    32.0000 </r>
       <r>     5.9457     0.0000    32.0000 </r>
       <r>     6.0625     0.0000    32.0000 </r>
       <r>     6.1793     0.0000    32.0000 </r>
       <r>     6.2962     0.0000    32.0000 </r>
       <r>     6.4130     0.0000    32.0000 </r>
       <r>     6.5298     0.0000    32.0000 </r>
       <r>     6.6467     0.0000    32.0000 </r>
       <r>     6.7635     0.0000    32.0000 </r>
       <r>     6.8803     0.0000    32.0000 </r>
       <r>     6.9972     0.0000    32.0000 </r>
       <r>     7.1140     0.0000    32.0000 </r>
       <r>     7.2308     0.2491    32.0291 </r>
       <r>     7.3477     0.8154    32.1244 </r>
       <r>     7.4645     0.0054    32.1250 </r>
       <r>     7.5813     0.0000    32.1250 </r>
       <r>     7.6981     0.0000    32.1250 </r>
       <r>     7.8150     0.0000    32.1250 </r>
       <r>     7.9318     0.0000    32.1250 </r>
       <r>     8.0486     0.0000    32.1250 </r>
       <r>     8.1655     0.0000    32.1250 </r>
       <r>     8.2823     0.0000    32.1250 </r>
       <r>     8.3991     0.0000    32.1250 </r>
       <r>     8.5160     0.0000    32.1250 </r>
       <r>     8.6328     0.0000    32.1250 </r>
       <r>     8.7496     0.0000    32.1250 </r>
       <r>     8.8664     0.0000    32.1250 </r>
       <r>     8.9833     0.0000    32.1250 </r>
       <r>     9.1001     0.0000    32.1250 </r>
       <r>     9.2169     0.0000    32.1250 </r>
       <r>     9.3338     0.0000    32.1250 </r>
       <r>     9.4506     0.0005    32.1251 </r>
       <r>     9.5674     1.5010    32.3004 </r>
       <r>     9.6843     2.7711    32.6242 </r>
       <r>     9.8011     1.4538    32.7940 </r>
       <r>     9.9179     2.8246    33.1240 </r>
       <r>    10.0348     0.0083    33.1250 </r>
       <r>    10.1516     0.0296    33.1285 </r>
       <r>    10.2684     2.6294    33.4357 </r>
       <r>    10.3852     0.5507    33.5000 </r>
       <r>    10.5021     0.0297    33.5035 </r>
       <r>    10.6189     2.6204    33.8096 </r>
       <r>    10.7357     0.5596    33.8750 </r>
       <r>    10.8526     0.0000    33.8750 </r>
       <r>    10.9694     0.0000    33.8750 </r>
       <r>    11.0862     0.5098    33.9346 </r>
       <r>    11.2031     4.3537    34.4432 </r>
       <r>    11.3199     0.4860    34.5000 </r>
       <r>    11.4367     0.0002    34.5000 </r>
       <r>    11.5536     0.0000    34.5000 </r>
       <r>    11.6704     0.0000    34.5000 </r>
       <r>    11.7872     0.0000    34.5000 </r>
       <r>    11.9040     0.1628    34.5190 </r>
       <r>    12.0209     2.9223    34.8604 </r>
       <r>    12.1377     6.7952    35.6543 </r>
       <r>    12.2545     5.3644    36.2810 </r>
       <r>    12.3714     2.1675    36.5343 </r>
       <r>    12.4882     3.9158    36.9918 </r>
       <r>    12.6050     9.8495    38.1425 </r>
       <r>    12.7219    10.4844    39.3674 </r>
       <r>    12.8387     0.0652    39.3750 </r>
       <r>    12.9555     0.0000    39.3750 </r>
       <r>    13.0723     0.0780    39.3841 </r>
       <r>    13.1892     1.9219    39.6086 </r>
       <r>    13.3060     0.1400    39.6250 </r>
       <r>    13.4228     0.0000    39.6250 </r>
       <r>    13.5397     0.0018    39.6252 </r>
       <r>    13.6565     1.9649    39.8548 </r>
       <r>    13.7733     2.3096    40.1246 </r>
       <r>    13.8902     0.8389    40.2226 </r>
       <r>    14.0070     2.5911    40.5253 </r>
       <r>    14.1238     2.8859    40.8625 </r>
       <r>    14.2407     0.1193    40.8764 </r>
       <r>    14.3575     3.6269    41.3002 </r>
       <r>    14.4743     5.7961    41.9773 </r>
       <r>    14.5911    16.1650    43.8659 </r>
       <r>    14.7080     6.5890    44.6357 </r>
       <r>    14.8248     8.0288    45.5737 </r>
       <r>    14.9416     5.2180    46.1833 </r>
       <r>    15.0585     3.1546    46.5519 </r>
       <r>    15.1753     2.7241    46.8701 </r>
       <r>    15.2921     1.4736    47.0423 </r>
       <r>    15.4090     4.7077    47.5923 </r>
       <r>    15.5258     5.3278    48.2147 </r>
       <r>    15.6426     0.5703    48.2814 </r>
       <r>    15.7594     2.9458    48.6255 </r>
       <r>    15.8763     6.7765    49.4172 </r>
       <r>    15.9931     4.9746    49.9984 </r>
       <r>    16.1099     4.7751    50.5563 </r>
       <r>    16.2268     6.9720    51.3708 </r>
       <r>    16.3436     0.0358    51.3750 </r>
       <r>    16.4604     0.0005    51.3751 </r>
       <r>    16.5773     1.2012    51.5154 </r>
       <r>    16.6941     2.0035    51.7495 </r>
       <r>    16.8109     0.0046    51.7500 </r>
       <r>    16.9278     0.0000    51.7500 </r>
       <r>    17.0446     0.0000    51.7500 </r>
       <r>    17.1614     0.0000    51.7500 </r>
       <r>    17.2782     0.0000    51.7500 </r>
       <r>    17.3951     0.0000    51.7500 </r>
       <r>    17.5119     0.0000    51.7500 </r>
       <r>    17.6287     0.0000    51.7500 </r>
       <r>    17.7456     0.0000    51.7500 </r>
       <r>    17.8624     0.2828    51.7830 </r>
       <r>    17.9792     1.8255    51.9963 </r>
       <r>    18.0961     0.0315    52.0000 </r>
       <r>    18.2129     0.0000    52.0000 </r>
       <r>    18.3297     0.0000    52.0000 </r>
       <r>    18.4465     0.0000    52.0000 </r>
       <r>    18.5634     0.0000    52.0000 </r>
       <r>    18.6802     0.0000    52.0000 </r>
       <r>    18.7970     0.0000    52.0000 </r>
       <r>    18.9139     0.0000    52.0000 </r>
       <r>    19.0307     0.0000    52.0000 </r>
       <r>    19.1475     0.0000    52.0000 </r>
       <r>    19.2644     0.0000    52.0000 </r>
       <r>    19.3812     0.0000    52.0000 </r>
       <r>    19.4980     0.0000    52.0000 </r>
      </set>
      <set comment="spin 2">
       <r>   -15.5511     0.0000     0.0000 </r>
       <r>   -15.4343     0.0000     0.0000 </r>
       <r>   -15.3175     0.0000     0.0000 </r>
       <r>   -15.2006     0.0000     0.0000 </r>
       <r>   -15.0838     0.0000     0.0000 </r>
       <r>   -14.9670     0.0000     0.0000 </r>
       <r>   -14.8501     0.0000     0.0000 </r>
       <r>   -14.7333     0.0000     0.0000 </r>
       <r>   -14.6165     0.0000     0.0000 </r>
       <r>   -14.4996     0.0000     0.0000 </r>
       <r>   -14.3828     0.0000     0.0000 </r>
       <r>   -14.2660     0.0000     0.0000 </r>
       <r>   -14.1492     0.0000     0.0000 </r>
       <r>   -14.0323     0.0190     0.0022 </r>
       <r>   -13.9155     0.9282     0.1107 </r>
       <r>   -13.7987     0.1228     0.1250 </r>
       <r>   -13.6818     0.0000     0.1250 </r>
       <r>   -13.5650     0.0594     0.1319 </r>
       <r>   -13.4482     3.6652     0.5601 </r>
       <r>   -13.3313     3.9562     1.0224 </r>
       <r>   -13.2145     4.0589     1.4966 </r>
       <r>   -13.0977     1.9645     1.7261 </r>
       <r>   -12.9809     1.2744     1.8750 </r>
       <r>   -12.8640     1.7513     2.0796 </r>
       <r>   -12.7472    10.6415     3.3228 </r>
       <r>   -12.6304     9.5358     4.4369 </r>
       <r>   -12.5135     8.2509     5.4009 </r>
       <r>   -12.3967     5.3575     6.0268 </r>
       <r>   -12.2799     7.1732     6.8648 </r>
       <r>   -12.1630     8.0459     7.8048 </r>
       <r>   -12.0462     1.6696     7.9999 </r>
       <r>   -11.9294     0.0009     8.0000 </r>
       <r>   -11.8125     0.0000     8.0000 </r>
       <r>   -11.6957     0.0000     8.0000 </r>
       <r>   -11.5789     0.0000     8.0000 </r>
       <r>   -11.4621     0.0000     8.0000 </r>
       <r>   -11.3452     0.0000     8.0000 </r>
       <r>   -11.2284     0.0000     8.0000 </r>
       <r>   -11.1116     0.0000     8.0000 </r>
       <r>   -10.9947     0.0000     8.0000 </r>
       <r>   -10.8779     0.0000     8.0000 </r>
       <r>   -10.7611     0.0000     8.0000 </r>
       <r>   -10.6442     0.0000     8.0000 </r>
       <r>   -10.5274     0.0000     8.0000 </r>
       <r>   -10.4106     0.0000     8.0000 </r>
       <r>   -10.2938     0.0000     8.0000 </r>
       <r>   -10.1769     0.0000     8.0000 </r>
       <r>   -10.0601     0.0000     8.0000 </r>
       <r>    -9.9433     0.0000     8.0000 </r>
       <r>    -9.8264     0.0000     8.0000 </r>
       <r>    -9.7096     0.0000     8.0000 </r>
       <r>    -9.5928     0.0000     8.0000 </r>
       <r>    -9.4759     0.0000     8.0000 </r>
       <r>    -9.3591     0.0000     8.0000 </r>
       <r>    -9.2423     0.0000     8.0000 </r>
       <r>    -9.1254     0.0000     8.0000 </r>
       <r>    -9.0086     0.0000     8.0000 </r>
       <r>    -8.8918     0.0000     8.0000 </r>
       <r>    -8.7750     0.0000     8.0000 </r>
       <r>    -8.6581     0.0000     8.0000 </r>
       <r>    -8.5413     0.0000     8.0000 </r>
       <r>    -8.4245     0.0000     8.0000 </r>
       <r>    -8.3076     0.0000     8.0000 </r>
       <r>    -8.1908     0.0000     8.0000 </r>
       <r>    -8.0740     0.0000     8.0000 </r>
       <r>    -7.9571     0.0000     8.0000 </r>
       <r>    -7.8403     0.0000     8.0000 </r>
       <r>    -7.7235     0.0000     8.0000 </r>
       <r>    -7.6066     0.0000     8.0000 </r>
       <r>    -7.4898     0.0000     8.0000 </r>
       <r>    -7.3730     0.0000     8.0000 </r>
       <r>    -7.2562     0.0000     8.0000 </r>
       <r>    -7.1393     0.0000     8.0000 </r>
       <r>    -7.0225     0.0000     8.0000 </r>
       <r>    -6.9057     0.0000     8.0000 </r>
       <r>    -6.7888     0.0000     8.0000 </r>
       <r>    -6.6720     0.0000     8.0000 </r>
       <r>    -6.5552     0.0000     8.0000 </r>
       <r>    -6.4383     0.0000     8.0000 </r>
       <r>    -6.3215     0.0000     8.0000 </r>
       <r>    -6.2047     0.0000     8.0000 </r>
       <r>    -6.0879     0.0000     8.0000 </r>
       <r>    -5.9710     0.0000     8.0000 </r>
       <r>    -5.8542     0.0000     8.0000 </r>
       <r>    -5.7374     0.0000     8.0000 </r>
       <r>    -5.6205     0.0000     8.0000 </r>
       <r>    -5.5037     0.0000     8.0000 </r>
       <r>    -5.3869     0.0000     8.0000 </r>
       <r>    -5.2700     0.0000     8.0000 </r>
       <r>    -5.1532     0.0000     8.0000 </r>
       <r>    -5.0364     0.0000     8.0000 </r>
       <r>    -4.9195     0.0000     8.0000 </r>
       <r>    -4.8027     0.0000     8.0000 </r>
       <r>    -4.6859     0.0000     8.0000 </r>
       <r>    -4.5691     0.0000     8.0000 </r>
       <r>    -4.4522     0.0000     8.0000 </r>
       <r>    -4.3354     0.0000     8.0000 </r>
       <r>    -4.2186     0.0000     8.0000 </r>
       <r>    -4.1017     0.0000     8.0000 </r>
       <r>    -3.9849     0.0000     8.0000 </r>
       <r>    -3.8681     0.0000     8.0000 </r>
       <r>    -3.7512     0.0000     8.0000 </r>
       <r>    -3.6344     0.0000     8.0000 </r>
       <r>    -3.5176     0.0000     8.0000 </r>
       <r>    -3.4008     0.0000     8.0000 </r>
       <r>    -3.2839     0.0000     8.0000 </r>
       <r>    -3.1671     0.0000     8.0000 </r>
       <r>    -3.0503     0.0000     8.0000 </r>
       <r>    -2.9334     0.0000     8.0000 </r>
       <r>    -2.8166     0.0000     8.0000 </r>
       <r>    -2.6998     0.0000     8.0000 </r>
       <r>    -2.5829     0.0000     8.0000 </r>
       <r>    -2.4661     0.0000     8.0000 </r>
       <r>    -2.3493     0.0000     8.0000 </r>
       <r>    -2.2324     0.0710     8.0083 </r>
       <r>    -2.1156     0.9606     8.1205 </r>
       <r>    -1.9988     0.0384     8.1250 </r>
       <r>    -1.8820     0.0000     8.1250 </r>
       <r>    -1.7651     0.0000     8.1250 </r>
       <r>    -1.6483     0.0000     8.1250 </r>
       <r>    -1.5315     0.0000     8.1250 </r>
       <r>    -1.4146     0.0992     8.1366 </r>
       <r>    -1.2978     3.7708     8.5771 </r>
       <r>    -1.1810     1.3018     8.7292 </r>
       <r>    -1.0641     5.0522     9.3195 </r>
       <r>    -0.9473     0.6316     9.3933 </r>
       <r>    -0.8305     6.3619    10.1365 </r>
       <r>    -0.7137     0.9711    10.2500 </r>
       <r>    -0.5968     0.0001    10.2500 </r>
       <r>    -0.4800     0.5839    10.3182 </r>
       <r>    -0.3632    14.9815    12.0685 </r>
       <r>    -0.2463     1.6427    12.2604 </r>
       <r>    -0.1295     3.7469    12.6982 </r>
       <r>    -0.0127     5.7190    13.3663 </r>
       <r>     0.1042     4.3617    13.8759 </r>
       <r>     0.2210     2.1314    14.1249 </r>
       <r>     0.3378     0.0379    14.1294 </r>
       <r>     0.4547     6.3964    14.8766 </r>
       <r>     0.5715    10.4018    16.0919 </r>
       <r>     0.6883     2.3344    16.3646 </r>
       <r>     0.8051     2.2269    16.6248 </r>
       <r>     0.9220     1.3090    16.7777 </r>
       <r>     1.0388     3.7367    17.2143 </r>
       <r>     1.1556     6.6711    17.9937 </r>
       <r>     1.2725     0.8077    18.0880 </r>
       <r>     1.3893    13.2469    19.6357 </r>
       <r>     1.5061     1.4466    19.8047 </r>
       <r>     1.6230     8.7396    20.8257 </r>
       <r>     1.7398     8.4333    21.8110 </r>
       <r>     1.8566     2.1921    22.0671 </r>
       <r>     1.9735     3.9601    22.5298 </r>
       <r>     2.0903     0.8361    22.6275 </r>
       <r>     2.2071     7.1867    23.4671 </r>
[...]
        <r>  0.0216  0.0064  0.0094  0.0005  0.0000  0.0000  0.0000  0.0000  0.0000 </r>
        <r>  0.0227  0.0130  0.0075  0.0034  0.0000  0.0000  0.0000  0.0000  0.0000 </r>
        <r>  0.0003  0.0060  0.0039  0.0000  0.0000  0.0000  0.0000  0.0000  0.0000 </r>
        <r>  0.0000  0.0028  0.0015  0.0004  0.0000  0.0000  0.0000  0.0000  0.0000 </r>
        <r>  0.0130  0.0227  0.0149  0.0029  0.0000  0.0000  0.0000  0.0000  0.0000 </r>
        <r>  0.0083  0.0161  0.0199  0.0030  0.0000  0.0000  0.0000  0.0000  0.0000 </r>
        <r>  0.0001  0.0008  0.0008  0.0001  0.0000  0.0000  0.0000  0.0000  0.0000 </r>
       </set>
       <set comment="band 41">
        <r>  0.0628  0.0000  0.0000  0.0000  0.0000  0.0000  0.0000  0.0000  0.0000 </r>
        <r>  0.0000  0.0016  0.0060  0.0018  0.0000  0.0000  0.0000  0.0000  0.0000 </r>
        <r>  0.0002  0.0060  0.0016  0.0017  0.0000  0.0000  0.0000  0.0000  0.0000 </r>
        <r>  0.0043  0.0000  0.0001  0.0000  0.0037  0.0080  0.0001  0.0037  0.0004 </r>
        <r>  0.0002  0.0017  0.0017  0.0060  0.0000  0.0000  0.0000  0.0000  0.0000 </r>
        <r>  0.0041  0.0001  0.0000  0.0000  0.0038  0.0039  0.0001  0.0079  0.0004 </r>
        <r>  0.0044  0.0000  0.0000  0.0000  0.0079  0.0039  0.0005  0.0037  0.0000 </r>
        <r>  0.0000  0.0037  0.0036  0.0036  0.0000  0.0000  0.0000  0.0000  0.0000 </r>
        <r>  0.0008  0.0142  0.0154  0.0163  0.0000  0.0000  0.0000  0.0000  0.0000 </r>
        <r>  0.0004  0.0001  0.0258  0.0000  0.0000  0.0000  0.0000  0.0000  0.0000 </r>
        <r>  0.0008  0.0248  0.0001  0.0000  0.0000  0.0000  0.0000  0.0000  0.0000 </r>
        <r>  0.0005  0.0001  0.0001  0.0236  0.0000  0.0000  0.0000  0.0000  0.0000 </r>
        <r>  0.0001  0.0002  0.0001  0.0272  0.0000  0.0000  0.0000  0.0000  0.0000 </r>
        <r>  0.0001  0.0265  0.0002  0.0003  0.0000  0.0000  0.0000  0.0000  0.0000 </r>
        <r>  0.0002  0.0001  0.0255  0.0003  0.0000  0.0000  0.0000  0.0000  0.0000 </r>
        <r>  0.0014  0.0137  0.0130  0.0121  0.0000  0.0000  0.0000  0.0000  0.0000 </r>
       </set>
       <set comment="band 42">
        <r>  0.0000  0.0039  0.0042  0.0042  0.0000  0.0000  0.0000  0.0000  0.0000 </r>
        <r>  0.0074  0.0000  0.0000  0.0000  0.0118  0.0019  0.0001  0.0019  0.0000 </r>
        <r>  0.0085  0.0001  0.0000  0.0000  0.0020  0.0018  0.0000  0.0115  0.0001 </r>
        <r>  0.0003  0.0001  0.0000  0.0002  0.0000  0.0000  0.0000  0.0000  0.0000 </r>
        <r>  0.0078  0.0000  0.0000  0.0000  0.0020  0.0116  0.0000  0.0019  0.0001 </r>
        <r>  0.0001  0.0002  0.0001  0.0000  0.0000  0.0000  0.0000  0.0000  0.0000 </r>
        <r>  0.0000  0.0001  0.0002  0.0000  0.0000  0.0000  0.0000  0.0000  0.0000 </r>
        <r>  0.1057  0.0000  0.0000  0.0000  0.0031  0.0030  0.0000  0.0029  0.0000 </r>
        <r>  0.0028  0.0030  0.0026  0.0021  0.0000  0.0000  0.0000  0.0000  0.0000 </r>
        <r>  0.0000  0.0026  0.0432  0.0025  0.0000  0.0000  0.0000  0.0000  0.0000 </r>
        <r>  0.0001  0.0433  0.0027  0.0021  0.0000  0.0000  0.0000  0.0000  0.0000 </r>
        <r>  0.0000  0.0027  0.0030  0.0479  0.0000  0.0000  0.0000  0.0000  0.0000 </r>
        <r>  0.0000  0.0021  0.0027  0.0425  0.0000  0.0000  0.0000  0.0000  0.0000 </r>
        <r>  0.0000  0.0453  0.0026  0.0032  0.0000  0.0000  0.0000  0.0000  0.0000 </r>
        <r>  0.0000  0.0026  0.0461  0.0035  0.0000  0.0000  0.0000  0.0000  0.0000 </r>
        <r>  0.0034  0.0035  0.0030  0.0038  0.0000  0.0000  0.0000  0.0000  0.0000 </r>
       </set>
       <set comment="band 43">
        <r>  0.0000  0.0020  0.0024  0.0001  0.0000  0.0000  0.0000  0.0000  0.0000 </r>
        <r>  0.0625  0.0000  0.0000  0.0000  0.0055  0.0006  0.0001  0.0025  0.0000 </r>
        <r>  0.0452  0.0000  0.0000  0.0000  0.0049  0.0024  0.0000  0.0044  0.0002 </r>
        <r>  0.0000  0.0004  0.0008  0.0000  0.0000  0.0000  0.0000  0.0000  0.0000 </r>
        <r>  0.0013  0.0000  0.0000  0.0000  0.0097  0.0002  0.0002  0.0090  0.0001 </r>
        <r>  0.0001  0.0007  0.0018  0.0002  0.0000  0.0000  0.0000  0.0000  0.0000 </r>
        <r>  0.0001  0.0016  0.0009  0.0005  0.0000  0.0000  0.0000  0.0000  0.0000 </r>
        <r>  0.0000  0.0000  0.0000  0.0000  0.0142  0.0003  0.0005  0.0109  0.0001 </r>
        <r>  0.0000  0.0225  0.0310  0.0008  0.0000  0.0000  0.0000  0.0000  0.0000 </r>
        <r>  0.0036  0.0001  0.0003  0.0190  0.0000  0.0000  0.0000  0.0000  0.0000 </r>
        <r>  0.0025  0.0004  0.0014  0.0247  0.0000  0.0000  0.0000  0.0000  0.0000 </r>
        <r>  0.0001  0.0325  0.0233  0.0001  0.0000  0.0000  0.0000  0.0000  0.0000 </r>
        <r>  0.0001  0.0290  0.0239  0.0000  0.0000  0.0000  0.0000  0.0000  0.0000 </r>
        <r>  0.0024  0.0003  0.0015  0.0295  0.0000  0.0000  0.0000  0.0000  0.0000 </r>
        <r>  0.0031  0.0001  0.0002  0.0186  0.0000  0.0000  0.0000  0.0000  0.0000 </r>
        <r>  0.0000  0.0212  0.0289  0.0004  0.0000  0.0000  0.0000  0.0000  0.0000 </r>
       </set>
       <set comment="band 44">
        <r>  0.0000  0.0011  0.0003  0.0026  0.0000  0.0000  0.0000  0.0000  0.0000 </r>
        <r>  0.0110  0.0000  0.0000  0.0000  0.0010  0.0092  0.0000  0.0071  0.0003 </r>
        <r>  0.0273  0.0000  0.0000  0.0000  0.0047  0.0074  0.0002  0.0026  0.0000 </r>
        <r>  0.0000  0.0013  0.0009  0.0011  0.0000  0.0000  0.0000  0.0000  0.0000 </r>
        <r>  0.0721  0.0000  0.0001  0.0000  0.0000  0.0066  0.0000  0.0007  0.0001 </r>
        <r>  0.0000  0.0004  0.0000  0.0015  0.0000  0.0000  0.0000  0.0000  0.0000 </r>
        <r>  0.0000  0.0001  0.0001  0.0011  0.0000  0.0000  0.0000  0.0000  0.0000 </r>
        <r>  0.0000  0.0000  0.0000  0.0000  0.0025  0.0165  0.0001  0.0064  0.0005 </r>
        <r>  0.0000  0.0136  0.0058  0.0346  0.0000  0.0000  0.0000  0.0000  0.0000 </r>
        <r>  0.0004  0.0320  0.0000  0.0156  0.0000  0.0000  0.0000  0.0000  0.0000 </r>
        <r>  0.0013  0.0002  0.0298  0.0070  0.0000  0.0000  0.0000  0.0000  0.0000 </r>
        <r>  0.0039  0.0037  0.0104  0.0002  0.0000  0.0000  0.0000  0.0000  0.0000 </r>
        <r>  0.0037  0.0032  0.0106  0.0003  0.0000  0.0000  0.0000  0.0000  0.0000 </r>
        <r>  0.0016  0.0001  0.0349  0.0067  0.0000  0.0000  0.0000  0.0000  0.0000 </r>
        <r>  0.0006  0.0357  0.0001  0.0145  0.0000  0.0000  0.0000  0.0000  0.0000 </r>
        <r>  0.0000  0.0125  0.0044  0.0335  0.0000  0.0000  0.0000  0.0000  0.0000 </r>
       </set>
       <set comment="band 45">
        <r>  0.0000  0.0001  0.0000  0.0000  0.0000  0.0000  0.0000  0.0000  0.0000 </r>
        <r>  0.0000  0.0002  0.0002  0.0009  0.0000  0.0000  0.0000  0.0000  0.0000 </r>
        <r>  0.0000  0.0009  0.0000  0.0013  0.0000  0.0000  0.0000  0.0000  0.0000 </r>
        <r>  0.0573  0.0000  0.0000  0.0000  0.0001  0.0055  0.0000  0.0019  0.0000 </r>
        <r>  0.0000  0.0012  0.0005  0.0018  0.0000  0.0000  0.0000  0.0000  0.0000 </r>
        <r>  0.0300  0.0000  0.0000  0.0000  0.0039  0.0074  0.0001  0.0029  0.0000 </r>
        <r>  0.0040  0.0000  0.0000  0.0000  0.0004  0.0108  0.0000  0.0093  0.0002 </r>
        <r>  0.0000  0.0005  0.0001  0.0010  0.0000  0.0000  0.0000  0.0000  0.0000 </r>
        <r>  0.0000  0.0165  0.0021  0.0297  0.0000  0.0000  0.0000  0.0000  0.0000 </r>
        <r>  0.0002  0.0354  0.0000  0.0185  0.0000  0.0000  0.0000  0.0000  0.0000 </r>
        <r>  0.0015  0.0000  0.0347  0.0032  0.0000  0.0000  0.0000  0.0000  0.0000 </r>
        <r>  0.0026  0.0014  0.0154  0.0001  0.0000  0.0000  0.0000  0.0000  0.0000 </r>
        <r>  0.0027  0.0019  0.0153  0.0003  0.0000  0.0000  0.0000  0.0000  0.0000 </r>
        <r>  0.0013  0.0003  0.0308  0.0033  0.0000  0.0000  0.0000  0.0000  0.0000 </r>
        <r>  0.0002  0.0326  0.0000  0.0193  0.0000  0.0000  0.0000  0.0000  0.0000 </r>
        <r>  0.0000  0.0163  0.0026  0.0332  0.0000  0.0000  0.0000  0.0000  0.0000 </r>
       </set>
       <set comment="band 46">
        <r>  0.0000  0.0000  0.0000  0.0000  0.0000  0.0000  0.0000  0.0000  0.0000 </r>
        <r>  0.0003  0.0011  0.0017  0.0005  0.0000  0.0000  0.0000  0.0000  0.0000 </r>
        <r>  0.0000  0.0009  0.0012  0.0000  0.0000  0.0000  0.0000  0.0000  0.0000 </r>
        <r>  0.0038  0.0000  0.0000  0.0000  0.0110  0.0004  0.0001  0.0094  0.0001 </r>
        <r>  0.0000  0.0002  0.0008  0.0001  0.0000  0.0000  0.0000  0.0000  0.0000 </r>
        <r>  0.0313  0.0000  0.0000  0.0000  0.0073  0.0037  0.0000  0.0030  0.0001 </r>
        <r>  0.0574  0.0000  0.0000  0.0000  0.0055  0.0001  0.0000  0.0020  0.0000 </r>
        <r>  0.0000  0.0005  0.0010  0.0001  0.0000  0.0000  0.0000  0.0000  0.0000 </r>
        <r>  0.0000  0.0173  0.0284  0.0021  0.0000  0.0000  0.0000  0.0000  0.0000 </r>
        <r>  0.0025  0.0015  0.0001  0.0157  0.0000  0.0000  0.0000  0.0000  0.0000 </r>
        <r>  0.0013  0.0000  0.0028  0.0351  0.0000  0.0000  0.0000  0.0000  0.0000 </r>
        <r>  0.0002  0.0314  0.0197  0.0000  0.0000  0.0000  0.0000  0.0000  0.0000 </r>
        <r>  0.0002  0.0359  0.0190  0.0000  0.0000  0.0000  0.0000  0.0000  0.0000 </r>
        <r>  0.0015  0.0001  0.0031  0.0296  0.0000  0.0000  0.0000  0.0000  0.0000 </r>
        <r>  0.0028  0.0015  0.0002  0.0166  0.0000  0.0000  0.0000  0.0000  0.0000 </r>
        <r>  0.0000  0.0163  0.0337  0.0021  0.0000  0.0000  0.0000  0.0000  0.0000 </r>
       </set>
       <set comment="band 47">
        <r>  0.0008  0.0101  0.0105  0.0099  0.0000  0.0000  0.0000  0.0000  0.0000 </r>
        <r>  0.0187  0.0002  0.0001  0.0003  0.0035  0.0100  0.0001  0.0100  0.0000 </r>
        <r>  0.0191  0.0001  0.0002  0.0003  0.0099  0.0101  0.0000  0.0035  0.0001 </r>
        <r>  0.0000  0.0003  0.0004  0.0076  0.0000  0.0001  0.0000  0.0001  0.0000 </r>
        <r>  0.0200  0.0002  0.0002  0.0001  0.0099  0.0035  0.0000  0.0101  0.0001 </r>
        <r>  0.0006  0.0075  0.0004  0.0004  0.0000  0.0000  0.0000  0.0001  0.0000 </r>
        <r>  0.0000  0.0004  0.0077  0.0004  0.0000  0.0000  0.0000  0.0001  0.0000 </r>
        <r>  0.0010  0.0001  0.0001  0.0002  0.0032  0.0032  0.0000  0.0031  0.0000 </r>
        <r>  0.0000  0.0139  0.0166  0.0165  0.0000  0.0000  0.0000  0.0000  0.0000 </r>
        <r>  0.0000  0.0022  0.0051  0.0029  0.0000  0.0000  0.0000  0.0000  0.0000 </r>
        <r>  0.0001  0.0049  0.0021  0.0020  0.0000  0.0000  0.0000  0.0000  0.0000 </r>
        <r>  0.0002  0.0055  0.0039  0.0030  0.0000  0.0000  0.0000  0.0000  0.0000 </r>
        <r>  0.0000  0.0021  0.0031  0.0051  0.0000  0.0000  0.0000  0.0000  0.0000 </r>
        <r>  0.0001  0.0033  0.0056  0.0058  0.0000  0.0000  0.0000  0.0000  0.0000 </r>
        <r>  0.0002  0.0055  0.0033  0.0042  0.0000  0.0000  0.0000  0.0000  0.0000 </r>
        <r>  0.0000  0.0231  0.0202  0.0207  0.0000  0.0000  0.0000  0.0000  0.0000 </r>
       </set>
       <set comment="band 48">
        <r>  0.0241  0.0002  0.0002  0.0001  0.0000  0.0000  0.0000  0.0000  0.0000 </r>
        <r>  0.0004  0.0149  0.0074  0.0140  0.0000  0.0001  0.0000  0.0002  0.0000 </r>
        <r>  0.0001  0.0077  0.0145  0.0139  0.0002  0.0001  0.0000  0.0000  0.0000 </r>
        <r>  0.0034  0.0000  0.0000  0.0001  0.0019  0.0074  0.0002  0.0018  0.0005 </r>
        <r>  0.0007  0.0148  0.0143  0.0074  0.0001  0.0000  0.0000  0.0002  0.0000 </r>
        <r>  0.0022  0.0001  0.0000  0.0000  0.0019  0.0020  0.0002  0.0073  0.0005 </r>
        <r>  0.0031  0.0000  0.0001  0.0000  0.0074  0.0020  0.0007  0.0018  0.0000 </r>
        <r>  0.0001  0.0109  0.0107  0.0106  0.0000  0.0000  0.0000  0.0000  0.0000 </r>
        <r>  0.0026  0.0092  0.0106  0.0110  0.0000  0.0000  0.0000  0.0000  0.0000 </r>
        <r>  0.0012  0.0105  0.0085  0.0096  0.0000  0.0000  0.0000  0.0000  0.0000 </r>
        <r>  0.0015  0.0089  0.0103  0.0100  0.0000  0.0000  0.0000  0.0000  0.0000 </r>
        <r>  0.0014  0.0070  0.0081  0.0091  0.0000  0.0000  0.0000  0.0000  0.0000 </r>
        <r>  0.0013  0.0102  0.0097  0.0082  0.0000  0.0000  0.0000  0.0000  0.0000 </r>
        <r>  0.0012  0.0095  0.0061  0.0063  0.0000  0.0000  0.0000  0.0000  0.0000 </r>
        <r>  0.0013  0.0063  0.0095  0.0076  0.0000  0.0000  0.0000  0.0000  0.0000 </r>
        <r>  0.0021  0.0052  0.0047  0.0045  0.0000  0.0000  0.0000  0.0000  0.0000 </r>
       </set>
       <set comment="band 49">
        <r>  0.0000  0.0004  0.0003  0.0012  0.0000  0.0000  0.0000  0.0000  0.0000 </r>
        <r>  0.0006  0.0015  0.0045  0.0011  0.0000  0.0001  0.0000  0.0000  0.0000 </r>
        <r>  0.0009  0.0042  0.0013  0.0011  0.0000  0.0001  0.0000  0.0000  0.0000 </r>
        <r>  0.0103  0.0003  0.0003  0.0003  0.0094  0.0057  0.0000  0.0092  0.0000 </r>
        <r>  0.0001  0.0017  0.0016  0.0050  0.0001  0.0000  0.0000  0.0001  0.0000 </r>
        <r>  0.0156  0.0000  0.0005  0.0008  0.0096  0.0093  0.0000  0.0057  0.0000 </r>
        <r>  0.0133  0.0006  0.0000  0.0008  0.0056  0.0093  0.0000  0.0094  0.0000 </r>
        <r>  0.0030  0.0035  0.0037  0.0044  0.0002  0.0001  0.0000  0.0001  0.0000 </r>
        <r>  0.0001  0.0153  0.0142  0.0141  0.0000  0.0000  0.0000  0.0000  0.0000 </r>
        <r>  0.0001  0.0105  0.0024  0.0103  0.0000  0.0000  0.0000  0.0000  0.0000 </r>
        <r>  0.0001  0.0022  0.0099  0.0100  0.0000  0.0000  0.0000  0.0000  0.0000 </r>
        <r>  0.0000  0.0053  0.0060  0.0043  0.0000  0.0000  0.0000  0.0000  0.0000 </r>
        <r>  0.0001  0.0100  0.0097  0.0017  0.0000  0.0000  0.0000  0.0000  0.0000 </r>
        <r>  0.0001  0.0024  0.0042  0.0038  0.0000  0.0000  0.0000  0.0000  0.0000 </r>
        <r>  0.0000  0.0042  0.0025  0.0045  0.0000  0.0000  0.0000  0.0000  0.0000 </r>
        <r>  0.0001  0.0083  0.0085  0.0087  0.0000  0.0000  0.0000  0.0000  0.0000 </r>
       </set>
       <set comment="band 50">
        <r>  0.0001  0.0215  0.0226  0.0213  0.0000  0.0000  0.0000  0.0000  0.0000 </r>
        <r>  0.0062  0.0000  0.0002  0.0003  0.0001  0.0019  0.0002  0.0020  0.0000 </r>
        <r>  0.0074  0.0005  0.0001  0.0005  0.0021  0.0019  0.0000  0.0001  0.0001 </r>
        <r>  0.0031  0.0150  0.0156  0.0028  0.0004  0.0001  0.0000  0.0004  0.0000 </r>
        <r>  0.0076  0.0000  0.0000  0.0000  0.0021  0.0001  0.0000  0.0020  0.0001 </r>
        <r>  0.0001  0.0028  0.0153  0.0151  0.0002  0.0004  0.0000  0.0002  0.0000 </r>
        <r>  0.0003  0.0145  0.0032  0.0147  0.0002  0.0004  0.0000  0.0003  0.0000 </r>
        <r>  0.0729  0.0004  0.0002  0.0000  0.0031  0.0033  0.0000  0.0033  0.0000 </r>
        <r>  0.0001  0.0037  0.0036  0.0037  0.0000  0.0000  0.0000  0.0000  0.0000 </r>
        <r>  0.0001  0.0054  0.0029  0.0051  0.0000  0.0000  0.0000  0.0000  0.0000 </r>
        <r>  0.0001  0.0030  0.0050  0.0044  0.0000  0.0000  0.0000  0.0000  0.0000 </r>
        <r>  0.0001  0.0099  0.0098  0.0022  0.0000  0.0000  0.0000  0.0000  0.0000 </r>
        <r>  0.0001  0.0067  0.0070  0.0017  0.0000  0.0000  0.0000  0.0000  0.0000 </r>
        <r>  0.0002  0.0010  0.0129  0.0135  0.0000  0.0000  0.0000  0.0000  0.0000 </r>
        <r>  0.0001  0.0113  0.0015  0.0119  0.0000  0.0000  0.0000  0.0000  0.0000 </r>
        <r>  0.0001  0.0099  0.0105  0.0101  0.0000  0.0000  0.0000  0.0000  0.0000 </r>
       </set>
       <set comment="band 51">
        <r>  0.0000  0.0173  0.0499  0.0110  0.0000  0.0000  0.0000  0.0000  0.0000 </r>
        <r>  0.1363  0.0002  0.0007  0.0008  0.0002  0.0000  0.0000  0.0001  0.0000 </r>
        <r>  0.0431  0.0002  0.0006  0.0003  0.0022  0.0022  0.0000  0.0001  0.0000 </r>
        <r>  0.0031  0.0003  0.0079  0.0039  0.0000  0.0000  0.0000  0.0000  0.0000 </r>
        <r>  0.0261  0.0001  0.0011  0.0006  0.0025  0.0001  0.0000  0.0025  0.0000 </r>
        <r>  0.0006  0.0060  0.0095  0.0006  0.0001  0.0000  0.0000  0.0000  0.0000 </r>
        <r>  0.0049  0.0131  0.0177  0.0122  0.0000  0.0000  0.0000  0.0000  0.0000 </r>
        <r>  0.0000  0.0001  0.0005  0.0005  0.0029  0.0005  0.0006  0.0008  0.0000 </r>
        <r>  0.0000  0.0000  0.0000  0.0000  0.0000  0.0000  0.0000  0.0000  0.0000 </r>
        <r>  0.0000  0.0079  0.0261  0.0074  0.0000  0.0000  0.0000  0.0000  0.0000 </r>
        <r>  0.0000  0.0073  0.0048  0.0003  0.0000  0.0000  0.0000  0.0000  0.0000 </r>
        <r>  0.0000  0.0002  0.0009  0.0026  0.0000  0.0000  0.0000  0.0000  0.0000 </r>
        <r>  0.0000  0.0004  0.0053  0.0066  0.0000  0.0000  0.0000  0.0000  0.0000 </r>
        <r>  0.0000  0.0060  0.0026  0.0007  0.0000  0.0000  0.0000  0.0000  0.0000 </r>
        <r>  0.0000  0.0035  0.0150  0.0038  0.0000  0.0000  0.0000  0.0000  0.0000 </r>
        <r>  0.0000  0.0001  0.0000  0.0001  0.0000  0.0000  0.0000  0.0000  0.0000 </r>
       </set>
       <set comment="band 52">
        <r>  0.0002  0.0360  0.0004  0.0392  0.0000  0.0000  0.0000  0.0000  0.0000 </r>
        <r>  0.0010  0.0001  0.0007  0.0012  0.0000  0.0031  0.0000  0.0030  0.0000 </r>
        <r>  0.0979  0.0001  0.0006  0.0008  0.0008  0.0009  0.0000  0.0002  0.0000 </r>
        <r>  0.0072  0.0135  0.0055  0.0139  0.0000  0.0000  0.0000  0.0000  0.0000 </r>
        <r>  0.1001  0.0006  0.0015  0.0013  0.0007  0.0002  0.0000  0.0007  0.0000 </r>
        <r>  0.0006  0.0128  0.0050  0.0143  0.0002  0.0000  0.0000  0.0000  0.0000 </r>
        <r>  0.0067  0.0019  0.0001  0.0027  0.0000  0.0000  0.0000  0.0002  0.0000 </r>
        <r>  0.0000  0.0001  0.0006  0.0012  0.0000  0.0021  0.0000  0.0019  0.0005 </r>
        <r>  0.0000  0.0000  0.0000  0.0000  0.0000  0.0000  0.0000  0.0000  0.0000 </r>
        <r>  0.0000  0.0006  0.0008  0.0023  0.0000  0.0000  0.0000  0.0000  0.0000 </r>
        <r>  0.0000  0.0151  0.0019  0.0065  0.0000  0.0000  0.0000  0.0000  0.0000 </r>
        <r>  0.0000  0.0021  0.0008  0.0084  0.0000  0.0000  0.0000  0.0000  0.0000 </r>
        <r>  0.0000  0.0100  0.0058  0.0245  0.0000  0.0000  0.0000  0.0000  0.0000 </r>
        <r>  0.0000  0.0144  0.0031  0.0051  0.0000  0.0000  0.0000  0.0000  0.0000 </r>
        <r>  0.0000  0.0007  0.0001  0.0001  0.0000  0.0000  0.0000  0.0000  0.0000 </r>
        <r>  0.0000  0.0000  0.0000  0.0002  0.0000  0.0000  0.0000  0.0000  0.0000 </r>
       </set>
      </set>
     </set>
    </set>
   </array>
  </projected>
 </calculation>
 <structure name="finalpos" >
  <crystal>
   <varray name="basis" >
    <v>       0.00000000       4.24689300       4.24689300 </v>
    <v>       4.24689300       0.00000000       4.24689300 </v>
    <v>       4.24689300       4.24689300       0.00000000 </v>
   </varray>
   <i name="volume">    153.19477498 </i>
   <varray name="rec_basis" >
    <v>      -0.11773313       0.11773313       0.11773313 </v>
    <v>       0.11773313      -0.11773313       0.11773313 </v>
    <v>       0.11773313       0.11773313      -0.11773313 </v>
   </varray>
  </crystal>
  <varray name="positions" >
   <v>       0.99400462       0.00676854       0.99960542 </v>
   <v>       0.99653856       0.00544546       0.50001652 </v>
   <v>       0.99611424       0.50615285       0.00034874 </v>
   <v>       0.99699057       0.50603290       0.50029595 </v>
   <v>       0.49435508       0.00540446       0.00148660 </v>
   <v>       0.49551553       0.00696373       0.50081894 </v>
   <v>       0.49580073       0.50602891       0.00101236 </v>
   <v>       0.49639732       0.50568559       0.50140098 </v>
   <v>       0.24553624       0.25671138       0.25030868 </v>
   <v>       0.24064501       0.25174049       0.75500709 </v>
   <v>       0.24186621       0.75982639       0.24743277 </v>
   <v>       0.24053186       0.76088128       0.75648928 </v>
   <v>       0.75193772       0.24953857       0.24458265 </v>
   <v>       0.75291266       0.24925374       0.75789167 </v>
   <v>       0.75232961       0.76162005       0.24514876 </v>
   <v>       0.74522805       0.75689363       0.75056861 </v>
  </varray>
 </structure>
</modeling>
