 vasp.5.4.4.18Apr17-6-g9f103f2a35 (build Apr 25 2017 10:43:04) complex          
  
 executed on             LinuxIFC date 2019.08.24  15:43:47
 running on   36 total cores
 distrk:  each k-point on   36 cores,    1 groups
 distr:  one band on NCORES_PER_BAND=   1 cores,   36 groups


--------------------------------------------------------------------------------------------------------


 INCAR:
 POTCAR:    PAW_PBE Mg 13Apr2007                  
 POTCAR:    PAW_PBE O 08Apr2002                   

 ----------------------------------------------------------------------------- 
|                                                                             |
|           W    W    AA    RRRRR   N    N  II  N    N   GGGG   !!!           |
|           W    W   A  A   R    R  NN   N  II  NN   N  G    G  !!!           |
|           W    W  A    A  R    R  N N  N  II  N N  N  G       !!!           |
|           W WW W  AAAAAA  RRRRR   N  N N  II  N  N N  G  GGG   !            |
|           WW  WW  A    A  R   R   N   NN  II  N   NN  G    G                |
|           W    W  A    A  R    R  N    N  II  N    N   GGGG   !!!           |
|                                                                             |
|      For optimal performance we recommend to set                            |
|        NCORE= 4 - approx SQRT( number of cores)                             |
|      NCORE specifies how many cores store one orbital (NPAR=cpu/NCORE).     |
|      This setting can  greatly improve the performance of VASP for DFT.     |
|      The default,   NCORE=1            might be grossly inefficient         |
|      on modern multi-core architectures or massively parallel machines.     |
|      Do your own testing !!!!                                               |
|      Unfortunately you need to use the default for GW and RPA calculations. |
|      (for HF NCORE is supported but not extensively tested yet)             |
|                                                                             |
 ----------------------------------------------------------------------------- 

 POTCAR:    PAW_PBE Mg 13Apr2007                  
   VRHFIN =Mg: s2p0                                                             
   LEXCH  = PE                                                                  
   EATOM  =    23.0369 eV,    1.6932 Ry                                         
                                                                                
   TITEL  = PAW_PBE Mg 13Apr2007                                                
   LULTRA =        F    use ultrasoft PP ?                                      
   IUNSCR =        1    unscreen: 0-lin 1-nonlin 2-no                           
   RPACOR =    1.500    partial core radius                                     
   POMASS =   24.305; ZVAL   =    2.000    mass and valenz                      
   RCORE  =    2.000    outmost cutoff radius                                   
   RWIGS  =    2.880; RWIGS  =    1.524    wigner-seitz radius (au A)           
   ENMAX  =  200.000; ENMIN  =  100.000 eV                                      
   RCLOC  =    1.506    cutoff for local pot                                    
   LCOR   =        T    correct aug charges                                     
   LPAW   =        T    paw PP                                                  
   EAUG   =  454.734                                                            
   DEXC   =    0.000                                                            
   RMAX   =    2.045    core radius for proj-oper                               
   RAUG   =    1.300    factor for augmentation sphere                          
   RDEP   =    2.025    radius for radial grids                                 
   RDEPT  =    1.942    core radius for aug-charge                              
                                                                                
   Atomic configuration                                                         
    6 entries                                                                   
     n  l   j            E        occ.                                          
     1  0  0.50     -1259.6230   2.0000                                         
     2  0  0.50       -79.8442   2.0000                                         
     2  1  1.50       -46.6121   6.0000                                         
     3  0  0.50        -4.7055   2.0000                                         
     3  1  0.50        -1.3660   0.0000                                         
     3  2  1.50        -1.3606   0.0000                                         
   Description                                                                  
     l       E           TYP  RCUT    TYP  RCUT                                 
     0     -4.7054661     23  2.000                                             
     0     27.2116520     23  2.000                                             
     1      1.3605826     23  2.000                                             
     1     27.2116520     23  2.000                                             
     2     -1.3605826     23  2.000                                             
  local pseudopotential read in
  partial core-charges read in
  partial kinetic energy density read in
  atomic valenz-charges read in
  non local Contribution for L=           0  read in
    real space projection operators read in
  non local Contribution for L=           0  read in
    real space projection operators read in
  non local Contribution for L=           1  read in
    real space projection operators read in
  non local Contribution for L=           1  read in
    real space projection operators read in
  non local Contribution for L=           2  read in
    real space projection operators read in
    PAW grid and wavefunctions read in
 
   number of l-projection  operators is LMAX  =           5
   number of lm-projection operators is LMMAX =          13
 
 POTCAR:    PAW_PBE O 08Apr2002                   
   VRHFIN =O: s2p4                                                              
   LEXCH  = PE                                                                  
   EATOM  =   432.3788 eV,   31.7789 Ry                                         
                                                                                
   TITEL  = PAW_PBE O 08Apr2002                                                 
   LULTRA =        F    use ultrasoft PP ?                                      
   IUNSCR =        1    unscreen: 0-lin 1-nonlin 2-no                           
   RPACOR =    1.200    partial core radius                                     
   POMASS =   16.000; ZVAL   =    6.000    mass and valenz                      
   RCORE  =    1.520    outmost cutoff radius                                   
   RWIGS  =    1.550; RWIGS  =    0.820    wigner-seitz radius (au A)           
   ENMAX  =  400.000; ENMIN  =  300.000 eV                                      
   ICORE  =        2    local potential                                         
   LCOR   =        T    correct aug charges                                     
   LPAW   =        T    paw PP                                                  
   EAUG   =  605.392                                                            
   DEXC   =    0.000                                                            
   RMAX   =    1.553    core radius for proj-oper                               
   RAUG   =    1.300    factor for augmentation sphere                          
   RDEP   =    1.550    radius for radial grids                                 
   RDEPT  =    1.329    core radius for aug-charge                              
                                                                                
   Atomic configuration                                                         
    4 entries                                                                   
     n  l   j            E        occ.                                          
     1  0  0.50      -514.6923   2.0000                                         
     2  0  0.50       -23.9615   2.0000                                         
     2  1  0.50        -9.0305   4.0000                                         
     3  2  1.50        -9.5241   0.0000                                         
   Description                                                                  
     l       E           TYP  RCUT    TYP  RCUT                                 
     0    -23.9615318     23  1.200                                             
     0     -9.5240782     23  1.200                                             
     1     -9.0304911     23  1.520                                             
     1      8.1634956     23  1.520                                             
     2     -9.5240782      7  1.500                                             
  local pseudopotential read in
  partial core-charges read in
  partial kinetic energy density read in
  kinetic energy density of atom read in
  atomic valenz-charges read in
  non local Contribution for L=           0  read in
    real space projection operators read in
  non local Contribution for L=           0  read in
    real space projection operators read in
  non local Contribution for L=           1  read in
    real space projection operators read in
  non local Contribution for L=           1  read in
    real space projection operators read in
    PAW grid and wavefunctions read in
 
   number of l-projection  operators is LMAX  =           4
   number of lm-projection operators is LMMAX =           8
 
 Optimization of the real space projectors (new method)

 maximal supplied QI-value         = 18.90
 optimisation between [QCUT,QGAM] = [ 10.20, 20.41] = [ 29.16,116.64] Ry 
 Optimized for a Real-space Cutoff    1.30 Angstroem

   l    n(q)    QCUT    max X(q) W(low)/X(q) W(high)/X(q)  e(spline) 
   0      8    10.205    28.265    0.22E-03    0.17E-03    0.53E-07
   0      8    10.205    10.429    0.17E-03    0.15E-03    0.43E-07
   1      7    10.205    13.073    0.71E-04    0.41E-03    0.76E-07
   1      7    10.205     9.625    0.71E-04    0.33E-03    0.63E-07
   2      7    10.205     4.652    0.24E-03    0.41E-03    0.55E-07
 Optimization of the real space projectors (new method)

 maximal supplied QI-value         = 24.76
 optimisation between [QCUT,QGAM] = [ 10.15, 20.30] = [ 28.85,115.39] Ry 
 Optimized for a Real-space Cutoff    1.38 Angstroem

   l    n(q)    QCUT    max X(q) W(low)/X(q) W(high)/X(q)  e(spline) 
   0      8    10.150    20.381    0.22E-03    0.32E-03    0.29E-06
   0      8    10.150    15.268    0.23E-03    0.35E-03    0.30E-06
   1      8    10.150     5.964    0.46E-03    0.53E-03    0.21E-06
   1      8    10.150     5.382    0.38E-03    0.45E-03    0.19E-06

 ----------------------------------------------------------------------------- 
|                                                                             |
|  ADVICE TO THIS USER RUNNING 'VASP/VAMP'   (HEAR YOUR MASTER'S VOICE ...):  |
|                                                                             |
|      You enforced a specific xc-type in the INCAR file,                     |
|      a different type was found on the POTCAR file                          |
|          I HOPE YOU KNOW, WHAT YOU ARE  DOING                               |
|                                                                             |
 ----------------------------------------------------------------------------- 

  PAW_PBE Mg 13Apr2007                  :
 energy of atom  1       EATOM=  -23.0369
 kinetic energy error for atom=    0.0001 (will be added to EATOM!!)
  PAW_PBE O 08Apr2002                   :
 energy of atom  2       EATOM= -432.3788
 kinetic energy error for atom=    0.1156 (will be added to EATOM!!)
 
 
 POSCAR: Mg32 O33                                
  positions in direct lattice
  velocities in cartesian coordinates
 exchange correlation table for  LEXCH =       14
   RHO(1)=    0.500       N(1)  =     2000
   RHO(2)=  100.500       N(2)  =     4000
 


--------------------------------------------------------------------------------------------------------


 ion  position               nearest neighbor table
   1  0.993  0.993  0.993-  33 1.93  38 2.05  51 2.05  60 2.05  50 2.36  58 2.36  34 2.36  22 2.91
                            31 2.91  12 2.91  21 3.02  11 3.02  27 3.02  29 3.02  10 3.02  18 3.02
   2  0.998  0.998  0.505-  50 1.97  51 2.06  39 2.11  61 2.11  59 2.13  35 2.13  12 2.93  22 2.93
                            18 2.94  10 2.94  32 2.95  30 2.99  28 2.99  11 3.01  21 3.01   9 3.02
   3  0.998  0.505  0.998-  58 1.97  60 2.06  40 2.11  53 2.11  52 2.13  36 2.13  12 2.93  31 2.93
                            27 2.94  11 2.94  24 2.95  23 2.99  20 2.99  29 3.01  10 3.01  25 3.02
   4  1.000  0.501  0.501-  53 2.07  61 2.07  41 2.10  37 2.11  59 2.11  52 2.11   9 2.91  10 2.93
                            11 2.93  12 2.94  20 2.96  28 2.96  24 2.97  32 2.97  19 2.99  26 2.99
   5  0.505  0.998  0.998-  34 1.97  38 2.06  55 2.11  64 2.11  54 2.13  62 2.13  22 2.93  31 2.93
                            29 2.94  21 2.94  16 2.95  15 2.99  14 2.99  18 3.01  27 3.01  25 3.02
   6  0.501  1.000  0.501-  39 2.07  55 2.07  65 2.10  63 2.11  54 2.11  35 2.11  17 2.91  18 2.93
                            21 2.93  22 2.94  14 2.96  30 2.96  16 2.97  32 2.97  13 2.99  26 2.99
   7  0.501  0.501  1.000-  40 2.07  64 2.07  57 2.10  56 2.11  62 2.11  36 2.11  25 2.91  27 2.93
                            29 2.93  31 2.94  15 2.96  23 2.96  16 2.97  24 2.97  13 2.99  19 2.99
   8  0.500  0.500  0.500-  41 2.11  57 2.11  65 2.11  37 2.11  63 2.11  56 2.11  13 2.95  19 2.95
                            26 2.95  14 2.97  20 2.97  23 2.97  15 2.97  28 2.97  30 2.97  24 2.97
   9  0.993  0.257  0.257-  33 1.93  46 2.05  52 2.05  59 2.05  58 2.36  50 2.36  42 2.36  23 2.91
                            30 2.91   4 2.91  21 3.02   3 3.02  26 3.02  29 3.02   2 3.02  19 3.02
  10  0.998  0.252  0.745-  58 1.97  59 2.06  47 2.11  53 2.11  51 2.13  43 2.13   4 2.93  30 2.93
                            26 2.94   2 2.94  24 2.95  22 2.99  20 2.99  29 3.01   3 3.01  25 3.02
  11  0.998  0.745  0.252-  50 1.97  52 2.06  48 2.11  61 2.11  60 2.13  44 2.13   4 2.93  23 2.93
                            19 2.94   3 2.94  32 2.95  31 2.99  28 2.99   2 3.01  21 3.01   1 3.02
  12  1.000  0.749  0.749-  53 2.07  61 2.07  49 2.10  45 2.11  60 2.11  51 2.11   1 2.91   2 2.93
                             3 2.93   4 2.94  20 2.96  28 2.96  24 2.97  32 2.97  27 2.99  18 2.99
  13  0.505  0.252  0.252-  42 1.97  46 2.06  56 2.11  63 2.11  62 2.13  54 2.13  23 2.93  30 2.93
                            29 2.94  21 2.94   8 2.95   7 2.99   6 2.99  19 3.01  26 3.01  25 3.02
  14  0.501  0.250  0.749-  47 2.07  63 2.07  57 2.10  55 2.11  62 2.11  43 2.11  25 2.91  26 2.93
                            29 2.93  30 2.94   6 2.96  22 2.96   8 2.97  24 2.97   5 2.99  18 2.99
  15  0.501  0.749  0.250-  48 2.07  56 2.07  65 2.10  64 2.11  54 2.11  44 2.11  17 2.91  19 2.93
                            21 2.93  23 2.94   7 2.96  31 2.96   8 2.97  32 2.97   5 2.99  27 2.99
  16  0.500  0.750  0.750-  49 2.11  57 2.11  65 2.11  45 2.11  64 2.11  55 2.11   5 2.95  18 2.95
                            27 2.95   6 2.97  20 2.97  22 2.97   7 2.97  28 2.97  31 2.97  24 2.97
  17  0.257  0.993  0.257-  33 1.93  35 2.05  44 2.05  54 2.05  34 2.36  50 2.36  42 2.36  15 2.91
                            28 2.91   6 2.91  13 3.02   5 3.02  26 3.02  27 3.02   2 3.02  11 3.02
  18  0.252  0.998  0.745-  34 1.97  35 2.06  45 2.11  55 2.11  51 2.13  43 2.13   6 2.93  28 2.93
                            26 2.94   2 2.94  16 2.95  14 2.99  12 2.99  27 3.01   5 3.01  25 3.02
  19  0.252  0.505  0.252-  42 1.97  44 2.06  37 2.11  56 2.11  36 2.13  52 2.13  15 2.93  28 2.93
                            27 2.94  11 2.94   8 2.95   7 2.99   4 2.99  13 3.01  26 3.01  25 3.02
  20  0.250  0.501  0.749-  37 2.07  45 2.07  57 2.10  53 2.11  43 2.11  36 2.11  25 2.91  26 2.93
                            27 2.93  28 2.94   4 2.96  12 2.96   8 2.97  16 2.97   3 2.99  10 2.99
  21  0.745  0.998  0.252-  50 1.97  54 2.06  39 2.11  48 2.11  38 2.13  46 2.13   6 2.93  15 2.93
                            13 2.94   5 2.94  32 2.95  31 2.99  30 2.99  11 3.01   2 3.01   1 3.02
  22  0.749  1.000  0.749-  39 2.07  55 2.07  49 2.10  47 2.11  51 2.11  38 2.11   1 2.91   2 2.93
                             5 2.93   6 2.94  14 2.96  30 2.96  16 2.97  32 2.97  29 2.99  10 2.99
  23  0.749  0.501  0.250-  48 2.07  56 2.07  41 2.10  40 2.11  52 2.11  46 2.11   9 2.91  11 2.93
                            13 2.93  15 2.94   7 2.96  31 2.96   8 2.97  32 2.97   3 2.99  29 2.99
  24  0.750  0.500  0.750-  41 2.11  49 2.11  57 2.11  40 2.11  53 2.11  47 2.11   3 2.95  10 2.95
                            29 2.95   4 2.97  12 2.97  14 2.97   7 2.97  30 2.97  31 2.97  16 2.97
  25  0.257  0.257  0.993-  33 1.93  36 2.05  43 2.05  62 2.05  42 2.36  58 2.36  34 2.36  14 2.91
                            20 2.91   7 2.91  13 3.02   5 3.02  18 3.02  19 3.02   3 3.02  10 3.02
  26  0.252  0.252  0.505-  42 1.97  43 2.06  37 2.11  63 2.11  59 2.13  35 2.13  14 2.93  20 2.93
                            18 2.94  10 2.94   8 2.95   6 2.99   4 2.99  19 3.01  13 3.01  17 3.02
  27  0.252  0.745  0.998-  34 1.97  36 2.06  45 2.11  64 2.11  44 2.13  60 2.13   7 2.93  20 2.93
                            19 2.94   3 2.94  16 2.95  15 2.99  12 2.99   5 3.01  18 3.01  17 3.02
  28  0.250  0.749  0.501-  37 2.07  45 2.07  65 2.10  61 2.11  44 2.11  35 2.11  17 2.91  18 2.93
                            19 2.93  20 2.94   4 2.96  12 2.96   8 2.97  16 2.97  11 2.99   2 2.99
  29  0.745  0.252  0.998-  58 1.97  62 2.06  40 2.11  47 2.11  46 2.13  38 2.13   7 2.93  14 2.93
                            13 2.94   5 2.94  24 2.95  23 2.99  22 2.99  10 3.01   3 3.01   1 3.02
  30  0.749  0.250  0.501-  47 2.07  63 2.07  41 2.10  39 2.11  59 2.11  46 2.11   9 2.91  10 2.93
                            13 2.93  14 2.94   6 2.96  22 2.96   8 2.97  24 2.97  21 2.99   2 2.99
  31  0.749  0.749  1.000-  40 2.07  64 2.07  49 2.10  48 2.11  60 2.11  38 2.11   1 2.91   3 2.93
                             5 2.93   7 2.94  15 2.96  23 2.96  16 2.97  24 2.97  11 2.99  21 2.99
  32  0.750  0.750  0.500-  41 2.11  49 2.11  65 2.11  39 2.11  61 2.11  48 2.11   2 2.95  11 2.95
                            21 2.95   4 2.97  12 2.97  15 2.97   6 2.97  22 2.97  23 2.97  16 2.97
  33  0.125  0.125  0.125-   1 1.93   9 1.93  17 1.93  25 1.93
  34  0.272  0.978  0.978-   5 1.97  18 1.97  27 1.97  17 2.36  25 2.36   1 2.36
  35  0.250  1.000  0.500-  17 2.05  18 2.06   6 2.11  28 2.11  26 2.13   2 2.13
  36  0.250  0.500  1.000-  25 2.05  27 2.06   7 2.11  20 2.11  19 2.13   3 2.13
  37  0.250  0.503  0.503-  20 2.07  28 2.07   8 2.11   4 2.11  26 2.11  19 2.11
  38  0.750  1.000  1.000-   1 2.05   5 2.06  22 2.11  31 2.11  21 2.13  29 2.13
  39  0.747  1.000  0.503-   6 2.07  22 2.07  32 2.11  30 2.11  21 2.11   2 2.11
  40  0.747  0.503  1.000-   7 2.07  31 2.07  24 2.11  23 2.11  29 2.11   3 2.11
  41  0.750  0.500  0.500-   4 2.10  23 2.10  30 2.10  24 2.11   8 2.11  32 2.11
  42  0.272  0.272  0.272-  13 1.97  19 1.97  26 1.97  25 2.36  17 2.36   9 2.36
  43  0.250  0.250  0.750-  25 2.05  26 2.06  14 2.11  20 2.11  18 2.13  10 2.13
  44  0.250  0.750  0.250-  17 2.05  19 2.06  15 2.11  28 2.11  27 2.13  11 2.13
  45  0.250  0.747  0.747-  20 2.07  28 2.07  16 2.11  12 2.11  27 2.11  18 2.11
  46  0.750  0.250  0.250-   9 2.05  13 2.06  23 2.11  30 2.11  29 2.13  21 2.13
  47  0.747  0.250  0.747-  14 2.07  30 2.07  24 2.11  22 2.11  29 2.11  10 2.11
  48  0.747  0.747  0.250-  15 2.07  23 2.07  32 2.11  31 2.11  21 2.11  11 2.11
  49  0.750  0.750  0.750-  12 2.10  22 2.10  31 2.10  24 2.11  16 2.11  32 2.11
  50  0.978  0.978  0.272-   2 1.97  11 1.97  21 1.97   1 2.36  17 2.36   9 2.36
  51  1.000  1.000  0.750-   1 2.05   2 2.06  12 2.11  22 2.11  18 2.13  10 2.13
  52  1.000  0.500  0.250-   9 2.05  11 2.06   4 2.11  23 2.11   3 2.13  19 2.13
  53  1.000  0.503  0.747-   4 2.07  12 2.07  24 2.11  20 2.11  10 2.11   3 2.11
  54  0.500  1.000  0.250-  17 2.05  21 2.06   6 2.11  15 2.11   5 2.13  13 2.13
  55  0.503  1.000  0.747-   6 2.07  22 2.07  16 2.11  14 2.11  18 2.11   5 2.11
  56  0.503  0.503  0.250-  15 2.07  23 2.07   8 2.11   7 2.11  19 2.11  13 2.11
  57  0.500  0.500  0.750-   7 2.10  14 2.10  20 2.10  16 2.11   8 2.11  24 2.11
  58  0.978  0.272  0.978-   3 1.97  10 1.97  29 1.97   9 2.36  25 2.36   1 2.36
  59  1.000  0.250  0.500-   9 2.05  10 2.06   4 2.11  30 2.11  26 2.13   2 2.13
  60  1.000  0.750  1.000-   1 2.05   3 2.06  12 2.11  31 2.11  11 2.13  27 2.13
  61  1.000  0.747  0.503-   4 2.07  12 2.07  32 2.11  28 2.11  11 2.11   2 2.11
  62  0.500  0.250  1.000-  25 2.05  29 2.06   7 2.11  14 2.11  13 2.13   5 2.13
  63  0.503  0.250  0.503-  14 2.07  30 2.07   8 2.11   6 2.11  26 2.11  13 2.11
  64  0.503  0.747  1.000-   7 2.07  31 2.07  16 2.11  15 2.11  27 2.11   5 2.11
  65  0.500  0.750  0.500-   6 2.10  15 2.10  28 2.10  16 2.11   8 2.11  32 2.11
 
  LATTYP: Found a simple cubic cell.
 ALAT       =     8.4194560000
  
  Lattice vectors:
  
 A1 = (   8.4194560000,   0.0000000000,   0.0000000000)
 A2 = (   0.0000000000,   8.4194560000,   0.0000000000)
 A3 = (   0.0000000000,   0.0000000000,   8.4194560000)


Analysis of symmetry for initial positions (statically):
=====================================================================
 Subroutine PRICEL returns:
 Original cell was already a primitive cell.
 

 Routine SETGRP: Setting up the symmetry group for a 
 simple cubic supercell.


 Subroutine GETGRP returns: Found 24 space group operations
 (whereof  6 operations were pure point group operations)
 out of a pool of 48 trial point group operations.


The static configuration has the point symmetry C_3v.
 The point group associated with its full space group is T_d .


Analysis of symmetry for dynamics (positions and initial velocities):
=====================================================================
 Subroutine PRICEL returns:
 Original cell was already a primitive cell.
 

 Routine SETGRP: Setting up the symmetry group for a 
 simple cubic supercell.


 Subroutine GETGRP returns: Found 24 space group operations
 (whereof  6 operations were pure point group operations)
 out of a pool of 48 trial point group operations.


The dynamic configuration has the point symmetry C_3v.
 The point group associated with its full space group is T_d .


Analysis of structural, dynamic, and magnetic symmetry:
=====================================================================
 Subroutine PRICEL returns:
 Original cell was already a primitive cell.
 

 Routine SETGRP: Setting up the symmetry group for a 
 simple cubic supercell.


 Subroutine GETGRP returns: Found 24 space group operations
 (whereof  6 operations were pure point group operations)
 out of a pool of 48 trial point group operations.


The magnetic configuration has the point symmetry C_3v.
 The point group associated with its full space group is T_d .


 Subroutine INISYM returns: Found 24 space group operations
 (whereof  6 operations are pure point group operations),
 and found     1 'primitive' translations

 
 
 KPOINTS: mode: manual_set, kpt density: 2, factor

Automatic generation of k-mesh.
Space group operators:
 irot       det(A)        alpha          n_x          n_y          n_z        tau_x        tau_y        tau_z
    1     1.000000     0.000001     1.000000     0.000000     0.000000     0.000000     0.000000     0.000000
    2     1.000000   120.000000    -0.577350    -0.577350    -0.577350     0.000000     0.000000     0.000000
    3     1.000000   120.000000     0.577350     0.577350     0.577350     0.000000     0.000000     0.000000
    4    -1.000000   180.000000     0.000000    -0.707107     0.707107     0.000000     0.000000     0.000000
    5    -1.000000   180.000000     0.707107    -0.707107     0.000000     0.000000     0.000000     0.000000
    6    -1.000000   180.000000     0.707107     0.000000    -0.707107     0.000000     0.000000     0.000000
    7    -1.000000    90.000000     0.000000     0.000000    -1.000000     0.000000     0.250000     0.250000
    8    -1.000000   180.000000     0.000000     0.707107     0.707107     0.000000     0.250000     0.250000
    9    -1.000000    90.000000     0.000000     1.000000     0.000000     0.000000     0.250000     0.250000
   10     1.000000   180.000000     0.000000     0.000000     1.000000     0.250000     0.250000     0.000000
   11     1.000000   120.000000    -0.577350     0.577350     0.577350     0.250000     0.250000     0.000000
   12     1.000000   120.000000    -0.577350     0.577350    -0.577350     0.250000     0.250000     0.000000
   13    -1.000000    90.000000     0.000000     0.000000     1.000000     0.250000     0.000000     0.250000
   14    -1.000000    90.000000    -1.000000     0.000000     0.000000     0.250000     0.000000     0.250000
   15    -1.000000   180.000000     0.707107     0.000000     0.707107     0.250000     0.000000     0.250000
   16     1.000000   120.000000     0.577350    -0.577350     0.577350     0.000000     0.250000     0.250000
   17     1.000000   120.000000    -0.577350    -0.577350     0.577350     0.000000     0.250000     0.250000
   18     1.000000   180.000000     1.000000     0.000000     0.000000     0.000000     0.250000     0.250000
   19    -1.000000    90.000000     0.000000    -1.000000     0.000000     0.250000     0.250000     0.000000
   20    -1.000000   180.000000     0.707107     0.707107     0.000000     0.250000     0.250000     0.000000
   21    -1.000000    90.000000     1.000000     0.000000     0.000000     0.250000     0.250000     0.000000
   22     1.000000   120.000000     0.577350    -0.577350    -0.577350     0.250000     0.000000     0.250000
   23     1.000000   180.000000     0.000000     1.000000     0.000000     0.250000     0.000000     0.250000
   24     1.000000   120.000000     0.577350     0.577350    -0.577350     0.250000     0.000000     0.250000
 
 Subroutine IBZKPT returns following result:
 ===========================================
 
 Found      1 irreducible k-points:
 
 Following reciprocal coordinates:
            Coordinates               Weight
  0.250000  0.250000  0.250000      8.000000
 
 Following cartesian coordinates:
            Coordinates               Weight
  0.029693  0.029693  0.029693      8.000000
 


--------------------------------------------------------------------------------------------------------




 Dimension of arrays:
   k-points           NKPTS =      1   k-points in BZ     NKDIM =      1   number of bands    NBANDS=    216
   number of dos      NEDOS =    301   number of ions     NIONS =     65
   non local maximal  LDIM  =      5   non local SUM 2l+1 LMDIM =     13
   total plane-waves  NPLWV =  74088
   max r-space proj   IRMAX =   1418   max aug-charges    IRDMAX=   5472
   dimension x,y,z NGX =    42 NGY =   42 NGZ =   42
   dimension x,y,z NGXF=    84 NGYF=   84 NGZF=   84
   support grid    NGXF=    84 NGYF=   84 NGZF=   84
   ions per type =              32  33
   NGX,Y,Z   is equivalent  to a cutoff of   8.29,  8.29,  8.29 a.u.
   NGXF,Y,Z  is equivalent  to a cutoff of  16.59, 16.59, 16.59 a.u.

 SYSTEM =  unknown system                          
 POSCAR =  Mg32 O33                                

 Startparameter for this run:
   NWRITE =      2    write-flag & timer
   PREC   = n         normal or accurate (medium, high low for compatibility)
   ISTART =      1    job   : 0-new  1-cont  2-samecut
   ICHARG =      0    charge: 1-file 2-atom 10-const
   ISPIN  =      2    spin polarized calculation?
   LNONCOLLINEAR =      F non collinear calculations
   LSORBIT =      F    spin-orbit coupling
   INIWAV =      1    electr: 0-lowe 1-rand  2-diag
   LASPH  =      T    aspherical Exc in radial PAW
   METAGGA=      F    non-selfconsistent MetaGGA calc.

 Electronic Relaxation 1
   ENCUT  =  400.0 eV  29.40 Ry    5.42 a.u.  13.73 13.73 13.73*2*pi/ulx,y,z
   ENINI  =  400.0     initial cutoff
   ENAUG  =  605.4 eV  augmentation charge cutoff
   NELM   =    100;   NELMIN=  2; NELMDL=  0     # of ELM steps 
   EDIFF  = 0.1E-05   stopping-criterion for ELM
   LREAL  =      T    real-space projection
   NLSPLINE    = F    spline interpolate recip. space projectors
   LCOMPAT=      F    compatible to vasp.4.4
   GGA_COMPAT  = T    GGA compatible to vasp.4.4-vasp.4.6
   LMAXPAW     = -100 max onsite density
   LMAXMIX     =    2 max onsite mixed and CHGCAR
   VOSKOWN=      0    Vosko Wilk Nusair interpolation
   ROPT   =   -0.00050  -0.00050
 Ionic relaxation
   EDIFFG = -.4E-01   stopping-criterion for IOM
   NSW    =     50    number of steps for IOM
   NBLOCK =      1;   KBLOCK =     50    inner block; outer block 
   IBRION =      2    ionic relax: 0-MD 1-quasi-New 2-CG
   NFREE  =      1    steps in history (QN), initial steepest desc. (CG)
   ISIF   =      2    stress and relaxation
   IWAVPR =     11    prediction:  0-non 1-charg 2-wave 3-comb
   ISYM   =      2    0-nonsym 1-usesym 2-fastsym
   LCORR  =      T    Harris-Foulkes like correction to forces

   POTIM  = 0.5000    time-step for ionic-motion
   TEIN   =    0.0    initial temperature
   TEBEG  =    0.0;   TEEND  =   0.0 temperature during run
   SMASS  =  -3.00    Nose mass-parameter (am)
   estimated Nose-frequenzy (Omega)   =  0.10E-29 period in steps =****** mass=  -0.162E-26a.u.
   SCALEE = 1.0000    scale energy and forces
   NPACO  =    256;   APACO  = 16.0  distance and # of slots for P.C.
   PSTRESS=    0.0 pullay stress

  Mass of Ions in am
   POMASS =  24.30 16.00
  Ionic Valenz
   ZVAL   =   2.00  6.00
  Atomic Wigner-Seitz radii
   RWIGS  =  -1.00 -1.00
  virtual crystal weights 
   VCA    =   1.00  1.00
   NELECT =     262.0000    total number of electrons
   NUPDOWN=      -1.0000    fix difference up-down

 DOS related values:
   EMIN   =  10.00;   EMAX   =-10.00  energy-range for DOS
   EFERMI =   0.00
   ISMEAR =     0;   SIGMA  =   0.10  broadening in eV -4-tet -1-fermi 0-gaus

 Electronic relaxation 2 (details)
   IALGO  =     38    algorithm
   LDIAG  =      T    sub-space diagonalisation (order eigenvalues)
   LSUBROT=      F    optimize rotation matrix (better conditioning)
   TURBO    =      0    0=normal 1=particle mesh
   IRESTART =      0    0=no restart 2=restart with 2 vectors
   NREBOOT  =      0    no. of reboots
   NMIN     =      0    reboot dimension
   EREF     =   0.00    reference energy to select bands
   IMIX   =      4    mixing-type and parameters
     AMIX     =   0.40;   BMIX     =  1.00
     AMIX_MAG =   1.60;   BMIX_MAG =  1.00
     AMIN     =   0.10
     WC   =   100.;   INIMIX=   1;  MIXPRE=   1;  MAXMIX= -45

 Intra band minimization:
   WEIMIN = 0.0010     energy-eigenvalue tresh-hold
   EBREAK =  0.12E-08  absolut break condition
   DEPER  =   0.30     relativ break condition  

   TIME   =   0.40     timestep for ELM

  volume/ion in A,a.u.               =       9.18        61.96
  Fermi-wavevector in a.u.,A,eV,Ry     =   1.244203  2.351203 21.062377  1.548041
  Thomas-Fermi vector in A             =   2.378480
 
 Write flags
   LWAVE        =      T    write WAVECAR
   LDOWNSAMPLE  =      F    k-point downsampling of WAVECAR
   LCHARG       =      F    write CHGCAR
   LVTOT        =      F    write LOCPOT, total local potential
   LVHAR        =      F    write LOCPOT, Hartree potential only
   LELF         =      F    write electronic localiz. function (ELF)
   LORBIT       =     12    0 simple, 1 ext, 2 COOP (PROOUT), +10 PAW based schemes


 Dipole corrections
   LMONO  =      F    monopole corrections only (constant potential shift)
   LDIPOL =      F    correct potential (dipole corrections)
   IDIPOL =      0    1-x, 2-y, 3-z, 4-all directions 
   EPSILON=  1.0000000 bulk dielectric constant

 Exchange correlation treatment:
   GGA     =    PS    GGA type
   LEXCH   =    14    internal setting for exchange type
   VOSKOWN=      0    Vosko Wilk Nusair interpolation
   LHFCALC =     F    Hartree Fock is set to
   LHFONE  =     F    Hartree Fock one center treatment
   AEXX    =    0.0000 exact exchange contribution

 Linear response parameters
   LEPSILON=     F    determine dielectric tensor
   LRPA    =     F    only Hartree local field effects (RPA)
   LNABLA  =     F    use nabla operator in PAW spheres
   LVEL    =     F    velocity operator in full k-point grid
   LINTERFAST=   F  fast interpolation
   KINTER  =     0    interpolate to denser k-point grid
   CSHIFT  =0.1000    complex shift for real part using Kramers Kronig
   OMEGAMAX=  -1.0    maximum frequency
   DEG_THRESHOLD= 0.2000000E-02 threshold for treating states as degnerate
   RTIME   =   -0.100 relaxation time in fs
  (WPLASMAI=    0.000 imaginary part of plasma frequency in eV, 0.658/RTIME)
   DFIELD  = 0.0000000 0.0000000 0.0000000 field for delta impulse in time
 
 Orbital magnetization related:
   ORBITALMAG=     F  switch on orbital magnetization
   LCHIMAG   =     F  perturbation theory with respect to B field
   DQ        =  0.001000  dq finite difference perturbation B field
   LLRAUG    =     F  two centre corrections for induced B field



--------------------------------------------------------------------------------------------------------


 conjugate gradient relaxation of ions
 charge density and potential will be updated during run
 spin polarized calculation
 Variant of blocked Davidson
 Davidson routine will perform the subspace rotation
 perform sub-space diagonalisation
    after iterative eigenvector-optimisation
 modified Broyden-mixing scheme, WC =      100.0
 initial mixing is a Kerker type mixing with AMIX =  0.4000 and BMIX =      1.0000
 Hartree-type preconditioning will be used
 using additional bands           85
 real space projection scheme for non local part
 use partial core corrections
 calculate Harris-corrections to forces 
   (improved forces if not selfconsistent)
 use gradient corrections 
 use of overlap-Matrix (Vanderbilt PP)
 Gauss-broadening in eV      SIGMA  =   0.10


--------------------------------------------------------------------------------------------------------


  energy-cutoff  :      400.00
  volume of cell :      596.83
      direct lattice vectors                 reciprocal lattice vectors
     8.419456000  0.000000000  0.000000000     0.118772519  0.000000000  0.000000000
     0.000000000  8.419456000  0.000000000     0.000000000  0.118772519  0.000000000
     0.000000000  0.000000000  8.419456000     0.000000000  0.000000000  0.118772519

  length of vectors
     8.419456000  8.419456000  8.419456000     0.118772519  0.118772519  0.118772519


 
 old parameters found on file WAVECAR:
  energy-cutoff  :      400.00
  volume of cell :      596.83
      direct lattice vectors                 reciprocal lattice vectors
     8.419456000  0.000000000  0.000000000     0.118772519  0.000000000  0.000000000
     0.000000000  8.419456000  0.000000000     0.000000000  0.118772519  0.000000000
     0.000000000  0.000000000  8.419456000     0.000000000  0.000000000  0.118772519

  length of vectors

 
 k-points in units of 2pi/SCALE and weight: mode: manual_set, kpt density: 2, factor
   0.02969313  0.02969313  0.02969313       1.000
 
 k-points in reciprocal lattice and weights: mode: manual_set, kpt density: 2, factor
   0.25000000  0.25000000  0.25000000       1.000
 
 position of ions in fractional coordinates (direct lattice) 
   0.99296078  0.99296078  0.99296078
   0.99781477  0.99781477  0.50504272
   0.99781477  0.50504272  0.99781477
   0.99999413  0.50140574  0.50140574
   0.50504272  0.99781477  0.99781477
   0.50140574  0.99999413  0.50140574
   0.50140574  0.50140574  0.99999413
   0.50017447  0.50017447  0.50017447
   0.99296078  0.25703922  0.25703922
   0.99781477  0.25218523  0.74495728
   0.99781477  0.74495728  0.25218523
   0.99999413  0.74859426  0.74859426
   0.50504272  0.25218523  0.25218523
   0.50140574  0.25000587  0.74859426
   0.50140574  0.74859426  0.25000587
   0.50017447  0.74982553  0.74982553
   0.25703922  0.99296078  0.25703922
   0.25218523  0.99781477  0.74495728
   0.25218523  0.50504272  0.25218523
   0.25000587  0.50140574  0.74859426
   0.74495728  0.99781477  0.25218523
   0.74859426  0.99999413  0.74859426
   0.74859426  0.50140574  0.25000587
   0.74982553  0.50017447  0.74982553
   0.25703922  0.25703922  0.99296078
   0.25218523  0.25218523  0.50504272
   0.25218523  0.74495728  0.99781477
   0.25000587  0.74859426  0.50140574
   0.74495728  0.25218523  0.99781477
   0.74859426  0.25000587  0.50140574
   0.74859426  0.74859426  0.99999413
   0.74982553  0.74982553  0.50017447
   0.12500000  0.12500000  0.12500000
   0.27220088  0.97779912  0.97779912
   0.25024279  0.99975721  0.50030553
   0.25024279  0.50030553  0.99975721
   0.25010372  0.50285362  0.50285362
   0.74969447  0.99975721  0.99975721
   0.74714638  0.99989628  0.50285362
   0.74714638  0.50285362  0.99989628
   0.75020421  0.49979579  0.49979579
   0.27220088  0.27220088  0.27220088
   0.25024279  0.25024279  0.74969447
   0.25024279  0.74969447  0.25024279
   0.25010372  0.74714638  0.74714638
   0.74969447  0.25024279  0.25024279
   0.74714638  0.25010372  0.74714638
   0.74714638  0.74714638  0.25010372
   0.75020421  0.75020421  0.75020421
   0.97779912  0.97779912  0.27220088
   0.99975721  0.99975721  0.74969447
   0.99975721  0.50030553  0.25024279
   0.99989628  0.50285362  0.74714638
   0.50030553  0.99975721  0.25024279
   0.50285362  0.99989628  0.74714638
   0.50285362  0.50285362  0.25010372
   0.49979579  0.49979579  0.75020421
   0.97779912  0.27220088  0.97779912
   0.99975721  0.25024279  0.50030553
   0.99975721  0.74969447  0.99975721
   0.99989628  0.74714638  0.50285362
   0.50030553  0.25024279  0.99975721
   0.50285362  0.25010372  0.50285362
   0.50285362  0.74714638  0.99989628
   0.49979579  0.75020421  0.49979579
 
 position of ions in cartesian coordinates  (Angst):
   8.36018958  8.36018958  8.36018958
   8.40105754  8.40105754  4.25218497
   8.40105754  4.25218497  8.40105754
   8.41940661  4.22156353  4.22156353
   4.25218497  8.40105754  8.40105754
   4.22156353  8.41940661  4.22156353
   4.22156353  4.22156353  8.41940661
   4.21119696  4.21119696  4.21119696
   8.36018958  2.16413042  2.16413042
   8.40105754  2.12326246  6.27213503
   8.40105754  6.27213503  2.12326246
   8.41940661  6.30275647  6.30275647
   4.25218497  2.12326246  2.12326246
   4.22156353  2.10491339  6.30275647
   4.22156353  6.30275647  2.10491339
   4.21119696  6.31312304  6.31312304
   2.16413042  8.36018958  2.16413042
   2.12326246  8.40105754  6.27213503
   2.12326246  4.25218497  2.12326246
   2.10491339  4.22156353  6.30275647
   6.27213503  8.40105754  2.12326246
   6.30275647  8.41940661  6.30275647
   6.30275647  4.22156353  2.10491339
   6.31312304  4.21119696  6.31312304
   2.16413042  2.16413042  8.36018958
   2.12326246  2.12326246  4.25218497
   2.12326246  6.27213503  8.40105754
   2.10491339  6.30275647  4.22156353
   6.27213503  2.12326246  8.40105754
   6.30275647  2.10491339  4.22156353
   6.30275647  6.30275647  8.41940661
   6.31312304  6.31312304  4.21119696
   1.05243200  1.05243200  1.05243200
   2.29178336  8.23253664  8.23253664
   2.10690814  8.41741186  4.21230042
   2.10690814  4.21230042  8.41741186
   2.10573725  4.23375394  4.23375394
   6.31201958  8.41741186  8.41741186
   6.29056606  8.41858275  4.23375394
   6.29056606  4.23375394  8.41858275
   6.31631134  4.20800866  4.20800866
   2.29178336  2.29178336  2.29178336
   2.10690814  2.10690814  6.31201958
   2.10690814  6.31201958  2.10690814
   2.10573725  6.29056606  6.29056606
   6.31201958  2.10690814  2.10690814
   6.29056606  2.10573725  6.29056606
   6.29056606  6.29056606  2.10573725
   6.31631134  6.31631134  6.31631134
   8.23253664  8.23253664  2.29178336
   8.41741186  8.41741186  6.31201958
   8.41741186  4.21230042  2.10690814
   8.41858275  4.23375394  6.29056606
   4.21230042  8.41741186  2.10690814
   4.23375394  8.41858275  6.29056606
   4.23375394  4.23375394  2.10573725
   4.20800866  4.20800866  6.31631134
   8.23253664  2.29178336  8.23253664
   8.41741186  2.10690814  4.21230042
   8.41741186  6.31201958  8.41741186
   8.41858275  6.29056606  4.23375394
   4.21230042  2.10690814  8.41741186
   4.23375394  2.10573725  4.23375394
   4.23375394  6.29056606  8.41858275
   4.20800866  6.31631134  4.20800866
 


--------------------------------------------------------------------------------------------------------


 k-point  1 :   0.2500 0.2500 0.2500  plane waves:   10834

 maximum and minimum number of plane-waves per node :     10834    10834

 maximum number of plane-waves:     10834
 maximum index in each direction: 
   IXMAX=   13   IYMAX=   13   IZMAX=   13
   IXMIN=  -13   IYMIN=  -13   IZMIN=  -13


 serial   3D FFT for wavefunctions
 parallel 3D FFT for charge:
    minimum data exchange during FFTs selected (reduces bandwidth)


 total amount of memory used by VASP MPI-rank0    50675. kBytes
=======================================================================

   base      :      30000. kBytes
   nonlr-proj:       8694. kBytes
   fftplans  :       1007. kBytes
   grid      :       7709. kBytes
   one-center:       1054. kBytes
   wavefun   :       2211. kBytes
 
     INWAV:  cpu time    0.2080: real time    0.3333
 Broyden mixing: mesh for mixing (old mesh)
   NGX = 27   NGY = 27   NGZ = 27
  (NGX  = 84   NGY  = 84   NGZ  = 84)
  gives a total of  19683 points

 charge density for first step will be calculated from the start-wavefunctions


--------------------------------------------------------------------------------------------------------


 Maximum index for non-local projection operator         1352
 Maximum index for augmentation-charges          359 (set IRDMAX)


--------------------------------------------------------------------------------------------------------


 initial charge from wavefunction
 First call to EWALD:  gamma=   0.211
 Maximum number of real-space cells 3x 3x 3
 Maximum number of reciprocal cells 3x 3x 3

    FEWALD:  cpu time    0.0040: real time    0.0031


--------------------------------------- Iteration      1(   1)  ---------------------------------------


    POTLOK:  cpu time    0.0320: real time    0.0373
    SETDIJ:  cpu time    0.5280: real time    0.5294
     EDDAV:  cpu time    1.0200: real time    1.0416
       DOS:  cpu time    0.0000: real time    0.0006
    CHARGE:  cpu time    0.0480: real time    0.0467
    MIXING:  cpu time    0.0000: real time    0.0005
    --------------------------------------------
      LOOP:  cpu time    1.6280: real time    1.6561

 eigenvalue-minimisations  :  1044
 total energy-change (2. order) :-0.4006029E+03  (-0.5893421E-06)
 number of electron     262.0002180 magnetization       2.0000000
 augmentation part       21.8304218 magnetization       0.4831471

 Broyden mixing:
  rms(total) = 0.83143E-03    rms(broyden)= 0.83083E-03
  rms(prec ) = 0.12875E-02
  weight for this iteration     100.00

 Free energy of the ion-electron system (eV)
  ---------------------------------------------------
  alpha Z        PSCENC =       651.60264910
  Ewald energy   TEWEN  =    -11821.58180476
  -Hartree energ DENC   =     -4584.01085163
  -exchange      EXHF   =         0.00000000
  -V(xc)+E(xc)   XCENC  =      -528.55279967
  PAW double counting   =     18254.07389463   -16681.20448044
  entropy T*S    EENTRO =        -0.07295190
  eigenvalues    EBANDS =      -627.63348204
  atomic energy  EATOM  =     14936.77695065
  Solvation  Ediel_sol  =         0.00000000
  ---------------------------------------------------
  free energy    TOTEN  =      -400.60287607 eV

  energy without entropy =     -400.52992417  energy(sigma->0) =     -400.56640012


--------------------------------------------------------------------------------------------------------




--------------------------------------- Iteration      1(   2)  ---------------------------------------


    POTLOK:  cpu time    0.0280: real time    0.0327
    SETDIJ:  cpu time    0.5440: real time    0.5466
     EDDAV:  cpu time    0.9840: real time    1.0136
       DOS:  cpu time    0.0040: real time    0.0006
    CHARGE:  cpu time    0.0440: real time    0.0453
    MIXING:  cpu time    0.0000: real time    0.0007
    --------------------------------------------
      LOOP:  cpu time    1.6040: real time    1.6394

 eigenvalue-minimisations  :   972
 total energy-change (2. order) : 0.1456294E-05  (-0.6111791E-06)
 number of electron     262.0002180 magnetization       2.0000000
 augmentation part       21.8304152 magnetization       0.4831573

 Broyden mixing:
  rms(total) = 0.60959E-03    rms(broyden)= 0.60917E-03
  rms(prec ) = 0.72701E-03
  weight for this iteration     100.00

 eigenvalues of (default mixing * dielectric matrix)
  average eigenvalue GAMMA=   0.5160
  0.5160

 Free energy of the ion-electron system (eV)
  ---------------------------------------------------
  alpha Z        PSCENC =       651.60264910
  Ewald energy   TEWEN  =    -11821.58180476
  -Hartree energ DENC   =     -4584.00430170
  -exchange      EXHF   =         0.00000000
  -V(xc)+E(xc)   XCENC  =      -528.55291853
  PAW double counting   =     18254.06951604   -16681.20001925
  entropy T*S    EENTRO =        -0.07294358
  eigenvalues    EBANDS =      -627.64000258
  atomic energy  EATOM  =     14936.77695065
  Solvation  Ediel_sol  =         0.00000000
  ---------------------------------------------------
  free energy    TOTEN  =      -400.60287462 eV

  energy without entropy =     -400.52993104  energy(sigma->0) =     -400.56640283


--------------------------------------------------------------------------------------------------------




--------------------------------------- Iteration      1(   3)  ---------------------------------------


    POTLOK:  cpu time    0.0280: real time    0.0268
    SETDIJ:  cpu time    0.5440: real time    0.5458
     EDDAV:  cpu time    0.5480: real time    0.5487
       DOS:  cpu time    0.0000: real time    0.0006
    --------------------------------------------
      LOOP:  cpu time    1.1200: real time    1.1219

 eigenvalue-minimisations  :   612
 total energy-change (2. order) : 0.4182220E-07  (-0.1002188E-06)
 number of electron     262.0002180 magnetization       2.0000000
 augmentation part       21.8304152 magnetization       0.4831573

 Free energy of the ion-electron system (eV)
  ---------------------------------------------------
  alpha Z        PSCENC =       651.60264910
  Ewald energy   TEWEN  =    -11821.58180476
  -Hartree energ DENC   =     -4584.00181808
  -exchange      EXHF   =         0.00000000
  -V(xc)+E(xc)   XCENC  =      -528.55317821
  PAW double counting   =     18254.06302265   -16681.19348649
  entropy T*S    EENTRO =        -0.07294396
  eigenvalues    EBANDS =      -627.64226547
  atomic energy  EATOM  =     14936.77695065
  Solvation  Ediel_sol  =         0.00000000
  ---------------------------------------------------
  free energy    TOTEN  =      -400.60287458 eV

  energy without entropy =     -400.52993061  energy(sigma->0) =     -400.56640260


--------------------------------------------------------------------------------------------------------




 average (electrostatic) potential at core
  the test charge radii are     1.0714  0.7215
  (the norm of the test charge is              1.0000)
       1 -34.7036       2 -34.4261       3 -34.4261       4 -34.5385       5 -34.4261
       6 -34.5385       7 -34.5385       8 -34.5658       9 -34.7036      10 -34.4261
      11 -34.4261      12 -34.5385      13 -34.4261      14 -34.5385      15 -34.5385
      16 -34.5658      17 -34.7036      18 -34.4261      19 -34.4261      20 -34.5385
      21 -34.4261      22 -34.5385      23 -34.5385      24 -34.5658      25 -34.7036
      26 -34.4261      27 -34.4261      28 -34.5385      29 -34.4261      30 -34.5385
      31 -34.5385      32 -34.5658      33 -70.3267      34 -69.5262      35 -69.6840
      36 -69.6840      37 -69.4893      38 -69.6840      39 -69.4893      40 -69.4893
      41 -69.5239      42 -69.5262      43 -69.6840      44 -69.6840      45 -69.4893
      46 -69.6840      47 -69.4893      48 -69.4893      49 -69.5239      50 -69.5262
      51 -69.6840      52 -69.6840      53 -69.4893      54 -69.6840      55 -69.4893
      56 -69.4893      57 -69.5239      58 -69.5262      59 -69.6840      60 -69.6840
      61 -69.4893      62 -69.6840      63 -69.4893      64 -69.4893      65 -69.5239
 
 
 
 E-fermi :   4.5291     XC(G=0): -11.3833     alpha+bet :-13.3081


 spin component 1

 k-point     1 :       0.2500    0.2500    0.2500
  band No.  band energies     occupation 
      1     -14.8684      1.00000
      2     -13.8978      1.00000
      3     -13.6141      1.00000
      4     -13.6141      1.00000
      5     -13.4381      1.00000
      6     -13.2915      1.00000
      7     -13.2915      1.00000
      8     -13.1877      1.00000
      9     -13.0466      1.00000
     10     -13.0466      1.00000
     11     -13.0358      1.00000
     12     -12.9555      1.00000
     13     -12.8880      1.00000
     14     -12.8880      1.00000
     15     -12.8548      1.00000
     16     -12.8276      1.00000
     17     -12.8276      1.00000
     18     -12.7793      1.00000
     19     -12.7651      1.00000
     20     -12.7651      1.00000
     21     -12.6803      1.00000
     22     -12.6739      1.00000
     23     -12.6739      1.00000
     24     -12.5768      1.00000
     25     -12.5632      1.00000
     26     -12.5632      1.00000
     27     -12.5309      1.00000
     28     -12.5224      1.00000
     29     -12.5224      1.00000
     30     -12.4924      1.00000
     31     -12.4924      1.00000
     32     -12.4827      1.00000
     33     -12.0279      1.00000
     34      -1.5685      1.00000
     35      -1.5685      1.00000
     36      -1.5613      1.00000
     37      -1.1942      1.00000
     38      -1.1111      1.00000
     39      -1.1111      1.00000
     40      -0.9671      1.00000
     41      -0.8273      1.00000
     42      -0.8273      1.00000
     43      -0.7676      1.00000
     44      -0.7518      1.00000
     45      -0.7518      1.00000
     46      -0.7338      1.00000
     47      -0.6643      1.00000
     48      -0.6643      1.00000
     49      -0.6013      1.00000
     50      -0.5621      1.00000
     51      -0.5621      1.00000
     52      -0.4937      1.00000
     53      -0.4319      1.00000
     54      -0.4319      1.00000
     55      -0.3529      1.00000
     56      -0.3345      1.00000
     57      -0.3345      1.00000
     58      -0.1815      1.00000
     59      -0.1696      1.00000
     60      -0.1696      1.00000
     61      -0.0429      1.00000
     62       0.0918      1.00000
     63       0.0918      1.00000
     64       0.3405      1.00000
     65       0.5111      1.00000
     66       0.5646      1.00000
     67       0.5646      1.00000
     68       0.6522      1.00000
     69       0.6522      1.00000
     70       0.7223      1.00000
     71       0.7963      1.00000
     72       0.7963      1.00000
     73       0.8244      1.00000
     74       0.9719      1.00000
     75       0.9719      1.00000
     76       1.0548      1.00000
     77       1.2692      1.00000
     78       1.2984      1.00000
     79       1.2984      1.00000
     80       1.3696      1.00000
     81       1.3696      1.00000
     82       1.4342      1.00000
     83       1.5298      1.00000
     84       1.5298      1.00000
     85       1.6162      1.00000
     86       1.6162      1.00000
     87       1.6248      1.00000
     88       1.6918      1.00000
     89       1.7654      1.00000
     90       1.7654      1.00000
     91       1.8418      1.00000
     92       1.8420      1.00000
     93       1.8549      1.00000
     94       1.8549      1.00000
     95       1.9423      1.00000
     96       1.9516      1.00000
     97       1.9516      1.00000
     98       2.0179      1.00000
     99       2.0179      1.00000
    100       2.0471      1.00000
    101       2.0471      1.00000
    102       2.0715      1.00000
    103       2.1174      1.00000
    104       2.1469      1.00000
    105       2.1469      1.00000
    106       2.1486      1.00000
    107       2.1743      1.00000
    108       2.1894      1.00000
    109       2.1894      1.00000
    110       2.2221      1.00000
    111       2.2729      1.00000
    112       2.2729      1.00000
    113       2.3182      1.00000
    114       2.3182      1.00000
    115       2.3743      1.00000
    116       2.4879      1.00000
    117       2.4879      1.00000
    118       2.5281      1.00000
    119       2.5456      1.00000
    120       2.5456      1.00000
    121       2.5702      1.00000
    122       2.6294      1.00000
    123       2.6294      1.00000
    124       2.7149      1.00000
    125       2.7212      1.00000
    126       2.7212      1.00000
    127       2.7580      1.00000
    128       2.9949      1.00000
    129       2.9949      1.00000
    130       3.6583      1.00000
    131       3.7273      1.00000
    132       3.7273      1.00000
    133       8.8137      0.00000
    134      10.3542      0.00000
    135      10.3542      0.00000
    136      10.4232      0.00000
    137      10.9162      0.00000
    138      11.1672      0.00000
    139      11.1672      0.00000
    140      11.2762      0.00000
    141      11.6087      0.00000
    142      11.6087      0.00000
    143      11.7872      0.00000
    144      12.1981      0.00000
    145      12.1981      0.00000
    146      12.2896      0.00000
    147      12.5262      0.00000
    148      12.5435      0.00000
    149      12.5435      0.00000
    150      12.5712      0.00000
    151      12.5712      0.00000
    152      12.6458      0.00000
    153      12.6458      0.00000
    154      12.7182      0.00000
    155      12.9208      0.00000
    156      13.0143      0.00000
    157      13.0143      0.00000
    158      13.2014      0.00000
    159      13.3815      0.00000
    160      13.3815      0.00000
    161      13.5077      0.00000
    162      13.6228      0.00000
    163      13.6532      0.00000
    164      13.6532      0.00000
    165      13.7307      0.00000
    166      13.7307      0.00000
    167      13.7330      0.00000
    168      13.9961      0.00000
    169      13.9961      0.00000
    170      14.3511      0.00000
    171      14.4146      0.00000
    172      14.4146      0.00000
    173      14.5445      0.00000
    174      14.5445      0.00000
    175      14.6679      0.00000
    176      14.7595      0.00000
    177      14.8216      0.00000
    178      14.8216      0.00000
    179      14.8848      0.00000
    180      14.9099      0.00000
    181      14.9457      0.00000
    182      14.9457      0.00000
    183      15.0505      0.00000
    184      15.0505      0.00000
    185      15.1741      0.00000
    186      15.2035      0.00000
    187      15.2035      0.00000
    188      15.3415      0.00000
    189      15.3655      0.00000
    190      15.3655      0.00000
    191      15.5442      0.00000
    192      15.5442      0.00000
    193      15.5700      0.00000
    194      15.5916      0.00000
    195      15.6328      0.00000
    196      15.6328      0.00000
    197      15.8419      0.00000
    198      15.8419      0.00000
    199      15.8536      0.00000
    200      15.8596      0.00000
    201      15.9708      0.00000
    202      15.9708      0.00000
    203      16.2611      0.00000
    204      16.4783      0.00000
    205      16.4783      0.00000
    206      16.5411      0.00000
    207      17.0193      0.00000
    208      17.0322      0.00000
    209      17.0322      0.00000
    210      17.0693      0.00000
    211      17.1793      0.00000
    212      17.1793      0.00000
    213      17.2722      0.00000
    214      17.4772      0.00000
    215      17.4772      0.00000
    216      17.5006      0.00000

 spin component 2

 k-point     1 :       0.2500    0.2500    0.2500
  band No.  band energies     occupation 
      1     -14.1594      1.00000
      2     -13.7817      1.00000
      3     -13.5784      1.00000
      4     -13.5784      1.00000
      5     -13.3785      1.00000
      6     -13.2593      1.00000
      7     -13.2593      1.00000
      8     -13.1025      1.00000
      9     -13.0117      1.00000
     10     -13.0117      1.00000
     11     -13.0080      1.00000
     12     -12.8869      1.00000
     13     -12.8513      1.00000
     14     -12.8308      1.00000
     15     -12.8308      1.00000
     16     -12.7964      1.00000
     17     -12.7964      1.00000
     18     -12.7558      1.00000
     19     -12.7558      1.00000
     20     -12.7506      1.00000
     21     -12.6445      1.00000
     22     -12.6445      1.00000
     23     -12.6310      1.00000
     24     -12.5151      1.00000
     25     -12.5126      1.00000
     26     -12.5126      1.00000
     27     -12.5117      1.00000
     28     -12.4969      1.00000
     29     -12.4969      1.00000
     30     -12.3115      1.00000
     31     -12.3115      1.00000
     32     -12.3075      1.00000
     33     -11.3915      1.00000
     34      -1.3640      1.00000
     35      -1.3640      1.00000
     36      -1.3354      1.00000
     37      -1.0742      1.00000
     38      -0.8943      1.00000
     39      -0.8943      1.00000
     40      -0.8834      1.00000
     41      -0.8069      1.00000
     42      -0.8069      1.00000
     43      -0.7289      1.00000
     44      -0.7250      1.00000
     45      -0.7250      1.00000
     46      -0.7173      1.00000
     47      -0.6462      1.00000
     48      -0.6462      1.00000
     49      -0.5939      1.00000
     50      -0.5313      1.00000
     51      -0.5313      1.00000
     52      -0.4857      1.00000
     53      -0.4135      1.00000
     54      -0.4135      1.00000
     55      -0.3173      1.00000
     56      -0.3005      1.00000
     57      -0.3005      1.00000
     58      -0.1168      1.00000
     59      -0.1023      1.00000
     60      -0.1023      1.00000
     61       0.1026      1.00000
     62       0.2558      1.00000
     63       0.2558      1.00000
     64       0.4792      1.00000
     65       0.5406      1.00000
     66       0.5816      1.00000
     67       0.5816      1.00000
     68       0.6740      1.00000
     69       0.6740      1.00000
     70       0.7629      1.00000
     71       0.8737      1.00000
     72       0.8737      1.00000
     73       0.9463      1.00000
     74       1.0793      1.00000
     75       1.0793      1.00000
     76       1.1231      1.00000
     77       1.3050      1.00000
     78       1.3345      1.00000
     79       1.3345      1.00000
     80       1.3906      1.00000
     81       1.3906      1.00000
     82       1.4935      1.00000
     83       1.5766      1.00000
     84       1.5766      1.00000
     85       1.6473      1.00000
     86       1.6473      1.00000
     87       1.6494      1.00000
     88       1.7441      1.00000
     89       1.7839      1.00000
     90       1.7839      1.00000
     91       1.8553      1.00000
     92       1.8709      1.00000
     93       1.8838      1.00000
     94       1.8838      1.00000
     95       1.9842      1.00000
     96       1.9842      1.00000
     97       2.0154      1.00000
     98       2.0509      1.00000
     99       2.0509      1.00000
    100       2.0846      1.00000
    101       2.0849      1.00000
    102       2.0849      1.00000
    103       2.1595      1.00000
    104       2.1835      1.00000
    105       2.1835      1.00000
    106       2.1861      1.00000
    107       2.2105      1.00000
    108       2.2195      1.00000
    109       2.2195      1.00000
    110       2.2357      1.00000
    111       2.3245      1.00000
    112       2.3245      1.00000
    113       2.3554      1.00000
    114       2.3554      1.00000
    115       2.4053      1.00000
    116       2.5324      1.00000
    117       2.5324      1.00000
    118       2.5855      1.00000
    119       2.5855      1.00000
    120       2.5898      1.00000
    121       2.6351      1.00000
    122       2.6679      1.00000
    123       2.6679      1.00000
    124       2.7889      1.00000
    125       2.7889      1.00000
    126       2.8146      1.00000
    127       3.0492      1.00000
    128       3.0492      1.00000
    129       3.1369      1.00000
    130       4.5284      0.50426
    131       4.5773      0.24787
    132       4.5773      0.24787
    133       8.8352      0.00000
    134      10.3757      0.00000
    135      10.3757      0.00000
    136      10.4536      0.00000
    137      10.9370      0.00000
    138      11.1802      0.00000
    139      11.1802      0.00000
    140      11.3105      0.00000
    141      11.6214      0.00000
    142      11.6214      0.00000
    143      11.7984      0.00000
    144      12.2142      0.00000
    145      12.2142      0.00000
    146      12.3369      0.00000
    147      12.5319      0.00000
    148      12.5491      0.00000
    149      12.5491      0.00000
    150      12.5801      0.00000
    151      12.5801      0.00000
    152      12.6699      0.00000
    153      12.6699      0.00000
    154      12.7469      0.00000
    155      12.9400      0.00000
    156      13.0225      0.00000
    157      13.0225      0.00000
    158      13.2269      0.00000
    159      13.4023      0.00000
    160      13.4023      0.00000
    161      13.5097      0.00000
    162      13.6447      0.00000
    163      13.6573      0.00000
    164      13.6573      0.00000
    165      13.7411      0.00000
    166      13.7411      0.00000
    167      13.7532      0.00000
    168      14.0220      0.00000
    169      14.0220      0.00000
    170      14.3756      0.00000
    171      14.4362      0.00000
    172      14.4362      0.00000
    173      14.5758      0.00000
    174      14.5758      0.00000
    175      14.6706      0.00000
    176      14.7816      0.00000
    177      14.8277      0.00000
    178      14.8277      0.00000
    179      14.8931      0.00000
    180      14.9366      0.00000
    181      14.9558      0.00000
    182      14.9558      0.00000
    183      15.0571      0.00000
    184      15.0571      0.00000
    185      15.1939      0.00000
    186      15.2097      0.00000
    187      15.2097      0.00000
    188      15.3507      0.00000
    189      15.3783      0.00000
    190      15.3783      0.00000
    191      15.5590      0.00000
    192      15.5590      0.00000
    193      15.5810      0.00000
    194      15.6175      0.00000
    195      15.6461      0.00000
    196      15.6461      0.00000
    197      15.8606      0.00000
    198      15.8606      0.00000
    199      15.8731      0.00000
    200      15.8902      0.00000
    201      15.9982      0.00000
    202      15.9982      0.00000
    203      16.2760      0.00000
    204      16.5011      0.00000
    205      16.5011      0.00000
    206      16.5932      0.00000
    207      17.0386      0.00000
    208      17.0386      0.00000
    209      17.0472      0.00000
    210      17.0740      0.00000
    211      17.1995      0.00000
    212      17.1995      0.00000
    213      17.2786      0.00000
    214      17.4984      0.00000
    215      17.4984      0.00000
    216      17.5266      0.00000


--------------------------------------------------------------------------------------------------------


 soft charge-density along one line, spin component           1
         0         1         2         3         4         5         6         7         8         9
 total charge-density along one line
 
 soft charge-density along one line, spin component           2
         0         1         2         3         4         5         6         7         8         9
 total charge-density along one line
 
 pseudopotential strength for first ion, spin component:           1
  2.993   9.489   0.000   0.000   0.000   0.000   0.000   0.000
  9.489  29.932   0.000   0.000   0.000   0.001   0.001   0.001
  0.000   0.000   7.375   0.000   0.000  10.654  -0.000  -0.000
  0.000   0.000   0.000   7.375   0.000  -0.000  10.654  -0.000
  0.000   0.000   0.000   0.000   7.375  -0.000  -0.000  10.654
  0.000   0.001  10.654  -0.000  -0.000  14.614  -0.001  -0.001
  0.000   0.001  -0.000  10.654  -0.000  -0.001  14.614  -0.001
  0.000   0.001  -0.000  -0.000  10.654  -0.001  -0.001  14.614
 -0.000  -0.001   0.000   0.000   0.000   0.000   0.000   0.000
 -0.000  -0.001   0.000   0.000   0.000   0.000   0.000   0.000
  0.000   0.000  -0.000   0.000  -0.000  -0.000   0.000  -0.000
 -0.000  -0.001   0.000   0.000   0.000   0.000   0.000   0.000
  0.000  -0.000  -0.000  -0.000   0.000  -0.000  -0.000   0.000
 pseudopotential strength for first ion, spin component:           2
  2.993   9.489   0.000   0.000   0.000   0.000   0.000   0.000
  9.489  29.931   0.000   0.000   0.000   0.000   0.000   0.000
  0.000   0.000   7.375   0.000   0.000  10.654  -0.000  -0.000
  0.000   0.000   0.000   7.375   0.000  -0.000  10.654  -0.000
  0.000   0.000   0.000   0.000   7.375  -0.000  -0.000  10.654
  0.000   0.000  10.654  -0.000  -0.000  14.614  -0.001  -0.001
  0.000   0.000  -0.000  10.654  -0.000  -0.001  14.614  -0.001
  0.000   0.000  -0.000  -0.000  10.654  -0.001  -0.001  14.614
 -0.000  -0.001   0.000   0.000   0.000   0.000  -0.000   0.000
 -0.000  -0.001   0.000   0.000   0.000   0.000   0.000  -0.000
  0.000   0.000  -0.000   0.000  -0.000  -0.000   0.000  -0.000
 -0.000  -0.001   0.000   0.000   0.000  -0.000   0.000   0.000
 -0.000  -0.000  -0.000  -0.000   0.000  -0.000  -0.000   0.000
 total augmentation occupancy for first ion, spin component:           1
  1.081  -0.055  -0.001  -0.001  -0.001  -0.000  -0.000  -0.000   0.030   0.030   0.000   0.030   0.000
 -0.055   0.003  -0.000  -0.000  -0.000   0.000   0.000   0.000  -0.002  -0.002   0.000  -0.002   0.000
 -0.001  -0.000   0.126   0.016   0.016  -0.014  -0.002  -0.002   0.013   0.013   0.011   0.013   0.018
 -0.001  -0.000   0.016   0.126   0.016  -0.002  -0.014  -0.002   0.013   0.013  -0.021   0.013   0.000
 -0.001  -0.000   0.016   0.016   0.126  -0.002  -0.002  -0.014   0.013   0.013   0.011   0.013  -0.018
 -0.000   0.000  -0.014  -0.002  -0.002   0.002   0.000   0.000  -0.001  -0.001  -0.001  -0.001  -0.002
 -0.000   0.000  -0.002  -0.014  -0.002   0.000   0.002   0.000  -0.001  -0.001   0.002  -0.001   0.000
 -0.000   0.000  -0.002  -0.002  -0.014   0.000   0.000   0.002  -0.001  -0.001  -0.001  -0.001   0.002
  0.030  -0.002   0.013   0.013   0.013  -0.001  -0.001  -0.001   0.022   0.009   0.001   0.009   0.000
  0.030  -0.002   0.013   0.013   0.013  -0.001  -0.001  -0.001   0.009   0.022  -0.000   0.009   0.000
 -0.000   0.000   0.011  -0.021   0.011  -0.001   0.002  -0.001   0.001  -0.000   0.044  -0.000   0.000
  0.030  -0.002   0.013   0.013   0.013  -0.001  -0.001  -0.001   0.009   0.009  -0.000   0.022  -0.000
  0.000   0.000   0.018   0.000  -0.018  -0.002   0.000   0.002   0.000   0.000   0.000  -0.000   0.044
 total augmentation occupancy for first ion, spin component:           2
  0.001  -0.000   0.002   0.002   0.002  -0.000  -0.000  -0.000   0.004   0.004  -0.000   0.004   0.000
 -0.000   0.000  -0.000  -0.000  -0.000   0.000   0.000   0.000  -0.000  -0.000   0.000  -0.000   0.000
  0.002  -0.000   0.001   0.002   0.002  -0.000  -0.000  -0.000   0.002   0.002   0.000   0.002   0.000
  0.002  -0.000   0.002   0.001   0.002  -0.000  -0.000  -0.000   0.002   0.002  -0.000   0.002  -0.000
  0.002  -0.000   0.002   0.002   0.001  -0.000  -0.000  -0.000   0.002   0.002   0.000   0.002  -0.000
 -0.000   0.000  -0.000  -0.000  -0.000   0.000   0.000   0.000  -0.000  -0.000  -0.000  -0.000  -0.000
 -0.000   0.000  -0.000  -0.000  -0.000   0.000   0.000   0.000  -0.000  -0.000   0.000  -0.000   0.000
 -0.000   0.000  -0.000  -0.000  -0.000   0.000   0.000   0.000  -0.000  -0.000  -0.000  -0.000   0.000
  0.004  -0.000   0.002   0.002   0.002  -0.000  -0.000  -0.000   0.001   0.002   0.000   0.002   0.000
  0.004  -0.000   0.002   0.002   0.002  -0.000  -0.000  -0.000   0.002   0.001  -0.000   0.002   0.000
 -0.000   0.000   0.000  -0.000   0.000  -0.000   0.000  -0.000   0.000  -0.000  -0.000  -0.000   0.000
  0.004  -0.000   0.002   0.002   0.002  -0.000  -0.000  -0.000   0.002   0.002  -0.000   0.001  -0.000
  0.000  -0.000   0.000   0.000  -0.000  -0.000   0.000   0.000   0.000   0.000   0.000  -0.000  -0.000


------------------------ aborting loop because EDIFF is reached ----------------------------------------


 


 total charge     
 
# of ion       s       p       d       tot
------------------------------------------
    1        0.154   0.186   0.084   0.425
    2        0.155   0.192   0.087   0.433
    3        0.155   0.192   0.087   0.433
    4        0.153   0.187   0.083   0.423
    5        0.155   0.192   0.087   0.433
    6        0.153   0.187   0.083   0.423
    7        0.153   0.187   0.083   0.423
    8        0.150   0.182   0.080   0.413
    9        0.153   0.185   0.083   0.422
   10        0.155   0.191   0.087   0.433
   11        0.155   0.191   0.087   0.433
   12        0.153   0.187   0.083   0.422
   13        0.155   0.192   0.087   0.433
   14        0.153   0.187   0.083   0.422
   15        0.153   0.187   0.083   0.422
   16        0.150   0.182   0.080   0.413
   17        0.153   0.185   0.083   0.422
   18        0.155   0.191   0.087   0.433
   19        0.155   0.192   0.087   0.433
   20        0.153   0.187   0.083   0.422
   21        0.155   0.191   0.087   0.433
   22        0.153   0.187   0.083   0.422
   23        0.153   0.187   0.083   0.422
   24        0.150   0.182   0.080   0.413
   25        0.153   0.185   0.083   0.422
   26        0.155   0.192   0.087   0.433
   27        0.155   0.191   0.087   0.433
   28        0.153   0.187   0.083   0.422
   29        0.155   0.191   0.087   0.433
   30        0.153   0.187   0.083   0.422
   31        0.153   0.187   0.083   0.422
   32        0.150   0.182   0.080   0.413
   33        1.637   3.448   0.000   5.086
   34        1.585   3.493   0.000   5.078
   35        1.563   3.561   0.000   5.124
   36        1.563   3.561   0.000   5.124
   37        1.564   3.564   0.000   5.128
   38        1.563   3.561   0.000   5.124
   39        1.564   3.562   0.000   5.126
   40        1.564   3.562   0.000   5.126
   41        1.563   3.557   0.000   5.120
   42        1.585   3.545   0.000   5.130
   43        1.563   3.560   0.000   5.124
   44        1.563   3.560   0.000   5.124
   45        1.564   3.561   0.000   5.126
   46        1.563   3.560   0.000   5.124
   47        1.564   3.561   0.000   5.126
   48        1.564   3.561   0.000   5.126
   49        1.563   3.556   0.000   5.119
   50        1.585   3.493   0.000   5.078
   51        1.563   3.561   0.000   5.124
   52        1.563   3.561   0.000   5.124
   53        1.564   3.562   0.000   5.126
   54        1.563   3.561   0.000   5.124
   55        1.564   3.562   0.000   5.126
   56        1.564   3.564   0.000   5.128
   57        1.563   3.557   0.000   5.120
   58        1.585   3.493   0.000   5.078
   59        1.563   3.561   0.000   5.124
   60        1.563   3.561   0.000   5.124
   61        1.564   3.562   0.000   5.126
   62        1.563   3.561   0.000   5.124
   63        1.564   3.564   0.000   5.128
   64        1.564   3.562   0.000   5.126
   65        1.563   3.557   0.000   5.120
--------------------------------------------------
tot         56.661 123.183   2.693 182.538
 


 magnetization (x)
 
# of ion       s       p       d       tot
------------------------------------------
    1       -0.001   0.000   0.001   0.001
    2       -0.000   0.000   0.001   0.001
    3       -0.000   0.000   0.001   0.001
    4        0.000   0.000   0.000   0.000
    5       -0.000   0.000   0.001   0.001
    6        0.000   0.000   0.000   0.000
    7        0.000   0.000   0.000   0.000
    8       -0.000  -0.000  -0.000  -0.000
    9        0.000   0.002   0.002   0.004
   10       -0.000   0.000   0.001   0.001
   11       -0.000   0.000   0.001   0.001
   12        0.000   0.000   0.000   0.000
   13       -0.000   0.000   0.000   0.000
   14       -0.000   0.000   0.000   0.000
   15       -0.000   0.000   0.000   0.000
   16       -0.000  -0.000  -0.000  -0.000
   17        0.000   0.002   0.002   0.004
   18       -0.000   0.000   0.001   0.001
   19       -0.000   0.000   0.000   0.000
   20       -0.000   0.000   0.000   0.000
   21       -0.000   0.000   0.001   0.001
   22        0.000   0.000   0.000   0.000
   23       -0.000   0.000   0.000   0.000
   24       -0.000  -0.000  -0.000  -0.000
   25        0.000   0.002   0.002   0.004
   26       -0.000   0.000   0.000   0.000
   27       -0.000   0.000   0.001   0.001
   28       -0.000   0.000   0.000   0.000
   29       -0.000   0.000   0.001   0.001
   30       -0.000   0.000   0.000   0.000
   31        0.000   0.000   0.000   0.000
   32       -0.000  -0.000  -0.000  -0.000
   33        0.006   0.653   0.000   0.658
   34        0.007   0.241   0.000   0.248
   35       -0.000  -0.000   0.000  -0.001
   36       -0.000  -0.000   0.000  -0.001
   37        0.000   0.010   0.000   0.010
   38       -0.000  -0.001   0.000  -0.001
   39        0.000   0.011   0.000   0.012
   40        0.000   0.011   0.000   0.012
   41       -0.000   0.000   0.000   0.000
   42        0.006   0.192   0.000   0.197
   43       -0.000  -0.001   0.000  -0.001
   44       -0.000  -0.001   0.000  -0.001
   45        0.000   0.013   0.000   0.014
   46       -0.000  -0.001   0.000  -0.001
   47        0.000   0.013   0.000   0.014
   48        0.000   0.013   0.000   0.014
   49       -0.000   0.001   0.000   0.001
   50        0.007   0.241   0.000   0.248
   51       -0.000  -0.001   0.000  -0.001
   52       -0.000  -0.000   0.000  -0.001
   53        0.000   0.011   0.000   0.012
   54       -0.000  -0.000   0.000  -0.001
   55        0.000   0.011   0.000   0.012
   56        0.000   0.010   0.000   0.010
   57       -0.000   0.000   0.000   0.000
   58        0.007   0.241   0.000   0.248
   59       -0.000  -0.000   0.000  -0.001
   60       -0.000  -0.001   0.000  -0.001
   61        0.000   0.011   0.000   0.012
   62       -0.000  -0.000   0.000  -0.001
   63        0.000   0.010   0.000   0.010
   64        0.000   0.011   0.000   0.012
   65       -0.000   0.000   0.000   0.000
--------------------------------------------------
tot          0.031   1.711   0.015   1.758
 
    CHARGE:  cpu time    0.0480: real time    0.0448
    FORLOC:  cpu time    0.0040: real time    0.0041
    FORNL :  cpu time    0.1680: real time    0.1703
    STRESS:  cpu time    0.5240: real time    0.5315
    FORCOR:  cpu time    0.0280: real time    0.0267
    FORHAR:  cpu time    0.0040: real time    0.0071
    MIXING:  cpu time    0.0040: real time    0.0012
    OFIELD:  cpu time    0.0000: real time    0.0000

  FORCE on cell =-STRESS in cart. coord.  units (eV):
  Direction    XX          YY          ZZ          XY          YZ          ZX
  --------------------------------------------------------------------------------------
  Alpha Z   651.60265   651.60265   651.60265
  Ewald   -3940.54851 -3940.54851 -3940.54851     0.00000    -0.00000     0.00000
  Hartree  1527.99960  1527.99960  1527.99960    -0.00000    -0.00000    -0.00000
  E(xc)   -1185.60175 -1185.60175 -1185.60175    -0.00000    -0.00000    -0.00000
  Local   -1333.87903 -1333.87903 -1333.87903    -0.00000    -0.00000    -0.00000
  n-local  -617.89864  -617.89864  -617.89864    -0.30228    -0.30228    -0.30228
  augment   225.22527   225.22527   225.22527     0.00000     0.00000    -0.00000
  Kinetic  4670.85251  4670.85251  4670.85250    -0.16848    -0.16848    -0.16848
  Fock        0.00000     0.00000     0.00000     0.00000     0.00000     0.00000
  -------------------------------------------------------------------------------------
  Total      -2.24792    -2.24792    -2.24792     0.00000     0.00000     0.00000
  in kB      -6.03447    -6.03447    -6.03447     0.00000     0.00000     0.00000
  external pressure =       -6.03 kB  Pullay stress =        0.00 kB


 VOLUME and BASIS-vectors are now :
 -----------------------------------------------------------------------------
  energy-cutoff  :      400.00
  volume of cell :      596.83
      direct lattice vectors                 reciprocal lattice vectors
     8.419456000  0.000000000  0.000000000     0.118772519  0.000000000  0.000000000
     0.000000000  8.419456000  0.000000000     0.000000000  0.118772519  0.000000000
     0.000000000  0.000000000  8.419456000     0.000000000  0.000000000  0.118772519

  length of vectors
     8.419456000  8.419456000  8.419456000     0.118772519  0.118772519  0.118772519


 FORCES acting on ions
    electron-ion (+dipol)            ewald-force                    non-local-force                 convergence-correction
 -----------------------------------------------------------------------------------------------
   0.900E+01 0.900E+01 0.900E+01   -.901E+01 -.901E+01 -.901E+01   0.166E-01 0.166E-01 0.166E-01   0.155E-03 0.155E-03 0.155E-03
   -.206E+01 -.206E+01 -.834E+01   0.174E+01 0.174E+01 0.748E+01   0.315E+00 0.315E+00 0.858E+00   0.151E-03 0.151E-03 -.271E-03
   -.206E+01 -.834E+01 -.206E+01   0.174E+01 0.748E+01 0.174E+01   0.315E+00 0.858E+00 0.315E+00   0.151E-03 -.271E-03 0.151E-03
   0.109E+01 0.157E+01 0.157E+01   -.111E+01 -.117E+01 -.117E+01   0.271E-01 -.396E+00 -.396E+00   0.210E-03 -.125E-03 -.125E-03
   -.834E+01 -.206E+01 -.206E+01   0.748E+01 0.174E+01 0.174E+01   0.858E+00 0.315E+00 0.315E+00   -.271E-03 0.151E-03 0.151E-03
   0.157E+01 0.109E+01 0.157E+01   -.117E+01 -.111E+01 -.117E+01   -.396E+00 0.271E-01 -.396E+00   -.125E-03 0.210E-03 -.125E-03
   0.157E+01 0.157E+01 0.109E+01   -.117E+01 -.117E+01 -.111E+01   -.396E+00 -.396E+00 0.271E-01   -.125E-03 -.125E-03 0.210E-03
   -.131E+01 -.131E+01 -.131E+01   0.135E+01 0.135E+01 0.135E+01   -.272E-01 -.272E-01 -.272E-01   -.185E-03 -.185E-03 -.185E-03
   0.900E+01 -.900E+01 -.900E+01   -.901E+01 0.901E+01 0.901E+01   0.166E-01 -.166E-01 -.166E-01   0.155E-03 -.155E-03 -.155E-03
   -.206E+01 0.206E+01 0.834E+01   0.174E+01 -.174E+01 -.748E+01   0.315E+00 -.315E+00 -.858E+00   0.151E-03 -.151E-03 0.271E-03
   -.206E+01 0.834E+01 0.206E+01   0.174E+01 -.748E+01 -.174E+01   0.315E+00 -.858E+00 -.315E+00   0.151E-03 0.271E-03 -.151E-03
   0.109E+01 -.157E+01 -.157E+01   -.111E+01 0.117E+01 0.117E+01   0.271E-01 0.396E+00 0.396E+00   0.210E-03 0.125E-03 0.125E-03
   -.834E+01 0.206E+01 0.206E+01   0.748E+01 -.174E+01 -.174E+01   0.858E+00 -.315E+00 -.315E+00   -.271E-03 -.151E-03 -.151E-03
   0.157E+01 -.109E+01 -.157E+01   -.117E+01 0.111E+01 0.117E+01   -.396E+00 -.271E-01 0.396E+00   -.125E-03 -.210E-03 0.125E-03
   0.157E+01 -.157E+01 -.109E+01   -.117E+01 0.117E+01 0.111E+01   -.396E+00 0.396E+00 -.271E-01   -.125E-03 0.125E-03 -.210E-03
   -.131E+01 0.131E+01 0.131E+01   0.135E+01 -.135E+01 -.135E+01   -.272E-01 0.272E-01 0.272E-01   -.185E-03 0.185E-03 0.185E-03
   -.900E+01 0.900E+01 -.900E+01   0.901E+01 -.901E+01 0.901E+01   -.166E-01 0.166E-01 -.166E-01   -.155E-03 0.155E-03 -.155E-03
[...]
   -.109E+01 0.157E+01 -.157E+01   0.111E+01 -.117E+01 0.117E+01   -.271E-01 -.396E+00 0.396E+00   -.210E-03 -.125E-03 0.125E-03
   0.834E+01 -.206E+01 0.206E+01   -.748E+01 0.174E+01 -.174E+01   -.858E+00 0.315E+00 -.315E+00   0.271E-03 0.151E-03 -.151E-03
   -.157E+01 0.109E+01 -.157E+01   0.117E+01 -.111E+01 0.117E+01   0.396E+00 0.271E-01 0.396E+00   0.125E-03 0.210E-03 0.125E-03
   -.157E+01 0.157E+01 -.109E+01   0.117E+01 -.117E+01 0.111E+01   0.396E+00 -.396E+00 -.271E-01   0.125E-03 -.125E-03 -.210E-03
   0.131E+01 -.131E+01 0.131E+01   -.135E+01 0.135E+01 -.135E+01   0.272E-01 -.272E-01 0.272E-01   0.185E-03 -.185E-03 0.185E-03
   -.900E+01 -.900E+01 0.900E+01   0.901E+01 0.901E+01 -.901E+01   -.166E-01 -.166E-01 0.166E-01   -.155E-03 -.155E-03 0.155E-03
   0.206E+01 0.206E+01 -.834E+01   -.174E+01 -.174E+01 0.748E+01   -.315E+00 -.315E+00 0.858E+00   -.151E-03 -.151E-03 -.271E-03
   0.206E+01 0.834E+01 -.206E+01   -.174E+01 -.748E+01 0.174E+01   -.315E+00 -.858E+00 0.315E+00   -.151E-03 0.271E-03 0.151E-03
   -.109E+01 -.157E+01 0.157E+01   0.111E+01 0.117E+01 -.117E+01   -.271E-01 0.396E+00 -.396E+00   -.210E-03 0.125E-03 -.125E-03
   0.834E+01 0.206E+01 -.206E+01   -.748E+01 -.174E+01 0.174E+01   -.858E+00 -.315E+00 0.315E+00   0.271E-03 -.151E-03 0.151E-03
   -.157E+01 -.109E+01 0.157E+01   0.117E+01 0.111E+01 -.117E+01   0.396E+00 -.271E-01 -.396E+00   0.125E-03 -.210E-03 -.125E-03
   -.157E+01 -.157E+01 0.109E+01   0.117E+01 0.117E+01 -.111E+01   0.396E+00 0.396E+00 0.271E-01   0.125E-03 0.125E-03 0.210E-03
   0.131E+01 0.131E+01 -.131E+01   -.135E+01 -.135E+01 0.135E+01   0.272E-01 0.272E-01 -.272E-01   0.185E-03 0.185E-03 -.185E-03
   0.463E-06 0.463E-06 -.201E-06   0.435E-13 0.409E-13 0.444E-14   0.867E-18 0.260E-17 0.867E-18   0.777E-13 0.732E-14 0.883E-13
   -.196E+02 0.196E+02 0.196E+02   0.173E+02 -.173E+02 -.173E+02   0.228E+01 -.228E+01 -.228E+01   -.916E-03 0.916E-03 0.916E-03
   -.294E+01 0.294E+01 -.644E+01   0.252E+01 -.252E+01 0.643E+01   0.415E+00 -.415E+00 0.298E-02   -.947E-03 0.947E-03 -.695E-03
   -.294E+01 -.644E+01 0.294E+01   0.252E+01 0.643E+01 -.252E+01   0.415E+00 0.298E-02 -.415E+00   -.947E-03 -.695E-03 0.947E-03
   -.108E+01 -.536E+01 -.536E+01   0.102E+01 0.472E+01 0.472E+01   0.698E-01 0.641E+00 0.641E+00   -.112E-02 -.483E-03 -.483E-03
   0.644E+01 0.294E+01 0.294E+01   -.643E+01 -.252E+01 -.252E+01   -.298E-02 -.415E+00 -.415E+00   0.695E-03 0.947E-03 0.947E-03
   0.536E+01 0.108E+01 -.536E+01   -.472E+01 -.102E+01 0.472E+01   -.641E+00 -.698E-01 0.641E+00   0.483E-03 0.112E-02 -.483E-03
   0.536E+01 -.536E+01 0.108E+01   -.472E+01 0.472E+01 -.102E+01   -.641E+00 0.641E+00 -.698E-01   0.483E-03 -.483E-03 0.112E-02
   0.192E+01 -.192E+01 -.192E+01   -.189E+01 0.189E+01 0.189E+01   -.327E-01 0.327E-01 0.327E-01   0.754E-03 -.754E-03 -.754E-03
   -.196E+02 -.196E+02 -.196E+02   0.173E+02 0.173E+02 0.173E+02   0.228E+01 0.228E+01 0.228E+01   -.916E-03 -.916E-03 -.916E-03
   -.294E+01 -.294E+01 0.644E+01   0.252E+01 0.252E+01 -.643E+01   0.415E+00 0.415E+00 -.298E-02   -.947E-03 -.947E-03 0.695E-03
   -.294E+01 0.644E+01 -.294E+01   0.252E+01 -.643E+01 0.252E+01   0.415E+00 -.298E-02 0.415E+00   -.947E-03 0.695E-03 -.947E-03
   -.108E+01 0.536E+01 0.536E+01   0.102E+01 -.472E+01 -.472E+01   0.698E-01 -.641E+00 -.641E+00   -.112E-02 0.483E-03 0.483E-03
   0.644E+01 -.294E+01 -.294E+01   -.643E+01 0.252E+01 0.252E+01   -.298E-02 0.415E+00 0.415E+00   0.695E-03 -.947E-03 -.947E-03
   0.536E+01 -.108E+01 0.536E+01   -.472E+01 0.102E+01 -.472E+01   -.641E+00 0.698E-01 -.641E+00   0.483E-03 -.112E-02 0.483E-03
   0.536E+01 0.536E+01 -.108E+01   -.472E+01 -.472E+01 0.102E+01   -.641E+00 -.641E+00 0.698E-01   0.483E-03 0.483E-03 -.112E-02
   0.192E+01 0.192E+01 0.192E+01   -.189E+01 -.189E+01 -.189E+01   -.327E-01 -.327E-01 -.327E-01   0.754E-03 0.754E-03 0.754E-03
   0.196E+02 0.196E+02 -.196E+02   -.173E+02 -.173E+02 0.173E+02   -.228E+01 -.228E+01 0.228E+01   0.916E-03 0.916E-03 -.916E-03
   0.294E+01 0.294E+01 0.644E+01   -.252E+01 -.252E+01 -.643E+01   -.415E+00 -.415E+00 -.298E-02   0.947E-03 0.947E-03 0.695E-03
   0.294E+01 -.644E+01 -.294E+01   -.252E+01 0.643E+01 0.252E+01   -.415E+00 0.298E-02 0.415E+00   0.947E-03 -.695E-03 -.947E-03
   0.108E+01 -.536E+01 0.536E+01   -.102E+01 0.472E+01 -.472E+01   -.698E-01 0.641E+00 -.641E+00   0.112E-02 -.483E-03 0.483E-03
   -.644E+01 0.294E+01 -.294E+01   0.643E+01 -.252E+01 0.252E+01   0.298E-02 -.415E+00 0.415E+00   -.695E-03 0.947E-03 -.947E-03
   -.536E+01 0.108E+01 0.536E+01   0.472E+01 -.102E+01 -.472E+01   0.641E+00 -.698E-01 -.641E+00   -.483E-03 0.112E-02 0.483E-03
   -.536E+01 -.536E+01 -.108E+01   0.472E+01 0.472E+01 0.102E+01   0.641E+00 0.641E+00 0.698E-01   -.483E-03 -.483E-03 -.112E-02
   -.192E+01 -.192E+01 0.192E+01   0.189E+01 0.189E+01 -.189E+01   0.327E-01 0.327E-01 -.327E-01   -.754E-03 -.754E-03 0.754E-03
   0.196E+02 -.196E+02 0.196E+02   -.173E+02 0.173E+02 -.173E+02   -.228E+01 0.228E+01 -.228E+01   0.916E-03 -.916E-03 0.916E-03
   0.294E+01 -.294E+01 -.644E+01   -.252E+01 0.252E+01 0.643E+01   -.415E+00 0.415E+00 0.298E-02   0.947E-03 -.947E-03 -.695E-03
   0.294E+01 0.644E+01 0.294E+01   -.252E+01 -.643E+01 -.252E+01   -.415E+00 -.298E-02 -.415E+00   0.947E-03 0.695E-03 0.947E-03
   0.108E+01 0.536E+01 -.536E+01   -.102E+01 -.472E+01 0.472E+01   -.698E-01 -.641E+00 0.641E+00   0.112E-02 0.483E-03 -.483E-03
   -.644E+01 -.294E+01 0.294E+01   0.643E+01 0.252E+01 -.252E+01   0.298E-02 0.415E+00 -.415E+00   -.695E-03 -.947E-03 0.947E-03
   -.536E+01 -.108E+01 -.536E+01   0.472E+01 0.102E+01 0.472E+01   0.641E+00 0.698E-01 0.641E+00   -.483E-03 -.112E-02 -.483E-03
   -.536E+01 0.536E+01 0.108E+01   0.472E+01 -.472E+01 -.102E+01   0.641E+00 -.641E+00 -.698E-01   -.483E-03 0.483E-03 0.112E-02
   -.192E+01 0.192E+01 -.192E+01   0.189E+01 -.189E+01 0.189E+01   0.327E-01 -.327E-01 0.327E-01   -.754E-03 0.754E-03 -.754E-03
 -----------------------------------------------------------------------------------------------
   0.540E-05 0.540E-05 -.192E-06   0.941E-13 -.888E-13 -.453E-13   -.257E-14 -.541E-15 -.493E-15   0.640E-13 -.303E-14 0.238E-12
 
 
 POSITION                                       TOTAL-FORCE (eV/Angst)
 -----------------------------------------------------------------------------------
      8.36019      8.36019      8.36019         0.011011      0.011011      0.011011
      8.40106      8.40106      4.25218        -0.012754     -0.012754     -0.004672
      8.40106      4.25218      8.40106        -0.012754     -0.004672     -0.012754
      8.41941      4.22156      4.22156         0.009606      0.006368      0.006368
      4.25218      8.40106      8.40106        -0.004672     -0.012754     -0.012754
      4.22156      8.41941      4.22156         0.006368      0.009606      0.006368
      4.22156      4.22156      8.41941         0.006368      0.006368      0.009606
      4.21120      4.21120      4.21120         0.006233      0.006233      0.006233
      8.36019      2.16413      2.16413         0.011011     -0.011011     -0.011011
      8.40106      2.12326      6.27214        -0.012754      0.012754      0.004672
      8.40106      6.27214      2.12326        -0.012754      0.004672      0.012754
      8.41941      6.30276      6.30276         0.009606     -0.006368     -0.006368
      4.25218      2.12326      2.12326        -0.004672      0.012754      0.012754
      4.22156      2.10491      6.30276         0.006368     -0.009606     -0.006368
      4.22156      6.30276      2.10491         0.006368     -0.006368     -0.009606
      4.21120      6.31312      6.31312         0.006233     -0.006233     -0.006233
      2.16413      8.36019      2.16413        -0.011011      0.011011     -0.011011
      2.12326      8.40106      6.27214         0.012754     -0.012754      0.004672
      2.12326      4.25218      2.12326         0.012754     -0.004672      0.012754
      2.10491      4.22156      6.30276        -0.009606      0.006368     -0.006368
      6.27214      8.40106      2.12326         0.004672     -0.012754      0.012754
      6.30276      8.41941      6.30276        -0.006368      0.009606     -0.006368
      6.30276      4.22156      2.10491        -0.006368      0.006368     -0.009606
      6.31312      4.21120      6.31312        -0.006233      0.006233     -0.006233
      2.16413      2.16413      8.36019        -0.011011     -0.011011      0.011011
      2.12326      2.12326      4.25218         0.012754      0.012754     -0.004672
      2.12326      6.27214      8.40106         0.012754      0.004672     -0.012754
      2.10491      6.30276      4.22156        -0.009606     -0.006368      0.006368
      6.27214      2.12326      8.40106         0.004672      0.012754     -0.012754
      6.30276      2.10491      4.22156        -0.006368     -0.009606      0.006368
      6.30276      6.30276      8.41941        -0.006368     -0.006368      0.009606
      6.31312      6.31312      4.21120        -0.006233     -0.006233      0.006233
      1.05243      1.05243      1.05243        -0.000000      0.000000     -0.000000
      2.29178      8.23254      8.23254        -0.013248      0.013248      0.013248
      2.10691      8.41741      4.21230         0.001173     -0.001173     -0.005251
      2.10691      4.21230      8.41741         0.001173     -0.005251     -0.001173
      2.10574      4.23375      4.23375         0.010947      0.001238      0.001238
      6.31202      8.41741      8.41741         0.005251     -0.001173     -0.001173
      6.29057      8.41858      4.23375        -0.001238     -0.010947      0.001238
      6.29057      4.23375      8.41858        -0.001238      0.001238     -0.010947
      6.31631      4.20801      4.20801        -0.004974      0.004974      0.004974
      2.29178      2.29178      2.29178        -0.013248     -0.013248     -0.013248
      2.10691      2.10691      6.31202         0.001173      0.001173      0.005251
      2.10691      6.31202      2.10691         0.001173      0.005251      0.001173
      2.10574      6.29057      6.29057         0.010947     -0.001238     -0.001238
      6.31202      2.10691      2.10691         0.005251      0.001173      0.001173
      6.29057      2.10574      6.29057        -0.001238      0.010947     -0.001238
      6.29057      6.29057      2.10574        -0.001238     -0.001238      0.010947
      6.31631      6.31631      6.31631        -0.004974     -0.004974     -0.004974
      8.23254      8.23254      2.29178         0.013248      0.013248     -0.013248
      8.41741      8.41741      6.31202        -0.001173     -0.001173      0.005251
      8.41741      4.21230      2.10691        -0.001173     -0.005251      0.001173
      8.41858      4.23375      6.29057        -0.010947      0.001238     -0.001238
      4.21230      8.41741      2.10691        -0.005251     -0.001173      0.001173
      4.23375      8.41858      6.29057         0.001238     -0.010947     -0.001238
      4.23375      4.23375      2.10574         0.001238      0.001238      0.010947
      4.20801      4.20801      6.31631         0.004974      0.004974     -0.004974
      8.23254      2.29178      8.23254         0.013248     -0.013248      0.013248
      8.41741      2.10691      4.21230        -0.001173      0.001173     -0.005251
      8.41741      6.31202      8.41741        -0.001173      0.005251     -0.001173
      8.41858      6.29057      4.23375        -0.010947     -0.001238      0.001238
      4.21230      2.10691      8.41741        -0.005251      0.001173     -0.001173
      4.23375      2.10574      4.23375         0.001238      0.010947      0.001238
      4.23375      6.29057      8.41858         0.001238     -0.001238     -0.010947
      4.20801      6.31631      4.20801         0.004974     -0.004974      0.004974
 -----------------------------------------------------------------------------------
    total drift:                                0.000005      0.000005     -0.000000


--------------------------------------------------------------------------------------------------------



  FREE ENERGIE OF THE ION-ELECTRON SYSTEM (eV)
  ---------------------------------------------------
  free  energy   TOTEN  =      -400.60287458 eV

  energy  without entropy=     -400.52993061  energy(sigma->0) =     -400.56640260
 


--------------------------------------------------------------------------------------------------------


    POTLOK:  cpu time    0.5720: real time    0.5767


--------------------------------------------------------------------------------------------------------




--------------------------------------------------------------------------------------------------------


  
 reached required accuracy - stopping structural energy minimisation
 writing wavefunctions
     LOOP+:  cpu time    6.8560: real time    7.3137
    4ORBIT:  cpu time    0.0000: real time    0.0000
 


 total charge     
 
# of ion       s       p       d       tot
------------------------------------------
    1        0.154   0.186   0.084   0.425
    2        0.155   0.192   0.087   0.433
    3        0.155   0.192   0.087   0.433
    4        0.153   0.187   0.083   0.423
    5        0.155   0.192   0.087   0.433
    6        0.153   0.187   0.083   0.423
    7        0.153   0.187   0.083   0.423
    8        0.150   0.182   0.080   0.413
    9        0.153   0.185   0.083   0.422
   10        0.155   0.191   0.087   0.433
   11        0.155   0.191   0.087   0.433
   12        0.153   0.187   0.083   0.422
   13        0.155   0.192   0.087   0.433
   14        0.153   0.187   0.083   0.422
   15        0.153   0.187   0.083   0.422
   16        0.150   0.182   0.080   0.413
   17        0.153   0.185   0.083   0.422
   18        0.155   0.191   0.087   0.433
   19        0.155   0.192   0.087   0.433
   20        0.153   0.187   0.083   0.422
   21        0.155   0.191   0.087   0.433
   22        0.153   0.187   0.083   0.422
   23        0.153   0.187   0.083   0.422
   24        0.150   0.182   0.080   0.413
   25        0.153   0.185   0.083   0.422
   26        0.155   0.192   0.087   0.433
   27        0.155   0.191   0.087   0.433
   28        0.153   0.187   0.083   0.422
   29        0.155   0.191   0.087   0.433
   30        0.153   0.187   0.083   0.422
   31        0.153   0.187   0.083   0.422
   32        0.150   0.182   0.080   0.413
   33        1.637   3.448   0.000   5.086
   34        1.585   3.493   0.000   5.078
   35        1.563   3.561   0.000   5.124
   36        1.563   3.561   0.000   5.124
   37        1.564   3.564   0.000   5.128
   38        1.563   3.561   0.000   5.124
   39        1.564   3.562   0.000   5.126
   40        1.564   3.562   0.000   5.126
   41        1.563   3.557   0.000   5.120
   42        1.585   3.545   0.000   5.130
   43        1.563   3.560   0.000   5.124
   44        1.563   3.560   0.000   5.124
   45        1.564   3.561   0.000   5.126
   46        1.563   3.560   0.000   5.124
   47        1.564   3.561   0.000   5.126
   48        1.564   3.561   0.000   5.126
   49        1.563   3.556   0.000   5.119
   50        1.585   3.493   0.000   5.078
   51        1.563   3.561   0.000   5.124
   52        1.563   3.561   0.000   5.124
   53        1.564   3.562   0.000   5.126
   54        1.563   3.561   0.000   5.124
   55        1.564   3.562   0.000   5.126
   56        1.564   3.564   0.000   5.128
   57        1.563   3.557   0.000   5.120
   58        1.585   3.493   0.000   5.078
   59        1.563   3.561   0.000   5.124
   60        1.563   3.561   0.000   5.124
   61        1.564   3.562   0.000   5.126
   62        1.563   3.561   0.000   5.124
   63        1.564   3.564   0.000   5.128
   64        1.564   3.562   0.000   5.126
   65        1.563   3.557   0.000   5.120
--------------------------------------------------
tot         56.661 123.183   2.693 182.538
 


 magnetization (x)
 
# of ion       s       p       d       tot
------------------------------------------
    1       -0.001   0.000   0.001   0.001
    2       -0.000   0.000   0.001   0.001
    3       -0.000   0.000   0.001   0.001
    4        0.000   0.000   0.000   0.000
    5       -0.000   0.000   0.001   0.001
    6        0.000   0.000   0.000   0.000
    7        0.000   0.000   0.000   0.000
    8       -0.000  -0.000  -0.000  -0.000
    9        0.000   0.002   0.002   0.004
   10       -0.000   0.000   0.001   0.001
   11       -0.000   0.000   0.001   0.001
   12        0.000   0.000   0.000   0.000
   13       -0.000   0.000   0.000   0.000
   14       -0.000   0.000   0.000   0.000
   15       -0.000   0.000   0.000   0.000
   16       -0.000  -0.000  -0.000  -0.000
   17        0.000   0.002   0.002   0.004
   18       -0.000   0.000   0.001   0.001
   19       -0.000   0.000   0.000   0.000
   20       -0.000   0.000   0.000   0.000
   21       -0.000   0.000   0.001   0.001
   22        0.000   0.000   0.000   0.000
   23       -0.000   0.000   0.000   0.000
   24       -0.000  -0.000  -0.000  -0.000
   25        0.000   0.002   0.002   0.004
   26       -0.000   0.000   0.000   0.000
   27       -0.000   0.000   0.001   0.001
   28       -0.000   0.000   0.000   0.000
   29       -0.000   0.000   0.001   0.001
   30       -0.000   0.000   0.000   0.000
   31        0.000   0.000   0.000   0.000
   32       -0.000  -0.000  -0.000  -0.000
   33        0.006   0.653   0.000   0.658
   34        0.007   0.241   0.000   0.248
   35       -0.000  -0.000   0.000  -0.001
   36       -0.000  -0.000   0.000  -0.001
   37        0.000   0.010   0.000   0.010
   38       -0.000  -0.001   0.000  -0.001
   39        0.000   0.011   0.000   0.012
   40        0.000   0.011   0.000   0.012
   41       -0.000   0.000   0.000   0.000
   42        0.006   0.192   0.000   0.197
   43       -0.000  -0.001   0.000  -0.001
   44       -0.000  -0.001   0.000  -0.001
   45        0.000   0.013   0.000   0.014
   46       -0.000  -0.001   0.000  -0.001
   47        0.000   0.013   0.000   0.014
   48        0.000   0.013   0.000   0.014
   49       -0.000   0.001   0.000   0.001
   50        0.007   0.241   0.000   0.248
   51       -0.000  -0.001   0.000  -0.001
   52       -0.000  -0.000   0.000  -0.001
   53        0.000   0.011   0.000   0.012
   54       -0.000  -0.000   0.000  -0.001
   55        0.000   0.011   0.000   0.012
   56        0.000   0.010   0.000   0.010
   57       -0.000   0.000   0.000   0.000
   58        0.007   0.241   0.000   0.248
   59       -0.000  -0.000   0.000  -0.001
   60       -0.000  -0.001   0.000  -0.001
   61        0.000   0.011   0.000   0.012
   62       -0.000  -0.000   0.000  -0.001
   63        0.000   0.010   0.000   0.010
   64        0.000   0.011   0.000   0.012
   65       -0.000   0.000   0.000   0.000
--------------------------------------------------
tot          0.031   1.711   0.015   1.758
 

 total amount of memory used by VASP MPI-rank0    50675. kBytes
=======================================================================

   base      :      30000. kBytes
   nonlr-proj:       8694. kBytes
   fftplans  :       1007. kBytes
   grid      :       7709. kBytes
   one-center:       1054. kBytes
   wavefun   :       2211. kBytes
 
  
  
 General timing and accounting informations for this job:
 ========================================================
  
                  Total CPU time used (sec):        8.504
                            User time (sec):        7.784
                          System time (sec):        0.720
                         Elapsed time (sec):        9.433
  
                   Maximum memory used (kb):      100616.
                   Average memory used (kb):           0.
  
                          Minor page faults:       193965
                          Major page faults:            9
                 Voluntary context switches:         3072
