 vasp.5.4.4.18Apr17-6-g9f103f2a35 (build Apr 25 2017 10:43:04) complex          
  
 executed on             LinuxIFC date 2019.08.24  15:42:35
 running on   36 total cores
 distrk:  each k-point on   36 cores,    1 groups
 distr:  one band on NCORES_PER_BAND=   1 cores,   36 groups


--------------------------------------------------------------------------------------------------------


 INCAR:
 POTCAR:    PAW_PBE Mg 13Apr2007                  
 POTCAR:    PAW_PBE O 08Apr2002                   

 ----------------------------------------------------------------------------- 
|                                                                             |
|           W    W    AA    RRRRR   N    N  II  N    N   GGGG   !!!           |
|           W    W   A  A   R    R  NN   N  II  NN   N  G    G  !!!           |
|           W    W  A    A  R    R  N N  N  II  N N  N  G       !!!           |
|           W WW W  AAAAAA  RRRRR   N  N N  II  N  N N  G  GGG   !            |
|           WW  WW  A    A  R   R   N   NN  II  N   NN  G    G                |
|           W    W  A    A  R    R  N    N  II  N    N   GGGG   !!!           |
|                                                                             |
|      For optimal performance we recommend to set                            |
|        NCORE= 4 - approx SQRT( number of cores)                             |
|      NCORE specifies how many cores store one orbital (NPAR=cpu/NCORE).     |
|      This setting can  greatly improve the performance of VASP for DFT.     |
|      The default,   NCORE=1            might be grossly inefficient         |
|      on modern multi-core architectures or massively parallel machines.     |
|      Do your own testing !!!!                                               |
|      Unfortunately you need to use the default for GW and RPA calculations. |
|      (for HF NCORE is supported but not extensively tested yet)             |
|                                                                             |
 ----------------------------------------------------------------------------- 

 POTCAR:    PAW_PBE Mg 13Apr2007                  
   VRHFIN =Mg: s2p0                                                             
   LEXCH  = PE                                                                  
   EATOM  =    23.0369 eV,    1.6932 Ry                                         
                                                                                
   TITEL  = PAW_PBE Mg 13Apr2007                                                
   LULTRA =        F    use ultrasoft PP ?                                      
   IUNSCR =        1    unscreen: 0-lin 1-nonlin 2-no                           
   RPACOR =    1.500    partial core radius                                     
   POMASS =   24.305; ZVAL   =    2.000    mass and valenz                      
   RCORE  =    2.000    outmost cutoff radius                                   
   RWIGS  =    2.880; RWIGS  =    1.524    wigner-seitz radius (au A)           
   ENMAX  =  200.000; ENMIN  =  100.000 eV                                      
   RCLOC  =    1.506    cutoff for local pot                                    
   LCOR   =        T    correct aug charges                                     
   LPAW   =        T    paw PP                                                  
   EAUG   =  454.734                                                            
   DEXC   =    0.000                                                            
   RMAX   =    2.045    core radius for proj-oper                               
   RAUG   =    1.300    factor for augmentation sphere                          
   RDEP   =    2.025    radius for radial grids                                 
   RDEPT  =    1.942    core radius for aug-charge                              
                                                                                
   Atomic configuration                                                         
    6 entries                                                                   
     n  l   j            E        occ.                                          
     1  0  0.50     -1259.6230   2.0000                                         
     2  0  0.50       -79.8442   2.0000                                         
     2  1  1.50       -46.6121   6.0000                                         
     3  0  0.50        -4.7055   2.0000                                         
     3  1  0.50        -1.3660   0.0000                                         
     3  2  1.50        -1.3606   0.0000                                         
   Description                                                                  
     l       E           TYP  RCUT    TYP  RCUT                                 
     0     -4.7054661     23  2.000                                             
     0     27.2116520     23  2.000                                             
     1      1.3605826     23  2.000                                             
     1     27.2116520     23  2.000                                             
     2     -1.3605826     23  2.000                                             
  local pseudopotential read in
  partial core-charges read in
  partial kinetic energy density read in
  atomic valenz-charges read in
  non local Contribution for L=           0  read in
    real space projection operators read in
  non local Contribution for L=           0  read in
    real space projection operators read in
  non local Contribution for L=           1  read in
    real space projection operators read in
  non local Contribution for L=           1  read in
    real space projection operators read in
  non local Contribution for L=           2  read in
    real space projection operators read in
    PAW grid and wavefunctions read in
 
   number of l-projection  operators is LMAX  =           5
   number of lm-projection operators is LMMAX =          13
 
 POTCAR:    PAW_PBE O 08Apr2002                   
   VRHFIN =O: s2p4                                                              
   LEXCH  = PE                                                                  
   EATOM  =   432.3788 eV,   31.7789 Ry                                         
                                                                                
   TITEL  = PAW_PBE O 08Apr2002                                                 
   LULTRA =        F    use ultrasoft PP ?                                      
   IUNSCR =        1    unscreen: 0-lin 1-nonlin 2-no                           
   RPACOR =    1.200    partial core radius                                     
   POMASS =   16.000; ZVAL   =    6.000    mass and valenz                      
   RCORE  =    1.520    outmost cutoff radius                                   
   RWIGS  =    1.550; RWIGS  =    0.820    wigner-seitz radius (au A)           
   ENMAX  =  400.000; ENMIN  =  300.000 eV                                      
   ICORE  =        2    local potential                                         
   LCOR   =        T    correct aug charges                                     
   LPAW   =        T    paw PP                                                  
   EAUG   =  605.392                                                            
   DEXC   =    0.000                                                            
   RMAX   =    1.553    core radius for proj-oper                               
   RAUG   =    1.300    factor for augmentation sphere                          
   RDEP   =    1.550    radius for radial grids                                 
   RDEPT  =    1.329    core radius for aug-charge                              
                                                                                
   Atomic configuration                                                         
    4 entries                                                                   
     n  l   j            E        occ.                                          
     1  0  0.50      -514.6923   2.0000                                         
     2  0  0.50       -23.9615   2.0000                                         
     2  1  0.50        -9.0305   4.0000                                         
     3  2  1.50        -9.5241   0.0000                                         
   Description                                                                  
     l       E           TYP  RCUT    TYP  RCUT                                 
     0    -23.9615318     23  1.200                                             
     0     -9.5240782     23  1.200                                             
     1     -9.0304911     23  1.520                                             
     1      8.1634956     23  1.520                                             
     2     -9.5240782      7  1.500                                             
  local pseudopotential read in
  partial core-charges read in
  partial kinetic energy density read in
  kinetic energy density of atom read in
  atomic valenz-charges read in
  non local Contribution for L=           0  read in
    real space projection operators read in
  non local Contribution for L=           0  read in
    real space projection operators read in
  non local Contribution for L=           1  read in
    real space projection operators read in
  non local Contribution for L=           1  read in
    real space projection operators read in
    PAW grid and wavefunctions read in
 
   number of l-projection  operators is LMAX  =           4
   number of lm-projection operators is LMMAX =           8
 
 Optimization of the real space projectors (new method)

 maximal supplied QI-value         = 18.90
 optimisation between [QCUT,QGAM] = [ 10.20, 20.41] = [ 29.16,116.64] Ry 
 Optimized for a Real-space Cutoff    1.30 Angstroem

   l    n(q)    QCUT    max X(q) W(low)/X(q) W(high)/X(q)  e(spline) 
   0      8    10.205    28.265    0.22E-03    0.17E-03    0.53E-07
   0      8    10.205    10.429    0.17E-03    0.15E-03    0.43E-07
   1      7    10.205    13.073    0.71E-04    0.41E-03    0.76E-07
   1      7    10.205     9.625    0.71E-04    0.33E-03    0.63E-07
   2      7    10.205     4.652    0.24E-03    0.41E-03    0.55E-07
 Optimization of the real space projectors (new method)

 maximal supplied QI-value         = 24.76
 optimisation between [QCUT,QGAM] = [ 10.15, 20.30] = [ 28.85,115.39] Ry 
 Optimized for a Real-space Cutoff    1.38 Angstroem

   l    n(q)    QCUT    max X(q) W(low)/X(q) W(high)/X(q)  e(spline) 
   0      8    10.150    20.381    0.22E-03    0.32E-03    0.29E-06
   0      8    10.150    15.268    0.23E-03    0.35E-03    0.30E-06
   1      8    10.150     5.964    0.46E-03    0.53E-03    0.21E-06
   1      8    10.150     5.382    0.38E-03    0.45E-03    0.19E-06

 ----------------------------------------------------------------------------- 
|                                                                             |
|  ADVICE TO THIS USER RUNNING 'VASP/VAMP'   (HEAR YOUR MASTER'S VOICE ...):  |
|                                                                             |
|      You enforced a specific xc-type in the INCAR file,                     |
|      a different type was found on the POTCAR file                          |
|          I HOPE YOU KNOW, WHAT YOU ARE  DOING                               |
|                                                                             |
 ----------------------------------------------------------------------------- 

  PAW_PBE Mg 13Apr2007                  :
 energy of atom  1       EATOM=  -23.0369
 kinetic energy error for atom=    0.0001 (will be added to EATOM!!)
  PAW_PBE O 08Apr2002                   :
 energy of atom  2       EATOM= -432.3788
 kinetic energy error for atom=    0.1156 (will be added to EATOM!!)
 
 
 POSCAR: Mg32 O31                                
  positions in direct lattice
  velocities in cartesian coordinates
 exchange correlation table for  LEXCH =       14
   RHO(1)=    0.500       N(1)  =     2000
   RHO(2)=  100.500       N(2)  =     4000
 


--------------------------------------------------------------------------------------------------------


 ion  position               nearest neighbor table
   1  0.998  0.000  0.000-  36 2.09  48 2.11  49 2.11  56 2.11  58 2.11  22 2.97  29 2.97  31 2.97
                            21 2.97  10 2.98  11 2.98  12 2.98   9 2.98  27 3.00  17 3.00  18 3.00
   2  1.000  0.000  0.500-  48 2.10  49 2.10  37 2.10  57 2.10  59 2.10  33 2.11  17 2.97  18 2.97
                            21 2.97  22 2.97  30 2.97  32 2.97   9 2.98  10 2.98  11 2.98  12 2.98
   3  1.000  0.500  0.000-  56 2.10  58 2.10  38 2.10  50 2.10  51 2.10  34 2.11  25 2.97  27 2.97
                            29 2.97  31 2.97  23 2.97  24 2.97   9 2.98  10 2.98  11 2.98  12 2.98
   4  0.000  0.500  0.500-  35 2.10  39 2.11  50 2.11  51 2.11  57 2.11  59 2.11  26 2.97  28 2.97
                            19 2.97  20 2.97  11 2.98  12 2.98   9 2.98  10 2.98  30 2.98  32 2.98
   5  0.502  0.000  0.000-  36 2.09  52 2.11  53 2.11  60 2.11  62 2.11  22 2.97  29 2.97  31 2.97
                            21 2.97  14 2.98  15 2.98  16 2.98  13 2.98  27 3.00  17 3.00  18 3.00
   6  0.500  0.000  0.500-  52 2.10  53 2.10  37 2.10  61 2.10  63 2.10  33 2.11  17 2.97  18 2.97
                            21 2.97  22 2.97  30 2.97  32 2.97  13 2.98  14 2.98  15 2.98  16 2.98
   7  0.500  0.500  0.000-  60 2.10  62 2.10  38 2.10  54 2.10  55 2.10  34 2.11  25 2.97  27 2.97
                            29 2.97  31 2.97  23 2.97  24 2.97  13 2.98  14 2.98  15 2.98  16 2.98
   8  0.500  0.500  0.500-  35 2.10  39 2.11  54 2.11  55 2.11  61 2.11  63 2.11  26 2.97  28 2.97
                            19 2.97  20 2.97  15 2.98  16 2.98  13 2.98  14 2.98  30 2.98  32 2.98
   9  0.000  0.250  0.250-  40 2.10  48 2.10  56 2.10  50 2.11  44 2.11  57 2.11  17 2.98   1 2.98
                            25 2.98   2 2.98  19 2.98  21 2.98   3 2.98  26 2.98  29 2.98  23 2.98
  10  0.000  0.250  0.750-  41 2.10  49 2.10  56 2.10  51 2.11  45 2.11  57 2.11  18 2.98   1 2.98
                            25 2.98   2 2.98  20 2.98  22 2.98   3 2.98  26 2.98  29 2.98  24 2.98
  11  0.000  0.750  0.250-  42 2.10  48 2.10  58 2.10  50 2.11  46 2.11  59 2.11  17 2.98   1 2.98
                            27 2.98   2 2.98  19 2.98  21 2.98   3 2.98  28 2.98  31 2.98  23 2.98
  12  0.000  0.750  0.750-  43 2.10  49 2.10  58 2.10  51 2.11  47 2.11  59 2.11  18 2.98   1 2.98
                            27 2.98   2 2.98  20 2.98  22 2.98   3 2.98  28 2.98  31 2.98  24 2.98
  13  0.500  0.250  0.250-  40 2.10  52 2.10  60 2.10  54 2.11  44 2.11  61 2.11  17 2.98   5 2.98
                            25 2.98   6 2.98  19 2.98  21 2.98   7 2.98  26 2.98  29 2.98  23 2.98
  14  0.500  0.250  0.750-  41 2.10  53 2.10  60 2.10  55 2.11  45 2.11  61 2.11  18 2.98   5 2.98
                            25 2.98   6 2.98  20 2.98  22 2.98   7 2.98  26 2.98  29 2.98  24 2.98
  15  0.500  0.750  0.250-  42 2.10  52 2.10  62 2.10  54 2.11  46 2.11  63 2.11  17 2.98   5 2.98
                            27 2.98   6 2.98  19 2.98  21 2.98   7 2.98  28 2.98  31 2.98  23 2.98
  16  0.500  0.750  0.750-  43 2.10  53 2.10  62 2.10  55 2.11  47 2.11  63 2.11  18 2.98   5 2.98
                            27 2.98   6 2.98  20 2.98  22 2.98   7 2.98  28 2.98  31 2.98  24 2.98
  17  0.250  0.000  0.252-  33 2.09  40 2.11  42 2.11  48 2.11  52 2.11   6 2.97  26 2.97  28 2.97
                             2 2.97  15 2.98   9 2.98  11 2.98  13 2.98   5 3.00  27 3.00   1 3.00
  18  0.250  0.000  0.748-  33 2.09  41 2.11  43 2.11  49 2.11  53 2.11   6 2.97  26 2.97  28 2.97
                             2 2.97  16 2.98  10 2.98  12 2.98  14 2.98   5 3.00  27 3.00   1 3.00
  19  0.250  0.500  0.250-  40 2.10  42 2.10  35 2.10  50 2.10  54 2.10  34 2.11  25 2.97  27 2.97
                            26 2.97  28 2.97   4 2.97   8 2.97  13 2.98  15 2.98   9 2.98  11 2.98
  20  0.250  0.500  0.750-  41 2.10  43 2.10  35 2.10  51 2.10  55 2.10  34 2.11  25 2.97  27 2.97
                            26 2.97  28 2.97   4 2.97   8 2.97  14 2.98  16 2.98  10 2.98  12 2.98
  21  0.750  0.000  0.250-  48 2.10  52 2.10  37 2.10  44 2.10  46 2.10  36 2.11   1 2.97   5 2.97
                             2 2.97   6 2.97  30 2.97  32 2.97   9 2.98  11 2.98  13 2.98  15 2.98
  22  0.750  0.000  0.750-  49 2.10  53 2.10  37 2.10  45 2.10  47 2.10  36 2.11   1 2.97   5 2.97
                             2 2.97   6 2.97  30 2.97  32 2.97  10 2.98  12 2.98  14 2.98  16 2.98
  23  0.750  0.500  0.250-  38 2.10  39 2.11  44 2.11  46 2.11  50 2.11  54 2.11  29 2.97  31 2.97
                             3 2.97   7 2.97   9 2.98  11 2.98  13 2.98  15 2.98   8 2.98  32 2.98
  24  0.750  0.500  0.750-  38 2.10  39 2.11  45 2.11  47 2.11  51 2.11  55 2.11  29 2.97  31 2.97
                             3 2.97   7 2.97  10 2.98  12 2.98  14 2.98  16 2.98   8 2.98  32 2.98
  25  0.250  0.252  0.000-  34 2.09  40 2.11  41 2.11  56 2.11  60 2.11   7 2.97  19 2.97  20 2.97
                             3 2.97  14 2.98   9 2.98  10 2.98  13 2.98  18 3.00   5 3.00   1 3.00
  26  0.250  0.250  0.500-  40 2.10  41 2.10  35 2.10  57 2.10  61 2.10  33 2.11  17 2.97  18 2.97
                            19 2.97  20 2.97   4 2.97   8 2.97  13 2.98  14 2.98   9 2.98  10 2.98
  27  0.250  0.748  0.000-  34 2.09  42 2.11  43 2.11  58 2.11  62 2.11   7 2.97  19 2.97  20 2.97
                             3 2.97  16 2.98  11 2.98  12 2.98  15 2.98  18 3.00   5 3.00   1 3.00
  28  0.250  0.750  0.500-  42 2.10  43 2.10  35 2.10  59 2.10  63 2.10  33 2.11  17 2.97  18 2.97
                            19 2.97  20 2.97   4 2.97   8 2.97  15 2.98  16 2.98  11 2.98  12 2.98
  29  0.750  0.250  0.000-  56 2.10  60 2.10  38 2.10  44 2.10  45 2.10  36 2.11   1 2.97   5 2.97
                             3 2.97   7 2.97  23 2.97  24 2.97   9 2.98  10 2.98  13 2.98  14 2.98
  30  0.750  0.250  0.500-  37 2.10  39 2.11  44 2.11  45 2.11  57 2.11  61 2.11  21 2.97  22 2.97
                             2 2.97   6 2.97   9 2.98  10 2.98  13 2.98  14 2.98  23 2.98  24 2.98
  31  0.750  0.750  0.000-  58 2.10  62 2.10  38 2.10  46 2.10  47 2.10  36 2.11   1 2.97   5 2.97
                             3 2.97   7 2.97  23 2.97  24 2.97  11 2.98  12 2.98  15 2.98  16 2.98
  32  0.750  0.750  0.500-  37 2.10  39 2.11  46 2.11  47 2.11  59 2.11  63 2.11  21 2.97  22 2.97
                             2 2.97   6 2.97  11 2.98  12 2.98  15 2.98  16 2.98  23 2.98  24 2.98
  33  0.250  0.000  0.500-  17 2.09  18 2.09   2 2.11   6 2.11  26 2.11  28 2.11
  34  0.250  0.500  0.000-  25 2.09  27 2.09  19 2.11  20 2.11   3 2.11   7 2.11
  35  0.250  0.500  0.500-  19 2.10  20 2.10  26 2.10  28 2.10   4 2.10   8 2.10
  36  0.750  0.000  0.000-   1 2.09   5 2.09  21 2.11  22 2.11  29 2.11  31 2.11
  37  0.750  0.000  0.500-   2 2.10   6 2.10  21 2.10  22 2.10  30 2.10  32 2.10
  38  0.750  0.500  0.000-   3 2.10   7 2.10  29 2.10  31 2.10  23 2.10  24 2.10
  39  0.750  0.500  0.500-   4 2.11   8 2.11  23 2.11  24 2.11  30 2.11  32 2.11
  40  0.250  0.251  0.251-  19 2.10  26 2.10   9 2.10  13 2.10  25 2.11  17 2.11
  41  0.250  0.251  0.749-  20 2.10  26 2.10  10 2.10  14 2.10  25 2.11  18 2.11
  42  0.250  0.749  0.251-  19 2.10  28 2.10  11 2.10  15 2.10  27 2.11  17 2.11
  43  0.250  0.749  0.749-  20 2.10  28 2.10  12 2.10  16 2.10  27 2.11  18 2.11
  44  0.750  0.250  0.250-  21 2.10  29 2.10   9 2.11  13 2.11  23 2.11  30 2.11
  45  0.750  0.250  0.750-  22 2.10  29 2.10  10 2.11  14 2.11  24 2.11  30 2.11
  46  0.750  0.750  0.250-  21 2.10  31 2.10  11 2.11  15 2.11  23 2.11  32 2.11
  47  0.750  0.750  0.750-  22 2.10  31 2.10  12 2.11  16 2.11  24 2.11  32 2.11
  48  0.999  0.000  0.251-   2 2.10  21 2.10  11 2.10   9 2.10  17 2.11   1 2.11
  49  0.999  0.000  0.749-   2 2.10  22 2.10  12 2.10  10 2.10  18 2.11   1 2.11
  50  0.000  0.500  0.250-   3 2.10  19 2.10  11 2.11   9 2.11   4 2.11  23 2.11
  51  0.000  0.500  0.750-   3 2.10  20 2.10  12 2.11  10 2.11   4 2.11  24 2.11
  52  0.501  0.000  0.251-   6 2.10  21 2.10  15 2.10  13 2.10  17 2.11   5 2.11
  53  0.501  0.000  0.749-   6 2.10  22 2.10  16 2.10  14 2.10  18 2.11   5 2.11
  54  0.500  0.500  0.250-   7 2.10  19 2.10  15 2.11  13 2.11   8 2.11  23 2.11
  55  0.500  0.500  0.750-   7 2.10  20 2.10  16 2.11  14 2.11   8 2.11  24 2.11
  56  0.999  0.251  0.000-   3 2.10  29 2.10  10 2.10   9 2.10  25 2.11   1 2.11
  57  0.000  0.250  0.500-   2 2.10  26 2.10  10 2.11   9 2.11   4 2.11  30 2.11
  58  0.999  0.749  0.000-   3 2.10  31 2.10  12 2.10  11 2.10  27 2.11   1 2.11
  59  0.000  0.750  0.500-   2 2.10  28 2.10  12 2.11  11 2.11   4 2.11  32 2.11
  60  0.501  0.251  0.000-   7 2.10  29 2.10  14 2.10  13 2.10  25 2.11   5 2.11
  61  0.500  0.250  0.500-   6 2.10  26 2.10  14 2.11  13 2.11   8 2.11  30 2.11
  62  0.501  0.749  0.000-   7 2.10  31 2.10  16 2.10  15 2.10  27 2.11   5 2.11
  63  0.500  0.750  0.500-   6 2.10  28 2.10  16 2.11  15 2.11   8 2.11  32 2.11
 
  LATTYP: Found a simple cubic cell.
 ALAT       =     8.4194560000
  
  Lattice vectors:
  
 A1 = (   8.4194560000,   0.0000000000,   0.0000000000)
 A2 = (   0.0000000000,   8.4194560000,   0.0000000000)
 A3 = (   0.0000000000,   0.0000000000,   8.4194560000)


Analysis of symmetry for initial positions (statically):
=====================================================================
 Subroutine PRICEL returns:
 Original cell was already a primitive cell.
 

 Routine SETGRP: Setting up the symmetry group for a 
 simple cubic supercell.


 Subroutine GETGRP returns: Found 48 space group operations
 (whereof  8 operations were pure point group operations)
 out of a pool of 48 trial point group operations.


The static configuration has the point symmetry C_4v.
 The point group associated with its full space group is O_h .


Analysis of symmetry for dynamics (positions and initial velocities):
=====================================================================
 Subroutine PRICEL returns:
 Original cell was already a primitive cell.
 

 Routine SETGRP: Setting up the symmetry group for a 
 simple cubic supercell.


 Subroutine GETGRP returns: Found 48 space group operations
 (whereof  8 operations were pure point group operations)
 out of a pool of 48 trial point group operations.


The dynamic configuration has the point symmetry C_4v.
 The point group associated with its full space group is O_h .


Analysis of structural, dynamic, and magnetic symmetry:
=====================================================================
 Subroutine PRICEL returns:
 Original cell was already a primitive cell.
 

 Routine SETGRP: Setting up the symmetry group for a 
 simple cubic supercell.


 Subroutine GETGRP returns: Found 48 space group operations
 (whereof  8 operations were pure point group operations)
 out of a pool of 48 trial point group operations.


The magnetic configuration has the point symmetry C_4v.
 The point group associated with its full space group is O_h .


 Subroutine INISYM returns: Found 48 space group operations
 (whereof  8 operations are pure point group operations),
 and found     1 'primitive' translations

 
 
 KPOINTS: mode: manual_set, kpt density: 2, factor

Automatic generation of k-mesh.
Space group operators:
 irot       det(A)        alpha          n_x          n_y          n_z        tau_x        tau_y        tau_z
    1     1.000000     0.000001     1.000000     0.000000     0.000000     0.000000     0.000000     0.000000
    2    -1.000000   180.000000     0.000000     0.707107     0.707107     0.000000     0.000000     0.000000
    3    -1.000000   180.000000     0.000000     0.000000     1.000000     0.000000     0.000000     0.000000
    4     1.000000    90.000000    -1.000000     0.000000     0.000000     0.000000     0.000000     0.000000
    5     1.000000   180.000000     1.000000     0.000000     0.000000     0.000000     0.000000     0.000000
    6     1.000000    90.000000     1.000000     0.000000     0.000000     0.000000     0.000000     0.000000
    7    -1.000000   180.000000     0.000000     1.000000     0.000000     0.000000     0.000000     0.000000
    8    -1.000000   180.000000     0.000000    -0.707107     0.707107     0.000000     0.000000     0.000000
    9    -1.000000     0.000001     1.000000     0.000000     0.000000     0.500000     0.000000     0.000000
   10     1.000000   120.000000    -0.577350    -0.577350    -0.577350     0.250000     0.750000     0.000000
   11    -1.000000   120.000000    -0.577350    -0.577350    -0.577350     0.250000     0.250000     0.000000
   12     1.000000   120.000000     0.577350     0.577350     0.577350     0.250000     0.000000     0.750000
   13    -1.000000   120.000000     0.577350     0.577350     0.577350     0.250000     0.000000     0.250000
   14     1.000000    90.000000     0.000000     0.000000    -1.000000     0.250000     0.750000     0.000000
   15    -1.000000    90.000000     0.000000     0.000000    -1.000000     0.250000     0.250000     0.000000
   16     1.000000   180.000000     0.000000     0.707107     0.707107     0.500000     0.000000     0.000000
   17     1.000000    90.000000     0.000000     1.000000     0.000000     0.250000     0.000000     0.750000
   18    -1.000000    90.000000     0.000000     1.000000     0.000000     0.250000     0.000000     0.250000
   19     1.000000   180.000000     0.000000     0.000000     1.000000     0.500000     0.000000     0.000000
   20     1.000000   120.000000    -0.577350     0.577350     0.577350     0.250000     0.250000     0.000000
   21    -1.000000   120.000000    -0.577350     0.577350     0.577350     0.250000     0.750000     0.000000
   22     1.000000   120.000000    -0.577350     0.577350    -0.577350     0.250000     0.000000     0.750000
   23    -1.000000   120.000000    -0.577350     0.577350    -0.577350     0.250000     0.000000     0.250000
   24     1.000000    90.000000     0.000000     0.000000     1.000000     0.250000     0.250000     0.000000
   25    -1.000000    90.000000     0.000000     0.000000     1.000000     0.250000     0.750000     0.000000
   26    -1.000000    90.000000    -1.000000     0.000000     0.000000     0.500000     0.000000     0.000000
   27     1.000000   180.000000     0.707107     0.000000     0.707107     0.250000     0.000000     0.750000
   28    -1.000000   180.000000     0.707107     0.000000     0.707107     0.250000     0.000000     0.250000
   29     1.000000   120.000000     0.577350    -0.577350     0.577350     0.250000     0.250000     0.000000
   30    -1.000000   120.000000     0.577350    -0.577350     0.577350     0.250000     0.750000     0.000000
   31     1.000000   120.000000    -0.577350    -0.577350     0.577350     0.250000     0.000000     0.250000
   32    -1.000000   120.000000    -0.577350    -0.577350     0.577350     0.250000     0.000000     0.750000
   33    -1.000000   180.000000     1.000000     0.000000     0.000000     0.500000     0.000000     0.000000
   34     1.000000    90.000000     0.000000    -1.000000     0.000000     0.250000     0.000000     0.250000
   35    -1.000000    90.000000     0.000000    -1.000000     0.000000     0.250000     0.000000     0.750000
   36     1.000000   180.000000     0.707107     0.707107     0.000000     0.250000     0.750000     0.000000
   37    -1.000000   180.000000     0.707107     0.707107     0.000000     0.250000     0.250000     0.000000
   38    -1.000000    90.000000     1.000000     0.000000     0.000000     0.500000     0.000000     0.000000
   39     1.000000   120.000000     0.577350    -0.577350    -0.577350     0.250000     0.000000     0.250000
   40    -1.000000   120.000000     0.577350    -0.577350    -0.577350     0.250000     0.000000     0.750000
   41     1.000000   180.000000     0.000000     1.000000     0.000000     0.500000     0.000000     0.000000
   42     1.000000   120.000000     0.577350     0.577350    -0.577350     0.250000     0.750000     0.000000
   43    -1.000000   120.000000     0.577350     0.577350    -0.577350     0.250000     0.250000     0.000000
   44     1.000000   180.000000     0.000000    -0.707107     0.707107     0.500000     0.000000     0.000000
   45     1.000000   180.000000     0.707107    -0.707107     0.000000     0.250000     0.250000     0.000000
   46    -1.000000   180.000000     0.707107    -0.707107     0.000000     0.250000     0.750000     0.000000
   47     1.000000   180.000000     0.707107     0.000000    -0.707107     0.250000     0.000000     0.250000
   48    -1.000000   180.000000     0.707107     0.000000    -0.707107     0.250000     0.000000     0.750000
 
 Subroutine IBZKPT returns following result:
 ===========================================
 
 Found      1 irreducible k-points:
 
 Following reciprocal coordinates:
            Coordinates               Weight
  0.250000  0.250000  0.250000      8.000000
 
 Following cartesian coordinates:
            Coordinates               Weight
  0.029693  0.029693  0.029693      8.000000
 


--------------------------------------------------------------------------------------------------------




 Dimension of arrays:
   k-points           NKPTS =      1   k-points in BZ     NKDIM =      1   number of bands    NBANDS=    216
   number of dos      NEDOS =    301   number of ions     NIONS =     63
   non local maximal  LDIM  =      5   non local SUM 2l+1 LMDIM =     13
   total plane-waves  NPLWV =  74088
   max r-space proj   IRMAX =   1418   max aug-charges    IRDMAX=   5472
   dimension x,y,z NGX =    42 NGY =   42 NGZ =   42
   dimension x,y,z NGXF=    84 NGYF=   84 NGZF=   84
   support grid    NGXF=    84 NGYF=   84 NGZF=   84
   ions per type =              32  31
   NGX,Y,Z   is equivalent  to a cutoff of   8.29,  8.29,  8.29 a.u.
   NGXF,Y,Z  is equivalent  to a cutoff of  16.59, 16.59, 16.59 a.u.

 SYSTEM =  unknown system                          
 POSCAR =  Mg32 O31                                

 Startparameter for this run:
   NWRITE =      2    write-flag & timer
   PREC   = n         normal or accurate (medium, high low for compatibility)
   ISTART =      1    job   : 0-new  1-cont  2-samecut
   ICHARG =      0    charge: 1-file 2-atom 10-const
   ISPIN  =      2    spin polarized calculation?
   LNONCOLLINEAR =      F non collinear calculations
   LSORBIT =      F    spin-orbit coupling
   INIWAV =      1    electr: 0-lowe 1-rand  2-diag
   LASPH  =      T    aspherical Exc in radial PAW
   METAGGA=      F    non-selfconsistent MetaGGA calc.

 Electronic Relaxation 1
   ENCUT  =  400.0 eV  29.40 Ry    5.42 a.u.  13.73 13.73 13.73*2*pi/ulx,y,z
   ENINI  =  400.0     initial cutoff
   ENAUG  =  605.4 eV  augmentation charge cutoff
   NELM   =    100;   NELMIN=  2; NELMDL=  0     # of ELM steps 
   EDIFF  = 0.1E-05   stopping-criterion for ELM
   LREAL  =      T    real-space projection
   NLSPLINE    = F    spline interpolate recip. space projectors
   LCOMPAT=      F    compatible to vasp.4.4
   GGA_COMPAT  = T    GGA compatible to vasp.4.4-vasp.4.6
   LMAXPAW     = -100 max onsite density
   LMAXMIX     =    2 max onsite mixed and CHGCAR
   VOSKOWN=      0    Vosko Wilk Nusair interpolation
   ROPT   =   -0.00050  -0.00050
 Ionic relaxation
   EDIFFG = -.4E-01   stopping-criterion for IOM
   NSW    =     50    number of steps for IOM
   NBLOCK =      1;   KBLOCK =     50    inner block; outer block 
   IBRION =      2    ionic relax: 0-MD 1-quasi-New 2-CG
   NFREE  =      1    steps in history (QN), initial steepest desc. (CG)
   ISIF   =      2    stress and relaxation
   IWAVPR =     11    prediction:  0-non 1-charg 2-wave 3-comb
   ISYM   =      2    0-nonsym 1-usesym 2-fastsym
   LCORR  =      T    Harris-Foulkes like correction to forces

   POTIM  = 0.5000    time-step for ionic-motion
   TEIN   =    0.0    initial temperature
   TEBEG  =    0.0;   TEEND  =   0.0 temperature during run
   SMASS  =  -3.00    Nose mass-parameter (am)
   estimated Nose-frequenzy (Omega)   =  0.10E-29 period in steps =****** mass=  -0.162E-26a.u.
   SCALEE = 1.0000    scale energy and forces
   NPACO  =    256;   APACO  = 16.0  distance and # of slots for P.C.
   PSTRESS=    0.0 pullay stress

  Mass of Ions in am
   POMASS =  24.30 16.00
  Ionic Valenz
   ZVAL   =   2.00  6.00
  Atomic Wigner-Seitz radii
   RWIGS  =  -1.00 -1.00
  virtual crystal weights 
   VCA    =   1.00  1.00
   NELECT =     250.0000    total number of electrons
   NUPDOWN=      -1.0000    fix difference up-down

 DOS related values:
   EMIN   =  10.00;   EMAX   =-10.00  energy-range for DOS
   EFERMI =   0.00
   ISMEAR =     0;   SIGMA  =   0.10  broadening in eV -4-tet -1-fermi 0-gaus

 Electronic relaxation 2 (details)
   IALGO  =     38    algorithm
   LDIAG  =      T    sub-space diagonalisation (order eigenvalues)
   LSUBROT=      F    optimize rotation matrix (better conditioning)
   TURBO    =      0    0=normal 1=particle mesh
   IRESTART =      0    0=no restart 2=restart with 2 vectors
   NREBOOT  =      0    no. of reboots
   NMIN     =      0    reboot dimension
   EREF     =   0.00    reference energy to select bands
   IMIX   =      4    mixing-type and parameters
     AMIX     =   0.40;   BMIX     =  1.00
     AMIX_MAG =   1.60;   BMIX_MAG =  1.00
     AMIN     =   0.10
     WC   =   100.;   INIMIX=   1;  MIXPRE=   1;  MAXMIX= -45

 Intra band minimization:
   WEIMIN = 0.0010     energy-eigenvalue tresh-hold
   EBREAK =  0.12E-08  absolut break condition
   DEPER  =   0.30     relativ break condition  

   TIME   =   0.40     timestep for ELM

  volume/ion in A,a.u.               =       9.47        63.93
  Fermi-wavevector in a.u.,A,eV,Ry     =   1.224910  2.314744 20.414238  1.500404
  Thomas-Fermi vector in A             =   2.359967
 
 Write flags
   LWAVE        =      T    write WAVECAR
   LDOWNSAMPLE  =      F    k-point downsampling of WAVECAR
   LCHARG       =      F    write CHGCAR
   LVTOT        =      F    write LOCPOT, total local potential
   LVHAR        =      F    write LOCPOT, Hartree potential only
   LELF         =      F    write electronic localiz. function (ELF)
   LORBIT       =     12    0 simple, 1 ext, 2 COOP (PROOUT), +10 PAW based schemes


 Dipole corrections
   LMONO  =      F    monopole corrections only (constant potential shift)
   LDIPOL =      F    correct potential (dipole corrections)
   IDIPOL =      0    1-x, 2-y, 3-z, 4-all directions 
   EPSILON=  1.0000000 bulk dielectric constant

 Exchange correlation treatment:
   GGA     =    PS    GGA type
   LEXCH   =    14    internal setting for exchange type
   VOSKOWN=      0    Vosko Wilk Nusair interpolation
   LHFCALC =     F    Hartree Fock is set to
   LHFONE  =     F    Hartree Fock one center treatment
   AEXX    =    0.0000 exact exchange contribution

 Linear response parameters
   LEPSILON=     F    determine dielectric tensor
   LRPA    =     F    only Hartree local field effects (RPA)
   LNABLA  =     F    use nabla operator in PAW spheres
   LVEL    =     F    velocity operator in full k-point grid
   LINTERFAST=   F  fast interpolation
   KINTER  =     0    interpolate to denser k-point grid
   CSHIFT  =0.1000    complex shift for real part using Kramers Kronig
   OMEGAMAX=  -1.0    maximum frequency
   DEG_THRESHOLD= 0.2000000E-02 threshold for treating states as degnerate
   RTIME   =   -0.100 relaxation time in fs
  (WPLASMAI=    0.000 imaginary part of plasma frequency in eV, 0.658/RTIME)
   DFIELD  = 0.0000000 0.0000000 0.0000000 field for delta impulse in time
 
 Orbital magnetization related:
   ORBITALMAG=     F  switch on orbital magnetization
   LCHIMAG   =     F  perturbation theory with respect to B field
   DQ        =  0.001000  dq finite difference perturbation B field
   LLRAUG    =     F  two centre corrections for induced B field



--------------------------------------------------------------------------------------------------------


 conjugate gradient relaxation of ions
 charge density and potential will be updated during run
 spin polarized calculation
 Variant of blocked Davidson
 Davidson routine will perform the subspace rotation
 perform sub-space diagonalisation
    after iterative eigenvector-optimisation
 modified Broyden-mixing scheme, WC =      100.0
 initial mixing is a Kerker type mixing with AMIX =  0.4000 and BMIX =      1.0000
 Hartree-type preconditioning will be used
 using additional bands           91
 real space projection scheme for non local part
 use partial core corrections
 calculate Harris-corrections to forces 
   (improved forces if not selfconsistent)
 use gradient corrections 
 use of overlap-Matrix (Vanderbilt PP)
 Gauss-broadening in eV      SIGMA  =   0.10


--------------------------------------------------------------------------------------------------------


  energy-cutoff  :      400.00
  volume of cell :      596.83
      direct lattice vectors                 reciprocal lattice vectors
     8.419456000  0.000000000  0.000000000     0.118772519  0.000000000  0.000000000
     0.000000000  8.419456000  0.000000000     0.000000000  0.118772519  0.000000000
     0.000000000  0.000000000  8.419456000     0.000000000  0.000000000  0.118772519

  length of vectors
     8.419456000  8.419456000  8.419456000     0.118772519  0.118772519  0.118772519


 
 old parameters found on file WAVECAR:
  energy-cutoff  :      400.00
  volume of cell :      596.83
      direct lattice vectors                 reciprocal lattice vectors
     8.419456000  0.000000000  0.000000000     0.118772519  0.000000000  0.000000000
     0.000000000  8.419456000  0.000000000     0.000000000  0.118772519  0.000000000
     0.000000000  0.000000000  8.419456000     0.000000000  0.000000000  0.118772519

  length of vectors

 
 k-points in units of 2pi/SCALE and weight: mode: manual_set, kpt density: 2, factor
   0.02969313  0.02969313  0.02969313       1.000
 
 k-points in reciprocal lattice and weights: mode: manual_set, kpt density: 2, factor
   0.25000000  0.25000000  0.25000000       1.000
 
 position of ions in fractional coordinates (direct lattice) 
   0.99833866  0.00000000  0.00000000
   0.99959623  0.00000000  0.50000000
   0.99959623  0.50000000  0.00000000
   0.00005781  0.50000000  0.50000000
   0.50166134  0.00000000  0.00000000
   0.50040377  0.00000000  0.50000000
   0.50040377  0.50000000  0.00000000
   0.49994219  0.50000000  0.50000000
   0.00003744  0.24996256  0.24996256
   0.00003744  0.24996256  0.75003744
   0.00003744  0.75003744  0.24996256
   0.00003744  0.75003744  0.75003744
   0.49996256  0.24996256  0.24996256
   0.49996256  0.24996256  0.75003744
   0.49996256  0.75003744  0.24996256
   0.49996256  0.75003744  0.75003744
   0.25000000  0.00000000  0.25166134
   0.25000000  0.00000000  0.74833866
   0.25000000  0.50000000  0.25040377
   0.25000000  0.50000000  0.74959623
   0.75000000  0.00000000  0.25040377
   0.75000000  0.00000000  0.74959623
   0.75000000  0.50000000  0.24994219
   0.75000000  0.50000000  0.75005781
   0.25000000  0.25166134  0.00000000
   0.25000000  0.25040377  0.50000000
   0.25000000  0.74833866  0.00000000
   0.25000000  0.74959623  0.50000000
   0.75000000  0.25040377  0.00000000
   0.75000000  0.24994219  0.50000000
   0.75000000  0.74959623  0.00000000
   0.75000000  0.75005781  0.50000000
   0.25000000  0.00000000  0.50000000
   0.25000000  0.50000000  0.00000000
   0.25000000  0.50000000  0.50000000
   0.75000000  0.00000000  0.00000000
   0.75000000  0.00000000  0.50000000
   0.75000000  0.50000000  0.00000000
   0.75000000  0.50000000  0.50000000
   0.25000000  0.25068648  0.25068648
   0.25000000  0.25068648  0.74931352
   0.25000000  0.74931352  0.25068648
   0.25000000  0.74931352  0.74931352
   0.75000000  0.24992382  0.24992382
   0.75000000  0.24992382  0.75007618
   0.75000000  0.75007618  0.24992382
   0.75000000  0.75007618  0.75007618
   0.99931352  0.00000000  0.25068648
   0.99931352  0.00000000  0.74931352
   0.00007618  0.50000000  0.24992382
   0.00007618  0.50000000  0.75007618
   0.50068648  0.00000000  0.25068648
   0.50068648  0.00000000  0.74931352
   0.49992382  0.50000000  0.24992382
   0.49992382  0.50000000  0.75007618
   0.99931352  0.25068648  0.00000000
   0.00007618  0.24992382  0.50000000
   0.99931352  0.74931352  0.00000000
   0.00007618  0.75007618  0.50000000
   0.50068648  0.25068648  0.00000000
   0.49992382  0.24992382  0.50000000
   0.50068648  0.74931352  0.00000000
   0.49992382  0.75007618  0.50000000
 
 position of ions in cartesian coordinates  (Angst):
   8.40546845  0.00000000  0.00000000
   8.41605649  0.00000000  4.20972800
   8.41605649  4.20972800  0.00000000
   0.00048670  4.20972800  4.20972800
   4.22371555  0.00000000  0.00000000
   4.21312751  0.00000000  4.20972800
   4.21312751  4.20972800  0.00000000
   4.20924130  4.20972800  4.20972800
   0.00031522  2.10454878  2.10454878
   0.00031522  2.10454878  6.31490722
   0.00031522  6.31490722  2.10454878
   0.00031522  6.31490722  6.31490722
   4.20941278  2.10454878  2.10454878
   4.20941278  2.10454878  6.31490722
   4.20941278  6.31490722  2.10454878
   4.20941278  6.31490722  6.31490722
   2.10486400  0.00000000  2.11885155
   2.10486400  0.00000000  6.30060445
   2.10486400  4.20972800  2.10826351
   2.10486400  4.20972800  6.31119249
   6.31459200  0.00000000  2.10826351
   6.31459200  0.00000000  6.31119249
   6.31459200  4.20972800  2.10437730
   6.31459200  4.20972800  6.31507870
   2.10486400  2.11885155  0.00000000
   2.10486400  2.10826351  4.20972800
   2.10486400  6.30060445  0.00000000
   2.10486400  6.31119249  4.20972800
   6.31459200  2.10826351  0.00000000
   6.31459200  2.10437730  4.20972800
   6.31459200  6.31119249  0.00000000
   6.31459200  6.31507870  4.20972800
   2.10486400  0.00000000  4.20972800
   2.10486400  4.20972800  0.00000000
   2.10486400  4.20972800  4.20972800
   6.31459200  0.00000000  0.00000000
   6.31459200  0.00000000  4.20972800
   6.31459200  4.20972800  0.00000000
   6.31459200  4.20972800  4.20972800
   2.10486400  2.11064381  2.11064381
   2.10486400  2.11064381  6.30881219
   2.10486400  6.30881219  2.11064381
   2.10486400  6.30881219  6.30881219
   6.31459200  2.10422257  2.10422257
   6.31459200  2.10422257  6.31523343
   6.31459200  6.31523343  2.10422257
   6.31459200  6.31523343  6.31523343
   8.41367619  0.00000000  2.11064381
   8.41367619  0.00000000  6.30881219
   0.00064143  4.20972800  2.10422257
   0.00064143  4.20972800  6.31523343
   4.21550781  0.00000000  2.11064381
   4.21550781  0.00000000  6.30881219
   4.20908657  4.20972800  2.10422257
   4.20908657  4.20972800  6.31523343
   8.41367619  2.11064381  0.00000000
   0.00064143  2.10422257  4.20972800
   8.41367619  6.30881219  0.00000000
   0.00064143  6.31523343  4.20972800
   4.21550781  2.11064381  0.00000000
   4.20908657  2.10422257  4.20972800
   4.21550781  6.30881219  0.00000000
   4.20908657  6.31523343  4.20972800
 


--------------------------------------------------------------------------------------------------------


 k-point  1 :   0.2500 0.2500 0.2500  plane waves:   10834

 maximum and minimum number of plane-waves per node :     10834    10834

 maximum number of plane-waves:     10834
 maximum index in each direction: 
   IXMAX=   13   IYMAX=   13   IZMAX=   13
   IXMIN=  -13   IYMIN=  -13   IZMIN=  -13


 serial   3D FFT for wavefunctions
 parallel 3D FFT for charge:
    minimum data exchange during FFTs selected (reduces bandwidth)


 total amount of memory used by VASP MPI-rank0    50395. kBytes
=======================================================================

   base      :      30000. kBytes
   nonlr-proj:       8446. kBytes
   fftplans  :       1007. kBytes
   grid      :       7709. kBytes
   one-center:       1022. kBytes
   wavefun   :       2211. kBytes
 
     INWAV:  cpu time    0.2080: real time    0.3343
 Broyden mixing: mesh for mixing (old mesh)
   NGX = 27   NGY = 27   NGZ = 27
  (NGX  = 84   NGY  = 84   NGZ  = 84)
  gives a total of  19683 points

 charge density for first step will be calculated from the start-wavefunctions


--------------------------------------------------------------------------------------------------------


 Maximum index for non-local projection operator         1342
 Maximum index for augmentation-charges          357 (set IRDMAX)


--------------------------------------------------------------------------------------------------------


 initial charge from wavefunction
 First call to EWALD:  gamma=   0.211
 Maximum number of real-space cells 3x 3x 3
 Maximum number of reciprocal cells 3x 3x 3

    FEWALD:  cpu time    0.0040: real time    0.0031


--------------------------------------- Iteration      1(   1)  ---------------------------------------


    POTLOK:  cpu time    0.0360: real time    0.0393
    SETDIJ:  cpu time    0.5200: real time    0.5210
     EDDAV:  cpu time    0.7480: real time    0.7503
       DOS:  cpu time    0.0000: real time    0.0004
    CHARGE:  cpu time    0.0440: real time    0.0437
    MIXING:  cpu time    0.0000: real time    0.0005
    --------------------------------------------
      LOOP:  cpu time    1.3480: real time    1.3553

 eigenvalue-minimisations  :   936
 total energy-change (2. order) :-0.3889555E+03  (-0.2891731E-06)
 number of electron     250.0003158 magnetization       0.0000000
 augmentation part       20.5380567 magnetization       0.0000000

 Broyden mixing:
  rms(total) = 0.30744E-03    rms(broyden)= 0.30714E-03
  rms(prec ) = 0.47715E-03
  weight for this iteration     100.00

 Free energy of the ion-electron system (eV)
  ---------------------------------------------------
  alpha Z        PSCENC =       602.35658190
  Ewald energy   TEWEN  =    -10938.52267902
  -Hartree energ DENC   =     -4498.54602977
  -exchange      EXHF   =         0.00000000
  -V(xc)+E(xc)   XCENC  =      -588.48220368
  PAW double counting   =     17257.63702324   -15681.58793883
  entropy T*S    EENTRO =        -0.00000000
  eigenvalues    EBANDS =      -617.50721033
  atomic energy  EATOM  =     14075.69697987
  Solvation  Ediel_sol  =         0.00000000
  ---------------------------------------------------
  free energy    TOTEN  =      -388.95547661 eV

  energy without entropy =     -388.95547661  energy(sigma->0) =     -388.95547661


--------------------------------------------------------------------------------------------------------




--------------------------------------- Iteration      1(   2)  ---------------------------------------


    POTLOK:  cpu time    0.0320: real time    0.0311
    SETDIJ:  cpu time    0.5360: real time    0.5374
     EDDAV:  cpu time    0.4960: real time    0.4982
       DOS:  cpu time    0.0000: real time    0.0004
    --------------------------------------------
      LOOP:  cpu time    1.0640: real time    1.0671

 eigenvalue-minimisations  :   576
 total energy-change (2. order) : 0.3120058E-06  (-0.7933409E-07)
 number of electron     250.0003158 magnetization       0.0000000
 augmentation part       20.5380567 magnetization       0.0000000

 Free energy of the ion-electron system (eV)
  ---------------------------------------------------
  alpha Z        PSCENC =       602.35658190
  Ewald energy   TEWEN  =    -10938.52267902
  -Hartree energ DENC   =     -4498.54727965
  -exchange      EXHF   =         0.00000000
  -V(xc)+E(xc)   XCENC  =      -588.48224443
  PAW double counting   =     17257.63595664   -15681.58683449
  entropy T*S    EENTRO =        -0.00000000
  eigenvalues    EBANDS =      -617.50595711
  atomic energy  EATOM  =     14075.69697987
  Solvation  Ediel_sol  =         0.00000000
  ---------------------------------------------------
  free energy    TOTEN  =      -388.95547630 eV

  energy without entropy =     -388.95547630  energy(sigma->0) =     -388.95547630


--------------------------------------------------------------------------------------------------------




 average (electrostatic) potential at core
  the test charge radii are     1.0714  0.7215
  (the norm of the test charge is              1.0000)
       1 -34.7752       2 -34.7350       3 -34.7350       4 -34.7397       5 -34.7752
       6 -34.7350       7 -34.7350       8 -34.7397       9 -34.7459      10 -34.7459
      11 -34.7459      12 -34.7459      13 -34.7459      14 -34.7459      15 -34.7459
      16 -34.7459      17 -34.7752      18 -34.7752      19 -34.7350      20 -34.7350
      21 -34.7350      22 -34.7350      23 -34.7397      24 -34.7397      25 -34.7752
      26 -34.7350      27 -34.7752      28 -34.7350      29 -34.7350      30 -34.7397
      31 -34.7350      32 -34.7397      33 -69.7475      34 -69.7475      35 -69.7135
      36 -69.7475      37 -69.7135      38 -69.7135      39 -69.7108      40 -69.7482
      41 -69.7482      42 -69.7482      43 -69.7482      44 -69.7085      45 -69.7085
      46 -69.7085      47 -69.7085      48 -69.7482      49 -69.7482      50 -69.7085
      51 -69.7085      52 -69.7482      53 -69.7482      54 -69.7085      55 -69.7085
      56 -69.7482      57 -69.7085      58 -69.7482      59 -69.7085      60 -69.7482
      61 -69.7085      62 -69.7482      63 -69.7085
 
 
 
 E-fermi :   6.0491     XC(G=0): -11.2521     alpha+bet :-13.0571


 spin component 1

 k-point     1 :       0.2500    0.2500    0.2500
  band No.  band energies     occupation 
      1     -14.0467      1.00000
      2     -13.6839      1.00000
      3     -13.6839      1.00000
      4     -13.6132      1.00000
      5     -13.3702      1.00000
      6     -13.3702      1.00000
      7     -13.3113      1.00000
      8     -13.1415      1.00000
      9     -13.1146      1.00000
     10     -13.1146      1.00000
     11     -13.0649      1.00000
     12     -12.9478      1.00000
     13     -12.9478      1.00000
     14     -12.9436      1.00000
     15     -12.9352      1.00000
     16     -12.9352      1.00000
     17     -12.8979      1.00000
     18     -12.8861      1.00000
     19     -12.8860      1.00000
     20     -12.8265      1.00000
     21     -12.7549      1.00000
     22     -12.7549      1.00000
     23     -12.7357      1.00000
     24     -12.7027      1.00000
     25     -12.7026      1.00000
     26     -12.6712      1.00000
     27     -12.6630      1.00000
     28     -12.6630      1.00000
     29     -12.6591      1.00000
     30     -12.6575      1.00000
     31     -12.6575      1.00000
     32      -1.4415      1.00000
     33      -1.3909      1.00000
     34      -1.3908      1.00000
     35      -1.1740      1.00000
     36      -1.0135      1.00000
     37      -0.9407      1.00000
     38      -0.9407      1.00000
     39      -0.8677      1.00000
     40      -0.8434      1.00000
     41      -0.8434      1.00000
     42      -0.7953      1.00000
     43      -0.7907      1.00000
     44      -0.7907      1.00000
     45      -0.7336      1.00000
     46      -0.7107      1.00000
     47      -0.7107      1.00000
     48      -0.6005      1.00000
     49      -0.5950      1.00000
     50      -0.5950      1.00000
     51      -0.5710      1.00000
     52      -0.4931      1.00000
     53      -0.4931      1.00000
     54      -0.4285      1.00000
     55      -0.3845      1.00000
     56      -0.3845      1.00000
     57      -0.1537      1.00000
     58      -0.1537      1.00000
     59      -0.0761      1.00000
     60       0.4343      1.00000
     61       0.4513      1.00000
     62       0.4513      1.00000
     63       0.4861      1.00000
     64       0.4861      1.00000
     65       0.5038      1.00000
     66       0.5546      1.00000
     67       0.5810      1.00000
     68       0.6117      1.00000
     69       0.6117      1.00000
     70       0.8229      1.00000
     71       0.8229      1.00000
     72       1.2066      1.00000
     73       1.2069      1.00000
     74       1.2132      1.00000
     75       1.2134      1.00000
     76       1.2251      1.00000
     77       1.2252      1.00000
     78       1.3107      1.00000
     79       1.3554      1.00000
     80       1.3555      1.00000
     81       1.5596      1.00000
     82       1.5757      1.00000
     83       1.5758      1.00000
     84       1.6258      1.00000
     85       1.6259      1.00000
     86       1.6307      1.00000
     87       1.7008      1.00000
     88       1.7258      1.00000
     89       1.7259      1.00000
     90       1.7573      1.00000
     91       1.7923      1.00000
     92       1.7924      1.00000
     93       1.8554      1.00000
     94       1.8555      1.00000
     95       1.8799      1.00000
     96       1.9520      1.00000
     97       1.9651      1.00000
     98       1.9651      1.00000
     99       1.9985      1.00000
    100       2.0262      1.00000
    101       2.0262      1.00000
    102       2.0300      1.00000
    103       2.0560      1.00000
    104       2.0771      1.00000
    105       2.0773      1.00000
    106       2.0899      1.00000
    107       2.0947      1.00000
    108       2.0947      1.00000
    109       2.1547      1.00000
    110       2.1549      1.00000
    111       2.1957      1.00000
    112       2.3325      1.00000
    113       2.3325      1.00000
    114       2.3865      1.00000
    115       2.4339      1.00000
    116       2.4339      1.00000
    117       2.4780      1.00000
    118       2.4788      1.00000
    119       2.4788      1.00000
    120       2.5254      1.00000
    121       2.5254      1.00000
    122       2.5453      1.00000
    123       2.8251      1.00000
    124       2.8251      1.00000
    125       5.5296      1.00000
    126       8.6241      0.00000
    127       9.4716      0.00000
    128       9.4716      0.00000
    129       9.9193      0.00000
    130      10.4067      0.00000
    131      10.6464      0.00000
    132      10.6464      0.00000
    133      10.7449      0.00000
    134      11.1319      0.00000
    135      11.1319      0.00000
    136      11.4890      0.00000
    137      11.4890      0.00000
    138      11.6295      0.00000
    139      11.9237      0.00000
    140      12.1600      0.00000
    141      12.1600      0.00000
    142      12.3066      0.00000
    143      12.3829      0.00000
    144      12.3860      0.00000
    145      12.3860      0.00000
    146      12.4443      0.00000
    147      12.4443      0.00000
    148      12.5941      0.00000
    149      12.6763      0.00000
    150      12.6763      0.00000
    151      12.7436      0.00000
    152      13.0267      0.00000
    153      13.0268      0.00000
    154      13.2731      0.00000
    155      13.4147      0.00000
    156      13.4147      0.00000
    157      13.4393      0.00000
    158      13.4668      0.00000
    159      13.4669      0.00000
    160      13.5008      0.00000
    161      13.5192      0.00000
    162      13.5192      0.00000
    163      13.6883      0.00000
    164      13.6884      0.00000
    165      13.9033      0.00000
    166      14.4993      0.00000
    167      14.5154      0.00000
    168      14.5447      0.00000
    169      14.5448      0.00000
    170      14.5794      0.00000
    171      14.5795      0.00000
    172      14.6366      0.00000
    173      14.6366      0.00000
    174      14.6565      0.00000
    175      14.7458      0.00000
    176      14.8711      0.00000
    177      14.8712      0.00000
    178      14.9626      0.00000
    179      15.0311      0.00000
    180      15.0312      0.00000
    181      15.0854      0.00000
    182      15.0854      0.00000
    183      15.1084      0.00000
    184      15.1909      0.00000
    185      15.1909      0.00000
    186      15.2479      0.00000
    187      15.3028      0.00000
    188      15.3861      0.00000
    189      15.3862      0.00000
    190      15.4031      0.00000
    191      15.4180      0.00000
    192      15.4418      0.00000
    193      15.4418      0.00000
    194      15.7471      0.00000
    195      15.7995      0.00000
    196      15.7995      0.00000
    197      16.0160      0.00000
    198      16.0373      0.00000
    199      16.0373      0.00000
    200      16.7456      0.00000
    201      16.7773      0.00000
    202      16.7773      0.00000
    203      16.8209      0.00000
    204      16.8853      0.00000
    205      16.8853      0.00000
    206      16.9602      0.00000
    207      17.0467      0.00000
    208      17.0467      0.00000
    209      17.0485      0.00000
    210      17.6803      0.00000
    211      17.7998      0.00000
    212      17.7999      0.00000
    213      17.8161      0.00000
    214      18.4735      0.00000
    215      18.4938      0.00000
    216      18.4938      0.00000

 spin component 2

 k-point     1 :       0.2500    0.2500    0.2500
  band No.  band energies     occupation 
      1     -14.0467      1.00000
      2     -13.6839      1.00000
      3     -13.6839      1.00000
      4     -13.6132      1.00000
      5     -13.3702      1.00000
      6     -13.3702      1.00000
      7     -13.3113      1.00000
      8     -13.1415      1.00000
      9     -13.1146      1.00000
     10     -13.1146      1.00000
     11     -13.0649      1.00000
     12     -12.9478      1.00000
     13     -12.9478      1.00000
     14     -12.9436      1.00000
     15     -12.9352      1.00000
     16     -12.9352      1.00000
     17     -12.8979      1.00000
     18     -12.8861      1.00000
     19     -12.8860      1.00000
     20     -12.8265      1.00000
     21     -12.7549      1.00000
     22     -12.7549      1.00000
     23     -12.7357      1.00000
     24     -12.7027      1.00000
     25     -12.7026      1.00000
     26     -12.6712      1.00000
     27     -12.6630      1.00000
     28     -12.6630      1.00000
     29     -12.6591      1.00000
     30     -12.6575      1.00000
     31     -12.6575      1.00000
     32      -1.4415      1.00000
     33      -1.3909      1.00000
     34      -1.3908      1.00000
     35      -1.1740      1.00000
     36      -1.0135      1.00000
     37      -0.9407      1.00000
     38      -0.9407      1.00000
     39      -0.8677      1.00000
     40      -0.8434      1.00000
     41      -0.8434      1.00000
     42      -0.7953      1.00000
     43      -0.7907      1.00000
     44      -0.7907      1.00000
     45      -0.7336      1.00000
     46      -0.7107      1.00000
     47      -0.7107      1.00000
     48      -0.6005      1.00000
     49      -0.5950      1.00000
     50      -0.5950      1.00000
     51      -0.5710      1.00000
     52      -0.4931      1.00000
     53      -0.4931      1.00000
     54      -0.4285      1.00000
     55      -0.3845      1.00000
     56      -0.3845      1.00000
     57      -0.1537      1.00000
     58      -0.1537      1.00000
     59      -0.0761      1.00000
     60       0.4343      1.00000
     61       0.4513      1.00000
     62       0.4513      1.00000
     63       0.4861      1.00000
     64       0.4861      1.00000
     65       0.5038      1.00000
     66       0.5546      1.00000
     67       0.5810      1.00000
     68       0.6117      1.00000
     69       0.6117      1.00000
     70       0.8229      1.00000
     71       0.8229      1.00000
     72       1.2066      1.00000
     73       1.2069      1.00000
     74       1.2132      1.00000
     75       1.2134      1.00000
     76       1.2251      1.00000
     77       1.2252      1.00000
     78       1.3107      1.00000
     79       1.3554      1.00000
     80       1.3555      1.00000
     81       1.5596      1.00000
     82       1.5757      1.00000
     83       1.5758      1.00000
     84       1.6258      1.00000
     85       1.6259      1.00000
     86       1.6307      1.00000
     87       1.7008      1.00000
     88       1.7258      1.00000
     89       1.7259      1.00000
     90       1.7573      1.00000
     91       1.7923      1.00000
     92       1.7924      1.00000
     93       1.8554      1.00000
     94       1.8555      1.00000
     95       1.8799      1.00000
     96       1.9520      1.00000
     97       1.9651      1.00000
     98       1.9651      1.00000
     99       1.9985      1.00000
    100       2.0262      1.00000
    101       2.0262      1.00000
    102       2.0300      1.00000
    103       2.0560      1.00000
    104       2.0771      1.00000
    105       2.0773      1.00000
    106       2.0899      1.00000
    107       2.0947      1.00000
    108       2.0947      1.00000
    109       2.1547      1.00000
    110       2.1549      1.00000
    111       2.1957      1.00000
    112       2.3325      1.00000
    113       2.3325      1.00000
    114       2.3865      1.00000
    115       2.4339      1.00000
    116       2.4339      1.00000
    117       2.4780      1.00000
    118       2.4788      1.00000
    119       2.4788      1.00000
    120       2.5254      1.00000
    121       2.5254      1.00000
    122       2.5453      1.00000
    123       2.8251      1.00000
    124       2.8251      1.00000
    125       5.5296      1.00000
    126       8.6241      0.00000
    127       9.4716      0.00000
    128       9.4716      0.00000
    129       9.9193      0.00000
    130      10.4067      0.00000
    131      10.6464      0.00000
    132      10.6464      0.00000
    133      10.7449      0.00000
    134      11.1319      0.00000
    135      11.1319      0.00000
    136      11.4890      0.00000
    137      11.4890      0.00000
    138      11.6295      0.00000
    139      11.9237      0.00000
    140      12.1600      0.00000
    141      12.1600      0.00000
    142      12.3066      0.00000
    143      12.3829      0.00000
    144      12.3860      0.00000
    145      12.3860      0.00000
    146      12.4443      0.00000
    147      12.4443      0.00000
    148      12.5941      0.00000
    149      12.6763      0.00000
    150      12.6763      0.00000
    151      12.7436      0.00000
    152      13.0267      0.00000
    153      13.0268      0.00000
    154      13.2731      0.00000
    155      13.4147      0.00000
    156      13.4147      0.00000
    157      13.4393      0.00000
    158      13.4668      0.00000
    159      13.4669      0.00000
    160      13.5008      0.00000
    161      13.5192      0.00000
    162      13.5192      0.00000
    163      13.6883      0.00000
    164      13.6884      0.00000
    165      13.9033      0.00000
    166      14.4993      0.00000
    167      14.5154      0.00000
    168      14.5447      0.00000
    169      14.5448      0.00000
    170      14.5794      0.00000
    171      14.5795      0.00000
    172      14.6366      0.00000
    173      14.6366      0.00000
    174      14.6565      0.00000
    175      14.7458      0.00000
    176      14.8711      0.00000
    177      14.8712      0.00000
    178      14.9626      0.00000
    179      15.0311      0.00000
    180      15.0312      0.00000
    181      15.0854      0.00000
    182      15.0854      0.00000
    183      15.1084      0.00000
    184      15.1909      0.00000
    185      15.1909      0.00000
    186      15.2479      0.00000
    187      15.3028      0.00000
    188      15.3861      0.00000
    189      15.3862      0.00000
    190      15.4031      0.00000
    191      15.4180      0.00000
    192      15.4418      0.00000
    193      15.4418      0.00000
    194      15.7471      0.00000
    195      15.7995      0.00000
    196      15.7995      0.00000
    197      16.0160      0.00000
    198      16.0373      0.00000
    199      16.0373      0.00000
    200      16.7456      0.00000
    201      16.7773      0.00000
    202      16.7773      0.00000
    203      16.8209      0.00000
    204      16.8853      0.00000
    205      16.8853      0.00000
    206      16.9602      0.00000
    207      17.0467      0.00000
    208      17.0467      0.00000
    209      17.0485      0.00000
    210      17.6803      0.00000
    211      17.7998      0.00000
    212      17.7999      0.00000
    213      17.8161      0.00000
    214      18.4735      0.00000
    215      18.4938      0.00000
    216      18.4938      0.00000


--------------------------------------------------------------------------------------------------------


 soft charge-density along one line, spin component           1
         0         1         2         3         4         5         6         7         8         9
 total charge-density along one line
 
 soft charge-density along one line, spin component           2
         0         1         2         3         4         5         6         7         8         9
 total charge-density along one line
 
 pseudopotential strength for first ion, spin component:           1
  2.992   9.489   0.000  -0.000   0.001   0.000  -0.000   0.001
  9.489  29.937   0.000  -0.000   0.003   0.000  -0.000   0.005
  0.000   0.000   7.366  -0.000  -0.000  10.646  -0.000  -0.000
 -0.000  -0.000  -0.000   7.366  -0.000  -0.000  10.646  -0.000
  0.001   0.003  -0.000  -0.000   7.367  -0.000  -0.000  10.647
  0.000   0.000  10.646  -0.000  -0.000  14.607  -0.000  -0.000
 -0.000  -0.000  -0.000  10.646  -0.000  -0.000  14.607  -0.000
  0.001   0.005  -0.000  -0.000  10.647  -0.000  -0.000  14.609
 -0.000  -0.000   0.000  -0.000   0.000   0.001  -0.000   0.000
 -0.000  -0.000  -0.000   0.000  -0.000  -0.000   0.000  -0.000
 -0.000  -0.001  -0.000  -0.000  -0.000  -0.000  -0.000  -0.001
 -0.000  -0.000  -0.000   0.000  -0.000  -0.000   0.001  -0.000
  0.000   0.001  -0.000   0.000   0.001  -0.000   0.000   0.001
 pseudopotential strength for first ion, spin component:           2
  2.992   9.489   0.000  -0.000   0.001   0.000  -0.000   0.001
  9.489  29.937   0.000  -0.000   0.003   0.000  -0.000   0.005
  0.000   0.000   7.366  -0.000  -0.000  10.646  -0.000  -0.000
 -0.000  -0.000  -0.000   7.366  -0.000  -0.000  10.646  -0.000
  0.001   0.003  -0.000  -0.000   7.367  -0.000  -0.000  10.647
  0.000   0.000  10.646  -0.000  -0.000  14.607  -0.000  -0.000
 -0.000  -0.000  -0.000  10.646  -0.000  -0.000  14.607  -0.000
  0.001   0.005  -0.000  -0.000  10.647  -0.000  -0.000  14.609
 -0.000  -0.000   0.000  -0.000   0.000   0.001  -0.000   0.000
 -0.000  -0.000  -0.000   0.000  -0.000  -0.000   0.000  -0.000
 -0.000  -0.001  -0.000  -0.000  -0.000  -0.000  -0.000  -0.001
 -0.000  -0.000  -0.000   0.000  -0.000  -0.000   0.001  -0.000
  0.000   0.001  -0.000   0.000   0.001  -0.000   0.000   0.001
 total augmentation occupancy for first ion, spin component:           1
  1.081  -0.050   0.000   0.000  -0.001  -0.000  -0.000   0.003   0.000  -0.000   0.002   0.000  -0.004
 -0.050   0.003   0.000   0.000   0.003  -0.000  -0.000  -0.000   0.000   0.000  -0.001  -0.000   0.001
  0.000   0.000   0.121   0.000  -0.000  -0.013   0.000   0.000  -0.001  -0.000  -0.000  -0.000   0.000
 -0.000   0.000   0.000   0.121  -0.000  -0.000  -0.013   0.000   0.000  -0.000   0.000  -0.001   0.000
 -0.001   0.003   0.000  -0.000   0.114  -0.000   0.000  -0.011   0.000  -0.000   0.007   0.000  -0.012
 -0.000  -0.000  -0.013  -0.000   0.000   0.001  -0.000   0.000   0.000  -0.000  -0.000  -0.000  -0.000
 -0.000  -0.000   0.000  -0.013   0.000  -0.000   0.001   0.000   0.000   0.000  -0.000   0.000  -0.000
  0.003  -0.000  -0.000   0.000  -0.011   0.000   0.000   0.001   0.000   0.000  -0.001   0.000   0.002
  0.000   0.000  -0.001  -0.000   0.000   0.000   0.000   0.000   0.011   0.000   0.000   0.000   0.000
 -0.000  -0.000  -0.000  -0.000  -0.000  -0.000   0.000   0.000   0.000   0.013  -0.000  -0.000   0.000
  0.002  -0.001  -0.000  -0.000   0.007  -0.000  -0.000  -0.001   0.000  -0.000   0.050   0.000   0.004
  0.000   0.000   0.000  -0.001   0.000  -0.000   0.000  -0.000   0.000  -0.000   0.000   0.011  -0.000
 -0.004   0.001   0.000   0.000  -0.012  -0.000  -0.000   0.002   0.000  -0.000   0.004  -0.000   0.045
 total augmentation occupancy for first ion, spin component:           2
  0.000  -0.000  -0.000   0.000   0.000  -0.000   0.000  -0.000  -0.000  -0.000   0.000   0.000  -0.000
 -0.000  -0.000  -0.000  -0.000   0.000  -0.000   0.000   0.000  -0.000  -0.000   0.000   0.000  -0.000
 -0.000  -0.000   0.000  -0.000   0.000  -0.000   0.000  -0.000   0.000  -0.000  -0.000  -0.000   0.000
  0.000  -0.000  -0.000   0.000   0.000   0.000  -0.000   0.000   0.000  -0.000  -0.000   0.000  -0.000
  0.000   0.000   0.000   0.000   0.000   0.000  -0.000  -0.000   0.000  -0.000   0.000   0.000  -0.000
 -0.000  -0.000  -0.000   0.000   0.000   0.000   0.000  -0.000  -0.000  -0.000   0.000   0.000  -0.000
  0.000   0.000   0.000  -0.000  -0.000   0.000   0.000  -0.000   0.000   0.000   0.000  -0.000   0.000
 -0.000   0.000  -0.000   0.000  -0.000  -0.000  -0.000   0.000  -0.000   0.000  -0.000   0.000   0.000
 -0.000  -0.000   0.000   0.000   0.000  -0.000   0.000  -0.000  -0.000  -0.000  -0.000   0.000  -0.000
 -0.000  -0.000  -0.000  -0.000  -0.000  -0.000   0.000   0.000  -0.000  -0.000  -0.000   0.000   0.000
  0.000   0.000  -0.000  -0.000   0.000  -0.000   0.000  -0.000   0.000   0.000  -0.000  -0.000  -0.000
  0.000   0.000  -0.000   0.000   0.000   0.000  -0.000   0.000   0.000   0.000  -0.000  -0.000   0.000
 -0.000  -0.000   0.000  -0.000  -0.000  -0.000  -0.000   0.000  -0.000   0.000  -0.000   0.000  -0.000


------------------------ aborting loop because EDIFF is reached ----------------------------------------


 


 total charge     
 
# of ion       s       p       d       tot
------------------------------------------
    1        0.158   0.177   0.071   0.406
    2        0.151   0.183   0.081   0.414
    3        0.151   0.183   0.081   0.414
    4        0.150   0.182   0.080   0.412
    5        0.158   0.177   0.071   0.406
    6        0.151   0.183   0.081   0.414
    7        0.151   0.183   0.081   0.414
    8        0.150   0.182   0.080   0.412
    9        0.150   0.181   0.080   0.412
   10        0.150   0.181   0.080   0.412
   11        0.150   0.181   0.080   0.412
   12        0.150   0.182   0.080   0.412
   13        0.150   0.182   0.080   0.412
   14        0.150   0.181   0.080   0.412
   15        0.150   0.181   0.080   0.412
   16        0.150   0.181   0.080   0.412
   17        0.158   0.177   0.071   0.406
   18        0.158   0.177   0.071   0.406
   19        0.151   0.183   0.081   0.414
   20        0.151   0.183   0.081   0.414
   21        0.151   0.183   0.081   0.414
   22        0.151   0.183   0.081   0.414
   23        0.150   0.182   0.080   0.412
   24        0.150   0.182   0.080   0.412
   25        0.158   0.177   0.071   0.406
   26        0.151   0.183   0.081   0.414
   27        0.158   0.177   0.071   0.406
   28        0.151   0.183   0.081   0.414
   29        0.151   0.183   0.081   0.414
   30        0.150   0.182   0.080   0.412
   31        0.151   0.183   0.081   0.414
   32        0.150   0.182   0.080   0.412
   33        1.563   3.558   0.000   5.121
   34        1.563   3.558   0.000   5.121
   35        1.563   3.557   0.000   5.121
   36        1.563   3.558   0.000   5.121
   37        1.563   3.557   0.000   5.121
   38        1.563   3.557   0.000   5.121
   39        1.563   3.555   0.000   5.118
   40        1.565   3.554   0.000   5.119
   41        1.566   3.548   0.000   5.114
   42        1.566   3.548   0.000   5.114
   43        1.565   3.554   0.000   5.119
   44        1.563   3.556   0.000   5.119
   45        1.563   3.556   0.000   5.119
   46        1.563   3.556   0.000   5.119
   47        1.563   3.556   0.000   5.119
   48        1.566   3.548   0.000   5.114
   49        1.565   3.554   0.000   5.119
   50        1.563   3.556   0.000   5.119
   51        1.563   3.556   0.000   5.119
   52        1.565   3.554   0.000   5.119
   53        1.566   3.548   0.000   5.114
   54        1.563   3.556   0.000   5.119
   55        1.563   3.556   0.000   5.119
   56        1.566   3.548   0.000   5.114
   57        1.563   3.556   0.000   5.119
   58        1.565   3.554   0.000   5.119
   59        1.563   3.556   0.000   5.119
   60        1.565   3.554   0.000   5.119
   61        1.563   3.556   0.000   5.119
   62        1.566   3.548   0.000   5.114
   63        1.563   3.556   0.000   5.119
--------------------------------------------------
tot         53.342 115.976   2.518 171.837
 


 magnetization (x)
 
# of ion       s       p       d       tot
------------------------------------------
    1        0.000   0.000   0.000   0.000
    2        0.000  -0.000   0.000  -0.000
    3        0.000  -0.000  -0.000  -0.000
    4       -0.000  -0.000  -0.000  -0.000
    5       -0.000  -0.000   0.000  -0.000
    6        0.000  -0.000  -0.000  -0.000
    7        0.000  -0.000  -0.000  -0.000
    8        0.000  -0.000  -0.000  -0.000
    9        0.000  -0.000   0.000  -0.000
   10       -0.000  -0.000  -0.000  -0.000
   11       -0.000  -0.000  -0.000  -0.000
   12       -0.000  -0.000   0.000  -0.000
   13       -0.000  -0.000   0.000  -0.000
   14       -0.000  -0.000   0.000  -0.000
   15       -0.000  -0.000   0.000  -0.000
   16       -0.000  -0.000   0.000  -0.000
   17        0.000  -0.000   0.000   0.000
   18       -0.000  -0.000  -0.000  -0.000
   19       -0.000  -0.000  -0.000  -0.000
   20       -0.000  -0.000  -0.000  -0.000
   21       -0.000  -0.000  -0.000  -0.000
   22        0.000  -0.000   0.000  -0.000
   23       -0.000  -0.000   0.000  -0.000
   24        0.000  -0.000  -0.000  -0.000
   25        0.000  -0.000   0.000  -0.000
   26       -0.000  -0.000  -0.000  -0.000
   27        0.000  -0.000   0.000  -0.000
   28       -0.000  -0.000   0.000  -0.000
   29       -0.000  -0.000  -0.000  -0.000
   30       -0.000  -0.000  -0.000  -0.000
   31       -0.000  -0.000   0.000  -0.000
   32       -0.000  -0.000   0.000  -0.000
   33       -0.000   0.000   0.000  -0.000
   34       -0.000   0.000   0.000  -0.000
   35       -0.000   0.000   0.000   0.000
   36       -0.000   0.000   0.000  -0.000
   37       -0.000  -0.000   0.000  -0.000
   38       -0.000  -0.000   0.000  -0.000
   39       -0.000   0.000   0.000  -0.000
   40       -0.000   0.000   0.000  -0.000
   41       -0.000   0.000   0.000  -0.000
   42       -0.000   0.000   0.000  -0.000
   43       -0.000   0.000   0.000  -0.000
   44       -0.000   0.000   0.000  -0.000
   45       -0.000   0.000   0.000  -0.000
   46       -0.000   0.000   0.000  -0.000
   47       -0.000   0.000   0.000   0.000
   48       -0.000   0.000   0.000  -0.000
   49       -0.000   0.000   0.000  -0.000
   50       -0.000   0.000   0.000  -0.000
   51       -0.000   0.000   0.000  -0.000
   52       -0.000   0.000   0.000  -0.000
   53       -0.000   0.000   0.000  -0.000
   54       -0.000   0.000   0.000  -0.000
   55       -0.000   0.000   0.000  -0.000
   56       -0.000   0.000   0.000  -0.000
   57       -0.000   0.000   0.000  -0.000
   58       -0.000   0.000   0.000  -0.000
   59       -0.000   0.000   0.000  -0.000
   60       -0.000   0.000   0.000  -0.000
   61       -0.000   0.000   0.000  -0.000
   62       -0.000   0.000   0.000  -0.000
   63       -0.000   0.000   0.000  -0.000
--------------------------------------------------
tot         -0.000   0.000   0.000  -0.000
 
    CHARGE:  cpu time    0.0440: real time    0.0433
    FORLOC:  cpu time    0.0040: real time    0.0040
    FORNL :  cpu time    0.1520: real time    0.1537
    STRESS:  cpu time    0.4720: real time    0.4725
    FORCOR:  cpu time    0.0280: real time    0.0284
    FORHAR:  cpu time    0.0040: real time    0.0061
    MIXING:  cpu time    0.0040: real time    0.0012
    OFIELD:  cpu time    0.0000: real time    0.0000

  FORCE on cell =-STRESS in cart. coord.  units (eV):
  Direction    XX          YY          ZZ          XY          YZ          ZX
  --------------------------------------------------------------------------------------
  Alpha Z   602.35658   602.35658   602.35658
  Ewald   -3646.19373 -3646.19373 -3646.19373     0.00000     0.00000    -0.00000
  Hartree  1499.51794  1499.51794  1499.51794    -0.00000    -0.00000    -0.00000
  E(xc)   -1122.74441 -1122.74441 -1122.74441    -0.00000     0.00000     0.00000
  Local   -1381.35347 -1381.35347 -1381.35347     0.00000     0.00000     0.00000
  n-local  -573.93997  -573.95298  -573.95298     0.01884     0.01874     0.01884
  augment   212.11165   212.11165   212.11165     0.00000     0.00000     0.00000
  Kinetic  4393.64686  4393.65147  4393.65147    -1.09072    -1.09073    -1.09072
  Fock        0.00000     0.00000     0.00000     0.00000     0.00000     0.00000
  -------------------------------------------------------------------------------------
  Total     -16.60415   -16.60415   -16.60415     0.00000    -0.00000     0.00000
  in kB     -44.57334   -44.57334   -44.57334     0.00000    -0.00000     0.00000
  external pressure =      -44.57 kB  Pullay stress =        0.00 kB


 VOLUME and BASIS-vectors are now :
 -----------------------------------------------------------------------------
  energy-cutoff  :      400.00
  volume of cell :      596.83
      direct lattice vectors                 reciprocal lattice vectors
     8.419456000  0.000000000  0.000000000     0.118772519  0.000000000  0.000000000
     0.000000000  8.419456000  0.000000000     0.000000000  0.118772519  0.000000000
     0.000000000  0.000000000  8.419456000     0.000000000  0.000000000  0.118772519

  length of vectors
     8.419456000  8.419456000  8.419456000     0.118772519  0.118772519  0.118772519


 FORCES acting on ions
    electron-ion (+dipol)            ewald-force                    non-local-force                 convergence-correction
 -----------------------------------------------------------------------------------------------
   -.373E+02 -.255E-12 -.976E-06   0.370E+02 -.333E-14 0.754E-14   0.289E+00 0.108E-18 0.325E-18   0.462E-03 0.770E-15 0.408E-14
   -.422E+01 -.411E-14 -.347E-06   0.416E+01 -.133E-13 -.710E-14   0.679E-01 0.203E-19 -.867E-18   0.247E-03 -.109E-14 -.415E-14
   -.422E+01 0.465E-13 -.347E-06   0.416E+01 0.133E-14 -.712E-14   0.679E-01 -.976E-18 0.000E+00   0.247E-03 -.454E-15 0.447E-14
   -.149E+01 0.150E-14 0.497E-07   0.149E+01 -.622E-14 0.421E-15   -.122E-01 0.508E-20 -.508E-20   0.123E-04 0.955E-15 -.452E-14
   0.373E+02 -.329E-12 0.976E-06   -.370E+02 0.533E-14 0.714E-14   -.289E+00 0.325E-18 -.325E-18   -.462E-03 0.788E-15 0.497E-14
   0.422E+01 -.169E-12 0.347E-06   -.416E+01 -.711E-14 -.723E-14   -.679E-01 0.000E+00 0.867E-18   -.247E-03 0.230E-14 -.449E-14
   0.422E+01 -.858E-12 0.347E-06   -.416E+01 -.888E-15 -.436E-15   -.679E-01 -.108E-18 -.136E-19   -.247E-03 -.139E-14 0.422E-14
   0.149E+01 0.152E-12 -.497E-07   -.149E+01 0.000E+00 0.513E-15   0.122E-01 -.254E-19 -.152E-19   -.123E-04 -.242E-14 -.288E-14
   -.609E+01 0.609E+01 0.609E+01   0.607E+01 -.607E+01 -.607E+01   0.168E-01 -.168E-01 -.168E-01   0.236E-03 -.236E-03 -.236E-03
   -.609E+01 0.609E+01 -.609E+01   0.607E+01 -.607E+01 0.607E+01   0.168E-01 -.168E-01 0.168E-01   0.236E-03 -.236E-03 0.236E-03
   -.609E+01 -.609E+01 0.609E+01   0.607E+01 0.607E+01 -.607E+01   0.168E-01 0.168E-01 -.168E-01   0.236E-03 0.236E-03 -.236E-03
   -.609E+01 -.609E+01 -.609E+01   0.607E+01 0.607E+01 0.607E+01   0.168E-01 0.168E-01 0.168E-01   0.236E-03 0.236E-03 0.236E-03
   0.609E+01 0.609E+01 0.609E+01   -.607E+01 -.607E+01 -.607E+01   -.168E-01 -.168E-01 -.168E-01   -.236E-03 -.236E-03 -.236E-03
   0.609E+01 0.609E+01 -.609E+01   -.607E+01 -.607E+01 0.607E+01   -.168E-01 -.168E-01 0.168E-01   -.236E-03 -.236E-03 0.236E-03
   0.609E+01 -.609E+01 0.609E+01   -.607E+01 0.607E+01 -.607E+01   -.168E-01 0.168E-01 -.168E-01   -.236E-03 0.236E-03 -.236E-03
   0.609E+01 -.609E+01 -.609E+01   -.607E+01 0.607E+01 0.607E+01   -.168E-01 0.168E-01 0.168E-01   -.236E-03 0.236E-03 0.236E-03
   0.780E-14 -.162E-12 0.373E+02   -.711E-14 0.187E-13 -.370E+02   -.217E-18 0.325E-18 -.289E+00   0.604E-14 -.604E-15 -.462E-03
   0.553E-14 -.253E-13 -.373E+02   0.888E-14 0.977E-14 0.370E+02   -.108E-17 -.108E-18 0.289E+00   0.530E-14 -.172E-14 0.462E-03
   0.945E-14 0.538E-12 0.422E+01   -.977E-14 -.711E-14 -.416E+01   0.136E-19 -.130E-17 -.679E-01   0.201E-14 0.756E-15 -.247E-03
   0.772E-14 -.333E-13 -.422E+01   -.977E-14 -.444E-14 0.416E+01   -.542E-19 0.000E+00 0.679E-01   0.279E-14 0.955E-15 0.247E-03
   0.173E-14 -.824E-13 0.422E+01   0.151E-13 -.133E-13 -.416E+01   -.542E-18 0.169E-19 -.679E-01   -.514E-14 0.468E-14 -.247E-03
   0.191E-14 0.982E-13 -.422E+01   0.124E-13 -.133E-13 0.416E+01   0.759E-18 0.102E-19 0.679E-01   -.472E-14 -.138E-15 0.247E-03
   0.513E-15 -.634E-12 0.149E+01   0.169E-13 0.711E-14 -.149E+01   -.102E-19 0.119E-19 0.122E-01   -.714E-15 -.451E-14 -.123E-04
   0.263E-14 0.672E-12 -.149E+01   0.142E-13 0.133E-13 0.149E+01   -.136E-19 0.186E-19 -.122E-01   -.188E-14 0.304E-15 0.123E-04
   0.709E-14 0.373E+02 0.976E-06   -.129E-13 -.370E+02 0.143E-13   0.000E+00 -.289E+00 -.651E-18   0.422E-14 -.462E-03 0.587E-14
   0.539E-14 0.422E+01 0.347E-06   -.169E-13 -.416E+01 -.724E-14   -.678E-20 -.679E-01 0.206E-17   0.562E-14 -.247E-03 -.579E-14
   0.110E-13 -.373E+02 -.976E-06   -.178E-14 0.370E+02 0.797E-14   -.651E-18 0.289E+00 -.130E-17   0.392E-14 0.462E-03 0.515E-14
   0.106E-13 -.422E+01 -.347E-06   -.284E-13 0.416E+01 -.843E-14   0.271E-19 0.679E-01 0.759E-18   0.206E-14 0.247E-03 -.515E-14
   0.160E-14 0.422E+01 0.347E-06   0.555E-14 -.416E+01 -.576E-14   0.867E-18 -.679E-01 -.508E-19   -.367E-14 -.247E-03 0.750E-14
   0.712E-15 0.149E+01 -.497E-07   0.155E-13 -.149E+01 -.571E-14   -.169E-20 0.122E-01 -.678E-20   -.441E-14 -.123E-04 -.678E-14
   0.184E-14 -.422E+01 -.347E-06   0.444E-15 0.416E+01 -.472E-15   0.000E+00 0.679E-01 0.102E-19   -.275E-14 0.247E-03 0.230E-14
   0.354E-14 -.149E+01 0.497E-07   0.142E-13 0.149E+01 0.422E-15   -.508E-20 -.122E-01 0.678E-20   -.112E-14 0.123E-04 -.238E-14
   -.262E-12 0.260E-14 0.821E-13   -.426E-13 0.711E-14 0.228E-13   0.129E-24 -.517E-25 -.258E-25   0.243E-13 -.931E-14 -.229E-13
   -.262E-12 0.136E-12 0.231E-12   -.533E-13 0.355E-14 0.150E-13   -.103E-24 0.000E+00 -.258E-25   0.112E-13 -.102E-13 0.374E-13
   -.260E-12 0.161E-11 -.878E-12   -.426E-13 0.142E-13 -.683E-14   0.517E-25 -.258E-25 -.517E-25   0.182E-13 0.811E-16 -.215E-13
   0.450E-13 -.115E-14 -.120E-11   0.924E-13 -.435E-13 0.700E-14   -.103E-24 -.258E-25 0.000E+00   -.176E-13 0.751E-14 0.318E-13
   0.807E-13 -.857E-15 0.620E-13   -.426E-13 -.142E-13 -.788E-14   -.258E-25 -.103E-24 0.000E+00   -.160E-13 0.351E-14 -.114E-13
   0.799E-13 -.179E-11 -.173E-12   -.178E-14 -.160E-13 -.231E-13   0.000E+00 0.000E+00 -.517E-25   -.929E-15 -.100E-13 0.301E-13
   0.952E-13 0.256E-11 0.456E-11   -.426E-13 -.284E-13 -.143E-14   -.103E-24 0.000E+00 0.000E+00   -.216E-14 -.761E-14 -.113E-13
   -.264E-12 0.363E+02 0.363E+02   0.169E-13 -.366E+02 -.366E+02   -.325E-18 0.312E+00 0.312E+00   0.261E-13 -.230E-02 -.230E-02
   -.256E-12 0.363E+02 -.363E+02   0.293E-13 -.366E+02 0.366E+02   -.116E-19 0.312E+00 -.312E+00   0.247E-13 -.230E-02 0.230E-02
   -.264E-12 -.363E+02 0.363E+02   0.426E-13 0.366E+02 -.366E+02   -.505E-18 -.312E+00 0.312E+00   0.160E-13 0.230E-02 -.230E-02
   -.259E-12 -.363E+02 -.363E+02   0.568E-13 0.366E+02 0.366E+02   0.108E-18 -.312E+00 -.312E+00   0.944E-14 0.230E-02 0.230E-02
   0.999E-13 0.773E+01 0.773E+01   0.551E-13 -.775E+01 -.775E+01   -.813E-18 0.254E-01 0.254E-01   -.207E-13 0.483E-04 0.483E-04
   0.105E-12 0.773E+01 -.773E+01   0.684E-13 -.775E+01 0.775E+01   -.275E-18 0.254E-01 -.254E-01   -.224E-13 0.483E-04 -.483E-04
   0.920E-13 -.773E+01 0.773E+01   0.355E-13 0.775E+01 -.775E+01   -.163E-18 -.254E-01 0.254E-01   0.900E-15 -.483E-04 0.483E-04
   0.981E-13 -.773E+01 -.773E+01   0.639E-13 0.775E+01 0.775E+01   -.271E-18 -.254E-01 -.254E-01   -.264E-14 -.483E-04 -.483E-04
   -.363E+02 -.270E-13 0.363E+02   0.366E+02 0.115E-13 -.366E+02   -.312E+00 0.138E-18 0.312E+00   0.230E-02 0.467E-14 -.230E-02
   -.363E+02 0.202E-13 -.363E+02   0.366E+02 -.302E-13 0.366E+02   -.312E+00 0.542E-18 -.312E+00   0.230E-02 -.137E-13 0.230E-02
   -.773E+01 0.418E-12 0.773E+01   0.775E+01 -.178E-13 -.775E+01   -.254E-01 0.137E-18 0.254E-01   -.483E-04 -.982E-14 0.483E-04
   -.773E+01 0.188E-12 -.773E+01   0.775E+01 -.142E-13 0.775E+01   -.254E-01 0.434E-18 -.254E-01   -.483E-04 0.107E-13 -.483E-04
   0.363E+02 -.186E-13 0.363E+02   -.366E+02 -.142E-13 -.366E+02   0.312E+00 -.976E-18 0.312E+00   -.230E-02 0.233E-13 -.230E-02
   0.363E+02 0.253E-13 -.363E+02   -.366E+02 0.000E+00 0.366E+02   0.312E+00 0.133E-18 -.312E+00   -.230E-02 0.650E-14 0.230E-02
   0.773E+01 -.408E-12 0.773E+01   -.775E+01 0.000E+00 -.775E+01   0.254E-01 -.108E-18 0.254E-01   0.483E-04 -.237E-13 0.483E-04
   0.773E+01 -.242E-12 -.773E+01   -.775E+01 -.142E-13 0.775E+01   0.254E-01 0.531E-18 -.254E-01   0.483E-04 -.383E-14 -.483E-04
   -.363E+02 0.363E+02 -.233E-11   0.366E+02 -.366E+02 0.374E-13   -.312E+00 0.312E+00 -.241E-18   0.230E-02 -.230E-02 0.441E-13
   -.773E+01 0.773E+01 0.338E-12   0.775E+01 -.775E+01 0.113E-15   -.254E-01 0.254E-01 0.221E-18   -.483E-04 0.483E-04 -.136E-13
   -.363E+02 -.363E+02 -.224E-04   0.366E+02 0.366E+02 0.341E-13   -.312E+00 -.312E+00 -.651E-18   0.230E-02 0.230E-02 0.263E-13
   -.773E+01 -.773E+01 0.256E-05   0.775E+01 0.775E+01 -.458E-15   -.254E-01 -.254E-01 -.325E-18   -.483E-04 -.483E-04 0.359E-14
   0.363E+02 0.363E+02 0.224E-04   -.366E+02 -.366E+02 -.337E-15   0.312E+00 0.312E+00 0.434E-18   -.230E-02 -.230E-02 0.461E-13
   0.773E+01 0.773E+01 -.256E-05   -.775E+01 -.775E+01 0.859E-14   0.254E-01 0.254E-01 0.217E-18   0.483E-04 0.483E-04 -.237E-13
   0.363E+02 -.363E+02 0.231E-11   -.366E+02 0.366E+02 0.621E-14   0.312E+00 -.312E+00 0.440E-18   -.230E-02 0.230E-02 0.305E-13
   0.773E+01 -.773E+01 0.266E-12   -.775E+01 0.775E+01 0.802E-14   0.254E-01 -.254E-01 0.538E-18   0.483E-04 -.483E-04 -.249E-14
 -----------------------------------------------------------------------------------------------
   -.441E-11 0.670E-11 -.208E-10   0.577E-13 0.417E-13 0.126E-14   -.659E-16 -.555E-16 -.978E-17   -.627E-13 -.640E-13 0.188E-12
 
 
 POSITION                                       TOTAL-FORCE (eV/Angst)
 -----------------------------------------------------------------------------------
      8.40547      0.00000      0.00000         0.003013      0.000000     -0.000000
      8.41606      0.00000      4.20973         0.003446      0.000000      0.000000
      8.41606      4.20973      0.00000         0.003446      0.000000     -0.000000
      0.00049      4.20973      4.20973        -0.015003      0.000000     -0.000000
      4.22372      0.00000      0.00000        -0.003013      0.000000      0.000000
      4.21313      0.00000      4.20973        -0.003446      0.000000     -0.000000
      4.21313      4.20973      0.00000        -0.003446      0.000000     -0.000000
      4.20924      4.20973      4.20973         0.015003      0.000000     -0.000000
      0.00032      2.10455      2.10455        -0.000953      0.000953      0.000953
      0.00032      2.10455      6.31491        -0.000953      0.000953     -0.000953
      0.00032      6.31491      2.10455        -0.000953     -0.000953      0.000953
      0.00032      6.31491      6.31491        -0.000953     -0.000953     -0.000953
      4.20941      2.10455      2.10455         0.000953      0.000953      0.000953
      4.20941      2.10455      6.31491         0.000953      0.000953     -0.000953
      4.20941      6.31491      2.10455         0.000953     -0.000953      0.000953
      4.20941      6.31491      6.31491         0.000953     -0.000953     -0.000953
      2.10486      0.00000      2.11885        -0.000000      0.000000     -0.003013
      2.10486      0.00000      6.30060        -0.000000      0.000000      0.003013
      2.10486      4.20973      2.10826        -0.000000      0.000000     -0.003446
      2.10486      4.20973      6.31119        -0.000000      0.000000      0.003446
      6.31459      0.00000      2.10826        -0.000000      0.000000     -0.003446
      6.31459      0.00000      6.31119        -0.000000      0.000000      0.003446
      6.31459      4.20973      2.10438        -0.000000      0.000000      0.015003
      6.31459      4.20973      6.31508        -0.000000      0.000000     -0.015003
      2.10486      2.11885      0.00000        -0.000000     -0.003013      0.000000
      2.10486      2.10826      4.20973        -0.000000     -0.003446      0.000000
      2.10486      6.30060      0.00000        -0.000000      0.003013     -0.000000
      2.10486      6.31119      4.20973        -0.000000      0.003446     -0.000000
      6.31459      2.10826      0.00000        -0.000000     -0.003446     -0.000000
      6.31459      2.10438      4.20973        -0.000000      0.015003      0.000000
      6.31459      6.31119      0.00000        -0.000000      0.003446      0.000000
      6.31459      6.31508      4.20973        -0.000000     -0.015003     -0.000000
      2.10486      0.00000      4.20973        -0.000000      0.000000     -0.000000
      2.10486      4.20973      0.00000        -0.000000      0.000000     -0.000000
      2.10486      4.20973      4.20973        -0.000000      0.000000     -0.000000
      6.31459      0.00000      0.00000        -0.000000      0.000000     -0.000000
      6.31459      0.00000      4.20973        -0.000000      0.000000     -0.000000
      6.31459      4.20973      0.00000        -0.000000      0.000000     -0.000000
      6.31459      4.20973      4.20973        -0.000000      0.000000     -0.000000
      2.10486      2.11064      2.11064        -0.000000      0.001461      0.001461
      2.10486      2.11064      6.30881        -0.000000      0.001461     -0.001461
      2.10486      6.30881      2.11064        -0.000000     -0.001461      0.001461
      2.10486      6.30881      6.30881        -0.000000     -0.001461     -0.001461
      6.31459      2.10422      2.10422        -0.000000      0.008467      0.008467
      6.31459      2.10422      6.31523        -0.000000      0.008467     -0.008467
      6.31459      6.31523      2.10422        -0.000000     -0.008467      0.008467
      6.31459      6.31523      6.31523        -0.000000     -0.008467     -0.008467
      8.41368      0.00000      2.11064        -0.001461      0.000000      0.001461
      8.41368      0.00000      6.30881        -0.001461      0.000000     -0.001461
      0.00064      4.20973      2.10422        -0.008467      0.000000      0.008467
      0.00064      4.20973      6.31523        -0.008467      0.000000     -0.008467
      4.21551      0.00000      2.11064         0.001461      0.000000      0.001461
      4.21551      0.00000      6.30881         0.001461      0.000000     -0.001461
      4.20909      4.20973      2.10422         0.008467      0.000000      0.008467
      4.20909      4.20973      6.31523         0.008467      0.000000     -0.008467
      8.41368      2.11064      0.00000        -0.001461      0.001461     -0.000000
      0.00064      2.10422      4.20973        -0.008467      0.008467     -0.000000
      8.41368      6.30881      0.00000        -0.001461     -0.001461      0.000000
      0.00064      6.31523      4.20973        -0.008467     -0.008467      0.000000
      4.21551      2.11064      0.00000         0.001461      0.001461     -0.000000
      4.20909      2.10422      4.20973         0.008467      0.008467     -0.000000
      4.21551      6.30881      0.00000         0.001461     -0.001461      0.000000
      4.20909      6.31523      4.20973         0.008467     -0.008467      0.000000
 -----------------------------------------------------------------------------------
    total drift:                               -0.000000      0.000000     -0.000000


--------------------------------------------------------------------------------------------------------



  FREE ENERGIE OF THE ION-ELECTRON SYSTEM (eV)
  ---------------------------------------------------
  free  energy   TOTEN  =      -388.95547630 eV

  energy  without entropy=     -388.95547630  energy(sigma->0) =     -388.95547630
 


--------------------------------------------------------------------------------------------------------


    POTLOK:  cpu time    0.5600: real time    0.5635


--------------------------------------------------------------------------------------------------------




--------------------------------------------------------------------------------------------------------


  
 reached required accuracy - stopping structural energy minimisation
 writing wavefunctions
     LOOP+:  cpu time    4.6880: real time    5.0657
    4ORBIT:  cpu time    0.0000: real time    0.0000
 


 total charge     
 
# of ion       s       p       d       tot
------------------------------------------
    1        0.158   0.177   0.071   0.406
    2        0.151   0.183   0.081   0.414
    3        0.151   0.183   0.081   0.414
    4        0.150   0.182   0.080   0.412
    5        0.158   0.177   0.071   0.406
    6        0.151   0.183   0.081   0.414
    7        0.151   0.183   0.081   0.414
    8        0.150   0.182   0.080   0.412
    9        0.150   0.181   0.080   0.412
   10        0.150   0.181   0.080   0.412
   11        0.150   0.181   0.080   0.412
   12        0.150   0.182   0.080   0.412
   13        0.150   0.182   0.080   0.412
   14        0.150   0.181   0.080   0.412
   15        0.150   0.181   0.080   0.412
   16        0.150   0.181   0.080   0.412
   17        0.158   0.177   0.071   0.406
   18        0.158   0.177   0.071   0.406
   19        0.151   0.183   0.081   0.414
   20        0.151   0.183   0.081   0.414
   21        0.151   0.183   0.081   0.414
   22        0.151   0.183   0.081   0.414
   23        0.150   0.182   0.080   0.412
   24        0.150   0.182   0.080   0.412
   25        0.158   0.177   0.071   0.406
   26        0.151   0.183   0.081   0.414
   27        0.158   0.177   0.071   0.406
   28        0.151   0.183   0.081   0.414
   29        0.151   0.183   0.081   0.414
   30        0.150   0.182   0.080   0.412
   31        0.151   0.183   0.081   0.414
   32        0.150   0.182   0.080   0.412
   33        1.563   3.558   0.000   5.121
   34        1.563   3.558   0.000   5.121
   35        1.563   3.557   0.000   5.121
   36        1.563   3.558   0.000   5.121
   37        1.563   3.557   0.000   5.121
   38        1.563   3.557   0.000   5.121
   39        1.563   3.555   0.000   5.118
   40        1.565   3.554   0.000   5.119
   41        1.566   3.548   0.000   5.114
   42        1.566   3.548   0.000   5.114
   43        1.565   3.554   0.000   5.119
   44        1.563   3.556   0.000   5.119
   45        1.563   3.556   0.000   5.119
   46        1.563   3.556   0.000   5.119
   47        1.563   3.556   0.000   5.119
   48        1.566   3.548   0.000   5.114
   49        1.565   3.554   0.000   5.119
   50        1.563   3.556   0.000   5.119
   51        1.563   3.556   0.000   5.119
   52        1.565   3.554   0.000   5.119
   53        1.566   3.548   0.000   5.114
   54        1.563   3.556   0.000   5.119
   55        1.563   3.556   0.000   5.119
   56        1.566   3.548   0.000   5.114
   57        1.563   3.556   0.000   5.119
   58        1.565   3.554   0.000   5.119
   59        1.563   3.556   0.000   5.119
   60        1.565   3.554   0.000   5.119
   61        1.563   3.556   0.000   5.119
   62        1.566   3.548   0.000   5.114
   63        1.563   3.556   0.000   5.119
--------------------------------------------------
tot         53.342 115.976   2.518 171.837
 


 magnetization (x)
 
# of ion       s       p       d       tot
------------------------------------------
    1        0.000   0.000   0.000   0.000
    2        0.000  -0.000   0.000  -0.000
    3        0.000  -0.000  -0.000  -0.000
    4       -0.000  -0.000  -0.000  -0.000
    5       -0.000  -0.000   0.000  -0.000
    6        0.000  -0.000  -0.000  -0.000
    7        0.000  -0.000  -0.000  -0.000
    8        0.000  -0.000  -0.000  -0.000
    9        0.000  -0.000   0.000  -0.000
   10       -0.000  -0.000  -0.000  -0.000
   11       -0.000  -0.000  -0.000  -0.000
   12       -0.000  -0.000   0.000  -0.000
   13       -0.000  -0.000   0.000  -0.000
   14       -0.000  -0.000   0.000  -0.000
   15       -0.000  -0.000   0.000  -0.000
   16       -0.000  -0.000   0.000  -0.000
   17        0.000  -0.000   0.000   0.000
   18       -0.000  -0.000  -0.000  -0.000
   19       -0.000  -0.000  -0.000  -0.000
   20       -0.000  -0.000  -0.000  -0.000
   21       -0.000  -0.000  -0.000  -0.000
   22        0.000  -0.000   0.000  -0.000
   23       -0.000  -0.000   0.000  -0.000
   24        0.000  -0.000  -0.000  -0.000
   25        0.000  -0.000   0.000  -0.000
   26       -0.000  -0.000  -0.000  -0.000
   27        0.000  -0.000   0.000  -0.000
   28       -0.000  -0.000   0.000  -0.000
   29       -0.000  -0.000  -0.000  -0.000
   30       -0.000  -0.000  -0.000  -0.000
   31       -0.000  -0.000   0.000  -0.000
   32       -0.000  -0.000   0.000  -0.000
   33       -0.000   0.000   0.000  -0.000
   34       -0.000   0.000   0.000  -0.000
   35       -0.000   0.000   0.000   0.000
   36       -0.000   0.000   0.000  -0.000
   37       -0.000  -0.000   0.000  -0.000
   38       -0.000  -0.000   0.000  -0.000
   39       -0.000   0.000   0.000  -0.000
   40       -0.000   0.000   0.000  -0.000
   41       -0.000   0.000   0.000  -0.000
   42       -0.000   0.000   0.000  -0.000
   43       -0.000   0.000   0.000  -0.000
   44       -0.000   0.000   0.000  -0.000
   45       -0.000   0.000   0.000  -0.000
   46       -0.000   0.000   0.000  -0.000
   47       -0.000   0.000   0.000   0.000
   48       -0.000   0.000   0.000  -0.000
   49       -0.000   0.000   0.000  -0.000
   50       -0.000   0.000   0.000  -0.000
   51       -0.000   0.000   0.000  -0.000
   52       -0.000   0.000   0.000  -0.000
   53       -0.000   0.000   0.000  -0.000
   54       -0.000   0.000   0.000  -0.000
   55       -0.000   0.000   0.000  -0.000
   56       -0.000   0.000   0.000  -0.000
   57       -0.000   0.000   0.000  -0.000
   58       -0.000   0.000   0.000  -0.000
   59       -0.000   0.000   0.000  -0.000
   60       -0.000   0.000   0.000  -0.000
   61       -0.000   0.000   0.000  -0.000
   62       -0.000   0.000   0.000  -0.000
   63       -0.000   0.000   0.000  -0.000
--------------------------------------------------
tot         -0.000   0.000   0.000  -0.000
 

 total amount of memory used by VASP MPI-rank0    50395. kBytes
=======================================================================

   base      :      30000. kBytes
   nonlr-proj:       8446. kBytes
   fftplans  :       1007. kBytes
   grid      :       7709. kBytes
   one-center:       1022. kBytes
   wavefun   :       2211. kBytes
 
  
  
 General timing and accounting informations for this job:
 ========================================================
  
                  Total CPU time used (sec):        6.396
                            User time (sec):        6.056
                          System time (sec):        0.340
                         Elapsed time (sec):        7.219
  
                   Maximum memory used (kb):      115144.
                   Average memory used (kb):           0.
  
                          Minor page faults:        23921
                          Major page faults:           10
                 Voluntary context switches:         2231
