   17   17   20    2
  0.9011457E+01  0.6006014E-09  0.6006014E-09  0.6006014E-09  0.5000000E-15
  1.000000000000000E-004
  CAR 
 unknown system                          
     65     16     52
 
  0.2500000E+00  0.2500000E+00  0.2500000E+00  0.6250000E-01
    1      -13.662961    -13.617353   1.000000   1.000000
    2      -12.812331    -12.769127   1.000000   1.000000
    3      -12.583500    -12.540406   1.000000   1.000000
    4      -12.577777    -12.535013   1.000000   1.000000
    5      -12.572453    -12.529981   1.000000   1.000000
    6      -12.393439    -12.352698   1.000000   1.000000
    7      -12.389812    -12.349194   1.000000   1.000000
    8      -12.387199    -12.346837   1.000000   1.000000
    9       -1.149781     -1.073880   1.000000   1.000000
   10       -0.857621     -0.807179   1.000000   1.000000
   11       -0.854551     -0.804950   1.000000   1.000000
   12       -0.696055     -0.630990   1.000000   1.000000
   13       -0.625609     -0.572328   1.000000   1.000000
   14       -0.336336     -0.287907   1.000000   1.000000
   15       -0.334327     -0.286127   1.000000   1.000000
   16        1.442903      1.490855   1.000000   1.000000
   17        1.641517      1.683577   1.000000   1.000000
   18        1.645174      1.687015   1.000000   1.000000
   19        1.966508      2.012342   1.000000   1.000000
   20        2.036543      2.075379   1.000000   1.000000
   21        2.039666      2.078397   1.000000   1.000000
   22        2.244404      2.280822   1.000000   1.000000
   23        2.253774      2.294249   1.000000   1.000000
   24        2.261281      2.300798   1.000000   1.000000
   25        2.344516      2.388852   1.000000   1.000000
   26        2.456728      2.495496   1.000000   1.000000
   27        2.461727      2.500394   1.000000   1.000000
   28        2.761485      2.795619   1.000000   1.000000
   29        2.849459      2.885064   1.000000   1.000000
   30        2.850743      2.886281   1.000000   1.000000
   31        3.182428      3.219131   1.000000   1.000000
   32        3.185418      3.221831   1.000000   1.000000
   33        8.559548      8.682753   1.000000   1.000000
   34       10.471907     10.702778   0.000000   0.000000
   35       11.149609     11.305591   0.000000   0.000000
   36       11.488959     11.600395   0.000000   0.000000
   37       11.516484     11.624551   0.000000   0.000000
   38       12.392755     12.497892   0.000000   0.000000
   39       12.435039     12.533003   0.000000   0.000000
   40       12.458931     12.555097   0.000000   0.000000
   41       12.998079     13.100899   0.000000   0.000000
   42       13.007467     13.110731   0.000000   0.000000
   43       13.563055     13.672433   0.000000   0.000000
   44       15.316678     15.417257   0.000000   0.000000
   45       15.455688     15.547709   0.000000   0.000000
   46       15.462861     15.554392   0.000000   0.000000
   47       15.513726     15.611369   0.000000   0.000000
   48       16.032093     16.118276   0.000000   0.000000
   49       16.047955     16.134054   0.000000   0.000000
   50       16.126927     16.235596   0.000000   0.000000
   51       17.261320     17.347759   0.000000   0.000000
   52       17.308439     17.353807   0.000000   0.000000
 
  0.2500000E+00  0.0000000E+00  0.0000000E+00  0.6250000E-01
    1      -13.662845    -13.617243   1.000000   1.000000
    2      -12.812418    -12.769213   1.000000   1.000000
    3      -12.588364    -12.544915   1.000000   1.000000
    4      -12.575397    -12.532767   1.000000   1.000000
    5      -12.569486    -12.527246   1.000000   1.000000
    6      -12.395907    -12.354881   1.000000   1.000000
    7      -12.388702    -12.348177   1.000000   1.000000
    8      -12.386379    -12.346191   1.000000   1.000000
    9       -1.148739     -1.073379   1.000000   1.000000
   10       -0.857403     -0.806728   1.000000   1.000000
   11       -0.855600     -0.805385   1.000000   1.000000
   12       -0.693784     -0.629285   1.000000   1.000000
   13       -0.627596     -0.574355   1.000000   1.000000
   14       -0.336244     -0.287825   1.000000   1.000000
   15       -0.334600     -0.286295   1.000000   1.000000
   16        1.440183      1.488581   1.000000   1.000000
   17        1.640677      1.683141   1.000000   1.000000
   18        1.644717      1.686898   1.000000   1.000000
   19        1.962711      2.008997   1.000000   1.000000
   20        2.037080      2.075330   1.000000   1.000000
   21        2.040003      2.078392   1.000000   1.000000
   22        2.243779      2.281345   1.000000   1.000000
   23        2.257654      2.297711   1.000000   1.000000
   24        2.260562      2.300260   1.000000   1.000000
   25        2.343648      2.388019   1.000000   1.000000
   26        2.459704      2.497663   1.000000   1.000000
   27        2.463341      2.501377   1.000000   1.000000
   28        2.763558      2.797689   1.000000   1.000000
   29        2.848309      2.883965   1.000000   1.000000
   30        2.849082      2.884672   1.000000   1.000000
   31        3.183691      3.220328   1.000000   1.000000
   32        3.186115      3.222450   1.000000   1.000000
   33        8.559668      8.682899   1.000000   1.000000
   34       10.477303     10.707551   0.000000   0.000000
   35       11.143946     11.300020   0.000000   0.000000
   36       11.491918     11.603478   0.000000   0.000000
   37       11.511454     11.620622   0.000000   0.000000
   38       12.417363     12.517498   0.000000   0.000000
   39       12.437855     12.537027   0.000000   0.000000
   40       12.455265     12.552452   0.000000   0.000000
   41       12.982888     13.086858   0.000000   0.000000
   42       12.997698     13.101231   0.000000   0.000000
   43       13.559789     13.670358   0.000000   0.000000
   44       15.317198     15.417229   0.000000   0.000000
   45       15.463824     15.555915   0.000000   0.000000
   46       15.468041     15.559971   0.000000   0.000000
   47       15.509218     15.605968   0.000000   0.000000
   48       16.034255     16.119845   0.000000   0.000000
   49       16.051925     16.137908   0.000000   0.000000
   50       16.111238     16.220661   0.000000   0.000000
   51       17.256134     17.342094   0.000000   0.000000
   52       17.332526     17.400862   0.000000   0.000000
 
  0.0000000E+00  0.0000000E+00 -0.2500000E+00  0.6250000E-01
    1      -13.662827    -13.617225   1.000000   1.000000
    2      -12.812314    -12.769118   1.000000   1.000000
    3      -12.589319    -12.545808   1.000000   1.000000
    4      -12.574478    -12.531906   1.000000   1.000000
    5      -12.569492    -12.527251   1.000000   1.000000
    6      -12.396959    -12.355836   1.000000   1.000000
    7      -12.387784    -12.347348   1.000000   1.000000
    8      -12.386329    -12.346146   1.000000   1.000000
    9       -1.148320     -1.073070   1.000000   1.000000
   10       -0.857517     -0.807078   1.000000   1.000000
   11       -0.855926     -0.805277   1.000000   1.000000
   12       -0.692531     -0.628142   1.000000   1.000000
   13       -0.628695     -0.575505   1.000000   1.000000
   14       -0.336351     -0.287946   1.000000   1.000000
   15       -0.334677     -0.286331   1.000000   1.000000
   16        1.439401      1.487904   1.000000   1.000000
   17        1.640158      1.682649   1.000000   1.000000
   18        1.644648      1.686947   1.000000   1.000000
   19        1.962259      2.008837   1.000000   1.000000
   20        2.037439      2.075592   1.000000   1.000000
   21        2.039497      2.077644   1.000000   1.000000
   22        2.246837      2.284243   1.000000   1.000000
   23        2.257173      2.297169   1.000000   1.000000
   24        2.258133      2.298255   1.000000   1.000000
   25        2.343082      2.387490   1.000000   1.000000
   26        2.460665      2.498453   1.000000   1.000000
   27        2.464119      2.501977   1.000000   1.000000
   28        2.764607      2.798730   1.000000   1.000000
   29        2.847987      2.883638   1.000000   1.000000
   30        2.849022      2.884622   1.000000   1.000000
   31        3.184374      3.220926   1.000000   1.000000
   32        3.185904      3.222257   1.000000   1.000000
   33        8.559581      8.682817   1.000000   1.000000
   34       10.479133     10.709051   0.000000   0.000000
   35       11.140908     11.297349   0.000000   0.000000
   36       11.491567     11.602440   0.000000   0.000000
   37       11.513342     11.623268   0.000000   0.000000
   38       12.413773     12.514078   0.000000   0.000000
   39       12.443291     12.541363   0.000000   0.000000
   40       12.457396     12.554986   0.000000   0.000000
   41       12.980181     13.084315   0.000000   0.000000
   42       12.995036     13.098735   0.000000   0.000000
   43       13.558829     13.669650   0.000000   0.000000
   44       15.317299     15.417290   0.000000   0.000000
   45       15.461157     15.553297   0.000000   0.000000
   46       15.474002     15.565760   0.000000   0.000000
   47       15.510756     15.607419   0.000000   0.000000
   48       16.036573     16.122149   0.000000   0.000000
   49       16.050352     16.136175   0.000000   0.000000
   50       16.106393     16.216019   0.000000   0.000000
   51       17.245260     17.337277   0.000000   0.000000
   52       17.285280     17.370993   0.000000   0.000000
 
  0.0000000E+00  0.2500000E+00  0.0000000E+00  0.6250000E-01
    1      -13.662928    -13.617322   1.000000   1.000000
    2      -12.812396    -12.769197   1.000000   1.000000
    3      -12.584151    -12.540959   1.000000   1.000000
    4      -12.577761    -12.534995   1.000000   1.000000
    5      -12.571632    -12.529252   1.000000   1.000000
    6      -12.393772    -12.352958   1.000000   1.000000
    7      -12.389741    -12.349126   1.000000   1.000000
    8      -12.387101    -12.346808   1.000000   1.000000
    9       -1.149648     -1.073890   1.000000   1.000000
   10       -0.857317     -0.806733   1.000000   1.000000
   11       -0.854771     -0.805100   1.000000   1.000000
   12       -0.695391     -0.630487   1.000000   1.000000
   13       -0.626393     -0.573110   1.000000   1.000000
   14       -0.336366     -0.287944   1.000000   1.000000
   15       -0.334309     -0.286086   1.000000   1.000000
   16        1.442722      1.490752   1.000000   1.000000
   17        1.641035      1.683224   1.000000   1.000000
   18        1.645278      1.687180   1.000000   1.000000
   19        1.966320      2.012317   1.000000   1.000000
   20        2.036579      2.075282   1.000000   1.000000
   21        2.039354      2.077962   1.000000   1.000000
   22        2.246039      2.282583   1.000000   1.000000
   23        2.254904      2.295101   1.000000   1.000000
   24        2.258972      2.298885   1.000000   1.000000
   25        2.344308      2.388645   1.000000   1.000000
   26        2.457050      2.495582   1.000000   1.000000
   27        2.461880      2.500386   1.000000   1.000000
   28        2.761647      2.795801   1.000000   1.000000
   29        2.849222      2.884839   1.000000   1.000000
   30        2.850803      2.886399   1.000000   1.000000
   31        3.182694      3.219376   1.000000   1.000000
   32        3.185370      3.221797   1.000000   1.000000
   33        8.559703      8.682888   1.000000   1.000000
   34       10.473284     10.703869   0.000000   0.000000
   35       11.148674     11.304772   0.000000   0.000000
   36       11.486538     11.598160   0.000000   0.000000
   37       11.518658     11.626890   0.000000   0.000000
   38       12.398392     12.501866   0.000000   0.000000
   39       12.430917     12.529690   0.000000   0.000000
   40       12.463051     12.559187   0.000000   0.000000
   41       12.996179     13.098809   0.000000   0.000000
   42       13.002584     13.106503   0.000000   0.000000
   43       13.562278     13.671952   0.000000   0.000000
   44       15.316760     15.417206   0.000000   0.000000
   45       15.455553     15.547793   0.000000   0.000000
   46       15.466729     15.558184   0.000000   0.000000
   47       15.512609     15.609958   0.000000   0.000000
   48       16.031713     16.117992   0.000000   0.000000
   49       16.050966     16.136751   0.000000   0.000000
   50       16.121049     16.230044   0.000000   0.000000
   51       17.258481     17.352113   0.000000   0.000000
   52       17.300205     17.363990   0.000000   0.000000
 
 -0.2500000E+00  0.2500000E+00  0.2500000E+00  0.6250000E-01
    1      -13.299916    -13.255053   1.000000   1.000000
    2      -13.009991    -12.966277   1.000000   1.000000
    3      -12.774159    -12.730824   1.000000   1.000000
    4      -12.619470    -12.577570   1.000000   1.000000
    5      -12.615056    -12.572635   1.000000   1.000000
    6      -12.451390    -12.409130   1.000000   1.000000
    7      -12.357002    -12.316367   1.000000   1.000000
    8      -12.353840    -12.313439   1.000000   1.000000
    9       -0.534289     -0.460610   1.000000   1.000000
   10       -0.304778     -0.248365   1.000000   1.000000
   11       -0.272263     -0.216023   1.000000   1.000000
   12       -0.214394     -0.165597   1.000000   1.000000
   13        0.016857      0.063642   1.000000   1.000000
   14        0.087966      0.136609   1.000000   1.000000
   15        0.180889      0.232523   1.000000   1.000000
   16        0.714757      0.771514   1.000000   1.000000
   17        0.991800      1.040030   1.000000   1.000000
   18        1.015004      1.058794   1.000000   1.000000
   19        1.115289      1.162270   1.000000   1.000000
   20        1.618705      1.662330   1.000000   1.000000
   21        1.637316      1.681781   1.000000   1.000000
   22        1.828695      1.871577   1.000000   1.000000
   23        1.940956      1.981519   1.000000   1.000000
   24        2.155118      2.196566   1.000000   1.000000
   25        2.216928      2.256262   1.000000   1.000000
   26        2.385499      2.424234   1.000000   1.000000
   27        2.441417      2.477627   1.000000   1.000000
   28        2.509095      2.546835   1.000000   1.000000
   29        2.622109      2.657847   1.000000   1.000000
   30        2.852183      2.889039   1.000000   1.000000
   31        2.854785      2.891785   1.000000   1.000000
   32        2.953247      2.989132   1.000000   1.000000
   33       10.040408     10.175828   0.675867   0.000370
   34       10.794811     10.965481   0.000000   0.000000
   35       11.552111     11.701381   0.000000   0.000000
   36       12.121140     12.294643   0.000000   0.000000
   37       12.188032     12.304149   0.000000   0.000000
   38       12.857717     12.955027   0.000000   0.000000
   39       13.392223     13.493185   0.000000   0.000000
   40       13.481824     13.580221   0.000000   0.000000
   41       13.755420     13.858973   0.000000   0.000000
   42       13.924370     14.036872   0.000000   0.000000
   43       14.001354     14.102241   0.000000   0.000000
   44       14.563303     14.672894   0.000000   0.000000
   45       15.002769     15.100656   0.000000   0.000000
   46       15.098066     15.187756   0.000000   0.000000
   47       15.281353     15.382278   0.000000   0.000000
   48       15.405411     15.500963   0.000000   0.000000
   49       15.480061     15.577591   0.000000   0.000000
   50       15.662560     15.761705   0.000000   0.000000
   51       16.311631     16.389621   0.000000   0.000000
   52       16.780916     16.879476   0.000000   0.000000
 
  0.2500000E+00 -0.2500000E+00  0.2500000E+00  0.6250000E-01
    1      -13.300325    -13.255437   1.000000   1.000000
    2      -13.009555    -12.965882   1.000000   1.000000
    3      -12.773529    -12.730221   1.000000   1.000000
    4      -12.618478    -12.576043   1.000000   1.000000
    5      -12.617491    -12.575562   1.000000   1.000000
    6      -12.450296    -12.408033   1.000000   1.000000
    7      -12.357983    -12.317143   1.000000   1.000000
    8      -12.353135    -12.312944   1.000000   1.000000
    9       -0.536246     -0.461953   1.000000   1.000000
   10       -0.297660     -0.242366   1.000000   1.000000
   11       -0.279816     -0.221868   1.000000   1.000000
   12       -0.215112     -0.166822   1.000000   1.000000
   13        0.017515      0.063941   1.000000   1.000000
   14        0.087678      0.136395   1.000000   1.000000
   15        0.183139      0.234484   1.000000   1.000000
   16        0.716552      0.772741   1.000000   1.000000
   17        0.992655      1.041345   1.000000   1.000000
   18        1.014129      1.057538   1.000000   1.000000
   19        1.115484      1.162334   1.000000   1.000000
   20        1.620489      1.663904   1.000000   1.000000
   21        1.637894      1.682718   1.000000   1.000000
   22        1.828689      1.871661   1.000000   1.000000
   23        1.939665      1.980195   1.000000   1.000000
   24        2.154373      2.195666   1.000000   1.000000
   25        2.220294      2.259615   1.000000   1.000000
   26        2.378857      2.417660   1.000000   1.000000
   27        2.443043      2.479754   1.000000   1.000000
   28        2.512121      2.549721   1.000000   1.000000
   29        2.619725      2.655468   1.000000   1.000000
   30        2.851537      2.888458   1.000000   1.000000
   31        2.854129      2.891163   1.000000   1.000000
   32        2.953236      2.989043   1.000000   1.000000
   33       10.041591     10.176787   0.663744   0.000335
   34       10.785454     10.957770   0.000000   0.000000
   35       11.555148     11.701509   0.000000   0.000000
   36       12.116237     12.295650   0.000000   0.000000
   37       12.201526     12.312605   0.000000   0.000000
   38       12.857121     12.955600   0.000000   0.000000
   39       13.368239     13.471561   0.000000   0.000000
   40       13.494701     13.591691   0.000000   0.000000
   41       13.769070     13.872473   0.000000   0.000000
   42       13.933046     14.044078   0.000000   0.000000
   43       13.994000     14.094203   0.000000   0.000000
   44       14.552347     14.662107   0.000000   0.000000
   45       15.012411     15.109776   0.000000   0.000000
   46       15.104464     15.194555   0.000000   0.000000
   47       15.272027     15.373131   0.000000   0.000000
   48       15.387694     15.483881   0.000000   0.000000
   49       15.483135     15.580951   0.000000   0.000000
   50       15.688508     15.787501   0.000000   0.000000
   51       16.297489     16.375203   0.000000   0.000000
   52       16.803867     16.870951   0.000000   0.000000
 
  0.2500000E+00  0.2500000E+00 -0.2500000E+00  0.6250000E-01
    1      -13.299740    -13.254873   1.000000   1.000000
    2      -13.010073    -12.966366   1.000000   1.000000
    3      -12.773917    -12.730626   1.000000   1.000000
    4      -12.621038    -12.578996   1.000000   1.000000
    5      -12.613881    -12.571538   1.000000   1.000000
    6      -12.451486    -12.409210   1.000000   1.000000
    7      -12.355922    -12.315405   1.000000   1.000000
    8      -12.354781    -12.314292   1.000000   1.000000
    9       -0.532934     -0.459627   1.000000   1.000000
   10       -0.289478     -0.237357   1.000000   1.000000
   11       -0.284016     -0.223686   1.000000   1.000000
   12       -0.217913     -0.168861   1.000000   1.000000
   13        0.016038      0.062857   1.000000   1.000000
   14        0.086518      0.135196   1.000000   1.000000
   15        0.181640      0.233210   1.000000   1.000000
   16        0.713784      0.770702   1.000000   1.000000
   17        0.991319      1.040360   1.000000   1.000000
   18        1.013698      1.057279   1.000000   1.000000
   19        1.115850      1.162578   1.000000   1.000000
   20        1.617104      1.660996   1.000000   1.000000
   21        1.637583      1.681967   1.000000   1.000000
   22        1.827529      1.870564   1.000000   1.000000
   23        1.937944      1.978649   1.000000   1.000000
   24        2.153596      2.195089   1.000000   1.000000
   25        2.219817      2.259075   1.000000   1.000000
   26        2.386394      2.424940   1.000000   1.000000
   27        2.447049      2.482989   1.000000   1.000000
   28        2.509802      2.547652   1.000000   1.000000
   29        2.621709      2.657377   1.000000   1.000000
   30        2.852383      2.888997   1.000000   1.000000
   31        2.853607      2.890800   1.000000   1.000000
   32        2.955267      2.990972   1.000000   1.000000
   33       10.038798     10.174235   0.692061   0.000436
   34       10.800316     10.970474   0.000000   0.000000
   35       11.558887     11.706960   0.000000   0.000000
   36       12.114981     12.284552   0.000000   0.000000
   37       12.178247     12.300147   0.000000   0.000000
   38       12.866497     12.963418   0.000000   0.000000
   39       13.382687     13.483074   0.000000   0.000000
   40       13.491645     13.590464   0.000000   0.000000
   41       13.783511     13.887296   0.000000   0.000000
   42       13.918584     14.030849   0.000000   0.000000
   43       13.971426     14.072581   0.000000   0.000000
   44       14.554408     14.664370   0.000000   0.000000
   45       15.029494     15.127422   0.000000   0.000000
   46       15.091274     15.180958   0.000000   0.000000
   47       15.285966     15.386543   0.000000   0.000000
   48       15.381229     15.478084   0.000000   0.000000
   49       15.470938     15.568370   0.000000   0.000000
   50       15.671700     15.770080   0.000000   0.000000
   51       16.291486     16.369314   0.000000   0.000000
   52       16.799250     16.876472   0.000000   0.000000
 
  0.2500000E+00  0.0000000E+00  0.5000000E+00  0.6250000E-01
    1      -13.300004    -13.255135   1.000000   1.000000
    2      -13.009349    -12.965672   1.000000   1.000000
    3      -12.775789    -12.732374   1.000000   1.000000
    4      -12.621512    -12.579370   1.000000   1.000000
    5      -12.610865    -12.568772   1.000000   1.000000
    6      -12.453278    -12.410965   1.000000   1.000000
    7      -12.356107    -12.315477   1.000000   1.000000
    8      -12.353902    -12.313513   1.000000   1.000000
    9       -0.533413     -0.459965   1.000000   1.000000
   10       -0.300368     -0.244437   1.000000   1.000000
   11       -0.275829     -0.219516   1.000000   1.000000
   12       -0.216115     -0.166683   1.000000   1.000000
   13        0.014759      0.061901   1.000000   1.000000
   14        0.089174      0.137500   1.000000   1.000000
   15        0.181160      0.232656   1.000000   1.000000
   16        0.712918      0.770081   1.000000   1.000000
   17        0.992358      1.040547   1.000000   1.000000
   18        1.017398      1.060823   1.000000   1.000000
   19        1.115009      1.162162   1.000000   1.000000
   20        1.620040      1.663774   1.000000   1.000000
   21        1.634248      1.678551   1.000000   1.000000
   22        1.828728      1.871397   1.000000   1.000000
   23        1.940620      1.981512   1.000000   1.000000
   24        2.151361      2.193348   1.000000   1.000000
   25        2.215768      2.255173   1.000000   1.000000
   26        2.390337      2.428658   1.000000   1.000000
   27        2.445384      2.481193   1.000000   1.000000
   28        2.507658      2.545746   1.000000   1.000000
   29        2.623452      2.658946   1.000000   1.000000
   30        2.851455      2.888676   1.000000   1.000000
   31        2.854860      2.891597   1.000000   1.000000
   32        2.952499      2.988188   1.000000   1.000000
   33       10.040501     10.175987   0.674920   0.000364
   34       10.792171     10.962303   0.000000   0.000000
   35       11.571187     11.721453   0.000000   0.000000
   36       12.118390     12.269056   0.000000   0.000000
   37       12.160010     12.298509   0.000000   0.000000
   38       12.860829     12.958826   0.000000   0.000000
   39       13.408447     13.507779   0.000000   0.000000
   40       13.487266     13.586598   0.000000   0.000000
   41       13.753953     13.858614   0.000000   0.000000
   42       13.930034     14.040795   0.000000   0.000000
   43       13.995588     14.097123   0.000000   0.000000
   44       14.555284     14.664688   0.000000   0.000000
   45       15.005600     15.103924   0.000000   0.000000
   46       15.092141     15.181526   0.000000   0.000000
   47       15.282013     15.383110   0.000000   0.000000
   48       15.396402     15.492953   0.000000   0.000000
   49       15.477195     15.574166   0.000000   0.000000
   50       15.668969     15.767449   0.000000   0.000000
   51       16.299494     16.377215   0.000000   0.000000
   52       16.816920     16.854323   0.000000   0.000000
 
 -0.2500000E+00  0.5000000E+00  0.5000000E+00  0.6250000E-01
    1      -13.300532    -13.255631   1.000000   1.000000
    2      -13.008768    -12.965136   1.000000   1.000000
    3      -12.775105    -12.731713   1.000000   1.000000
    4      -12.619190    -12.577340   1.000000   1.000000
    5      -12.615039    -12.572622   1.000000   1.000000
    6      -12.451525    -12.409204   1.000000   1.000000
    7      -12.356622    -12.315955   1.000000   1.000000
    8      -12.353999    -12.313652   1.000000   1.000000
    9       -0.535825     -0.461396   1.000000   1.000000
   10       -0.293910     -0.240058   1.000000   1.000000
   11       -0.284550     -0.225524   1.000000   1.000000
   12       -0.215595     -0.166672   1.000000   1.000000
   13        0.017085      0.063861   1.000000   1.000000
   14        0.088213      0.136508   1.000000   1.000000
   15        0.184358      0.235525   1.000000   1.000000
   16        0.716044      0.772135   1.000000   1.000000
   17        0.993287      1.041607   1.000000   1.000000
   18        1.016776      1.060036   1.000000   1.000000
   19        1.115421      1.162432   1.000000   1.000000
   20        1.619568      1.662999   1.000000   1.000000
   21        1.636091      1.680756   1.000000   1.000000
   22        1.828796      1.871566   1.000000   1.000000
   23        1.939741      1.980558   1.000000   1.000000
   24        2.152596      2.194418   1.000000   1.000000
   25        2.218151      2.257520   1.000000   1.000000
   26        2.377981      2.416615   1.000000   1.000000
   27        2.448104      2.484644   1.000000   1.000000
   28        2.510100      2.547819   1.000000   1.000000
   29        2.621512      2.657155   1.000000   1.000000
   30        2.851425      2.888645   1.000000   1.000000
   31        2.852965      2.889891   1.000000   1.000000
   32        2.953712      2.989453   1.000000   1.000000
   33       10.043740     10.178505   0.641296   0.000281
   34       10.775620     10.948945   0.000000   0.000000
   35       11.574687     11.720557   0.000000   0.000000
   36       12.112010     12.277196   0.000000   0.000000
   37       12.187220     12.312011   0.000000   0.000000
   38       12.854952     12.954662   0.000000   0.000000
   39       13.370541     13.473649   0.000000   0.000000
   40       13.496737     13.594308   0.000000   0.000000
   41       13.782354     13.885071   0.000000   0.000000
   42       13.931186     14.041616   0.000000   0.000000
   43       13.994002     14.094386   0.000000   0.000000
   44       14.553216     14.662225   0.000000   0.000000
   45       15.010926     15.108976   0.000000   0.000000
   46       15.100609     15.191043   0.000000   0.000000
   47       15.273399     15.374192   0.000000   0.000000
   48       15.380090     15.477085   0.000000   0.000000
   49       15.487158     15.584516   0.000000   0.000000
   50       15.693490     15.791807   0.000000   0.000000
   51       16.280684     16.358296   0.000000   0.000000
   52       16.808571     16.881910   0.000000   0.000000
 
  0.2500000E+00  0.5000000E+00  0.0000000E+00  0.6250000E-01
    1      -13.300250    -13.255356   1.000000   1.000000
    2      -13.009025    -12.965395   1.000000   1.000000
    3      -12.775209    -12.731826   1.000000   1.000000
    4      -12.620126    -12.578146   1.000000   1.000000
    5      -12.613827    -12.571500   1.000000   1.000000
    6      -12.451744    -12.409447   1.000000   1.000000
    7      -12.356533    -12.315946   1.000000   1.000000
    8      -12.354083    -12.313652   1.000000   1.000000
    9       -0.535119     -0.461147   1.000000   1.000000
   10       -0.297607     -0.241464   1.000000   1.000000
   11       -0.277261     -0.220863   1.000000   1.000000
   12       -0.217537     -0.168453   1.000000   1.000000
   13        0.015480      0.062415   1.000000   1.000000
   14        0.089431      0.137680   1.000000   1.000000
   15        0.181580      0.233005   1.000000   1.000000
   16        0.717161      0.773590   1.000000   1.000000
   17        0.993403      1.041167   1.000000   1.000000
   18        1.015200      1.058779   1.000000   1.000000
   19        1.115397      1.162708   1.000000   1.000000
   20        1.616389      1.660145   1.000000   1.000000
   21        1.636601      1.681203   1.000000   1.000000
   22        1.827747      1.870682   1.000000   1.000000
   23        1.938342      1.979252   1.000000   1.000000
   24        2.150048      2.191700   1.000000   1.000000
   25        2.220531      2.260060   1.000000   1.000000
   26        2.388153      2.426635   1.000000   1.000000
   27        2.442632      2.478961   1.000000   1.000000
   28        2.510927      2.548701   1.000000   1.000000
   29        2.621147      2.656716   1.000000   1.000000
   30        2.852129      2.889416   1.000000   1.000000
   31        2.855243      2.891915   1.000000   1.000000
   32        2.953066      2.988772   1.000000   1.000000
   33       10.041631     10.176290   0.663339   0.000353
   34       10.782062     10.954959   0.000000   0.000000
   35       11.578448     11.725685   0.000000   0.000000