   17   17   20    2
  0.9011457E+01  0.6006014E-09  0.6006014E-09  0.6006014E-09  0.5000000E-15
  1.000000000000000E-004
  CAR 
 unknown system                          
     65      8     52
 
  0.0000000E+00  0.0000000E+00  0.0000000E+00  0.1250000E+00
    1      -13.785347    -13.804261   1.000000   1.000000
    2      -12.591289    -12.608613   1.000000   1.000000
    3      -12.579425    -12.596268   1.000000   1.000000
    4      -12.575729    -12.592518   1.000000   1.000000
    5      -12.572735    -12.589498   1.000000   1.000000
    6      -12.315920    -12.331849   1.000000   1.000000
    7      -12.314597    -12.330456   1.000000   1.000000
    8      -12.313975    -12.329740   1.000000   1.000000
    9       -1.394686     -1.427820   1.000000   1.000000
   10       -1.080756     -1.103288   1.000000   1.000000
   11       -1.080495     -1.103038   1.000000   1.000000
   12       -1.078081     -1.100381   1.000000   1.000000
   13       -0.823326     -0.852257   1.000000   1.000000
   14       -0.495684     -0.517362   1.000000   1.000000
   15       -0.494050     -0.515600   1.000000   1.000000
   16        1.835494      1.818000   1.000000   1.000000
   17        1.836111      1.818536   1.000000   1.000000
   18        1.838576      1.821007   1.000000   1.000000
   19        2.180611      2.167044   1.000000   1.000000
   20        2.182403      2.168624   1.000000   1.000000
   21        2.184130      2.170080   1.000000   1.000000
   22        2.443065      2.426936   1.000000   1.000000
   23        2.446017      2.429740   1.000000   1.000000
   24        2.449136      2.432734   1.000000   1.000000
   25        2.822218      2.808853   1.000000   1.000000
   26        2.822898      2.809542   1.000000   1.000000
   27        2.893875      2.881590   1.000000   1.000000
   28        2.895876      2.883491   1.000000   1.000000
   29        2.898010      2.885504   1.000000   1.000000
   30        3.291597      3.278362   1.000000   1.000000
   31        3.294384      3.280749   1.000000   1.000000
   32        3.296299      3.282296   1.000000   1.000000
   33        7.753015      7.694916   1.000000   1.000000
   34       10.383311     10.264811   0.000000   0.000000
   35       11.011369     10.958716   0.000000   0.000000
   36       11.013359     10.960550   0.000000   0.000000
   37       11.036909     10.985493   0.000000   0.000000
   38       12.088945     12.042383   0.000000   0.000000
   39       12.119045     12.074480   0.000000   0.000000
   40       12.143187     12.100531   0.000000   0.000000
   41       12.482676     12.430221   0.000000   0.000000
   42       12.489579     12.437763   0.000000   0.000000
   43       13.262597     13.213140   0.000000   0.000000
   44       15.667508     15.620070   0.000000   0.000000
   45       15.855344     15.821448   0.000000   0.000000
   46       15.870067     15.835810   0.000000   0.000000
   47       15.879227     15.845280   0.000000   0.000000
   48       16.064179     16.016903   0.000000   0.000000
   49       16.070227     16.022265   0.000000   0.000000
   50       16.450938     16.396500   0.000000   0.000000
   51       18.446646     18.385643   0.000000   0.000000
   52       18.460442     18.404240   0.000000   0.000000
 
  0.5000000E+00  0.0000000E+00  0.0000000E+00  0.1250000E+00
    1      -13.250594    -13.269736   1.000000   1.000000
    2      -13.209643    -13.226568   1.000000   1.000000
    3      -12.504944    -12.522048   1.000000   1.000000
    4      -12.499134    -12.516317   1.000000   1.000000
    5      -12.492690    -12.509950   1.000000   1.000000
    6      -12.436163    -12.452171   1.000000   1.000000
    7      -12.408298    -12.423776   1.000000   1.000000
    8      -12.406462    -12.422144   1.000000   1.000000
    9       -0.634423     -0.669215   1.000000   1.000000
   10       -0.513376     -0.536509   1.000000   1.000000
   11       -0.313702     -0.335579   1.000000   1.000000
   12       -0.304921     -0.326868   1.000000   1.000000
   13       -0.244303     -0.264734   1.000000   1.000000
   14       -0.237156     -0.257784   1.000000   1.000000
   15        0.657729      0.634076   1.000000   1.000000
   16        0.690897      0.669053   1.000000   1.000000
   17        1.304953      1.281853   1.000000   1.000000
   18        1.366702      1.348593   1.000000   1.000000
   19        1.531280      1.514195   1.000000   1.000000
   20        1.540968      1.523359   1.000000   1.000000
   21        1.571333      1.553728   1.000000   1.000000
   22        1.574934      1.557087   1.000000   1.000000
   23        2.218601      2.203188   1.000000   1.000000
   24        2.227407      2.211742   1.000000   1.000000
   25        2.258566      2.242459   1.000000   1.000000
   26        2.268681      2.252573   1.000000   1.000000
   27        2.435806      2.421545   1.000000   1.000000
   28        2.607577      2.595319   1.000000   1.000000
   29        2.981746      2.968177   1.000000   1.000000
   30        2.987703      2.973709   1.000000   1.000000
   31        3.045795      3.032241   1.000000   1.000000
   32        3.051206      3.037786   1.000000   1.000000
   33        9.933689      9.871605   0.565374   0.972609
   34       10.213286     10.152621   0.000000   0.000000
   35       11.791968     11.690236   0.000000   0.000000
   36       12.135531     12.080970   0.000000   0.000000
   37       12.172723     12.121148   0.000000   0.000000
   38       12.975042     12.929696   0.000000   0.000000
   39       13.090933     13.045284   0.000000   0.000000
   40       13.115686     13.070131   0.000000   0.000000
   41       13.860492     13.812228   0.000000   0.000000
   42       13.897599     13.849022   0.000000   0.000000
   43       14.440653     14.386858   0.000000   0.000000
   44       14.472416     14.430951   0.000000   0.000000
   45       15.025154     14.981149   0.000000   0.000000
   46       15.051982     15.007752   0.000000   0.000000
   47       15.390431     15.345948   0.000000   0.000000
   48       15.854064     15.804085   0.000000   0.000000
   49       15.998517     15.950211   0.000000   0.000000
   50       16.038970     15.991177   0.000000   0.000000
   51       16.275200     16.246511   0.000000   0.000000
   52       16.337783     16.308097   0.000000   0.000000
 
  0.0000000E+00  0.5000000E+00  0.0000000E+00  0.1250000E+00
    1      -13.256258    -13.275300   1.000000   1.000000
    2      -13.203713    -13.220796   1.000000   1.000000
    3      -12.508599    -12.525690   1.000000   1.000000
    4      -12.501083    -12.518196   1.000000   1.000000
    5      -12.487101    -12.504524   1.000000   1.000000
    6      -12.439077    -12.454759   1.000000   1.000000
    7      -12.407221    -12.422811   1.000000   1.000000
    8      -12.404837    -12.420570   1.000000   1.000000
    9       -0.637203     -0.671968   1.000000   1.000000
   10       -0.511063     -0.535045   1.000000   1.000000
   11       -0.314534     -0.336736   1.000000   1.000000
   12       -0.309636     -0.331644   1.000000   1.000000
   13       -0.239989     -0.260346   1.000000   1.000000
   14       -0.237139     -0.257572   1.000000   1.000000
   15        0.657577      0.634806   1.000000   1.000000
   16        0.694760      0.672309   1.000000   1.000000
   17        1.313540      1.290349   1.000000   1.000000
   18        1.362276      1.344268   1.000000   1.000000
   19        1.532838      1.515291   1.000000   1.000000
   20        1.541060      1.523175   1.000000   1.000000
   21        1.570652      1.553235   1.000000   1.000000
   22        1.576609      1.559077   1.000000   1.000000
   23        2.222122      2.206582   1.000000   1.000000
   24        2.228024      2.212317   1.000000   1.000000
   25        2.255474      2.239667   1.000000   1.000000
   26        2.263590      2.247601   1.000000   1.000000
   27        2.432011      2.418216   1.000000   1.000000
   28        2.607023      2.594764   1.000000   1.000000
   29        2.984536      2.971279   1.000000   1.000000
   30        2.989397      2.975658   1.000000   1.000000
   31        3.044708      3.031463   1.000000   1.000000
   32        3.045133      3.031974   1.000000   1.000000
   33        9.940295      9.877690   0.491122   0.959810
   34       10.200079     10.137582   0.000000   0.000000
   35       11.800992     11.700248   0.000000   0.000000
   36       12.130293     12.074644   0.000000   0.000000
   37       12.181392     12.129270   0.000000   0.000000
   38       12.937876     12.888014   0.000000   0.000000
   39       13.097903     13.053164   0.000000   0.000000
   40       13.109134     13.064635   0.000000   0.000000
   41       13.895504     13.847962   0.000000   0.000000
   42       13.923657     13.875466   0.000000   0.000000
   43       14.431854     14.393746   0.000000   0.000000
   44       14.480698     14.424947   0.000000   0.000000
   45       15.002462     14.958648   0.000000   0.000000
   46       15.036727     14.993579   0.000000   0.000000
   47       15.409888     15.365757   0.000000   0.000000
   48       15.873071     15.822685   0.000000   0.000000
   49       15.991312     15.944272   0.000000   0.000000
   50       16.031063     15.983471   0.000000   0.000000
   51       16.304951     16.276457   0.000000   0.000000
   52       16.318852     16.290169   0.000000   0.000000
 
  0.5000000E+00  0.5000000E+00  0.0000000E+00  0.1250000E+00
    1      -13.076989    -13.094542   1.000000   1.000000
    2      -13.075567    -13.093872   1.000000   1.000000
    3      -12.652015    -12.668977   1.000000   1.000000
    4      -12.640477    -12.657342   1.000000   1.000000
    5      -12.636192    -12.653034   1.000000   1.000000
    6      -12.628869    -12.645515   1.000000   1.000000
    7      -12.273693    -12.289598   1.000000   1.000000
    8      -12.273109    -12.288999   1.000000   1.000000
    9       -0.265570     -0.296322   1.000000   1.000000
   10       -0.179896     -0.202944   1.000000   1.000000
   11        0.029989      0.009277   1.000000   1.000000
   12        0.030399      0.009732   1.000000   1.000000
   13        0.241925      0.212627   1.000000   1.000000
   14        0.360625      0.338541   1.000000   1.000000
   15        0.592145      0.571798   1.000000   1.000000
   16        0.636645      0.618569   1.000000   1.000000
   17        0.793847      0.773643   1.000000   1.000000
   18        0.815393      0.794413   1.000000   1.000000
   19        1.373726      1.354041   1.000000   1.000000
   20        1.381707      1.362679   1.000000   1.000000
   21        1.392672      1.372864   1.000000   1.000000
   22        1.445573      1.427631   1.000000   1.000000
   23        1.556421      1.539029   1.000000   1.000000
   24        1.558411      1.540968   1.000000   1.000000
   25        2.501557      2.486299   1.000000   1.000000
   26        2.503194      2.487856   1.000000   1.000000
   27        2.591767      2.577446   1.000000   1.000000
   28        2.594274      2.579923   1.000000   1.000000
   29        2.733813      2.719954   1.000000   1.000000
   30        2.735288      2.721441   1.000000   1.000000
   31        2.805847      2.792550   1.000000   1.000000
   32        2.898091      2.885422   1.000000   1.000000
   33       10.769956     10.693314   0.000000   0.000000
   34       10.867032     10.815074   0.000000   0.000000
   35       11.986604     11.892426   0.000000   0.000000
   36       12.331901     12.281335   0.000000   0.000000
   37       12.335577     12.285162   0.000000   0.000000
   38       12.853939     12.812724   0.000000   0.000000
   39       13.668531     13.611571   0.000000   0.000000
   40       13.866581     13.822185   0.000000   0.000000
   41       13.882112     13.837492   0.000000   0.000000
   42       14.245945     14.193521   0.000000   0.000000
   43       14.468013     14.414625   0.000000   0.000000
   44       14.792713     14.750462   0.000000   0.000000
   45       14.858736     14.803962   0.000000   0.000000
   46       15.135025     15.093006   0.000000   0.000000
   47       15.179161     15.131645   0.000000   0.000000
   48       15.190585     15.143636   0.000000   0.000000
   49       15.265848     15.222226   0.000000   0.000000
   50       15.555453     15.509892   0.000000   0.000000
   51       16.398057     16.354991   0.000000   0.000000
   52       17.103536     17.081206   0.000000   0.000000
 
  0.0000000E+00  0.0000000E+00  0.5000000E+00  0.1250000E+00
    1      -13.250707    -13.269847   1.000000   1.000000
    2      -13.209444    -13.226355   1.000000   1.000000
    3      -12.504749    -12.521847   1.000000   1.000000
    4      -12.498470    -12.515651   1.000000   1.000000
    5      -12.493131    -12.510406   1.000000   1.000000
    6      -12.438036    -12.454078   1.000000   1.000000
    7      -12.408562    -12.424038   1.000000   1.000000
    8      -12.404836    -12.420499   1.000000   1.000000
    9       -0.633952     -0.668745   1.000000   1.000000
   10       -0.512656     -0.535647   1.000000   1.000000
   11       -0.312869     -0.334739   1.000000   1.000000
   12       -0.304423     -0.326305   1.000000   1.000000
   13       -0.245070     -0.265551   1.000000   1.000000
   14       -0.238779     -0.259381   1.000000   1.000000
   15        0.656931      0.633183   1.000000   1.000000
   16        0.690460      0.668649   1.000000   1.000000
   17        1.305103      1.281970   1.000000   1.000000
   18        1.365759      1.347672   1.000000   1.000000
   19        1.531370      1.514340   1.000000   1.000000
   20        1.540951      1.523431   1.000000   1.000000
   21        1.570871      1.553524   1.000000   1.000000
   22        1.574574      1.556428   1.000000   1.000000
   23        2.221848      2.206339   1.000000   1.000000
   24        2.225388      2.209770   1.000000   1.000000
   25        2.260418      2.244355   1.000000   1.000000
   26        2.267165      2.250973   1.000000   1.000000
   27        2.436302      2.421953   1.000000   1.000000
   28        2.608223      2.595956   1.000000   1.000000
   29        2.982537      2.968896   1.000000   1.000000
   30        2.987986      2.973949   1.000000   1.000000
   31        3.045488      3.031851   1.000000   1.000000
   32        3.051041      3.037582   1.000000   1.000000
   33        9.932377      9.870439   0.579928   0.974624
   34       10.215687     10.155417   0.000000   0.000000
   35       11.790003     11.688012   0.000000   0.000000
   36       12.136761     12.082624   0.000000   0.000000
   37       12.173017     12.121408   0.000000   0.000000
   38       12.978541     12.933833   0.000000   0.000000
   39       13.096177     13.050504   0.000000   0.000000
   40       13.109530     13.063750   0.000000   0.000000
   41       13.861915     13.813720   0.000000   0.000000
   42       13.887129     13.838349   0.000000   0.000000
   43       14.436094     14.381215   0.000000   0.000000
   44       14.477195     14.436519   0.000000   0.000000
   45       15.029517     14.985427   0.000000   0.000000
   46       15.055376     15.011051   0.000000   0.000000
   47       15.390673     15.346005   0.000000   0.000000
   48       15.851180     15.801386   0.000000   0.000000
   49       16.001817     15.953782   0.000000   0.000000
   50       16.032597     15.984232   0.000000   0.000000
   51       16.282044     16.253601   0.000000   0.000000
   52       16.326321     16.299559   0.000000   0.000000
 
  0.5000000E+00  0.0000000E+00  0.5000000E+00  0.1250000E+00
    1      -13.081350    -13.098924   1.000000   1.000000
    2      -13.071622    -13.089930   1.000000   1.000000
    3      -12.650064    -12.667073   1.000000   1.000000
    4      -12.639863    -12.656713   1.000000   1.000000
    5      -12.634007    -12.650707   1.000000   1.000000
    6      -12.633280    -12.650008   1.000000   1.000000
    7      -12.274465    -12.290450   1.000000   1.000000
    8      -12.272229    -12.288042   1.000000   1.000000
    9       -0.267581     -0.298624   1.000000   1.000000
   10       -0.182875     -0.206078   1.000000   1.000000
   11        0.030280      0.009619   1.000000   1.000000
   12        0.033024      0.012496   1.000000   1.000000
   13        0.247184      0.217958   1.000000   1.000000
   14        0.355432      0.333275   1.000000   1.000000
   15        0.586883      0.566703   1.000000   1.000000
   16        0.643579      0.625526   1.000000   1.000000
   17        0.794697      0.774540   1.000000   1.000000
   18        0.815384      0.794300   1.000000   1.000000
   19        1.378144      1.358641   1.000000   1.000000
   20        1.380622      1.360722   1.000000   1.000000
   21        1.386104      1.367157   1.000000   1.000000
   22        1.453309      1.435285   1.000000   1.000000
   23        1.558138      1.540797   1.000000   1.000000
   24        1.560751      1.543465   1.000000   1.000000
   25        2.490711      2.475776   1.000000   1.000000
   26        2.505816      2.490193   1.000000   1.000000
   27        2.591015      2.576680   1.000000   1.000000
   28        2.595044      2.580545   1.000000   1.000000
   29        2.732341      2.718703   1.000000   1.000000
   30        2.734443      2.720403   1.000000   1.000000
   31        2.807328      2.794015   1.000000   1.000000
   32        2.896360      2.883727   1.000000   1.000000
   33       10.762626     10.685990   0.000000   0.000000
   34       10.873664     10.821395   0.000000   0.000000
   35       11.976934     11.882093   0.000000   0.000000
   36       12.305029     12.253643   0.000000   0.000000
   37       12.367566     12.318918   0.000000   0.000000
   38       12.838389     12.796532   0.000000   0.000000
   39       13.702518     13.646150   0.000000   0.000000
   40       13.877792     13.832539   0.000000   0.000000
   41       13.886380     13.842977   0.000000   0.000000
   42       14.228677     14.175357   0.000000   0.000000
   43       14.467000     14.413363   0.000000   0.000000
   44       14.785652     14.743078   0.000000   0.000000
   45       14.867608     14.814363   0.000000   0.000000
   46       15.114459     15.073765   0.000000   0.000000
   47       15.181287     15.133367   0.000000   0.000000
   48       15.189479     15.141427   0.000000   0.000000
   49       15.258858     15.215242   0.000000   0.000000
   50       15.583938     15.538014   0.000000   0.000000
   51       16.423837     16.380565   0.000000   0.000000
   52       17.084962     17.063872   0.000000   0.000000
 
  0.0000000E+00  0.5000000E+00  0.5000000E+00  0.1250000E+00
    1      -13.079949    -13.097399   1.000000   1.000000
    2      -13.073007    -13.091436   1.000000   1.000000
    3      -12.650564    -12.667554   1.000000   1.000000
    4      -12.640170    -12.656990   1.000000   1.000000
    5      -12.634989    -12.651828   1.000000   1.000000
    6      -12.631403    -12.648044   1.000000   1.000000
    7      -12.274353    -12.290261   1.000000   1.000000
    8      -12.272466    -12.288356   1.000000   1.000000
    9       -0.267360     -0.298392   1.000000   1.000000
   10       -0.182978     -0.206183   1.000000   1.000000
   11        0.030466      0.009777   1.000000   1.000000
   12        0.032578      0.012038   1.000000   1.000000
   13        0.247187      0.218028   1.000000   1.000000
   14        0.356630      0.334530   1.000000   1.000000
   15        0.588509      0.568311   1.000000   1.000000
   16        0.642920      0.624836   1.000000   1.000000
   17        0.795060      0.774924   1.000000   1.000000
   18        0.814355      0.793235   1.000000   1.000000
   19        1.371003      1.351252   1.000000   1.000000
   20        1.386297      1.366705   1.000000   1.000000
   21        1.388285      1.369220   1.000000   1.000000
   22        1.450719      1.432732   1.000000   1.000000
   23        1.557975      1.540684   1.000000   1.000000
   24        1.561608      1.544236   1.000000   1.000000
   25        2.495180      2.479878   1.000000   1.000000
   26        2.498968      2.483632   1.000000   1.000000
   27        2.591789      2.577408   1.000000   1.000000
   28        2.594919      2.580530   1.000000   1.000000
   29        2.731175      2.717412   1.000000   1.000000
   30        2.732960      2.719148   1.000000   1.000000
   31        2.810235      2.796856   1.000000   1.000000
   32        2.897364      2.884724   1.000000   1.000000
   33       10.766558     10.689710   0.000000   0.000000
   34       10.870239     10.818221   0.000000   0.000000
   35       11.975418     11.880533   0.000000   0.000000
   36       12.317519     12.266933   0.000000   0.000000
   37       12.355789     12.306298   0.000000   0.000000
   38       12.839019     12.797283   0.000000   0.000000
   39       13.704175     13.647780   0.000000   0.000000
   40       13.873727     13.829096   0.000000   0.000000
   41       13.882531     13.838381   0.000000   0.000000
   42       14.232273     14.179076   0.000000   0.000000
   43       14.470491     14.416974   0.000000   0.000000
   44       14.787471     14.745057   0.000000   0.000000
   45       14.870693     14.816840   0.000000   0.000000
   46       15.117807     15.076905   0.000000   0.000000
   47       15.178280     15.130665   0.000000   0.000000
   48       15.189788     15.141773   0.000000   0.000000
   49       15.258427     15.214952   0.000000   0.000000
   50       15.581101     15.535209   0.000000   0.000000
   51       16.414769     16.371566   0.000000   0.000000
   52       17.097700     17.065706   0.000000   0.000000
 
  0.5000000E+00  0.5000000E+00  0.5000000E+00  0.1250000E+00
    1      -13.255895    -13.274942   1.000000   1.000000
    2      -13.204111    -13.221189   1.000000   1.000000
    3      -12.508661    -12.525754   1.000000   1.000000
    4      -12.501040    -12.518157   1.000000   1.000000
    5      -12.487244    -12.504649   1.000000   1.000000
    6      -12.438202    -12.453897   1.000000   1.000000
    7      -12.407860    -12.423440   1.000000   1.000000
    8      -12.404861    -12.420602   1.000000   1.000000
    9       -0.636768     -0.671544   1.000000   1.000000
   10       -0.511833     -0.535790   1.000000   1.000000
   11       -0.314094     -0.336411   1.000000   1.000000
   12       -0.310099     -0.331964   1.000000   1.000000
   13       -0.238577     -0.259021   1.000000   1.000000
   14       -0.237952     -0.258343   1.000000   1.000000
   15        0.657931      0.635108   1.000000   1.000000
   16        0.694234      0.671835   1.000000   1.000000
   17        1.312296      1.289140   1.000000   1.000000
   18        1.363471      1.345448   1.000000   1.000000
   19        1.532937      1.515330   1.000000   1.000000
   20        1.539314      1.521567   1.000000   1.000000
   21        1.571515      1.554110   1.000000   1.000000
   22        1.576280      1.558681   1.000000   1.000000
   23        2.221238      2.205735   1.000000   1.000000
   24        2.228982      2.213262   1.000000   1.000000
   25        2.254316      2.238435   1.000000   1.000000
   26        2.265134      2.249178   1.000000   1.000000
   27        2.431884      2.418076   1.000000   1.000000
   28        2.607355      2.595099   1.000000   1.000000
   29        2.984419      2.971084   1.000000   1.000000
   30        2.989142      2.975463   1.000000   1.000000
   31        3.043532      3.030501   1.000000   1.000000
   32        3.047348      3.033968   1.000000   1.000000
   33        9.939882      9.877301   0.495780   0.960754
   34       10.200079     10.137552   0.000000   0.000000
   35       11.800825     11.700099   0.000000   0.000000
   36       12.128311     12.072595   0.000000   0.000000
   37       12.182081     12.130073   0.000000   0.000000
   38       12.939841     12.890077   0.000000   0.000000
   39       13.094548     13.049771   0.000000   0.000000
   40       13.113424     13.068910   0.000000   0.000000
   41       13.888908     13.841131   0.000000   0.000000
   42       13.929195     13.881297   0.000000   0.000000
   43       14.432069     14.393927   0.000000   0.000000
   44       14.479962     14.424154   0.000000   0.000000
   45       15.002763     14.958908   0.000000   0.000000
   46       15.037483     14.994310   0.000000   0.000000
   47       15.407958     15.363835   0.000000   0.000000
   48       15.874330     15.823922   0.000000   0.000000
   49       15.989429     15.942056   0.000000   0.000000
   50       16.034635     15.987281   0.000000   0.000000
   51       16.289755     16.262194   0.000000   0.000000
   52       16.332330     16.303921   0.000000   0.000000
