 vasp.5.4.1 05Feb16 (build Mar 31 2016 13:39:20) complex                        
  
 executed on           IFC91_ompi date 2018.04.28  12:48:15
 running on   16 total cores
 distrk:  each k-point on   16 cores,    1 groups
 distr:  one band on NCORES_PER_BAND=   4 cores,    4 groups


--------------------------------------------------------------------------------------------------------


 INCAR:
 POTCAR:    PAW_PBE Mg 13Apr2007                  
 POTCAR:    PAW_PBE O 08Apr2002                   
 POTCAR:    PAW_PBE Mg 13Apr2007                  
   VRHFIN =Mg: s2p0                                                             
   LEXCH  = PE                                                                  
   EATOM  =    23.0369 eV,    1.6932 Ry                                         
                                                                                
   TITEL  = PAW_PBE Mg 13Apr2007                                                
   LULTRA =        F    use ultrasoft PP ?                                      
   IUNSCR =        1    unscreen: 0-lin 1-nonlin 2-no                           
   RPACOR =    1.500    partial core radius                                     
   POMASS =   24.305; ZVAL   =    2.000    mass and valenz                      
   RCORE  =    2.000    outmost cutoff radius                                   
   RWIGS  =    2.880; RWIGS  =    1.524    wigner-seitz radius (au A)           
   ENMAX  =  126.143; ENMIN  =   94.607 eV                                      
   RCLOC  =    1.506    cutoff for local pot                                    
   LCOR   =        T    correct aug charges                                     
   LPAW   =        T    paw PP                                                  
   EAUG   =  454.734                                                            
   DEXC   =    0.000                                                            
   RMAX   =    2.045    core radius for proj-oper                               
   RAUG   =    1.300    factor for augmentation sphere                          
   RDEP   =    2.025    radius for radial grids                                 
   RDEPT  =    1.942    core radius for aug-charge                              
                                                                                
   Atomic configuration                                                         
    6 entries                                                                   
     n  l   j            E        occ.                                          
     1  0  0.50     -1259.6230   2.0000                                         
     2  0  0.50       -79.8442   2.0000                                         
     2  1  1.50       -46.6121   6.0000                                         
     3  0  0.50        -4.7055   2.0000                                         
     3  1  0.50        -1.3660   0.0000                                         
     3  2  1.50        -1.3606   0.0000                                         
   Description                                                                  
     l       E           TYP  RCUT    TYP  RCUT                                 
     0     -4.7054661     23  2.000                                             
     0     27.2116520     23  2.000                                             
     1      1.3605826     23  2.000                                             
     1     27.2116520     23  2.000                                             
     2     -1.3605826     23  2.000                                             
  local pseudopotential read in
  partial core-charges read in
  partial kinetic energy density read in
  atomic valenz-charges read in
  non local Contribution for L=           0  read in
    real space projection operators read in
  non local Contribution for L=           0  read in
    real space projection operators read in
  non local Contribution for L=           1  read in
    real space projection operators read in
  non local Contribution for L=           1  read in
    real space projection operators read in
  non local Contribution for L=           2  read in
    real space projection operators read in
    PAW grid and wavefunctions read in
 
   number of l-projection  operators is LMAX  =           5
   number of lm-projection operators is LMMAX =          13
 
 POTCAR:    PAW_PBE O 08Apr2002                   
   VRHFIN =O: s2p4                                                              
   LEXCH  = PE                                                                  
   EATOM  =   432.3788 eV,   31.7789 Ry                                         
                                                                                
   TITEL  = PAW_PBE O 08Apr2002                                                 
   LULTRA =        F    use ultrasoft PP ?                                      
   IUNSCR =        1    unscreen: 0-lin 1-nonlin 2-no                           
   RPACOR =    1.200    partial core radius                                     
   POMASS =   16.000; ZVAL   =    6.000    mass and valenz                      
   RCORE  =    1.520    outmost cutoff radius                                   
   RWIGS  =    1.550; RWIGS  =    0.820    wigner-seitz radius (au A)           
   ENMAX  =  400.000; ENMIN  =  300.000 eV                                      
   ICORE  =        2    local potential                                         
   LCOR   =        T    correct aug charges                                     
   LPAW   =        T    paw PP                                                  
   EAUG   =  605.392                                                            
   DEXC   =    0.000                                                            
   RMAX   =    1.553    core radius for proj-oper                               
   RAUG   =    1.300    factor for augmentation sphere                          
   RDEP   =    1.550    radius for radial grids                                 
   RDEPT  =    1.329    core radius for aug-charge                              
                                                                                
   Atomic configuration                                                         
    4 entries                                                                   
     n  l   j            E        occ.                                          
     1  0  0.50      -514.6923   2.0000                                         
     2  0  0.50       -23.9615   2.0000                                         
     2  1  0.50        -9.0305   4.0000                                         
     3  2  1.50        -9.5241   0.0000                                         
   Description                                                                  
     l       E           TYP  RCUT    TYP  RCUT                                 
     0    -23.9615318     23  1.200                                             
     0     -9.5240782     23  1.200                                             
     1     -9.0304911     23  1.520                                             
     1      8.1634956     23  1.520                                             
     2     -9.5240782      7  1.500                                             
  local pseudopotential read in
  partial core-charges read in
  partial kinetic energy density read in
  kinetic energy density of atom read in
  atomic valenz-charges read in
  non local Contribution for L=           0  read in
    real space projection operators read in
  non local Contribution for L=           0  read in
    real space projection operators read in
  non local Contribution for L=           1  read in
    real space projection operators read in
  non local Contribution for L=           1  read in
    real space projection operators read in
    PAW grid and wavefunctions read in
 
   number of l-projection  operators is LMAX  =           4
   number of lm-projection operators is LMMAX =           8
 
 Optimization of the real space projectors (new method)

 maximal supplied QI-value         = 18.90
 optimisation between [QCUT,QGAM] = [ 10.20, 20.41] = [ 29.16,116.64] Ry 
 Optimized for a Real-space Cutoff    1.30 Angstroem

   l    n(q)    QCUT    max X(q) W(low)/X(q) W(high)/X(q)  e(spline) 
   0      8    10.205    28.265    0.22E-03    0.17E-03    0.53E-07
   0      8    10.205    10.429    0.17E-03    0.15E-03    0.43E-07
   1      7    10.205    13.073    0.71E-04    0.41E-03    0.76E-07
   1      7    10.205     9.625    0.71E-04    0.33E-03    0.63E-07
   2      7    10.205     4.652    0.24E-03    0.41E-03    0.55E-07
 Optimization of the real space projectors (new method)

 maximal supplied QI-value         = 24.76
 optimisation between [QCUT,QGAM] = [ 10.15, 20.30] = [ 28.85,115.39] Ry 
 Optimized for a Real-space Cutoff    1.38 Angstroem

   l    n(q)    QCUT    max X(q) W(low)/X(q) W(high)/X(q)  e(spline) 
   0      8    10.150    20.381    0.22E-03    0.32E-03    0.29E-06
   0      8    10.150    15.268    0.23E-03    0.35E-03    0.30E-06
   1      8    10.150     5.964    0.46E-03    0.53E-03    0.21E-06
   1      8    10.150     5.382    0.38E-03    0.45E-03    0.19E-06
  PAW_PBE Mg 13Apr2007                  :
 energy of atom  1       EATOM=  -23.0369
 kinetic energy error for atom=    0.0001 (will be added to EATOM!!)
  PAW_PBE O 08Apr2002                   :
 energy of atom  2       EATOM= -432.3788
 kinetic energy error for atom=    0.1156 (will be added to EATOM!!)
 
 
 POSCAR: Mg9 O8                                  
  positions in direct lattice
  velocities in cartesian coordinates
 exchange correlation table for  LEXCH =        8
   RHO(1)=    0.500       N(1)  =     2000
   RHO(2)=  100.500       N(2)  =     4000
 


--------------------------------------------------------------------------------------------------------


 ion  position               nearest neighbor table
   1  0.124  0.124  0.124-  11 1.86  14 1.86  10 1.87  12 1.87   4 2.13   2 2.13   6 2.13   3 2.13
                             5 3.51   8 3.51   7 3.51   9 3.51   9 3.52   7 3.52   8 3.52   8 3.52
   2  0.977  0.978  0.983-  16 1.98  15 1.99  13 2.00   1 2.13  14 2.30  12 2.32  11 2.34   4 2.52
                             6 2.52   3 2.53   7 3.00   8 3.01   5 3.01   5 3.02   8 3.03   7 3.03
   3  0.982  0.979  0.559-  13 1.99  15 1.99  17 2.00   1 2.13  10 2.30  12 2.31  14 2.31   4 2.53
                             2 2.53   6 2.54   7 3.01   5 3.01   9 3.01   9 3.02   5 3.02   7 3.02
   4  0.983  0.558  0.979-  13 1.98  17 1.99  16 1.99   1 2.13  10 2.31  11 2.31  14 2.34   2 2.52
                             3 2.53   6 2.53   8 3.00   9 3.01   5 3.02   5 3.02   9 3.03   8 3.03
   5  0.000  0.497  0.501-  17 2.10  15 2.11  16 2.11  11 2.11  10 2.11  12 2.11   9 3.00   8 3.00
                             7 3.00   7 3.01   8 3.01   9 3.01   3 3.01   2 3.01   4 3.02   4 3.02
   6  0.559  0.976  0.981-  17 1.99  16 1.99  15 2.00   1 2.13  12 2.30  11 2.31  10 2.32   2 2.52
                             4 2.53   3 2.54   8 3.00   7 3.00   9 3.01   9 3.02   7 3.03   8 3.03
   7  0.500  0.996  0.502-  13 2.09  14 2.10  17 2.10  11 2.11  16 2.11  10 2.12   8 2.99   9 3.00
                             5 3.00   2 3.00   6 3.00   5 3.01   9 3.01   3 3.01   8 3.01   3 3.02
   8  0.500  0.498  0.000-  15 2.10  13 2.10  17 2.11  14 2.11  12 2.11  10 2.12   7 2.99   5 3.00
                             9 3.00   4 3.00   6 3.00   9 3.00   2 3.01   5 3.01   7 3.01   2 3.03
   9  0.502  0.497  0.500-  16 2.10  11 2.10  15 2.10  14 2.11  12 2.11  13 2.12   5 3.00   7 3.00
                             8 3.00   8 3.00   7 3.01   5 3.01   4 3.01   3 3.01   6 3.01   6 3.02
  10  0.251  0.249  0.252-   1 1.87   5 2.11   8 2.12   7 2.12   3 2.30   4 2.31   6 2.32
  11  0.254  0.250  0.744-   1 1.86   9 2.10   7 2.11   5 2.11   6 2.31   4 2.31   2 2.34
  12  0.252  0.744  0.252-   1 1.87   8 2.11   5 2.11   9 2.11   6 2.30   3 2.31   2 2.32
  13  0.257  0.747  0.749-   4 1.98   3 1.99   2 2.00   7 2.09   8 2.10   9 2.12
  14  0.744  0.247  0.253-   1 1.86   7 2.10   9 2.11   8 2.11   2 2.30   3 2.31   4 2.34
  15  0.747  0.254  0.749-   2 1.99   3 1.99   6 2.00   9 2.10   8 2.10   5 2.11
  16  0.747  0.744  0.257-   2 1.98   4 1.99   6 1.99   9 2.10   5 2.11   7 2.11
  17  0.750  0.745  0.748-   6 1.99   4 1.99   3 2.00   5 2.10   7 2.10   8 2.11
 
  LATTYP: Found a face centered cubic cell.
 ALAT       =     8.4937860000
  
  Lattice vectors:
  
 A1 = (   0.0000000000,   4.2468930000,   4.2468930000)
 A2 = (   4.2468930000,   0.0000000000,   4.2468930000)
 A3 = (   4.2468930000,   4.2468930000,   0.0000000000)


Analysis of symmetry for initial positions (statically):
=====================================================================
 Subroutine PRICEL returns:
 Original cell was already a primitive cell.
 

 Routine SETGRP: Setting up the symmetry group for a 
 face centered cubic supercell.


 Subroutine GETGRP returns: Found  1 space group operations
 (whereof  1 operations were pure point group operations)
 out of a pool of 48 trial point group operations.


The static configuration has the point symmetry C_1 .


Analysis of symmetry for dynamics (positions and initial velocities):
=====================================================================
 Subroutine PRICEL returns:
 Original cell was already a primitive cell.
 

 Routine SETGRP: Setting up the symmetry group for a 
 face centered cubic supercell.


 Subroutine GETGRP returns: Found  1 space group operations
 (whereof  1 operations were pure point group operations)
 out of a pool of 48 trial point group operations.


The dynamic configuration has the point symmetry C_1 .


Analysis of structural, dynamic, and magnetic symmetry:
=====================================================================
 Subroutine PRICEL returns:
 Original cell was already a primitive cell.
 

 Routine SETGRP: Setting up the symmetry group for a 
 face centered cubic supercell.


 Subroutine GETGRP returns: Found  1 space group operations
 (whereof  1 operations were pure point group operations)
 out of a pool of 48 trial point group operations.


The magnetic configuration has the point symmetry C_1 .


 Subroutine INISYM returns: Found  1 space group operations
 (whereof  1 operations are pure point group operations),
 and found     1 'primitive' translations

 
 
 KPOINTS: k-point mesh                            

Automatic generation of k-mesh.
Space group operators:
 irot       det(A)        alpha          n_x          n_y          n_z        tau_x        tau_y        tau_z
    1     1.000000     0.000000     1.000000     0.000000     0.000000     0.000000     0.000000     0.000000
 
 Subroutine IBZKPT returns following result:
 ===========================================
 
 Found      8 irreducible k-points:
 
 Following reciprocal coordinates:
            Coordinates               Weight
  0.000000  0.000000  0.000000      1.000000
  0.500000  0.000000  0.000000      1.000000
  0.000000  0.500000  0.000000      1.000000
  0.500000  0.500000  0.000000      1.000000
  0.000000  0.000000  0.500000      1.000000
  0.500000  0.000000  0.500000      1.000000
  0.000000  0.500000  0.500000      1.000000
  0.500000  0.500000  0.500000      1.000000
 
 Following cartesian coordinates:
            Coordinates               Weight
  0.000000  0.000000  0.000000      1.000000
 -0.058867  0.058867  0.058867      1.000000
  0.058867 -0.058867  0.058867      1.000000
  0.000000  0.000000  0.117733      1.000000
  0.058867  0.058867 -0.058867      1.000000
  0.000000  0.117733  0.000000      1.000000
  0.117733  0.000000  0.000000      1.000000
  0.058867  0.058867  0.058867      1.000000
 


--------------------------------------------------------------------------------------------------------




 Dimension of arrays:
   k-points           NKPTS =      8   k-points in BZ     NKDIM =      8   number of bands    NBANDS=     52
   number of dos      NEDOS =    301   number of ions     NIONS =     17
   non local maximal  LDIM  =      5   non local SUM 2l+1 LMDIM =     13
   total plane-waves  NPLWV =  27000
   max r-space proj   IRMAX =   1992   max aug-charges    IRDMAX=   7686
   dimension x,y,z NGX =    30 NGY =   30 NGZ =   30
   dimension x,y,z NGXF=    60 NGYF=   60 NGZF=   60
   support grid    NGXF=    60 NGYF=   60 NGZF=   60
   ions per type =               9   8
 NGX,Y,Z   is equivalent  to a cutoff of   8.30,  8.30,  8.30 a.u.
 NGXF,Y,Z  is equivalent  to a cutoff of  16.61, 16.61, 16.61 a.u.


 I would recommend the setting:
   dimension x,y,z NGX =    29 NGY =   29 NGZ =   29
 SYSTEM =  unknown system                          
 POSCAR =  Mg9 O8                                  

 Startparameter for this run:
   NWRITE =      2    write-flag & timer
   PREC   = n         normal or accurate (medium, high low for compatibility)
   ISTART =      0    job   : 0-new  1-cont  2-samecut
   ICHARG =      2    charge: 1-file 2-atom 10-const
   ISPIN  =      2    spin polarized calculation?
   LNONCOLLINEAR =      F non collinear calculations
   LSORBIT =      F    spin-orbit coupling
   INIWAV =      1    electr: 0-lowe 1-rand  2-diag
   LASPH  =      T    aspherical Exc in radial PAW
   METAGGA=      F    non-selfconsistent MetaGGA calc.

 Electronic Relaxation 1
   ENCUT  =  400.0 eV  29.40 Ry    5.42 a.u.   9.79  9.79  9.79*2*pi/ulx,y,z
   ENINI  =  400.0     initial cutoff
   ENAUG  =  605.4 eV  augmentation charge cutoff
   NELM   =    100;   NELMIN=  4; NELMDL=  0     # of ELM steps 
   EDIFF  = 0.1E-05   stopping-criterion for ELM
   LREAL  =      T    real-space projection
   NLSPLINE    = F    spline interpolate recip. space projectors
   LCOMPAT=      F    compatible to vasp.4.4
   GGA_COMPAT  = T    GGA compatible to vasp.4.4-vasp.4.6
   LMAXPAW     = -100 max onsite density
   LMAXMIX     =    2 max onsite mixed and CHGCAR
   VOSKOWN=      0    Vosko Wilk Nusair interpolation
   ROPT   =   -0.00050  -0.00050
 Ionic relaxation
   EDIFFG = -.5E-01   stopping-criterion for IOM
   NSW    =     20    number of steps for IOM
   NBLOCK =      1;   KBLOCK =     20    inner block; outer block 
   IBRION =      2    ionic relax: 0-MD 1-quasi-New 2-CG
   NFREE  =      1    steps in history (QN), initial steepest desc. (CG)
   ISIF   =      2    stress and relaxation
   IWAVPR =     11    prediction:  0-non 1-charg 2-wave 3-comb
   ISYM   =      2    0-nonsym 1-usesym 2-fastsym
   LCORR  =      T    Harris-Foulkes like correction to forces

   POTIM  = 0.5000    time-step for ionic-motion
   TEIN   =    0.0    initial temperature
   TEBEG  =    0.0;   TEEND  =   0.0 temperature during run
   SMASS  =  -3.00    Nose mass-parameter (am)
   estimated Nose-frequenzy (Omega)   =  0.10E-29 period in steps =****** mass=  -0.824E-27a.u.
   SCALEE = 1.0000    scale energy and forces
   NPACO  =    256;   APACO  = 16.0  distance and # of slots for P.C.
   PSTRESS=    0.0 pullay stress

  Mass of Ions in am
   POMASS =  24.30 16.00
  Ionic Valenz
   ZVAL   =   2.00  6.00
  Atomic Wigner-Seitz radii
   RWIGS  =  -1.00 -1.00
  virtual crystal weights 
   VCA    =   1.00  1.00
   NELECT =      65.0000    total number of electrons
   NUPDOWN=      -1.0000    fix difference up-down

 DOS related values:
   EMIN   =  10.00;   EMAX   =-10.00  energy-range for DOS
   EFERMI =   0.00
   ISMEAR =     0;   SIGMA  =   0.05  broadening in eV -4-tet -1-fermi 0-gaus

 Electronic relaxation 2 (details)
   IALGO  =     38    algorithm
   LDIAG  =      T    sub-space diagonalisation (order eigenvalues)
   LSUBROT=      F    optimize rotation matrix (better conditioning)
   TURBO    =      0    0=normal 1=particle mesh
   IRESTART =      0    0=no restart 2=restart with 2 vectors
   NREBOOT  =      0    no. of reboots
   NMIN     =      0    reboot dimension
   EREF     =   0.00    reference energy to select bands
   IMIX   =      4    mixing-type and parameters
     AMIX     =   0.40;   BMIX     =  1.00
     AMIX_MAG =   1.60;   BMIX_MAG =  1.00
     AMIN     =   0.10
     WC   =   100.;   INIMIX=   1;  MIXPRE=   1;  MAXMIX= -45

 Intra band minimization:
   WEIMIN = 0.0010     energy-eigenvalue tresh-hold
   EBREAK =  0.48E-08  absolut break condition
   DEPER  =   0.30     relativ break condition  

   TIME   =   0.40     timestep for ELM

  volume/ion in A,a.u.               =       9.01        60.81
  Fermi-wavevector in a.u.,A,eV,Ry     =   1.230169  2.324682 20.589897  1.513315
  Thomas-Fermi vector in A             =   2.365028
 
 Write flags
   LWAVE  =      F    write WAVECAR
   LCHARG =      F    write CHGCAR
   LVTOT  =      F    write LOCPOT, total local potential
   LVHAR  =      F    write LOCPOT, Hartree potential only
   LELF   =      F    write electronic localiz. function (ELF)
   LORBIT =     12    0 simple, 1 ext, 2 COOP (PROOUT)


 Dipole corrections
   LMONO  =      F    monopole corrections only (constant potential shift)
   LDIPOL =      F    correct potential (dipole corrections)
   IDIPOL =      0    1-x, 2-y, 3-z, 4-all directions 
   EPSILON=  1.0000000 bulk dielectric constant

 Exchange correlation treatment:
   GGA     =    --    GGA type
   LEXCH   =     8    internal setting for exchange type
   VOSKOWN=      0    Vosko Wilk Nusair interpolation
   LHFCALC =     F    Hartree Fock is set to
   LHFONE  =     F    Hartree Fock one center treatment
   AEXX    =    0.0000 exact exchange contribution

 Linear response parameters
   LEPSILON=     F    determine dielectric tensor
   LRPA    =     F    only Hartree local field effects (RPA)
   LNABLA  =     F    use nabla operator in PAW spheres
   LVEL    =     F    velocity operator in full k-point grid
   LINTERFAST=   F  fast interpolation
   KINTER  =     0    interpolate to denser k-point grid
   CSHIFT  =0.1000    complex shift for real part using Kramers Kronig
   OMEGAMAX=  -1.0    maximum frequency
   DEG_THRESHOLD= 0.2000000E-02 threshold for treating states as degnerate
   RTIME   =    0.100 relaxation time in fs

 Orbital magnetization related:
   ORBITALMAG=     F  switch on orbital magnetization
   LCHIMAG   =     F  perturbation theory with respect to B field
   DQ        =  0.001000  dq finite difference perturbation B field



--------------------------------------------------------------------------------------------------------


 conjugate gradient relaxation of ions
 charge density and potential will be updated during run
 spin polarized calculation
 Variant of blocked Davidson
 Davidson routine will perform the subspace rotation
 perform sub-space diagonalisation
    after iterative eigenvector-optimisation
 modified Broyden-mixing scheme, WC =      100.0
 initial mixing is a Kerker type mixing with AMIX =  0.4000 and BMIX =      1.0000
 Hartree-type preconditioning will be used
 using additional bands           19
 real space projection scheme for non local part
 use partial core corrections
 calculate Harris-corrections to forces 
   (improved forces if not selfconsistent)
 use gradient corrections 
 use of overlap-Matrix (Vanderbilt PP)
 Gauss-broadening in eV      SIGMA  =   0.05


--------------------------------------------------------------------------------------------------------


  energy-cutoff  :      400.00
  volume of cell :      153.19
      direct lattice vectors                 reciprocal lattice vectors
     0.000000000  4.246893000  4.246893000    -0.117733129  0.117733129  0.117733129
     4.246893000  0.000000000  4.246893000     0.117733129 -0.117733129  0.117733129
     4.246893000  4.246893000  0.000000000     0.117733129  0.117733129 -0.117733129

  length of vectors
     6.006013679  6.006013679  6.006013679     0.203919761  0.203919761  0.203919761


 
 k-points in units of 2pi/SCALE and weight: k-point mesh                            
   0.00000000  0.00000000  0.00000000       0.125
  -0.05886656  0.05886656  0.05886656       0.125
   0.05886656 -0.05886656  0.05886656       0.125
   0.00000000  0.00000000  0.11773313       0.125
   0.05886656  0.05886656 -0.05886656       0.125
   0.00000000  0.11773313  0.00000000       0.125
   0.11773313  0.00000000  0.00000000       0.125
   0.05886656  0.05886656  0.05886656       0.125
 
 k-points in reciprocal lattice and weights: k-point mesh                            
   0.00000000  0.00000000  0.00000000       0.125
   0.50000000  0.00000000  0.00000000       0.125
   0.00000000  0.50000000  0.00000000       0.125
   0.50000000  0.50000000  0.00000000       0.125
   0.00000000  0.00000000  0.50000000       0.125
   0.50000000  0.00000000  0.50000000       0.125
   0.00000000  0.50000000  0.50000000       0.125
   0.50000000  0.50000000  0.50000000       0.125
 
 position of ions in fractional coordinates (direct lattice) 
   0.12418823  0.12395916  0.12386582
   0.97677672  0.97805400  0.98344825
   0.98161610  0.97875387  0.55893826
   0.98326510  0.55765643  0.97925022
   0.00017302  0.49729550  0.50120464
   0.55873652  0.97617942  0.98077999
   0.50015938  0.99641784  0.50197278
   0.50032935  0.49776068  0.00027620
   0.50157378  0.49697774  0.50031114
   0.25104230  0.24903426  0.25229161
   0.25388690  0.25023076  0.74419881
   0.25178897  0.74356765  0.25215143
   0.25654234  0.74695343  0.74873111
   0.74421316  0.24739497  0.25343482
   0.74742601  0.25358925  0.74914252
   0.74744891  0.74437737  0.25740845
   0.74955720  0.74467668  0.74814094
 
 position of ions in cartesian coordinates  (Angst):
   1.05248620  1.05345900  1.05385541
   8.33029017  8.32486569  8.30195687
   6.53041392  6.54256953  8.32548151
   6.52707811  8.33459260  6.54412887
   4.24052326  2.12929730  2.11269559
   8.31099723  6.53816189  6.51862375
   6.36350465  4.25594804  6.35580332
   2.11510934  2.12601820  4.23878154
   4.23537915  4.25489805  4.24074146
   2.12907731  2.13760528  2.12377164
   4.22323601  4.23876322  2.14093377
   4.22871241  2.14018099  4.22717308
   6.35201217  4.26928876  4.26173914
   2.12697051  4.23690422  4.21125364
   4.25849452  6.35576640  4.25120471
   4.25447717  4.26752170  6.33562659
   6.33983671  6.36056378  6.34585141
 


--------------------------------------------------------------------------------------------------------


 k-point  1 :   0.0000 0.0000 0.0000  plane waves:    2733
 k-point  2 :   0.5000 0.0000 0.0000  plane waves:    2788
 k-point  3 :   0.0000 0.5000 0.0000  plane waves:    2788
 k-point  4 :   0.5000 0.5000 0.0000  plane waves:    2778
 k-point  5 :   0.0000 0.0000 0.5000  plane waves:    2788
 k-point  6 :   0.5000 0.0000 0.5000  plane waves:    2778
 k-point  7 :   0.0000 0.5000 0.5000  plane waves:    2778
 k-point  8 :   0.5000 0.5000 0.5000  plane waves:    2788

 maximum and minimum number of plane-waves per node :       715      668

 maximum number of plane-waves:      2788
 maximum index in each direction: 
   IXMAX=    9   IYMAX=    9   IZMAX=    9
   IXMIN=  -10   IYMIN=  -10   IZMIN=  -10

 WARNING: aliasing errors must be expected set NGX to  40 to avoid them
 WARNING: aliasing errors must be expected set NGY to  40 to avoid them
 WARNING: aliasing errors must be expected set NGZ to  40 to avoid them
 aliasing errors are usually negligible using standard VASP settings
 and one can safely disregard these warnings

 real space projection operators:
  total allocation   :       2375.88 KBytes
  max/ min on nodes  :        638.70        550.07


 parallel 3D FFT for wavefunctions:
    minimum data exchange during FFTs selected (reduces bandwidth)
 parallel 3D FFT for charge:
    minimum data exchange during FFTs selected (reduces bandwidth)


 total amount of memory used by VASP on root node    36475. kBytes
========================================================================

   base      :      30000. kBytes
   nonlr-proj:       1351. kBytes
   fftplans  :        708. kBytes
   grid      :       1766. kBytes
   one-center:         81. kBytes
   wavefun   :       2569. kBytes
 
     INWAV:  cpu time    0.0000: real time    0.0002
 Broyden mixing: mesh for mixing (old mesh)
   NGX = 19   NGY = 19   NGZ = 19
  (NGX  = 60   NGY  = 60   NGZ  = 60)
  gives a total of   6859 points

 initial charge density was supplied:
 charge density of overlapping atoms calculated
 number of electron      66.0000000 magnetization      17.0000000
 keeping initial charge density in first step


--------------------------------------------------------------------------------------------------------


 Maximum index for non-local projection operator          513
 Maximum index for augmentation-charges          553 (set IRDMAX)


--------------------------------------------------------------------------------------------------------


 First call to EWALD:  gamma=   0.331
 Maximum number of real-space cells 3x 3x 3
 Maximum number of reciprocal cells 3x 3x 3

 FEWALD executed in parallel
    FEWALD:  cpu time    0.0040: real time    0.0017


----------------------------------------- Iteration    1(   1)  ---------------------------------------


    POTLOK:  cpu time    0.0240: real time    0.0216
    SETDIJ:  cpu time    0.9520: real time    0.9550
     EDDAV:  cpu time    0.6040: real time    0.6052
       DOS:  cpu time    0.0000: real time    0.0009
    --------------------------------------------
      LOOP:  cpu time    1.5800: real time    1.5860

 eigenvalue-minimisations  :  1736
 total energy-change (2. order) : 0.2652440E+03  (-0.2750003E+04)
 number of electron      66.0000000 magnetization      17.0000000
 augmentation part       66.0000000 magnetization      17.0000000

 Free energy of the ion-electron system (eV)
  ---------------------------------------------------
  alpha Z        PSCENC =       167.07285220
  Ewald energy   TEWEN  =     -2907.62879340
  -Hartree energ DENC   =      -980.59163301
  -exchange      EXHF   =         0.00000000
  -V(xc)+E(xc)   XCENC  =      -207.36888646
  PAW double counting   =      3357.85734499    -2905.44438128
  entropy T*S    EENTRO =        -0.00422071
  eigenvalues    EBANDS =        75.91518728
  atomic energy  EATOM  =      3665.43652948
  Solvation  Ediel_sol  =         0.00000000
  ---------------------------------------------------
  free energy    TOTEN  =       265.24399910 eV

  energy without entropy =      265.24821982  energy(sigma->0) =      265.24610946


--------------------------------------------------------------------------------------------------------




----------------------------------------- Iteration    1(   2)  ---------------------------------------


     EDDAV:  cpu time    0.6840: real time    0.6869
       DOS:  cpu time    0.0040: real time    0.0006
    --------------------------------------------
      LOOP:  cpu time    0.6880: real time    0.6922

 eigenvalue-minimisations  :  2084
 total energy-change (2. order) :-0.3460444E+03  (-0.3346683E+03)
 number of electron      66.0000000 magnetization      17.0000000
 augmentation part       66.0000000 magnetization      17.0000000

 Free energy of the ion-electron system (eV)
  ---------------------------------------------------
  alpha Z        PSCENC =       167.07285220
  Ewald energy   TEWEN  =     -2907.62879340
  -Hartree energ DENC   =      -980.59163301
  -exchange      EXHF   =         0.00000000
  -V(xc)+E(xc)   XCENC  =      -207.36888646
  PAW double counting   =      3357.85734499    -2905.44438128
  entropy T*S    EENTRO =        -0.00351384
  eigenvalues    EBANDS =      -270.12996333
  atomic energy  EATOM  =      3665.43652948
  Solvation  Ediel_sol  =         0.00000000
  ---------------------------------------------------
  free energy    TOTEN  =       -80.80044463 eV

  energy without entropy =      -80.79693079  energy(sigma->0) =      -80.79868771


--------------------------------------------------------------------------------------------------------




----------------------------------------- Iteration    1(   3)  ---------------------------------------


     EDDAV:  cpu time    0.6560: real time    0.6590
       DOS:  cpu time    0.0000: real time    0.0006
    --------------------------------------------
      LOOP:  cpu time    0.6560: real time    0.6625

 eigenvalue-minimisations  :  2028
 total energy-change (2. order) :-0.1782487E+02  (-0.1770038E+02)
 number of electron      66.0000000 magnetization      17.0000000
 augmentation part       66.0000000 magnetization      17.0000000

 Free energy of the ion-electron system (eV)
  ---------------------------------------------------
  alpha Z        PSCENC =       167.07285220
  Ewald energy   TEWEN  =     -2907.62879340
  -Hartree energ DENC   =      -980.59163301
  -exchange      EXHF   =         0.00000000
  -V(xc)+E(xc)   XCENC  =      -207.36888646
  PAW double counting   =      3357.85734499    -2905.44438128
  entropy T*S    EENTRO =        -0.00636370
  eigenvalues    EBANDS =      -287.95198321
  atomic energy  EATOM  =      3665.43652948
  Solvation  Ediel_sol  =         0.00000000
  ---------------------------------------------------
  free energy    TOTEN  =       -98.62531438 eV

  energy without entropy =      -98.61895068  energy(sigma->0) =      -98.62213253


--------------------------------------------------------------------------------------------------------




----------------------------------------- Iteration    1(   4)  ---------------------------------------


     EDDAV:  cpu time    0.6280: real time    0.6310
       DOS:  cpu time    0.0000: real time    0.0006
    --------------------------------------------
      LOOP:  cpu time    0.6320: real time    0.6347

 eigenvalue-minimisations  :  1936
 total energy-change (2. order) :-0.1184234E+00  (-0.1180842E+00)
 number of electron      66.0000000 magnetization      17.0000000
 augmentation part       66.0000000 magnetization      17.0000000

 Free energy of the ion-electron system (eV)
  ---------------------------------------------------
  alpha Z        PSCENC =       167.07285220
  Ewald energy   TEWEN  =     -2907.62879340
  -Hartree energ DENC   =      -980.59163301
  -exchange      EXHF   =         0.00000000
  -V(xc)+E(xc)   XCENC  =      -207.36888646
  PAW double counting   =      3357.85734499    -2905.44438128
  entropy T*S    EENTRO =        -0.00672827
  eigenvalues    EBANDS =      -288.07004209
  atomic energy  EATOM  =      3665.43652948
  Solvation  Ediel_sol  =         0.00000000
  ---------------------------------------------------
  free energy    TOTEN  =       -98.74373782 eV

  energy without entropy =      -98.73700955  energy(sigma->0) =      -98.74037369


--------------------------------------------------------------------------------------------------------




----------------------------------------- Iteration    1(   5)  ---------------------------------------


     EDDAV:  cpu time    0.6440: real time    0.6480
       DOS:  cpu time    0.0040: real time    0.0006
    CHARGE:  cpu time    0.0200: real time    0.0224
    MIXING:  cpu time    0.0000: real time    0.0007
    --------------------------------------------
      LOOP:  cpu time    0.6720: real time    0.6741

 eigenvalue-minimisations  :  1996
 total energy-change (2. order) :-0.7177145E-03  (-0.7174245E-03)
 number of electron      64.9999914 magnetization       0.8423644
 augmentation part        6.3362528 magnetization       0.1518615

 Broyden mixing:
  rms(total) = 0.28628E+01    rms(broyden)= 0.28609E+01
  rms(prec ) = 0.47310E+01
  weight for this iteration     100.00

 Free energy of the ion-electron system (eV)
  ---------------------------------------------------
  alpha Z        PSCENC =       167.07285220
  Ewald energy   TEWEN  =     -2907.62879340
  -Hartree energ DENC   =      -980.59163301
  -exchange      EXHF   =         0.00000000
  -V(xc)+E(xc)   XCENC  =      -207.36888646
  PAW double counting   =      3357.85734499    -2905.44438128
  entropy T*S    EENTRO =        -0.00673643
  eigenvalues    EBANDS =      -288.07075164
  atomic energy  EATOM  =      3665.43652948
  Solvation  Ediel_sol  =         0.00000000
  ---------------------------------------------------
  free energy    TOTEN  =       -98.74445554 eV

  energy without entropy =      -98.73771911  energy(sigma->0) =      -98.74108732


--------------------------------------------------------------------------------------------------------




----------------------------------------- Iteration    1(   6)  ---------------------------------------


    POTLOK:  cpu time    0.0240: real time    0.0212
    SETDIJ:  cpu time    0.9600: real time    0.9599
     EDDAV:  cpu time    0.6240: real time    0.6260
       DOS:  cpu time    0.0000: real time    0.0006
    CHARGE:  cpu time    0.0240: real time    0.0230
    MIXING:  cpu time    0.0000: real time    0.0006
    --------------------------------------------
      LOOP:  cpu time    1.6320: real time    1.6342

 eigenvalue-minimisations  :  1884
 total energy-change (2. order) : 0.5935662E+01  (-0.3928551E+01)
 number of electron      64.9999930 magnetization       0.6805819
 augmentation part        5.2788526 magnetization      -0.1030963

 Broyden mixing:
  rms(total) = 0.76785E+00    rms(broyden)= 0.76632E+00
  rms(prec ) = 0.10665E+01
  weight for this iteration     100.00

 eigenvalues of (default mixing * dielectric matrix)
  average eigenvalue GAMMA=   0.8357
  0.8357

 Free energy of the ion-electron system (eV)
  ---------------------------------------------------
  alpha Z        PSCENC =       167.07285220
  Ewald energy   TEWEN  =     -2907.62879340
  -Hartree energ DENC   =     -1126.99609967
  -exchange      EXHF   =         0.00000000
  -V(xc)+E(xc)   XCENC  =      -202.99931569
  PAW double counting   =      3993.12330927    -3543.19408408
  entropy T*S    EENTRO =        -0.00797290
  eigenvalues    EBANDS =      -137.61521898
  atomic energy  EATOM  =      3665.43652948
  Solvation  Ediel_sol  =         0.00000000
  ---------------------------------------------------
  free energy    TOTEN  =       -92.80879378 eV

  energy without entropy =      -92.80082087  energy(sigma->0) =      -92.80480732


--------------------------------------------------------------------------------------------------------




----------------------------------------- Iteration    1(   7)  ---------------------------------------


    POTLOK:  cpu time    0.0240: real time    0.0218
    SETDIJ:  cpu time    0.9560: real time    0.9584
     EDDAV:  cpu time    0.6040: real time    0.6058
       DOS:  cpu time    0.0040: real time    0.0006
    CHARGE:  cpu time    0.0240: real time    0.0242
    MIXING:  cpu time    0.0000: real time    0.0007
    --------------------------------------------
      LOOP:  cpu time    1.6120: real time    1.6148

 eigenvalue-minimisations  :  1784
 total energy-change (2. order) :-0.1223012E+00  (-0.1213989E+00)
 number of electron      64.9999930 magnetization       0.1226971
 augmentation part        5.2705957 magnetization      -0.1908635

 Broyden mixing:
  rms(total) = 0.40454E+00    rms(broyden)= 0.40445E+00
  rms(prec ) = 0.62394E+00
  weight for this iteration     100.00

 eigenvalues of (default mixing * dielectric matrix)
  average eigenvalue GAMMA=   0.9501
  0.9863  0.9140

 Free energy of the ion-electron system (eV)
  ---------------------------------------------------
  alpha Z        PSCENC =       167.07285220
  Ewald energy   TEWEN  =     -2907.62879340
  -Hartree energ DENC   =     -1130.19496304
  -exchange      EXHF   =         0.00000000
  -V(xc)+E(xc)   XCENC  =      -202.63242790
  PAW double counting   =      4222.58819964    -3772.37259656
  entropy T*S    EENTRO =        -0.00894523
  eigenvalues    EBANDS =      -135.19095021
  atomic energy  EATOM  =      3665.43652948
  Solvation  Ediel_sol  =         0.00000000
  ---------------------------------------------------
  free energy    TOTEN  =       -92.93109502 eV

  energy without entropy =      -92.92214979  energy(sigma->0) =      -92.92662240


--------------------------------------------------------------------------------------------------------




----------------------------------------- Iteration    1(   8)  ---------------------------------------


    POTLOK:  cpu time    0.0200: real time    0.0216
    SETDIJ:  cpu time    0.9600: real time    0.9581
     EDDAV:  cpu time    0.6040: real time    0.6029
       DOS:  cpu time    0.0000: real time    0.0006
    CHARGE:  cpu time    0.0200: real time    0.0228
    MIXING:  cpu time    0.0040: real time    0.0006
    --------------------------------------------
      LOOP:  cpu time    1.6080: real time    1.6098

 eigenvalue-minimisations  :  1808
 total energy-change (2. order) : 0.8381559E-01  (-0.2192870E-01)
 number of electron      64.9999929 magnetization      -0.2792585
 augmentation part        5.2805911 magnetization      -0.2306502

 Broyden mixing:
  rms(total) = 0.16954E+00    rms(broyden)= 0.16952E+00
  rms(prec ) = 0.26592E+00
  weight for this iteration     100.00

 eigenvalues of (default mixing * dielectric matrix)
  average eigenvalue GAMMA=   1.2951
  2.1542  0.8695  0.8615

 Free energy of the ion-electron system (eV)
  ---------------------------------------------------
  alpha Z        PSCENC =       167.07285220
  Ewald energy   TEWEN  =     -2907.62879340
  -Hartree energ DENC   =     -1135.45043206
  -exchange      EXHF   =         0.00000000
  -V(xc)+E(xc)   XCENC  =      -201.89000685
  PAW double counting   =      4461.50422562    -4011.06361363
  entropy T*S    EENTRO =        -0.01101638
  eigenvalues    EBANDS =      -130.81702441
  atomic energy  EATOM  =      3665.43652948
  Solvation  Ediel_sol  =         0.00000000
  ---------------------------------------------------
  free energy    TOTEN  =       -92.84727942 eV

  energy without entropy =      -92.83626304  energy(sigma->0) =      -92.84177123


--------------------------------------------------------------------------------------------------------




----------------------------------------- Iteration    1(   9)  ---------------------------------------


    POTLOK:  cpu time    0.0200: real time    0.0210
    SETDIJ:  cpu time    0.9600: real time    0.9602
     EDDAV:  cpu time    0.6520: real time    0.6519
       DOS:  cpu time    0.0000: real time    0.0006
    CHARGE:  cpu time    0.0240: real time    0.0225
    MIXING:  cpu time    0.0000: real time    0.0007
    --------------------------------------------
      LOOP:  cpu time    1.6560: real time    1.6604

 eigenvalue-minimisations  :  1988
 total energy-change (2. order) : 0.1010527E-01  (-0.7218099E-02)
 number of electron      64.9999929 magnetization      -0.2551072
 augmentation part        5.2762331 magnetization      -0.0276801

 Broyden mixing:
  rms(total) = 0.51640E-01    rms(broyden)= 0.51612E-01
  rms(prec ) = 0.62123E-01
  weight for this iteration     100.00

 eigenvalues of (default mixing * dielectric matrix)
  average eigenvalue GAMMA=   1.2430
  2.4370  0.9370  0.9370  0.6612

 Free energy of the ion-electron system (eV)
  ---------------------------------------------------
  alpha Z        PSCENC =       167.07285220
  Ewald energy   TEWEN  =     -2907.62879340
  -Hartree energ DENC   =     -1141.05860767
  -exchange      EXHF   =         0.00000000
  -V(xc)+E(xc)   XCENC  =      -201.18457141
  PAW double counting   =      4615.00196574    -4164.46237618
  entropy T*S    EENTRO =        -0.00785519
  eigenvalues    EBANDS =      -126.00631773
  atomic energy  EATOM  =      3665.43652948
  Solvation  Ediel_sol  =         0.00000000
  ---------------------------------------------------
  free energy    TOTEN  =       -92.83717415 eV

  energy without entropy =      -92.82931896  energy(sigma->0) =      -92.83324656


--------------------------------------------------------------------------------------------------------




----------------------------------------- Iteration    1(  10)  ---------------------------------------


    POTLOK:  cpu time    0.0200: real time    0.0212
    SETDIJ:  cpu time    0.9600: real time    0.9594
     EDDAV:  cpu time    0.6280: real time    0.6264
       DOS:  cpu time    0.0000: real time    0.0006
    CHARGE:  cpu time    0.0240: real time    0.0225
    MIXING:  cpu time    0.0000: real time    0.0007
    --------------------------------------------
      LOOP:  cpu time    1.6320: real time    1.6346

 eigenvalue-minimisations  :  1908
 total energy-change (2. order) : 0.1124308E-02  (-0.3781117E-03)
 number of electron      64.9999929 magnetization      -0.2238464
 augmentation part        5.2733265 magnetization       0.0035024

 Broyden mixing:
  rms(total) = 0.16578E-01    rms(broyden)= 0.16569E-01
  rms(prec ) = 0.24007E-01
  weight for this iteration     100.00

 eigenvalues of (default mixing * dielectric matrix)
  average eigenvalue GAMMA=   1.1996
  2.4669  1.0981  0.8948  0.8948  0.6435

 Free energy of the ion-electron system (eV)
  ---------------------------------------------------
  alpha Z        PSCENC =       167.07285220
  Ewald energy   TEWEN  =     -2907.62879340
  -Hartree energ DENC   =     -1141.63786108
  -exchange      EXHF   =         0.00000000
  -V(xc)+E(xc)   XCENC  =      -201.11537319
  PAW double counting   =      4614.15611265    -4163.62291679
  entropy T*S    EENTRO =        -0.00790885
  eigenvalues    EBANDS =      -125.48869086
  atomic energy  EATOM  =      3665.43652948
  Solvation  Ediel_sol  =         0.00000000
  ---------------------------------------------------
  free energy    TOTEN  =       -92.83604984 eV

  energy without entropy =      -92.82814099  energy(sigma->0) =      -92.83209542


--------------------------------------------------------------------------------------------------------




----------------------------------------- Iteration    1(  11)  ---------------------------------------


    POTLOK:  cpu time    0.0200: real time    0.0210
    SETDIJ:  cpu time    0.9640: real time    0.9625
     EDDAV:  cpu time    0.6760: real time    0.6775
       DOS:  cpu time    0.0000: real time    0.0006
    CHARGE:  cpu time    0.0240: real time    0.0224
    MIXING:  cpu time    0.0000: real time    0.0007
    --------------------------------------------
      LOOP:  cpu time    1.6840: real time    1.6879

 eigenvalue-minimisations  :  2092
 total energy-change (2. order) :-0.3436536E-03  (-0.1503825E-03)
 number of electron      64.9999929 magnetization      -0.2192625
 augmentation part        5.2724273 magnetization       0.0036430

 Broyden mixing:
  rms(total) = 0.94697E-02    rms(broyden)= 0.94661E-02
  rms(prec ) = 0.13548E-01
  weight for this iteration     100.00

 eigenvalues of (default mixing * dielectric matrix)
  average eigenvalue GAMMA=   1.2506
  2.5488  1.6678  0.9308  0.9308  0.7954  0.6302

 Free energy of the ion-electron system (eV)
  ---------------------------------------------------
  alpha Z        PSCENC =       167.07285220
  Ewald energy   TEWEN  =     -2907.62879340
  -Hartree energ DENC   =     -1141.71879420
  -exchange      EXHF   =         0.00000000
  -V(xc)+E(xc)   XCENC  =      -201.09471472
  PAW double counting   =      4604.06880114    -4153.54213880
  entropy T*S    EENTRO =        -0.00802483
  eigenvalues    EBANDS =      -125.42211037
  atomic energy  EATOM  =      3665.43652948
  Solvation  Ediel_sol  =         0.00000000
  ---------------------------------------------------
  free energy    TOTEN  =       -92.83639350 eV

  energy without entropy =      -92.82836867  energy(sigma->0) =      -92.83238108


--------------------------------------------------------------------------------------------------------




----------------------------------------- Iteration    1(  12)  ---------------------------------------


    POTLOK:  cpu time    0.0200: real time    0.0211
    SETDIJ:  cpu time    0.9640: real time    0.9622
     EDDAV:  cpu time    0.6280: real time    0.6276
       DOS:  cpu time    0.0000: real time    0.0006
    CHARGE:  cpu time    0.0240: real time    0.0225
    MIXING:  cpu time    0.0000: real time    0.0008
    --------------------------------------------
      LOOP:  cpu time    1.6360: real time    1.6380

 eigenvalue-minimisations  :  1896
 total energy-change (2. order) :-0.7880762E-04  (-0.2325788E-04)
 number of electron      64.9999929 magnetization      -0.2144727
 augmentation part        5.2727002 magnetization       0.0020284

 Broyden mixing:
  rms(total) = 0.44732E-02    rms(broyden)= 0.44730E-02
  rms(prec ) = 0.68720E-02
  weight for this iteration     100.00

 eigenvalues of (default mixing * dielectric matrix)
  average eigenvalue GAMMA=   1.2778
  2.5137  2.0775  0.9963  0.9963  0.8651  0.8651  0.6306

 Free energy of the ion-electron system (eV)
  ---------------------------------------------------
  alpha Z        PSCENC =       167.07285220
  Ewald energy   TEWEN  =     -2907.62879340
  -Hartree energ DENC   =     -1141.71736510
  -exchange      EXHF   =         0.00000000
  -V(xc)+E(xc)   XCENC  =      -201.08604279
  PAW double counting   =      4597.77482537    -4147.25152284
  entropy T*S    EENTRO =        -0.00823267
  eigenvalues    EBANDS =      -125.42872256
  atomic energy  EATOM  =      3665.43652948
  Solvation  Ediel_sol  =         0.00000000
  ---------------------------------------------------
  free energy    TOTEN  =       -92.83647230 eV

  energy without entropy =      -92.82823964  energy(sigma->0) =      -92.83235597


--------------------------------------------------------------------------------------------------------




----------------------------------------- Iteration    1(  13)  ---------------------------------------


    POTLOK:  cpu time    0.0200: real time    0.0211
    SETDIJ:  cpu time    0.9600: real time    0.9610
     EDDAV:  cpu time    0.6760: real time    0.6746
       DOS:  cpu time    0.0000: real time    0.0006
    CHARGE:  cpu time    0.0240: real time    0.0224
    MIXING:  cpu time    0.0000: real time    0.0008
    --------------------------------------------
      LOOP:  cpu time    1.6800: real time    1.6839

 eigenvalue-minimisations  :  2088
 total energy-change (2. order) :-0.3955629E-04  (-0.1400865E-04)
 number of electron      64.9999929 magnetization      -0.2164724
 augmentation part        5.2727462 magnetization      -0.0009745

 Broyden mixing:
  rms(total) = 0.17404E-02    rms(broyden)= 0.17383E-02
  rms(prec ) = 0.25895E-02
  weight for this iteration     100.00

 eigenvalues of (default mixing * dielectric matrix)
  average eigenvalue GAMMA=   1.2588
  2.6308  2.3507  0.9177  0.9177  1.0018  0.9123  0.6267  0.7128

 Free energy of the ion-electron system (eV)
  ---------------------------------------------------
  alpha Z        PSCENC =       167.07285220
  Ewald energy   TEWEN  =     -2907.62879340
  -Hartree energ DENC   =     -1141.72520243
  -exchange      EXHF   =         0.00000000
  -V(xc)+E(xc)   XCENC  =      -201.08026868
  PAW double counting   =      4593.26037351    -4142.73980484
  entropy T*S    EENTRO =        -0.00827028
  eigenvalues    EBANDS =      -125.42392742
  atomic energy  EATOM  =      3665.43652948
  Solvation  Ediel_sol  =         0.00000000
  ---------------------------------------------------
  free energy    TOTEN  =       -92.83651186 eV

  energy without entropy =      -92.82824158  energy(sigma->0) =      -92.83237672


--------------------------------------------------------------------------------------------------------




----------------------------------------- Iteration    1(  14)  ---------------------------------------


    POTLOK:  cpu time    0.0200: real time    0.0210
    SETDIJ:  cpu time    0.9640: real time    0.9624
     EDDAV:  cpu time    0.6240: real time    0.6226
       DOS:  cpu time    0.0000: real time    0.0006
    CHARGE:  cpu time    0.0200: real time    0.0226
    MIXING:  cpu time    0.0040: real time    0.0009
    --------------------------------------------
      LOOP:  cpu time    1.6320: real time    1.6333

 eigenvalue-minimisations  :  1880
 total energy-change (2. order) :-0.3232164E-05  (-0.1972142E-05)
 number of electron      64.9999929 magnetization      -0.2166677
 augmentation part        5.2728604 magnetization      -0.0020281

 Broyden mixing:
  rms(total) = 0.80576E-03    rms(broyden)= 0.80558E-03
  rms(prec ) = 0.12891E-02
  weight for this iteration     100.00

 eigenvalues of (default mixing * dielectric matrix)
  average eigenvalue GAMMA=   1.2558
  2.7316  2.3572  1.0325  1.0325  1.0524  0.8863  0.8863  0.6967  0.6266

 Free energy of the ion-electron system (eV)
  ---------------------------------------------------
  alpha Z        PSCENC =       167.07285220
  Ewald energy   TEWEN  =     -2907.62879340
  -Hartree energ DENC   =     -1141.71807470
  -exchange      EXHF   =         0.00000000
  -V(xc)+E(xc)   XCENC  =      -201.07951955
  PAW double counting   =      4592.32459719    -4141.80453342
  entropy T*S    EENTRO =        -0.00829506
  eigenvalues    EBANDS =      -125.43127783
  atomic energy  EATOM  =      3665.43652948
  Solvation  Ediel_sol  =         0.00000000
  ---------------------------------------------------
  free energy    TOTEN  =       -92.83651509 eV

  energy without entropy =      -92.82822003  energy(sigma->0) =      -92.83236756


--------------------------------------------------------------------------------------------------------




----------------------------------------- Iteration    1(  15)  ---------------------------------------


    POTLOK:  cpu time    0.0200: real time    0.0210
    SETDIJ:  cpu time    0.9640: real time    0.9620
     EDDAV:  cpu time    0.6280: real time    0.6286
       DOS:  cpu time    0.0000: real time    0.0006
    --------------------------------------------
      LOOP:  cpu time    1.6120: real time    1.6157

 eigenvalue-minimisations  :  1896
 total energy-change (2. order) :-0.7207573E-06  (-0.4997414E-06)
 number of electron      64.9999929 magnetization      -0.2166677
 augmentation part        5.2728604 magnetization      -0.0020281

 Free energy of the ion-electron system (eV)
  ---------------------------------------------------
  alpha Z        PSCENC =       167.07285220
  Ewald energy   TEWEN  =     -2907.62879340
  -Hartree energ DENC   =     -1141.72090240
  -exchange      EXHF   =         0.00000000
  -V(xc)+E(xc)   XCENC  =      -201.07894941
  PAW double counting   =      4591.89731100    -4141.37764040
  entropy T*S    EENTRO =        -0.00829025
  eigenvalues    EBANDS =      -125.42863264
  atomic energy  EATOM  =      3665.43652948
  Solvation  Ediel_sol  =         0.00000000
  ---------------------------------------------------
  free energy    TOTEN  =       -92.83651581 eV

  energy without entropy =      -92.82822557  energy(sigma->0) =      -92.83237069


--------------------------------------------------------------------------------------------------------




 average (electrostatic) potential at core
  the test charge radii are     1.0714  0.7215
  (the norm of the test charge is              1.0000)
       1 -35.2870       2 -35.0375       3 -35.0224       4 -35.0367       5 -34.1430
       6 -35.0284       7 -34.1209       8 -34.1455       9 -34.1212      10 -69.3625
      11 -69.3539      12 -69.3633      13 -69.2875      14 -69.3536      15 -69.2802
      16 -69.2876      17 -69.2809
 
 
 
 E-fermi :   9.9395     XC(G=0): -11.2020     alpha+bet :-13.9167


 spin component 1

 k-point     1 :       0.0000    0.0000    0.0000
  band No.  band energies     occupation 
      1     -13.7853      1.00000
      2     -12.5913      1.00000
      3     -12.5794      1.00000
      4     -12.5757      1.00000
      5     -12.5727      1.00000
      6     -12.3159      1.00000
      7     -12.3146      1.00000
      8     -12.3140      1.00000
      9      -1.3947      1.00000
     10      -1.0808      1.00000
     11      -1.0805      1.00000
     12      -1.0781      1.00000
     13      -0.8233      1.00000
     14      -0.4957      1.00000
     15      -0.4940      1.00000
     16       1.8355      1.00000
     17       1.8361      1.00000
     18       1.8386      1.00000
     19       2.1806      1.00000
     20       2.1824      1.00000
     21       2.1841      1.00000
     22       2.4431      1.00000
     23       2.4460      1.00000
     24       2.4491      1.00000
     25       2.8222      1.00000
     26       2.8229      1.00000
     27       2.8939      1.00000
     28       2.8959      1.00000
     29       2.8980      1.00000
     30       3.2916      1.00000
     31       3.2944      1.00000
     32       3.2963      1.00000
     33       7.7530      1.00000
     34      10.3833      0.00000
     35      11.0114      0.00000
     36      11.0134      0.00000
     37      11.0369      0.00000
     38      12.0889      0.00000
     39      12.1190      0.00000
     40      12.1432      0.00000
     41      12.4827      0.00000
     42      12.4896      0.00000
     43      13.2626      0.00000
     44      15.6675      0.00000
     45      15.8553      0.00000
     46      15.8701      0.00000
     47      15.8792      0.00000
     48      16.0642      0.00000
     49      16.0702      0.00000
     50      16.4509      0.00000
     51      18.4466      0.00000
     52      18.4604      0.00000

 k-point     2 :       0.5000    0.0000    0.0000
  band No.  band energies     occupation 
      1     -13.2506      1.00000
      2     -13.2096      1.00000
      3     -12.5049      1.00000
      4     -12.4991      1.00000
      5     -12.4927      1.00000
      6     -12.4362      1.00000
      7     -12.4083      1.00000
      8     -12.4065      1.00000
      9      -0.6344      1.00000
     10      -0.5134      1.00000
     11      -0.3137      1.00000
     12      -0.3049      1.00000
     13      -0.2443      1.00000
     14      -0.2372      1.00000
     15       0.6577      1.00000
     16       0.6909      1.00000
     17       1.3050      1.00000
     18       1.3667      1.00000
     19       1.5313      1.00000
     20       1.5410      1.00000
     21       1.5713      1.00000
     22       1.5749      1.00000
     23       2.2186      1.00000
     24       2.2274      1.00000
     25       2.2586      1.00000
     26       2.2687      1.00000
     27       2.4358      1.00000
     28       2.6076      1.00000
     29       2.9817      1.00000
     30       2.9877      1.00000
     31       3.0458      1.00000
     32       3.0512      1.00000
     33       9.9337      0.56537
     34      10.2133      0.00000
     35      11.7920      0.00000
     36      12.1355      0.00000
     37      12.1727      0.00000
     38      12.9750      0.00000
     39      13.0909      0.00000
     40      13.1157      0.00000
     41      13.8605      0.00000
     42      13.8976      0.00000
     43      14.4407      0.00000
     44      14.4724      0.00000
     45      15.0252      0.00000
     46      15.0520      0.00000
     47      15.3904      0.00000
     48      15.8541      0.00000
     49      15.9985      0.00000
     50      16.0390      0.00000
     51      16.2752      0.00000
     52      16.3378      0.00000

 k-point     3 :       0.0000    0.5000    0.0000
  band No.  band energies     occupation 
      1     -13.2563      1.00000
      2     -13.2037      1.00000
      3     -12.5086      1.00000
      4     -12.5011      1.00000
      5     -12.4871      1.00000
      6     -12.4391      1.00000
      7     -12.4072      1.00000
      8     -12.4048      1.00000
      9      -0.6372      1.00000
     10      -0.5111      1.00000
     11      -0.3145      1.00000
     12      -0.3096      1.00000
     13      -0.2400      1.00000
     14      -0.2371      1.00000
     15       0.6576      1.00000
     16       0.6948      1.00000
     17       1.3135      1.00000
     18       1.3623      1.00000
     19       1.5328      1.00000
     20       1.5411      1.00000
     21       1.5707      1.00000
     22       1.5766      1.00000
     23       2.2221      1.00000
     24       2.2280      1.00000
     25       2.2555      1.00000
     26       2.2636      1.00000
     27       2.4320      1.00000
     28       2.6070      1.00000
     29       2.9845      1.00000
     30       2.9894      1.00000
     31       3.0447      1.00000
     32       3.0451      1.00000
     33       9.9403      0.49112
     34      10.2001      0.00000
     35      11.8010      0.00000
     36      12.1303      0.00000
     37      12.1814      0.00000
     38      12.9379      0.00000
     39      13.0979      0.00000
     40      13.1091      0.00000
     41      13.8955      0.00000
     42      13.9237      0.00000
     43      14.4319      0.00000
     44      14.4807      0.00000
     45      15.0025      0.00000
     46      15.0367      0.00000
     47      15.4099      0.00000
     48      15.8731      0.00000
     49      15.9913      0.00000
     50      16.0311      0.00000
     51      16.3050      0.00000
     52      16.3189      0.00000

 k-point     4 :       0.5000    0.5000    0.0000
  band No.  band energies     occupation 
      1     -13.0770      1.00000
      2     -13.0756      1.00000
      3     -12.6520      1.00000
      4     -12.6405      1.00000
      5     -12.6362      1.00000
      6     -12.6289      1.00000
      7     -12.2737      1.00000
      8     -12.2731      1.00000
      9      -0.2656      1.00000
     10      -0.1799      1.00000
     11       0.0300      1.00000
     12       0.0304      1.00000
     13       0.2419      1.00000
     14       0.3606      1.00000
     15       0.5921      1.00000
     16       0.6366      1.00000
     17       0.7938      1.00000
     18       0.8154      1.00000
     19       1.3737      1.00000
     20       1.3817      1.00000
     21       1.3927      1.00000
     22       1.4456      1.00000
     23       1.5564      1.00000
     24       1.5584      1.00000
     25       2.5016      1.00000
     26       2.5032      1.00000
     27       2.5918      1.00000
     28       2.5943      1.00000
     29       2.7338      1.00000
     30       2.7353      1.00000
     31       2.8058      1.00000
     32       2.8981      1.00000
     33      10.7700      0.00000
     34      10.8670      0.00000
     35      11.9866      0.00000
     36      12.3319      0.00000
     37      12.3356      0.00000
     38      12.8539      0.00000
     39      13.6685      0.00000
     40      13.8666      0.00000
     41      13.8821      0.00000
     42      14.2459      0.00000
     43      14.4680      0.00000
     44      14.7927      0.00000
     45      14.8587      0.00000
     46      15.1350      0.00000
     47      15.1792      0.00000
     48      15.1906      0.00000
     49      15.2658      0.00000
     50      15.5555      0.00000
     51      16.3981      0.00000
     52      17.1035      0.00000

 k-point     5 :       0.0000    0.0000    0.5000
  band No.  band energies     occupation 
      1     -13.2507      1.00000
      2     -13.2094      1.00000
      3     -12.5047      1.00000
      4     -12.4985      1.00000
      5     -12.4931      1.00000
      6     -12.4380      1.00000
      7     -12.4086      1.00000
      8     -12.4048      1.00000
      9      -0.6340      1.00000
     10      -0.5127      1.00000
     11      -0.3129      1.00000
     12      -0.3044      1.00000
     13      -0.2451      1.00000
     14      -0.2388      1.00000
     15       0.6569      1.00000
     16       0.6905      1.00000
     17       1.3051      1.00000
     18       1.3658      1.00000
     19       1.5314      1.00000
     20       1.5410      1.00000
     21       1.5709      1.00000
     22       1.5746      1.00000
     23       2.2218      1.00000
     24       2.2254      1.00000
     25       2.2604      1.00000
     26       2.2672      1.00000
     27       2.4363      1.00000
     28       2.6082      1.00000
     29       2.9825      1.00000
     30       2.9880      1.00000
     31       3.0455      1.00000
     32       3.0510      1.00000
     33       9.9324      0.57993
     34      10.2157      0.00000
     35      11.7900      0.00000
     36      12.1368      0.00000
     37      12.1730      0.00000
     38      12.9785      0.00000
     39      13.0962      0.00000
     40      13.1095      0.00000
     41      13.8619      0.00000
     42      13.8871      0.00000
     43      14.4361      0.00000
     44      14.4772      0.00000
     45      15.0295      0.00000
     46      15.0554      0.00000
     47      15.3907      0.00000
     48      15.8512      0.00000
     49      16.0018      0.00000
     50      16.0326      0.00000
     51      16.2820      0.00000
     52      16.3263      0.00000

 k-point     6 :       0.5000    0.0000    0.5000
  band No.  band energies     occupation 
      1     -13.0814      1.00000
      2     -13.0716      1.00000
      3     -12.6501      1.00000
      4     -12.6399      1.00000
      5     -12.6340      1.00000
      6     -12.6333      1.00000
      7     -12.2745      1.00000
      8     -12.2722      1.00000
      9      -0.2676      1.00000
     10      -0.1829      1.00000
     11       0.0303      1.00000
     12       0.0330      1.00000
     13       0.2472      1.00000
     14       0.3554      1.00000
     15       0.5869      1.00000
     16       0.6436      1.00000
     17       0.7947      1.00000
     18       0.8154      1.00000
     19       1.3781      1.00000
     20       1.3806      1.00000
     21       1.3861      1.00000
     22       1.4533      1.00000
     23       1.5581      1.00000
     24       1.5608      1.00000
     25       2.4907      1.00000
     26       2.5058      1.00000
     27       2.5910      1.00000
     28       2.5950      1.00000
     29       2.7323      1.00000
     30       2.7344      1.00000
     31       2.8073      1.00000
     32       2.8964      1.00000
     33      10.7626      0.00000
     34      10.8737      0.00000
     35      11.9769      0.00000
     36      12.3050      0.00000
     37      12.3676      0.00000
     38      12.8384      0.00000
     39      13.7025      0.00000
     40      13.8778      0.00000
     41      13.8864      0.00000
     42      14.2287      0.00000
     43      14.4670      0.00000
     44      14.7857      0.00000
     45      14.8676      0.00000
     46      15.1145      0.00000
     47      15.1813      0.00000
     48      15.1895      0.00000
     49      15.2589      0.00000
     50      15.5839      0.00000
     51      16.4238      0.00000
     52      17.0850      0.00000

 k-point     7 :       0.0000    0.5000    0.5000
  band No.  band energies     occupation 
      1     -13.0799      1.00000
      2     -13.0730      1.00000
      3     -12.6506      1.00000
      4     -12.6402      1.00000
      5     -12.6350      1.00000
      6     -12.6314      1.00000
      7     -12.2744      1.00000
      8     -12.2725      1.00000
      9      -0.2674      1.00000
     10      -0.1830      1.00000
     11       0.0305      1.00000
     12       0.0326      1.00000
     13       0.2472      1.00000
     14       0.3566      1.00000
     15       0.5885      1.00000
     16       0.6429      1.00000
     17       0.7951      1.00000
     18       0.8144      1.00000
     19       1.3710      1.00000
     20       1.3863      1.00000
     21       1.3883      1.00000
     22       1.4507      1.00000
     23       1.5580      1.00000
     24       1.5616      1.00000
     25       2.4952      1.00000
     26       2.4990      1.00000
     27       2.5918      1.00000
     28       2.5949      1.00000
     29       2.7312      1.00000
     30       2.7330      1.00000
     31       2.8102      1.00000
     32       2.8974      1.00000
     33      10.7666      0.00000
     34      10.8702      0.00000
     35      11.9754      0.00000
     36      12.3175      0.00000
     37      12.3558      0.00000
     38      12.8390      0.00000
     39      13.7042      0.00000
     40      13.8737      0.00000
     41      13.8825      0.00000
     42      14.2323      0.00000
     43      14.4705      0.00000
     44      14.7875      0.00000
     45      14.8707      0.00000
     46      15.1178      0.00000
     47      15.1783      0.00000
     48      15.1898      0.00000
     49      15.2584      0.00000
     50      15.5811      0.00000
     51      16.4148      0.00000
     52      17.0977      0.00000

 k-point     8 :       0.5000    0.5000    0.5000
  band No.  band energies     occupation 
      1     -13.2559      1.00000
      2     -13.2041      1.00000
      3     -12.5087      1.00000
      4     -12.5010      1.00000
      5     -12.4872      1.00000
      6     -12.4382      1.00000
      7     -12.4079      1.00000
      8     -12.4049      1.00000
      9      -0.6368      1.00000
     10      -0.5118      1.00000
     11      -0.3141      1.00000
     12      -0.3101      1.00000
     13      -0.2386      1.00000
     14      -0.2380      1.00000
     15       0.6579      1.00000
     16       0.6942      1.00000
     17       1.3123      1.00000
     18       1.3635      1.00000
     19       1.5329      1.00000
     20       1.5393      1.00000
     21       1.5715      1.00000
     22       1.5763      1.00000
     23       2.2212      1.00000
     24       2.2290      1.00000
     25       2.2543      1.00000
     26       2.2651      1.00000
     27       2.4319      1.00000
     28       2.6074      1.00000
     29       2.9844      1.00000
     30       2.9891      1.00000
     31       3.0435      1.00000
     32       3.0473      1.00000
     33       9.9399      0.49578
     34      10.2001      0.00000
     35      11.8008      0.00000
     36      12.1283      0.00000
     37      12.1821      0.00000
     38      12.9398      0.00000
     39      13.0945      0.00000
     40      13.1134      0.00000
     41      13.8889      0.00000
     42      13.9292      0.00000
     43      14.4321      0.00000
     44      14.4800      0.00000
     45      15.0028      0.00000
     46      15.0375      0.00000
     47      15.4080      0.00000
     48      15.8743      0.00000
     49      15.9894      0.00000
     50      16.0346      0.00000
     51      16.2898      0.00000
     52      16.3323      0.00000

 spin component 2

 k-point     1 :       0.0000    0.0000    0.0000
  band No.  band energies     occupation 
      1     -13.8043      1.00000
      2     -12.6086      1.00000
      3     -12.5963      1.00000
      4     -12.5925      1.00000
      5     -12.5895      1.00000
      6     -12.3318      1.00000
      7     -12.3305      1.00000
      8     -12.3297      1.00000
      9      -1.4278      1.00000
     10      -1.1033      1.00000
     11      -1.1030      1.00000
     12      -1.1004      1.00000
     13      -0.8523      1.00000
     14      -0.5174      1.00000
     15      -0.5156      1.00000
     16       1.8180      1.00000
     17       1.8185      1.00000
     18       1.8210      1.00000
     19       2.1670      1.00000
     20       2.1686      1.00000
     21       2.1701      1.00000
     22       2.4269      1.00000
     23       2.4297      1.00000
     24       2.4327      1.00000
     25       2.8089      1.00000
     26       2.8095      1.00000
     27       2.8816      1.00000
     28       2.8835      1.00000
     29       2.8855      1.00000
     30       3.2784      1.00000
     31       3.2807      1.00000
     32       3.2823      1.00000
     33       7.6949      1.00000
     34      10.2648      0.00000
     35      10.9587      0.00000
     36      10.9605      0.00000
     37      10.9855      0.00000
     38      12.0424      0.00000
     39      12.0745      0.00000
     40      12.1005      0.00000
     41      12.4302      0.00000
     42      12.4378      0.00000
     43      13.2131      0.00000
     44      15.6201      0.00000
     45      15.8214      0.00000
     46      15.8358      0.00000
     47      15.8453      0.00000
     48      16.0169      0.00000
     49      16.0223      0.00000
     50      16.3965      0.00000
     51      18.3856      0.00000
     52      18.4042      0.00000

 k-point     2 :       0.5000    0.0000    0.0000
  band No.  band energies     occupation 
      1     -13.2697      1.00000
      2     -13.2266      1.00000
      3     -12.5220      1.00000
      4     -12.5163      1.00000
      5     -12.5100      1.00000
      6     -12.4522      1.00000
      7     -12.4238      1.00000
      8     -12.4221      1.00000
      9      -0.6692      1.00000
     10      -0.5365      1.00000
     11      -0.3356      1.00000
     12      -0.3269      1.00000
     13      -0.2647      1.00000
     14      -0.2578      1.00000
     15       0.6341      1.00000
     16       0.6691      1.00000
     17       1.2819      1.00000
     18       1.3486      1.00000
     19       1.5142      1.00000
     20       1.5234      1.00000
     21       1.5537      1.00000
     22       1.5571      1.00000
     23       2.2032      1.00000
     24       2.2117      1.00000
     25       2.2425      1.00000
     26       2.2526      1.00000
     27       2.4215      1.00000
     28       2.5953      1.00000
     29       2.9682      1.00000
     30       2.9737      1.00000
     31       3.0322      1.00000
     32       3.0378      1.00000
     33       9.8716      0.97261
     34      10.1526      0.00000
     35      11.6902      0.00000
     36      12.0810      0.00000
     37      12.1211      0.00000
     38      12.9297      0.00000
     39      13.0453      0.00000
     40      13.0701      0.00000
     41      13.8122      0.00000
     42      13.8490      0.00000
     43      14.3869      0.00000
     44      14.4310      0.00000
     45      14.9811      0.00000
     46      15.0078      0.00000
     47      15.3459      0.00000
     48      15.8041      0.00000
     49      15.9502      0.00000
     50      15.9912      0.00000
     51      16.2465      0.00000
     52      16.3081      0.00000

 k-point     3 :       0.0000    0.5000    0.0000
  band No.  band energies     occupation 
      1     -13.2753      1.00000
      2     -13.2208      1.00000
      3     -12.5257      1.00000
      4     -12.5182      1.00000
      5     -12.5045      1.00000
      6     -12.4548      1.00000
      7     -12.4228      1.00000
      8     -12.4206      1.00000
      9      -0.6720      1.00000
     10      -0.5350      1.00000
     11      -0.3367      1.00000
     12      -0.3316      1.00000
     13      -0.2603      1.00000
     14      -0.2576      1.00000
     15       0.6348      1.00000
     16       0.6723      1.00000
     17       1.2903      1.00000
     18       1.3443      1.00000
     19       1.5153      1.00000
     20       1.5232      1.00000
     21       1.5532      1.00000
     22       1.5591      1.00000
     23       2.2066      1.00000
     24       2.2123      1.00000
     25       2.2397      1.00000
     26       2.2476      1.00000
     27       2.4182      1.00000
     28       2.5948      1.00000
     29       2.9713      1.00000
     30       2.9757      1.00000
     31       3.0315      1.00000
     32       3.0320      1.00000
     33       9.8777      0.95981
     34      10.1376      0.00000
     35      11.7002      0.00000
     36      12.0746      0.00000
     37      12.1293      0.00000
     38      12.8880      0.00000
     39      13.0532      0.00000
     40      13.0646      0.00000
     41      13.8480      0.00000
     42      13.8755      0.00000
     43      14.3937      0.00000
     44      14.4249      0.00000
     45      14.9586      0.00000
     46      14.9936      0.00000
     47      15.3658      0.00000
     48      15.8227      0.00000
     49      15.9443      0.00000
     50      15.9835      0.00000
     51      16.2765      0.00000
     52      16.2902      0.00000

 k-point     4 :       0.5000    0.5000    0.0000
  band No.  band energies     occupation 
      1     -13.0945      1.00000
      2     -13.0939      1.00000
      3     -12.6690      1.00000
      4     -12.6573      1.00000
      5     -12.6530      1.00000
      6     -12.6455      1.00000
      7     -12.2896      1.00000
      8     -12.2890      1.00000
      9      -0.2963      1.00000
     10      -0.2029      1.00000
     11       0.0093      1.00000
     12       0.0097      1.00000
     13       0.2126      1.00000
     14       0.3385      1.00000
     15       0.5718      1.00000
     16       0.6186      1.00000
     17       0.7736      1.00000
     18       0.7944      1.00000
     19       1.3540      1.00000
     20       1.3627      1.00000
     21       1.3729      1.00000
     22       1.4276      1.00000
     23       1.5390      1.00000
     24       1.5410      1.00000
     25       2.4863      1.00000
     26       2.4879      1.00000
     27       2.5774      1.00000
     28       2.5799      1.00000
     29       2.7200      1.00000
     30       2.7214      1.00000
     31       2.7926      1.00000
     32       2.8854      1.00000
     33      10.6933      0.00000
     34      10.8151      0.00000
     35      11.8924      0.00000
     36      12.2813      0.00000
     37      12.2852      0.00000
     38      12.8127      0.00000
     39      13.6116      0.00000
     40      13.8222      0.00000
     41      13.8375      0.00000
     42      14.1935      0.00000
     43      14.4146      0.00000
     44      14.7505      0.00000
     45      14.8040      0.00000
     46      15.0930      0.00000
     47      15.1316      0.00000
     48      15.1436      0.00000
     49      15.2222      0.00000
     50      15.5099      0.00000
     51      16.3550      0.00000
     52      17.0812      0.00000

 k-point     5 :       0.0000    0.0000    0.5000
  band No.  band energies     occupation 
      1     -13.2698      1.00000
      2     -13.2264      1.00000
      3     -12.5218      1.00000
      4     -12.5157      1.00000
      5     -12.5104      1.00000
      6     -12.4541      1.00000
      7     -12.4240      1.00000
      8     -12.4205      1.00000
      9      -0.6687      1.00000
     10      -0.5356      1.00000
     11      -0.3347      1.00000
     12      -0.3263      1.00000
     13      -0.2656      1.00000
     14      -0.2594      1.00000
     15       0.6332      1.00000
     16       0.6686      1.00000
     17       1.2820      1.00000
     18       1.3477      1.00000
     19       1.5143      1.00000
     20       1.5234      1.00000
     21       1.5535      1.00000
     22       1.5564      1.00000
     23       2.2063      1.00000
     24       2.2098      1.00000
     25       2.2444      1.00000
     26       2.2510      1.00000
     27       2.4220      1.00000
     28       2.5960      1.00000
     29       2.9689      1.00000
     30       2.9739      1.00000
     31       3.0319      1.00000
     32       3.0376      1.00000
     33       9.8704      0.97462
     34      10.1554      0.00000
     35      11.6880      0.00000
     36      12.0826      0.00000
     37      12.1214      0.00000
     38      12.9338      0.00000
     39      13.0505      0.00000
     40      13.0638      0.00000
     41      13.8137      0.00000
     42      13.8383      0.00000
     43      14.3812      0.00000
     44      14.4365      0.00000
     45      14.9854      0.00000
     46      15.0111      0.00000
     47      15.3460      0.00000
     48      15.8014      0.00000
     49      15.9538      0.00000
     50      15.9842      0.00000
     51      16.2536      0.00000
     52      16.2996      0.00000

 k-point     6 :       0.5000    0.0000    0.5000
  band No.  band energies     occupation 
      1     -13.0989      1.00000
      2     -13.0899      1.00000
      3     -12.6671      1.00000
[...]
     34      10.8182      0.00000
     35      11.8805      0.00000
     36      12.2669      0.00000
     37      12.3063      0.00000
     38      12.7973      0.00000
     39      13.6478      0.00000
     40      13.8291      0.00000
     41      13.8384      0.00000
     42      14.1791      0.00000
     43      14.4170      0.00000
     44      14.7451      0.00000
     45      14.8168      0.00000
     46      15.0769      0.00000
     47      15.1307      0.00000
     48      15.1418      0.00000
     49      15.2150      0.00000
     50      15.5352      0.00000
     51      16.3716      0.00000
     52      17.0657      0.00000

 k-point     8 :       0.5000    0.5000    0.5000
  band No.  band energies     occupation 
      1     -13.2749      1.00000
      2     -13.2212      1.00000
      3     -12.5258      1.00000
      4     -12.5182      1.00000
      5     -12.5046      1.00000
      6     -12.4539      1.00000
      7     -12.4234      1.00000
      8     -12.4206      1.00000
      9      -0.6715      1.00000
     10      -0.5358      1.00000
     11      -0.3364      1.00000
     12      -0.3320      1.00000
     13      -0.2590      1.00000
     14      -0.2583      1.00000
     15       0.6351      1.00000
     16       0.6718      1.00000
     17       1.2891      1.00000
     18       1.3454      1.00000
     19       1.5153      1.00000
     20       1.5216      1.00000
     21       1.5541      1.00000
     22       1.5587      1.00000
     23       2.2057      1.00000
     24       2.2133      1.00000
     25       2.2384      1.00000
     26       2.2492      1.00000
     27       2.4181      1.00000
     28       2.5951      1.00000
     29       2.9711      1.00000
     30       2.9755      1.00000
     31       3.0305      1.00000
     32       3.0340      1.00000
     33       9.8773      0.96075
     34      10.1376      0.00000
     35      11.7001      0.00000
     36      12.0726      0.00000
     37      12.1301      0.00000
     38      12.8901      0.00000
     39      13.0498      0.00000
     40      13.0689      0.00000
     41      13.8411      0.00000
     42      13.8813      0.00000
     43      14.3939      0.00000
     44      14.4242      0.00000
     45      14.9589      0.00000
     46      14.9943      0.00000
     47      15.3638      0.00000
     48      15.8239      0.00000
     49      15.9421      0.00000
     50      15.9873      0.00000
     51      16.2622      0.00000
     52      16.3039      0.00000


--------------------------------------------------------------------------------------------------------


 soft charge-density along one line, spin component           1
         0         1         2         3         4         5         6         7         8         9
 total charge-density along one line
 
 soft charge-density along one line, spin component           2
         0         1         2         3         4         5         6         7         8         9
 total charge-density along one line
 
 pseudopotential strength for first ion, spin component:           1
  3.015   9.572  -0.000   0.000  -0.000  -0.000   0.000  -0.000
  9.572  30.239  -0.000   0.000  -0.000  -0.001   0.000  -0.000
 -0.000  -0.000   7.466   0.000  -0.000  10.794   0.000  -0.000
  0.000   0.000   0.000   7.466   0.000   0.000  10.794   0.001
 -0.000  -0.000  -0.000   0.000   7.466  -0.000   0.001  10.794
 -0.000  -0.001  10.794   0.000  -0.000  14.833   0.000  -0.000
  0.000   0.000   0.000  10.794   0.001   0.000  14.833   0.001
 -0.000  -0.000  -0.000   0.001  10.794  -0.000   0.001  14.833
 -0.000  -0.000  -0.000  -0.007  -0.000  -0.000  -0.009  -0.000
  0.000   0.000   0.000  -0.000  -0.007   0.000  -0.000  -0.009
  0.000   0.000  -0.000   0.000   0.000  -0.000   0.000   0.000
  0.000   0.001  -0.007  -0.000   0.000  -0.009  -0.000   0.000
 -0.000  -0.000   0.000   0.000  -0.000   0.000   0.000  -0.000
 pseudopotential strength for first ion, spin component:           2
  3.016   9.573  -0.000   0.000  -0.000  -0.000   0.000  -0.000
  9.573  30.243  -0.000   0.000  -0.000  -0.001   0.000  -0.000
 -0.000  -0.000   7.466   0.000  -0.000  10.795   0.000  -0.000
  0.000   0.000   0.000   7.466   0.000   0.000  10.795   0.001
 -0.000  -0.000  -0.000   0.000   7.466  -0.000   0.001  10.794
 -0.000  -0.001  10.795   0.000  -0.000  14.835   0.000  -0.000
  0.000   0.000   0.000  10.795   0.001   0.000  14.835   0.001
 -0.000  -0.000  -0.000   0.001  10.794  -0.000   0.001  14.835
 -0.000  -0.000  -0.000  -0.007  -0.000  -0.000  -0.009  -0.000
  0.000   0.000   0.000  -0.000  -0.007   0.000  -0.000  -0.009
  0.000   0.000  -0.000   0.000   0.000  -0.000   0.000   0.000
  0.000   0.001  -0.007  -0.000   0.000  -0.009  -0.000   0.000
 -0.000  -0.000   0.000   0.000  -0.000   0.000   0.000  -0.000
 total augmentation occupancy for first ion, spin component:           1
  1.913  -0.083  -0.001   0.000  -0.000  -0.000   0.000   0.000   0.000  -0.000   0.001  -0.001   0.000
 -0.083   0.005  -0.000  -0.000   0.000   0.000  -0.000  -0.000  -0.000   0.000  -0.000   0.000  -0.000
 -0.001  -0.000   0.214  -0.000   0.000  -0.021   0.000  -0.000  -0.000  -0.000  -0.001   0.072  -0.001
  0.000  -0.000  -0.000   0.216  -0.002   0.000  -0.021   0.000   0.071  -0.001  -0.000  -0.000   0.000
 -0.000   0.000   0.000  -0.002   0.215  -0.000   0.000  -0.021   0.001   0.072  -0.000   0.000   0.000
 -0.000   0.000  -0.021   0.000  -0.000   0.002  -0.000   0.000   0.000   0.000   0.000  -0.008   0.000
  0.000  -0.000   0.000  -0.021   0.000  -0.000   0.002  -0.000  -0.008   0.000   0.000   0.000  -0.000
  0.000  -0.000  -0.000   0.000  -0.021   0.000  -0.000   0.002  -0.000  -0.008   0.000  -0.000  -0.000
  0.000  -0.000  -0.000   0.071   0.001   0.000  -0.008  -0.000   0.070   0.000  -0.000  -0.000   0.000
 -0.000   0.000  -0.000  -0.001   0.072   0.000   0.000  -0.008   0.000   0.071  -0.000   0.000   0.000
  0.001  -0.000  -0.001  -0.000  -0.000   0.000   0.000   0.000  -0.000  -0.000   0.034  -0.001   0.000
 -0.001   0.000   0.072  -0.000   0.000  -0.008   0.000  -0.000  -0.000   0.000  -0.001   0.071  -0.001
  0.000  -0.000  -0.001   0.000   0.000   0.000  -0.000  -0.000   0.000   0.000   0.000  -0.001   0.034
 total augmentation occupancy for first ion, spin component:           2
 -0.028  -0.001   0.001  -0.000   0.000  -0.000   0.000   0.000   0.000  -0.000   0.000  -0.000   0.000
 -0.001  -0.000   0.000  -0.000   0.000   0.000  -0.000   0.000   0.000  -0.000   0.000  -0.000   0.000
  0.001   0.000  -0.000  -0.000   0.000   0.000   0.000  -0.000  -0.000   0.000  -0.000   0.000  -0.000
 -0.000  -0.000  -0.000  -0.000  -0.000   0.000   0.000   0.000   0.000  -0.000  -0.000  -0.000   0.000
  0.000   0.000   0.000  -0.000  -0.000  -0.000   0.000   0.000  -0.000   0.000  -0.000   0.000   0.000
 -0.000   0.000   0.000   0.000  -0.000  -0.000   0.000   0.000  -0.000   0.000   0.000  -0.000   0.000
  0.000  -0.000   0.000   0.000   0.000   0.000  -0.000  -0.000  -0.000  -0.000   0.000  -0.000  -0.000
  0.000   0.000  -0.000   0.000   0.000   0.000  -0.000  -0.000  -0.000  -0.000   0.000   0.000  -0.000
  0.000   0.000  -0.000   0.000  -0.000  -0.000  -0.000  -0.000  -0.000  -0.000  -0.000  -0.000  -0.000
 -0.000  -0.000   0.000  -0.000   0.000   0.000  -0.000  -0.000  -0.000  -0.000  -0.000   0.000   0.000
  0.000   0.000  -0.000  -0.000  -0.000   0.000   0.000   0.000  -0.000  -0.000  -0.000   0.000  -0.000
 -0.000  -0.000   0.000  -0.000   0.000  -0.000  -0.000   0.000  -0.000   0.000   0.000  -0.000  -0.000
  0.000   0.000  -0.000   0.000   0.000   0.000  -0.000  -0.000  -0.000   0.000  -0.000  -0.000  -0.000


------------------------ aborting loop because EDIFF is reached ----------------------------------------


 


 total charge     
 
# of ion     s       p       d       tot
----------------------------------------
  1        0.283   0.326   0.154   0.763
  2        0.202   0.205   0.089   0.496
  3        0.199   0.204   0.088   0.492
  4        0.202   0.205   0.089   0.496
  5        0.145   0.170   0.072   0.386
  6        0.200   0.205   0.088   0.492
  7        0.145   0.171   0.072   0.388
  8        0.145   0.170   0.071   0.386
  9        0.145   0.171   0.072   0.388
 10        1.589   3.541   0.000   5.130
 11        1.590   3.542   0.000   5.132
 12        1.589   3.541   0.000   5.130
 13        1.585   3.582   0.000   5.167
 14        1.590   3.542   0.000   5.132
 15        1.585   3.581   0.000   5.166
 16        1.585   3.582   0.000   5.167
 17        1.585   3.581   0.000   5.166
------------------------------------------------
tot       14.364  30.320   0.794  45.478
 


 magnetization (x)
 
# of ion     s       p       d       tot
----------------------------------------
  1       -0.006  -0.000  -0.000  -0.006
  2       -0.007  -0.002  -0.000  -0.009
  3       -0.007  -0.001  -0.000  -0.008
  4       -0.007  -0.002  -0.000  -0.009
  5       -0.001  -0.002  -0.000  -0.003
  6       -0.007  -0.001  -0.000  -0.009
  7       -0.001  -0.002  -0.000  -0.003
  8       -0.001  -0.002  -0.000  -0.003
  9       -0.001  -0.002  -0.000  -0.003
 10       -0.004  -0.003   0.000  -0.007
 11       -0.004  -0.003   0.000  -0.007
 12       -0.004  -0.003   0.000  -0.007
 13       -0.004  -0.005   0.000  -0.008
 14       -0.004  -0.003   0.000  -0.007
 15       -0.004  -0.005   0.000  -0.008
 16       -0.004  -0.005   0.000  -0.009
 17       -0.004  -0.005   0.000  -0.008
------------------------------------------------
tot       -0.067  -0.047  -0.002  -0.116
 
    CHARGE:  cpu time    0.0240: real time    0.0222
    FORLOC:  cpu time    0.0000: real time    0.0015
    FORNL :  cpu time    0.1560: real time    0.1536
    STRESS:  cpu time    0.4600: real time    0.4601
    FORCOR:  cpu time    0.0200: real time    0.0221
    FORHAR:  cpu time    0.0040: real time    0.0032
    MIXING:  cpu time    0.0000: real time    0.0010
    OFIELD:  cpu time    0.0000: real time    0.0000

  FORCE on cell =-STRESS in cart. coord.  units (eV):
  Direction    XX          YY          ZZ          XY          YZ          ZX
  --------------------------------------------------------------------------------------
  Alpha Z   167.07285   167.07285   167.07285
  Ewald    -969.90145  -969.77052  -967.96299     0.10718    -0.10961    -0.97195
  Hartree   380.55442   380.54598   380.62470     0.00589    -0.00794    -0.08442
  E(xc)    -297.07679  -297.08067  -297.10484    -0.00182    -0.00035     0.00286
  Local    -335.93251  -336.01288  -337.68394    -0.13211     0.15320     1.25736
  n-local  -131.79825  -131.77983  -131.61537     0.01137    -0.00262    -0.01491
  augment    53.87416    53.87367    53.87016     0.00136     0.00031    -0.00611
  Kinetic  1148.36980  1148.38318  1148.42173     0.00837     0.01044     0.00420
  Fock        0.00000     0.00000     0.00000     0.00000     0.00000     0.00000
  -------------------------------------------------------------------------------------
  Total      15.16223    15.23177    15.62230     0.00024     0.04343     0.18702
  in kB     158.57314   159.30042   163.38479     0.00247     0.45417     1.95594
  external pressure =      160.42 kB  Pullay stress =        0.00 kB


 VOLUME and BASIS-vectors are now :
 -----------------------------------------------------------------------------
  energy-cutoff  :      400.00
  volume of cell :      153.19
      direct lattice vectors                 reciprocal lattice vectors
     0.000000000  4.246893000  4.246893000    -0.117733129  0.117733129  0.117733129
     4.246893000  0.000000000  4.246893000     0.117733129 -0.117733129  0.117733129
     4.246893000  4.246893000  0.000000000     0.117733129  0.117733129 -0.117733129

  length of vectors
     6.006013679  6.006013679  6.006013679     0.203919761  0.203919761  0.203919761


 FORCES acting on ions
    electron-ion (+dipol)            ewald-force                    non-local-force                 convergence-correction
 -----------------------------------------------------------------------------------------------
   0.569E-02 0.543E+00 -.149E-01   -.131E-02 -.525E+00 0.872E-02   0.139E-01 0.675E-02 -.819E-02   0.295E-05 0.492E-05 -.717E-05
   -.624E+01 -.679E+01 -.727E+01   0.469E+01 0.512E+01 0.556E+01   0.154E+01 0.168E+01 0.174E+01   -.468E-03 -.481E-03 -.478E-03
   0.649E+01 0.654E+01 -.632E+01   -.485E+01 -.491E+01 0.474E+01   -.165E+01 -.166E+01 0.158E+01   0.483E-03 0.471E-03 -.474E-03
   0.653E+01 -.648E+01 0.735E+01   -.492E+01 0.487E+01 -.562E+01   -.160E+01 0.160E+01 -.176E+01   0.484E-03 -.477E-03 0.463E-03
   0.749E+00 -.430E+00 -.431E+00   -.679E+00 0.425E+00 0.394E+00   -.735E-01 0.750E-02 0.410E-01   0.420E-03 -.431E-03 -.426E-03
   -.674E+01 0.634E+01 0.632E+01   0.505E+01 -.473E+01 -.474E+01   0.171E+01 -.161E+01 -.158E+01   -.476E-03 0.485E-03 0.478E-03
   -.250E+00 0.733E+00 -.348E+00   0.262E+00 -.678E+00 0.329E+00   -.208E-01 -.908E-01 0.309E-01   -.433E-03 0.417E-03 -.421E-03
   -.705E+00 -.582E+00 0.489E+00   0.643E+00 0.558E+00 -.447E+00   0.616E-01 0.447E-01 -.572E-01   -.423E-03 -.414E-03 0.422E-03
   0.127E+00 0.755E+00 0.247E+00   -.156E+00 -.690E+00 -.241E+00   0.477E-01 -.828E-01 -.110E-01   0.415E-03 0.422E-03 0.438E-03
   -.657E+01 -.619E+01 -.655E+01   0.945E+01 0.928E+01 0.962E+01   -.287E+01 -.308E+01 -.307E+01   0.300E-02 0.319E-02 0.306E-02
   0.577E+01 0.673E+01 -.498E+01   -.872E+01 -.971E+01 0.775E+01   0.296E+01 0.298E+01 -.279E+01   -.310E-02 -.299E-02 0.300E-02
   0.677E+01 -.602E+01 0.650E+01   -.971E+01 0.897E+01 -.958E+01   0.294E+01 -.295E+01 0.309E+01   -.305E-02 0.313E-02 -.305E-02
   0.499E+01 -.553E+01 -.529E+01   -.790E+01 0.856E+01 0.842E+01   0.290E+01 -.301E+01 -.312E+01   -.166E-02 0.157E-02 0.170E-02
   -.596E+01 0.669E+01 0.501E+01   0.899E+01 -.964E+01 -.777E+01   -.305E+01 0.295E+01 0.279E+01   0.311E-02 -.301E-02 -.305E-02
   -.549E+01 0.477E+01 -.578E+01   0.852E+01 -.778E+01 0.870E+01   -.303E+01 0.301E+01 -.291E+01   0.153E-02 -.164E-02 0.154E-02
   -.492E+01 -.547E+01 0.528E+01   0.789E+01 0.847E+01 -.840E+01   -.296E+01 -.299E+01 0.312E+01   0.167E-02 0.155E-02 -.165E-02
   0.545E+01 0.470E+01 0.580E+01   -.855E+01 -.759E+01 -.873E+01   0.310E+01 0.288E+01 0.291E+01   -.153E-02 -.163E-02 -.156E-02
 -----------------------------------------------------------------------------------------------
   -.797E-02 0.316E+00 0.451E-03   0.160E-13 -.888E-14 -.195E-13   0.813E-02 -.309E+00 -.528E-02   -.117E-04 0.156E-03 -.363E-05
 
 
 POSITION                                       TOTAL-FORCE (eV/Angst)
 -----------------------------------------------------------------------------------
      1.05249      1.05346      1.05386         0.018250      0.023772     -0.014076
      8.33029      8.32487      8.30196        -0.015220      0.013065      0.032933
      6.53041      6.54257      8.32548        -0.017051     -0.023097      0.007402
      6.52708      8.33459      6.54413         0.009840     -0.011020     -0.041390
      4.24052      2.12930      2.11270        -0.003435      0.001942      0.004228
      8.31100      6.53816      6.51862         0.022885     -0.001201      0.004294
      6.36350      4.25595      6.35580        -0.009203     -0.035591      0.011916
      2.11511      2.12602      4.23878        -0.001645      0.019393     -0.014448
      4.23538      4.25490      4.24074         0.018907     -0.018279     -0.003875
      2.12908      2.13761      2.12377         0.011301      0.010821     -0.000391
      4.22324      4.23876      2.14093         0.007496     -0.005067     -0.028132
      4.22871      2.14018      4.22717        -0.011111      0.004853      0.006448
      6.35201      4.26929      4.26174        -0.012735      0.017493      0.010721
      2.12697      4.23690      4.21125        -0.021664     -0.000856      0.023394
      4.25849      6.35577      4.25120        -0.000039     -0.002556      0.007341
      4.25448      4.26752      6.33563         0.005554      0.012020      0.002534
      6.33984      6.36056      6.34585        -0.002131     -0.005691     -0.008898
 -----------------------------------------------------------------------------------
    total drift:                                0.000145      0.007552     -0.004833


--------------------------------------------------------------------------------------------------------



  FREE ENERGIE OF THE ION-ELECTRON SYSTEM (eV)
  ---------------------------------------------------
  free  energy   TOTEN  =       -92.83651581 eV

  energy  without entropy=      -92.82822557  energy(sigma->0) =      -92.83237069
 


--------------------------------------------------------------------------------------------------------


    POTLOK:  cpu time    0.9840: real time    0.9826


--------------------------------------------------------------------------------------------------------




--------------------------------------------------------------------------------------------------------


  
 reached required accuracy - stopping structural energy minimisation
     LOOP+:  cpu time   23.2280: real time   23.2944
    4ORBIT:  cpu time    0.0000: real time    0.0000
 


 total charge     
 
# of ion     s       p       d       tot
----------------------------------------
  1        0.283   0.326   0.154   0.763
  2        0.202   0.205   0.089   0.496
  3        0.199   0.204   0.088   0.492
  4        0.202   0.205   0.089   0.496
  5        0.145   0.170   0.072   0.386
  6        0.200   0.205   0.088   0.492
  7        0.145   0.171   0.072   0.388
  8        0.145   0.170   0.071   0.386
  9        0.145   0.171   0.072   0.388
 10        1.589   3.541   0.000   5.130
 11        1.590   3.542   0.000   5.132
 12        1.589   3.541   0.000   5.130
 13        1.585   3.582   0.000   5.167
 14        1.590   3.542   0.000   5.132
 15        1.585   3.581   0.000   5.166
 16        1.585   3.582   0.000   5.167
 17        1.585   3.581   0.000   5.166
------------------------------------------------
tot       14.364  30.320   0.794  45.478
 


 magnetization (x)
 
# of ion     s       p       d       tot
----------------------------------------
  1       -0.006  -0.000  -0.000  -0.006
  2       -0.007  -0.002  -0.000  -0.009
  3       -0.007  -0.001  -0.000  -0.008
  4       -0.007  -0.002  -0.000  -0.009
  5       -0.001  -0.002  -0.000  -0.003
  6       -0.007  -0.001  -0.000  -0.009
  7       -0.001  -0.002  -0.000  -0.003
  8       -0.001  -0.002  -0.000  -0.003
  9       -0.001  -0.002  -0.000  -0.003
 10       -0.004  -0.003   0.000  -0.007
 11       -0.004  -0.003   0.000  -0.007
 12       -0.004  -0.003   0.000  -0.007
 13       -0.004  -0.005   0.000  -0.008
 14       -0.004  -0.003   0.000  -0.007
 15       -0.004  -0.005   0.000  -0.008
 16       -0.004  -0.005   0.000  -0.009
 17       -0.004  -0.005   0.000  -0.008
------------------------------------------------
tot       -0.067  -0.047  -0.002  -0.116
 

 total amount of memory used by VASP on root node    36475. kBytes
========================================================================

   base      :      30000. kBytes
   nonlr-proj:       1351. kBytes
   fftplans  :        708. kBytes
   grid      :       1766. kBytes
   one-center:         81. kBytes
   wavefun   :       2569. kBytes
 
  
  
 General timing and accounting informations for this job:
 ========================================================
  
                  Total CPU time used (sec):       24.488
                            User time (sec):       24.280
                          System time (sec):        0.208
                         Elapsed time (sec):       24.773
  
                   Maximum memory used (kb):       64780.
                   Average memory used (kb):           0.
  
                          Minor page faults:        16989
                          Major page faults:            7
                 Voluntary context switches:         1603
