 vasp.5.4.1 05Feb16 (build Mar 31 2016 13:39:20) complex                        
  
 executed on           IFC91_ompi date 2018.04.12  14:17:26
 running on   36 total cores
 distrk:  each k-point on   36 cores,    1 groups
 distr:  one band on NCORES_PER_BAND=   9 cores,    4 groups


--------------------------------------------------------------------------------------------------------


 INCAR:
 POTCAR:    PAW_PBE Mg 13Apr2007                  
 POTCAR:    PAW_PBE O 08Apr2002                   
 POTCAR:    PAW_PBE Mg 13Apr2007                  
   VRHFIN =Mg: s2p0                                                             
   LEXCH  = PE                                                                  
   EATOM  =    23.0369 eV,    1.6932 Ry                                         
                                                                                
   TITEL  = PAW_PBE Mg 13Apr2007                                                
   LULTRA =        F    use ultrasoft PP ?                                      
   IUNSCR =        1    unscreen: 0-lin 1-nonlin 2-no                           
   RPACOR =    1.500    partial core radius                                     
   POMASS =   24.305; ZVAL   =    2.000    mass and valenz                      
   RCORE  =    2.000    outmost cutoff radius                                   
   RWIGS  =    2.880; RWIGS  =    1.524    wigner-seitz radius (au A)           
   ENMAX  =  126.143; ENMIN  =   94.607 eV                                      
   RCLOC  =    1.506    cutoff for local pot                                    
   LCOR   =        T    correct aug charges                                     
   LPAW   =        T    paw PP                                                  
   EAUG   =  454.734                                                            
   DEXC   =    0.000                                                            
   RMAX   =    2.045    core radius for proj-oper                               
   RAUG   =    1.300    factor for augmentation sphere                          
   RDEP   =    2.025    radius for radial grids                                 
   RDEPT  =    1.942    core radius for aug-charge                              
                                                                                
   Atomic configuration                                                         
    6 entries                                                                   
     n  l   j            E        occ.                                          
     1  0  0.50     -1259.6230   2.0000                                         
     2  0  0.50       -79.8442   2.0000                                         
     2  1  1.50       -46.6121   6.0000                                         
     3  0  0.50        -4.7055   2.0000                                         
     3  1  0.50        -1.3660   0.0000                                         
     3  2  1.50        -1.3606   0.0000                                         
   Description                                                                  
     l       E           TYP  RCUT    TYP  RCUT                                 
     0     -4.7054661     23  2.000                                             
     0     27.2116520     23  2.000                                             
     1      1.3605826     23  2.000                                             
     1     27.2116520     23  2.000                                             
     2     -1.3605826     23  2.000                                             
  local pseudopotential read in
  partial core-charges read in
  partial kinetic energy density read in
  atomic valenz-charges read in
  non local Contribution for L=           0  read in
    real space projection operators read in
  non local Contribution for L=           0  read in
    real space projection operators read in
  non local Contribution for L=           1  read in
    real space projection operators read in
  non local Contribution for L=           1  read in
    real space projection operators read in
  non local Contribution for L=           2  read in
    real space projection operators read in
    PAW grid and wavefunctions read in
 
   number of l-projection  operators is LMAX  =           5
   number of lm-projection operators is LMMAX =          13
 
 POTCAR:    PAW_PBE O 08Apr2002                   
   VRHFIN =O: s2p4                                                              
   LEXCH  = PE                                                                  
   EATOM  =   432.3788 eV,   31.7789 Ry                                         
                                                                                
   TITEL  = PAW_PBE O 08Apr2002                                                 
   LULTRA =        F    use ultrasoft PP ?                                      
   IUNSCR =        1    unscreen: 0-lin 1-nonlin 2-no                           
   RPACOR =    1.200    partial core radius                                     
   POMASS =   16.000; ZVAL   =    6.000    mass and valenz                      
   RCORE  =    1.520    outmost cutoff radius                                   
   RWIGS  =    1.550; RWIGS  =    0.820    wigner-seitz radius (au A)           
   ENMAX  =  400.000; ENMIN  =  300.000 eV                                      
   ICORE  =        2    local potential                                         
   LCOR   =        T    correct aug charges                                     
   LPAW   =        T    paw PP                                                  
   EAUG   =  605.392                                                            
   DEXC   =    0.000                                                            
   RMAX   =    1.553    core radius for proj-oper                               
   RAUG   =    1.300    factor for augmentation sphere                          
   RDEP   =    1.550    radius for radial grids                                 
   RDEPT  =    1.329    core radius for aug-charge                              
                                                                                
   Atomic configuration                                                         
    4 entries                                                                   
     n  l   j            E        occ.                                          
     1  0  0.50      -514.6923   2.0000                                         
     2  0  0.50       -23.9615   2.0000                                         
     2  1  0.50        -9.0305   4.0000                                         
     3  2  1.50        -9.5241   0.0000                                         
   Description                                                                  
     l       E           TYP  RCUT    TYP  RCUT                                 
     0    -23.9615318     23  1.200                                             
     0     -9.5240782     23  1.200                                             
     1     -9.0304911     23  1.520                                             
     1      8.1634956     23  1.520                                             
     2     -9.5240782      7  1.500                                             
  local pseudopotential read in
  partial core-charges read in
  partial kinetic energy density read in
  kinetic energy density of atom read in
  atomic valenz-charges read in
  non local Contribution for L=           0  read in
    real space projection operators read in
  non local Contribution for L=           0  read in
    real space projection operators read in
  non local Contribution for L=           1  read in
    real space projection operators read in
  non local Contribution for L=           1  read in
    real space projection operators read in
    PAW grid and wavefunctions read in
 
   number of l-projection  operators is LMAX  =           4
   number of lm-projection operators is LMMAX =           8
 
 Optimization of the real space projectors (new method)

 maximal supplied QI-value         = 18.90
 optimisation between [QCUT,QGAM] = [ 10.20, 20.41] = [ 29.16,116.64] Ry 
 Optimized for a Real-space Cutoff    1.30 Angstroem

   l    n(q)    QCUT    max X(q) W(low)/X(q) W(high)/X(q)  e(spline) 
   0      8    10.205    28.265    0.22E-03    0.17E-03    0.53E-07
   0      8    10.205    10.429    0.17E-03    0.15E-03    0.43E-07
   1      7    10.205    13.073    0.71E-04    0.41E-03    0.76E-07
   1      7    10.205     9.625    0.71E-04    0.33E-03    0.63E-07
   2      7    10.205     4.652    0.24E-03    0.41E-03    0.55E-07
 Optimization of the real space projectors (new method)

 maximal supplied QI-value         = 24.76
 optimisation between [QCUT,QGAM] = [ 10.15, 20.30] = [ 28.85,115.39] Ry 
 Optimized for a Real-space Cutoff    1.38 Angstroem

   l    n(q)    QCUT    max X(q) W(low)/X(q) W(high)/X(q)  e(spline) 
   0      8    10.150    20.381    0.22E-03    0.32E-03    0.29E-06
   0      8    10.150    15.268    0.23E-03    0.35E-03    0.30E-06
   1      8    10.150     5.964    0.46E-03    0.53E-03    0.21E-06
   1      8    10.150     5.382    0.38E-03    0.45E-03    0.19E-06
  PAW_PBE Mg 13Apr2007                  :
 energy of atom  1       EATOM=  -23.0369
 kinetic energy error for atom=    0.0001 (will be added to EATOM!!)
  PAW_PBE O 08Apr2002                   :
 energy of atom  2       EATOM= -432.3788
 kinetic energy error for atom=    0.1156 (will be added to EATOM!!)
 
 
 POSCAR: Mg9 O8                                  
  positions in direct lattice
  velocities in cartesian coordinates
 exchange correlation table for  LEXCH =        8
   RHO(1)=    0.500       N(1)  =     2000
   RHO(2)=  100.500       N(2)  =     4000
 


--------------------------------------------------------------------------------------------------------


 ion  position               nearest neighbor table
   1  0.124  0.124  0.124-  11 1.86  14 1.86  12 1.86  10 1.86   2 2.13   4 2.13   6 2.13   3 2.13
                             5 3.51   7 3.51   8 3.51   9 3.52   9 3.52   8 3.52   7 3.52   8 3.53
   2  0.977  0.978  0.983-  16 1.98  15 1.99  13 2.00   1 2.13  14 2.30  12 2.32  11 2.34   4 2.52
                             6 2.52   3 2.53   7 3.00   8 3.01   5 3.01   5 3.02   8 3.03   7 3.03
   3  0.982  0.979  0.559-  13 1.99  15 1.99  17 2.00   1 2.13  10 2.30  12 2.31  14 2.32   4 2.53
                             2 2.53   6 2.53   7 3.01   5 3.01   9 3.01   9 3.02   5 3.02   7 3.02
   4  0.983  0.558  0.979-  13 1.98  17 1.99  16 2.00   1 2.13  10 2.31  11 2.31  14 2.34   2 2.52
                             3 2.53   6 2.53   8 3.00   9 3.01   5 3.02   5 3.02   9 3.03   8 3.03
   5  1.000  0.497  0.501-  17 2.10  16 2.11  15 2.11  11 2.11  10 2.11  12 2.12   9 3.00   8 3.00
                             7 3.00   7 3.01   8 3.01   3 3.01   9 3.01   2 3.01   4 3.02   4 3.02
   6  0.559  0.976  0.981-  17 1.99  16 1.99  15 2.00   1 2.13  12 2.30  11 2.31  10 2.32   2 2.52
                             4 2.53   3 2.53   8 3.00   7 3.01   9 3.01   9 3.02   7 3.03   8 3.03
   7  0.500  0.996  0.502-  13 2.09  17 2.10  14 2.11  16 2.11  11 2.11  10 2.12   8 2.99   9 3.00
                             5 3.00   2 3.00   6 3.01   5 3.01   9 3.01   3 3.01   8 3.01   3 3.02
   8  0.500  0.498  0.000-  13 2.10  15 2.10  17 2.11  14 2.11  12 2.11  10 2.12   7 2.99   5 3.00
                             9 3.00   4 3.00   6 3.00   2 3.01   9 3.01   5 3.01   7 3.01   2 3.03
   9  0.502  0.497  0.500-  16 2.09  15 2.10  11 2.10  14 2.11  13 2.11  12 2.12   5 3.00   7 3.00
                             8 3.00   8 3.01   7 3.01   4 3.01   5 3.01   6 3.01   3 3.01   6 3.02
  10  0.251  0.249  0.252-   1 1.86   5 2.11   8 2.12   7 2.12   3 2.30   4 2.31   6 2.32
  11  0.254  0.250  0.745-   1 1.86   9 2.10   7 2.11   5 2.11   6 2.31   4 2.31   2 2.34
  12  0.252  0.744  0.252-   1 1.86   8 2.11   5 2.12   9 2.12   6 2.30   3 2.31   2 2.32
  13  0.257  0.747  0.749-   4 1.98   3 1.99   2 2.00   7 2.09   8 2.10   9 2.11
  14  0.745  0.248  0.253-   1 1.86   7 2.11   9 2.11   8 2.11   2 2.30   3 2.32   4 2.34
  15  0.747  0.254  0.749-   2 1.99   3 1.99   6 2.00   9 2.10   8 2.10   5 2.11
  16  0.747  0.744  0.258-   2 1.98   6 1.99   4 2.00   9 2.09   5 2.11   7 2.11
  17  0.749  0.744  0.748-   6 1.99   4 1.99   3 2.00   5 2.10   7 2.10   8 2.11
 
  LATTYP: Found a face centered cubic cell.
 ALAT       =     8.4937860000
  
  Lattice vectors:
  
 A1 = (   0.0000000000,   4.2468930000,   4.2468930000)
 A2 = (   4.2468930000,   0.0000000000,   4.2468930000)
 A3 = (   4.2468930000,   4.2468930000,   0.0000000000)


Analysis of symmetry for initial positions (statically):
=====================================================================
 Subroutine PRICEL returns:
 Original cell was already a primitive cell.
 

 Routine SETGRP: Setting up the symmetry group for a 
 face centered cubic supercell.


 Subroutine GETGRP returns: Found  1 space group operations
 (whereof  1 operations were pure point group operations)
 out of a pool of 48 trial point group operations.


The static configuration has the point symmetry C_1 .


Analysis of symmetry for dynamics (positions and initial velocities):
=====================================================================
 Subroutine PRICEL returns:
 Original cell was already a primitive cell.
 

 Routine SETGRP: Setting up the symmetry group for a 
 face centered cubic supercell.


 Subroutine GETGRP returns: Found  1 space group operations
 (whereof  1 operations were pure point group operations)
 out of a pool of 48 trial point group operations.


The dynamic configuration has the point symmetry C_1 .


Analysis of structural, dynamic, and magnetic symmetry:
=====================================================================
 Subroutine PRICEL returns:
 Original cell was already a primitive cell.
 

 Routine SETGRP: Setting up the symmetry group for a 
 face centered cubic supercell.


 Subroutine GETGRP returns: Found  1 space group operations
 (whereof  1 operations were pure point group operations)
 out of a pool of 48 trial point group operations.


The magnetic configuration has the point symmetry C_1 .


 Subroutine INISYM returns: Found  1 space group operations
 (whereof  1 operations are pure point group operations),
 and found     1 'primitive' translations

 
 
 KPOINTS: k-point mesh                            

Automatic generation of k-mesh.
Space group operators:
 irot       det(A)        alpha          n_x          n_y          n_z        tau_x        tau_y        tau_z
    1     1.000000     0.000000     1.000000     0.000000     0.000000     0.000000     0.000000     0.000000
 
 Subroutine IBZKPT returns following result:
 ===========================================
 
 Found     16 irreducible k-points:
 
 Following reciprocal coordinates:
            Coordinates               Weight
  0.250000  0.250000  0.250000     24.000000
  0.250000  0.000000  0.000000     24.000000
  0.000000  0.000000 -0.250000     24.000000
  0.000000  0.250000  0.000000     24.000000
 -0.250000  0.250000  0.250000     24.000000
  0.250000 -0.250000  0.250000     24.000000
  0.250000  0.250000 -0.250000     24.000000
  0.250000  0.000000  0.500000     24.000000
 -0.250000  0.500000  0.500000     24.000000
  0.250000  0.500000  0.000000     24.000000
  0.000000  0.500000 -0.250000     24.000000
  0.500000  0.000000 -0.250000     24.000000
  0.500000  0.500000  0.250000     24.000000
  0.500000 -0.250000  0.500000     24.000000
  0.000000  0.250000  0.500000     24.000000
  0.500000  0.250000  0.000000     24.000000
 
 Following cartesian coordinates:
            Coordinates               Weight
  0.029433  0.029433  0.029433     24.000000
 -0.029433  0.029433  0.029433     24.000000
 -0.029433 -0.029433  0.029433     24.000000
  0.029433 -0.029433  0.029433     24.000000
  0.088300 -0.029433 -0.029433     24.000000
 -0.029433  0.088300 -0.029433     24.000000
 -0.029433 -0.029433  0.088300     24.000000
  0.029433  0.088300 -0.029433     24.000000
  0.147166 -0.029433 -0.029433     24.000000
  0.029433 -0.029433  0.088300     24.000000
  0.029433 -0.088300  0.088300     24.000000
 -0.088300  0.029433  0.088300     24.000000
  0.029433  0.029433  0.088300     24.000000
 -0.029433  0.147166 -0.029433     24.000000
  0.088300  0.029433 -0.029433     24.000000
 -0.029433  0.029433  0.088300     24.000000
 


--------------------------------------------------------------------------------------------------------




 Dimension of arrays:
   k-points           NKPTS =     16   k-points in BZ     NKDIM =     16   number of bands    NBANDS=     52
   number of dos      NEDOS =    301   number of ions     NIONS =     17
   non local maximal  LDIM  =      5   non local SUM 2l+1 LMDIM =     13
   total plane-waves  NPLWV =  27000
   max r-space proj   IRMAX =   1992   max aug-charges    IRDMAX=   7686
   dimension x,y,z NGX =    30 NGY =   30 NGZ =   30
   dimension x,y,z NGXF=    60 NGYF=   60 NGZF=   60
   support grid    NGXF=    60 NGYF=   60 NGZF=   60
   ions per type =               9   8
 NGX,Y,Z   is equivalent  to a cutoff of   8.30,  8.30,  8.30 a.u.
 NGXF,Y,Z  is equivalent  to a cutoff of  16.61, 16.61, 16.61 a.u.


 I would recommend the setting:
   dimension x,y,z NGX =    29 NGY =   29 NGZ =   29
 SYSTEM =  unknown system                          
 POSCAR =  Mg9 O8                                  

 Startparameter for this run:
   NWRITE =      2    write-flag & timer
   PREC   = n         normal or accurate (medium, high low for compatibility)
   ISTART =      0    job   : 0-new  1-cont  2-samecut
   ICHARG =      2    charge: 1-file 2-atom 10-const
   ISPIN  =      2    spin polarized calculation?
   LNONCOLLINEAR =      F non collinear calculations
   LSORBIT =      F    spin-orbit coupling
   INIWAV =      1    electr: 0-lowe 1-rand  2-diag
   LASPH  =      T    aspherical Exc in radial PAW
   METAGGA=      F    non-selfconsistent MetaGGA calc.

 Electronic Relaxation 1
   ENCUT  =  400.0 eV  29.40 Ry    5.42 a.u.   9.79  9.79  9.79*2*pi/ulx,y,z
   ENINI  =  400.0     initial cutoff
   ENAUG  =  605.4 eV  augmentation charge cutoff
   NELM   =    100;   NELMIN=  4; NELMDL=  0     # of ELM steps 
   EDIFF  = 0.1E-05   stopping-criterion for ELM
   LREAL  =      T    real-space projection
   NLSPLINE    = F    spline interpolate recip. space projectors
   LCOMPAT=      F    compatible to vasp.4.4
   GGA_COMPAT  = T    GGA compatible to vasp.4.4-vasp.4.6
   LMAXPAW     = -100 max onsite density
   LMAXMIX     =    2 max onsite mixed and CHGCAR
   VOSKOWN=      0    Vosko Wilk Nusair interpolation
   ROPT   =   -0.00050  -0.00050
 Ionic relaxation
   EDIFFG = -.5E-01   stopping-criterion for IOM
   NSW    =     20    number of steps for IOM
   NBLOCK =      1;   KBLOCK =     20    inner block; outer block 
   IBRION =      2    ionic relax: 0-MD 1-quasi-New 2-CG
   NFREE  =      1    steps in history (QN), initial steepest desc. (CG)
   ISIF   =      2    stress and relaxation
   IWAVPR =     11    prediction:  0-non 1-charg 2-wave 3-comb
   ISYM   =      2    0-nonsym 1-usesym 2-fastsym
   LCORR  =      T    Harris-Foulkes like correction to forces

   POTIM  = 0.5000    time-step for ionic-motion
   TEIN   =    0.0    initial temperature
   TEBEG  =    0.0;   TEEND  =   0.0 temperature during run
   SMASS  =  -3.00    Nose mass-parameter (am)
   estimated Nose-frequenzy (Omega)   =  0.10E-29 period in steps =****** mass=  -0.824E-27a.u.
   SCALEE = 1.0000    scale energy and forces
   NPACO  =    256;   APACO  = 16.0  distance and # of slots for P.C.
   PSTRESS=    0.0 pullay stress

  Mass of Ions in am
   POMASS =  24.30 16.00
  Ionic Valenz
   ZVAL   =   2.00  6.00
  Atomic Wigner-Seitz radii
   RWIGS  =  -1.00 -1.00
  virtual crystal weights 
   VCA    =   1.00  1.00
   NELECT =      65.0000    total number of electrons
   NUPDOWN=      -1.0000    fix difference up-down

 DOS related values:
   EMIN   =  10.00;   EMAX   =-10.00  energy-range for DOS
   EFERMI =   0.00
   ISMEAR =     0;   SIGMA  =   0.05  broadening in eV -4-tet -1-fermi 0-gaus

 Electronic relaxation 2 (details)
   IALGO  =     38    algorithm
   LDIAG  =      T    sub-space diagonalisation (order eigenvalues)
   LSUBROT=      F    optimize rotation matrix (better conditioning)
   TURBO    =      0    0=normal 1=particle mesh
   IRESTART =      0    0=no restart 2=restart with 2 vectors
   NREBOOT  =      0    no. of reboots
   NMIN     =      0    reboot dimension
   EREF     =   0.00    reference energy to select bands
   IMIX   =      4    mixing-type and parameters
     AMIX     =   0.40;   BMIX     =  1.00
     AMIX_MAG =   1.60;   BMIX_MAG =  1.00
     AMIN     =   0.10
     WC   =   100.;   INIMIX=   1;  MIXPRE=   1;  MAXMIX= -45

 Intra band minimization:
   WEIMIN = 0.0010     energy-eigenvalue tresh-hold
   EBREAK =  0.48E-08  absolut break condition
   DEPER  =   0.30     relativ break condition  

   TIME   =   0.40     timestep for ELM

  volume/ion in A,a.u.               =       9.01        60.81
  Fermi-wavevector in a.u.,A,eV,Ry     =   1.230169  2.324682 20.589897  1.513315
  Thomas-Fermi vector in A             =   2.365028
 
 Write flags
   LWAVE  =      F    write WAVECAR
   LCHARG =      F    write CHGCAR
   LVTOT  =      F    write LOCPOT, total local potential
   LVHAR  =      F    write LOCPOT, Hartree potential only
   LELF   =      F    write electronic localiz. function (ELF)
   LORBIT =     12    0 simple, 1 ext, 2 COOP (PROOUT)


 Dipole corrections
   LMONO  =      F    monopole corrections only (constant potential shift)
   LDIPOL =      F    correct potential (dipole corrections)
   IDIPOL =      0    1-x, 2-y, 3-z, 4-all directions 
   EPSILON=  1.0000000 bulk dielectric constant

 Exchange correlation treatment:
   GGA     =    --    GGA type
   LEXCH   =     8    internal setting for exchange type
   VOSKOWN=      0    Vosko Wilk Nusair interpolation
   LHFCALC =     F    Hartree Fock is set to
   LHFONE  =     F    Hartree Fock one center treatment
   AEXX    =    0.0000 exact exchange contribution

 Linear response parameters
   LEPSILON=     F    determine dielectric tensor
   LRPA    =     F    only Hartree local field effects (RPA)
   LNABLA  =     F    use nabla operator in PAW spheres
   LVEL    =     F    velocity operator in full k-point grid
   LINTERFAST=   F  fast interpolation
   KINTER  =     0    interpolate to denser k-point grid
   CSHIFT  =0.1000    complex shift for real part using Kramers Kronig
   OMEGAMAX=  -1.0    maximum frequency
   DEG_THRESHOLD= 0.2000000E-02 threshold for treating states as degnerate
   RTIME   =    0.100 relaxation time in fs

 Orbital magnetization related:
   ORBITALMAG=     F  switch on orbital magnetization
   LCHIMAG   =     F  perturbation theory with respect to B field
   DQ        =  0.001000  dq finite difference perturbation B field



--------------------------------------------------------------------------------------------------------


 conjugate gradient relaxation of ions
 charge density and potential will be updated during run
 spin polarized calculation
 Variant of blocked Davidson
 Davidson routine will perform the subspace rotation
 perform sub-space diagonalisation
    after iterative eigenvector-optimisation
 modified Broyden-mixing scheme, WC =      100.0
 initial mixing is a Kerker type mixing with AMIX =  0.4000 and BMIX =      1.0000
 Hartree-type preconditioning will be used
 using additional bands           19
 real space projection scheme for non local part
 use partial core corrections
 calculate Harris-corrections to forces 
   (improved forces if not selfconsistent)
 use gradient corrections 
 use of overlap-Matrix (Vanderbilt PP)
 Gauss-broadening in eV      SIGMA  =   0.05


--------------------------------------------------------------------------------------------------------


  energy-cutoff  :      400.00
  volume of cell :      153.19
      direct lattice vectors                 reciprocal lattice vectors
     0.000000000  4.246893000  4.246893000    -0.117733129  0.117733129  0.117733129
     4.246893000  0.000000000  4.246893000     0.117733129 -0.117733129  0.117733129
     4.246893000  4.246893000  0.000000000     0.117733129  0.117733129 -0.117733129

  length of vectors
     6.006013679  6.006013679  6.006013679     0.203919761  0.203919761  0.203919761


 
 k-points in units of 2pi/SCALE and weight: k-point mesh                            
   0.02943328  0.02943328  0.02943328       0.062
  -0.02943328  0.02943328  0.02943328       0.062
  -0.02943328 -0.02943328  0.02943328       0.062
   0.02943328 -0.02943328  0.02943328       0.062
   0.08829985 -0.02943328 -0.02943328       0.062
  -0.02943328  0.08829985 -0.02943328       0.062
  -0.02943328 -0.02943328  0.08829985       0.062
   0.02943328  0.08829985 -0.02943328       0.062
   0.14716641 -0.02943328 -0.02943328       0.062
   0.02943328 -0.02943328  0.08829985       0.062
   0.02943328 -0.08829985  0.08829985       0.062
  -0.08829985  0.02943328  0.08829985       0.062
   0.02943328  0.02943328  0.08829985       0.062
  -0.02943328  0.14716641 -0.02943328       0.062
   0.08829985  0.02943328 -0.02943328       0.062
  -0.02943328  0.02943328  0.08829985       0.062
 
 k-points in reciprocal lattice and weights: k-point mesh                            
   0.25000000  0.25000000  0.25000000       0.062
   0.25000000  0.00000000  0.00000000       0.062
   0.00000000  0.00000000 -0.25000000       0.062
   0.00000000  0.25000000  0.00000000       0.062
  -0.25000000  0.25000000  0.25000000       0.062
   0.25000000 -0.25000000  0.25000000       0.062
   0.25000000  0.25000000 -0.25000000       0.062
   0.25000000  0.00000000  0.50000000       0.062
  -0.25000000  0.50000000  0.50000000       0.062
   0.25000000  0.50000000  0.00000000       0.062
   0.00000000  0.50000000 -0.25000000       0.062
   0.50000000  0.00000000 -0.25000000       0.062
   0.50000000  0.50000000  0.25000000       0.062
   0.50000000 -0.25000000  0.50000000       0.062
   0.00000000  0.25000000  0.50000000       0.062
   0.50000000  0.25000000  0.00000000       0.062
 
 position of ions in fractional coordinates (direct lattice) 
   0.12435886  0.12360650  0.12389075
   0.97661277  0.97793599  0.98337710
   0.98162741  0.97867002  0.55920745
   0.98328773  0.55765301  0.97925151
   0.99985824  0.49741987  0.50124312
   0.55915282  0.97598161  0.98072826
   0.50017188  0.99631766  0.50199022
   0.50037215  0.49791749  0.00000280
   0.50163837  0.49711651  0.50040648
   0.25068929  0.24914646  0.25206875
   0.25360212  0.25032271  0.74455309
   0.25172521  0.74360862  0.25212614
   0.25709903  0.74679651  0.74858209
   0.74466905  0.24755207  0.25314001
   0.74719930  0.25415537  0.74901885
   0.74722538  0.74418758  0.25801846
   0.74943438  0.74449103  0.74794192
 
 position of ions in cartesian coordinates  (Angst):
   1.05109434  1.05428949  1.05308235
   8.32948687  8.32386728  8.30075947
   6.53120106  6.54376079  8.32517342
   6.52706904  8.33469415  6.54421041
   4.24121485  6.37501685  6.35877995
   8.30993745  6.53971017  6.51955169
   6.36315326  4.25607524  6.35543096
   2.11461417  2.12503886  4.23962927
   4.23637340  4.25557727  4.24160508
   2.12860735  2.13515961  2.12274894
   4.22513108  4.23905836  2.14011482
   4.22877899  2.13980278  4.22707629
   6.35071289  4.27102010  4.26343693
   2.12638571  4.23758834  4.21385694
   4.26037355  6.35427838  4.25264614
   4.25626180  4.26916302  6.33387127
   6.33820304  6.35919696  6.34454137
 


--------------------------------------------------------------------------------------------------------


 k-point  1 :   0.2500 0.2500 0.2500  plane waves:    2782
 k-point  2 :   0.2500 0.0000 0.0000  plane waves:    2782
 k-point  3 :   0.0000 0.0000-0.2500  plane waves:    2782
 k-point  4 :   0.0000 0.2500 0.0000  plane waves:    2782
 k-point  5 :  -0.2500 0.2500 0.2500  plane waves:    2788
 k-point  6 :   0.2500-0.2500 0.2500  plane waves:    2788
 k-point  7 :   0.2500 0.2500-0.2500  plane waves:    2788
 k-point  8 :   0.2500 0.0000 0.5000  plane waves:    2788
 k-point  9 :  -0.2500 0.5000 0.5000  plane waves:    2788
 k-point 10 :   0.2500 0.5000 0.0000  plane waves:    2788
 k-point 11 :   0.0000 0.5000-0.2500  plane waves:    2788
 k-point 12 :   0.5000 0.0000-0.2500  plane waves:    2788
 k-point 13 :   0.5000 0.5000 0.2500  plane waves:    2788
 k-point 14 :   0.5000-0.2500 0.5000  plane waves:    2788
 k-point 15 :   0.0000 0.2500 0.5000  plane waves:    2788
 k-point 16 :   0.5000 0.2500 0.0000  plane waves:    2788

 maximum and minimum number of plane-waves per node :       326      286

 maximum number of plane-waves:      2788
 maximum index in each direction: 
   IXMAX=   10   IYMAX=   10   IZMAX=   10
   IXMIN=  -10   IYMIN=  -10   IZMIN=  -10

 WARNING: aliasing errors must be expected set NGX to  42 to avoid them
 WARNING: aliasing errors must be expected set NGY to  42 to avoid them
 WARNING: aliasing errors must be expected set NGZ to  42 to avoid them
 aliasing errors are usually negligible using standard VASP settings
 and one can safely disregard these warnings

 real space projection operators:
  total allocation   :       2375.75 KBytes
  max/ min on nodes  :        336.44        216.81


 parallel 3D FFT for wavefunctions:
    minimum data exchange during FFTs selected (reduces bandwidth)
 parallel 3D FFT for charge:
    minimum data exchange during FFTs selected (reduces bandwidth)


 total amount of memory used by VASP on root node    34501. kBytes
========================================================================

   base      :      30000. kBytes
   nonlr-proj:        970. kBytes
   fftplans  :        353. kBytes
   grid      :        883. kBytes
   one-center:         32. kBytes
   wavefun   :       2263. kBytes
 
     INWAV:  cpu time    0.0000: real time    0.0003
 Broyden mixing: mesh for mixing (old mesh)
   NGX = 19   NGY = 19   NGZ = 19
  (NGX  = 60   NGY  = 60   NGZ  = 60)
  gives a total of   6859 points

 initial charge density was supplied:
 charge density of overlapping atoms calculated
 number of electron      66.0000000 magnetization      17.0000000
 keeping initial charge density in first step


--------------------------------------------------------------------------------------------------------


 Maximum index for non-local projection operator          286
 Maximum index for augmentation-charges          421 (set IRDMAX)


--------------------------------------------------------------------------------------------------------


 First call to EWALD:  gamma=   0.331
 Maximum number of real-space cells 3x 3x 3
 Maximum number of reciprocal cells 3x 3x 3

 FEWALD executed in parallel
    FEWALD:  cpu time    0.0000: real time    0.0013


----------------------------------------- Iteration    1(   1)  ---------------------------------------


    POTLOK:  cpu time    0.0120: real time    0.0104
    SETDIJ:  cpu time    0.3560: real time    0.3623
     EDDAV:  cpu time    0.7560: real time    0.7671
       DOS:  cpu time    0.0040: real time    0.0010
    --------------------------------------------
      LOOP:  cpu time    1.1280: real time    1.1434

 eigenvalue-minimisations  :  3400
 total energy-change (2. order) : 0.2686457E+03  (-0.2759947E+04)
 number of electron      66.0000000 magnetization      17.0000000
 augmentation part       66.0000000 magnetization      17.0000000

 Free energy of the ion-electron system (eV)
  ---------------------------------------------------
  alpha Z        PSCENC =       167.07285220
  Ewald energy   TEWEN  =     -2907.63381137
  -Hartree energ DENC   =      -980.59886169
  -exchange      EXHF   =         0.00000000
  -V(xc)+E(xc)   XCENC  =      -207.36946899
  PAW double counting   =      3357.85734499    -2905.44438128
  entropy T*S    EENTRO =        -0.00342574
  eigenvalues    EBANDS =        79.32893626
  atomic energy  EATOM  =      3665.43652948
  Solvation  Ediel_sol  =         0.00000000
  ---------------------------------------------------
  free energy    TOTEN  =       268.64571387 eV

  energy without entropy =      268.64913960  energy(sigma->0) =      268.64742673


--------------------------------------------------------------------------------------------------------




----------------------------------------- Iteration    1(   2)  ---------------------------------------


     EDDAV:  cpu time    0.8000: real time    0.8050
       DOS:  cpu time    0.0040: real time    0.0010
    --------------------------------------------
      LOOP:  cpu time    0.8040: real time    0.8116

 eigenvalue-minimisations  :  4228
 total energy-change (2. order) :-0.3495600E+03  (-0.3386532E+03)
 number of electron      66.0000000 magnetization      17.0000000
 augmentation part       66.0000000 magnetization      17.0000000

 Free energy of the ion-electron system (eV)
  ---------------------------------------------------
  alpha Z        PSCENC =       167.07285220
  Ewald energy   TEWEN  =     -2907.63381137
  -Hartree energ DENC   =      -980.59886169
  -exchange      EXHF   =         0.00000000
  -V(xc)+E(xc)   XCENC  =      -207.36946899
  PAW double counting   =      3357.85734499    -2905.44438128
  entropy T*S    EENTRO =        -0.00178823
  eigenvalues    EBANDS =      -270.23267236
  atomic energy  EATOM  =      3665.43652948
  Solvation  Ediel_sol  =         0.00000000
  ---------------------------------------------------
  free energy    TOTEN  =       -80.91425725 eV

  energy without entropy =      -80.91246901  energy(sigma->0) =      -80.91336313


--------------------------------------------------------------------------------------------------------




----------------------------------------- Iteration    1(   3)  ---------------------------------------


     EDDAV:  cpu time    0.7920: real time    0.7942
       DOS:  cpu time    0.0000: real time    0.0005
    --------------------------------------------
      LOOP:  cpu time    0.7920: real time    0.7977

 eigenvalue-minimisations  :  4056
 total energy-change (2. order) :-0.1779657E+02  (-0.1763200E+02)
 number of electron      66.0000000 magnetization      17.0000000
 augmentation part       66.0000000 magnetization      17.0000000

 Free energy of the ion-electron system (eV)
  ---------------------------------------------------
  alpha Z        PSCENC =       167.07285220
  Ewald energy   TEWEN  =     -2907.63381137
  -Hartree energ DENC   =      -980.59886169
  -exchange      EXHF   =         0.00000000
  -V(xc)+E(xc)   XCENC  =      -207.36946899
  PAW double counting   =      3357.85734499    -2905.44438128
  entropy T*S    EENTRO =        -0.00000000
  eigenvalues    EBANDS =      -288.03102667
  atomic energy  EATOM  =      3665.43652948
  Solvation  Ediel_sol  =         0.00000000
  ---------------------------------------------------
  free energy    TOTEN  =       -98.71082332 eV

  energy without entropy =      -98.71082332  energy(sigma->0) =      -98.71082332


--------------------------------------------------------------------------------------------------------




----------------------------------------- Iteration    1(   4)  ---------------------------------------


     EDDAV:  cpu time    0.7600: real time    0.7648
       DOS:  cpu time    0.0000: real time    0.0005
    --------------------------------------------
      LOOP:  cpu time    0.7600: real time    0.7678

 eigenvalue-minimisations  :  3880
 total energy-change (2. order) :-0.1169120E+00  (-0.1166630E+00)
 number of electron      66.0000000 magnetization      17.0000000
 augmentation part       66.0000000 magnetization      17.0000000

 Free energy of the ion-electron system (eV)
  ---------------------------------------------------
  alpha Z        PSCENC =       167.07285220
  Ewald energy   TEWEN  =     -2907.63381137
  -Hartree energ DENC   =      -980.59886169
  -exchange      EXHF   =         0.00000000
  -V(xc)+E(xc)   XCENC  =      -207.36946899
  PAW double counting   =      3357.85734499    -2905.44438128
  entropy T*S    EENTRO =        -0.00000000
  eigenvalues    EBANDS =      -288.14793863
  atomic energy  EATOM  =      3665.43652948
  Solvation  Ediel_sol  =         0.00000000
  ---------------------------------------------------
  free energy    TOTEN  =       -98.82773528 eV

  energy without entropy =      -98.82773528  energy(sigma->0) =      -98.82773528


--------------------------------------------------------------------------------------------------------




----------------------------------------- Iteration    1(   5)  ---------------------------------------


     EDDAV:  cpu time    0.7480: real time    0.7508
       DOS:  cpu time    0.0000: real time    0.0005
    CHARGE:  cpu time    0.0200: real time    0.0190
    MIXING:  cpu time    0.0000: real time    0.0008
    --------------------------------------------
      LOOP:  cpu time    0.7720: real time    0.7738

 eigenvalue-minimisations  :  3868
 total energy-change (2. order) :-0.7379547E-03  (-0.7377481E-03)
 number of electron      64.9999910 magnetization       1.0909434
 augmentation part        6.3476572 magnetization       0.1487268

 Broyden mixing:
  rms(total) = 0.28450E+01    rms(broyden)= 0.28432E+01
  rms(prec ) = 0.47298E+01
  weight for this iteration     100.00

 Free energy of the ion-electron system (eV)
  ---------------------------------------------------
  alpha Z        PSCENC =       167.07285220
  Ewald energy   TEWEN  =     -2907.63381137
  -Hartree energ DENC   =      -980.59886169
  -exchange      EXHF   =         0.00000000
  -V(xc)+E(xc)   XCENC  =      -207.36946899
  PAW double counting   =      3357.85734499    -2905.44438128
  entropy T*S    EENTRO =        -0.00000000
  eigenvalues    EBANDS =      -288.14867658
  atomic energy  EATOM  =      3665.43652948
  Solvation  Ediel_sol  =         0.00000000
  ---------------------------------------------------
  free energy    TOTEN  =       -98.82847323 eV

  energy without entropy =      -98.82847323  energy(sigma->0) =      -98.82847323


--------------------------------------------------------------------------------------------------------




----------------------------------------- Iteration    1(   6)  ---------------------------------------


    POTLOK:  cpu time    0.0080: real time    0.0095
    SETDIJ:  cpu time    0.3800: real time    0.3765
     EDDAV:  cpu time    0.7120: real time    0.7158
       DOS:  cpu time    0.0040: real time    0.0011
    CHARGE:  cpu time    0.0160: real time    0.0191
    MIXING:  cpu time    0.0000: real time    0.0003
    --------------------------------------------
      LOOP:  cpu time    1.1200: real time    1.1254

 eigenvalue-minimisations  :  3584
 total energy-change (2. order) : 0.5936951E+01  (-0.3939419E+01)
 number of electron      64.9999927 magnetization       0.5318792
 augmentation part        5.2731927 magnetization      -0.0752888

 Broyden mixing:
  rms(total) = 0.74504E+00    rms(broyden)= 0.74344E+00
  rms(prec ) = 0.10393E+01
  weight for this iteration     100.00

 eigenvalues of (default mixing * dielectric matrix)
  average eigenvalue GAMMA=   0.8479
  0.8479

 Free energy of the ion-electron system (eV)
  ---------------------------------------------------
  alpha Z        PSCENC =       167.07285220
  Ewald energy   TEWEN  =     -2907.63381137
  -Hartree energ DENC   =     -1127.50044521
  -exchange      EXHF   =         0.00000000
  -V(xc)+E(xc)   XCENC  =      -202.95303112
  PAW double counting   =      3994.11788495    -3544.21701880
  entropy T*S    EENTRO =        -0.00963312
  eigenvalues    EBANDS =      -137.20484914
  atomic energy  EATOM  =      3665.43652948
  Solvation  Ediel_sol  =         0.00000000
  ---------------------------------------------------
  free energy    TOTEN  =       -92.89152214 eV

  energy without entropy =      -92.88188901  energy(sigma->0) =      -92.88670557


--------------------------------------------------------------------------------------------------------




----------------------------------------- Iteration    1(   7)  ---------------------------------------


    POTLOK:  cpu time    0.0080: real time    0.0084
    SETDIJ:  cpu time    0.3760: real time    0.3755
     EDDAV:  cpu time    0.7160: real time    0.7171
       DOS:  cpu time    0.0000: real time    0.0010
    CHARGE:  cpu time    0.0200: real time    0.0194
    MIXING:  cpu time    0.0000: real time    0.0003
    --------------------------------------------
      LOOP:  cpu time    1.1240: real time    1.1245

 eigenvalue-minimisations  :  3580
 total energy-change (2. order) :-0.1661093E+00  (-0.1189764E+00)
 number of electron      64.9999927 magnetization       0.4871584
 augmentation part        5.2597524 magnetization      -0.0111208

 Broyden mixing:
  rms(total) = 0.39869E+00    rms(broyden)= 0.39861E+00
  rms(prec ) = 0.61621E+00
  weight for this iteration     100.00

 eigenvalues of (default mixing * dielectric matrix)
  average eigenvalue GAMMA=   0.9965
  0.9965  0.9965

 Free energy of the ion-electron system (eV)
  ---------------------------------------------------
  alpha Z        PSCENC =       167.07285220
  Ewald energy   TEWEN  =     -2907.63381137
  -Hartree energ DENC   =     -1130.91522257
  -exchange      EXHF   =         0.00000000
  -V(xc)+E(xc)   XCENC  =      -202.59837316
  PAW double counting   =      4226.46983440    -3776.26051602
  entropy T*S    EENTRO =        -0.00963354
  eigenvalues    EBANDS =      -134.61929081
  atomic energy  EATOM  =      3665.43652948
  Solvation  Ediel_sol  =         0.00000000
  ---------------------------------------------------
  free energy    TOTEN  =       -93.05763139 eV

  energy without entropy =      -93.04799785  energy(sigma->0) =      -93.05281462


--------------------------------------------------------------------------------------------------------




----------------------------------------- Iteration    1(   8)  ---------------------------------------


    POTLOK:  cpu time    0.0080: real time    0.0101
    SETDIJ:  cpu time    0.3800: real time    0.3769
     EDDAV:  cpu time    0.7520: real time    0.7544
       DOS:  cpu time    0.0000: real time    0.0010
    CHARGE:  cpu time    0.0200: real time    0.0194
    MIXING:  cpu time    0.0000: real time    0.0003
    --------------------------------------------
      LOOP:  cpu time    1.1600: real time    1.1651

 eigenvalue-minimisations  :  3816
 total energy-change (2. order) : 0.1081264E+00  (-0.1372553E-01)
 number of electron      64.9999926 magnetization       0.4709987
 augmentation part        5.2796192 magnetization      -0.0043115

 Broyden mixing:
  rms(total) = 0.14656E+00    rms(broyden)= 0.14656E+00
  rms(prec ) = 0.23052E+00
  weight for this iteration     100.00

 eigenvalues of (default mixing * dielectric matrix)
  average eigenvalue GAMMA=   1.2857
  2.0802  0.9307  0.8461

 Free energy of the ion-electron system (eV)
  ---------------------------------------------------
  alpha Z        PSCENC =       167.07285220
  Ewald energy   TEWEN  =     -2907.63381137
  -Hartree energ DENC   =     -1135.57798088
  -exchange      EXHF   =         0.00000000
  -V(xc)+E(xc)   XCENC  =      -201.84055226
  PAW double counting   =      4485.17664030    -4034.69128885
  entropy T*S    EENTRO =        -0.01039354
  eigenvalues    EBANDS =      -130.88150011
  atomic energy  EATOM  =      3665.43652948
  Solvation  Ediel_sol  =         0.00000000
  ---------------------------------------------------
  free energy    TOTEN  =       -92.94950503 eV

  energy without entropy =      -92.93911149  energy(sigma->0) =      -92.94430826


--------------------------------------------------------------------------------------------------------




----------------------------------------- Iteration    1(   9)  ---------------------------------------


    POTLOK:  cpu time    0.0080: real time    0.0084
    SETDIJ:  cpu time    0.3800: real time    0.3771
     EDDAV:  cpu time    0.7560: real time    0.7563
       DOS:  cpu time    0.0000: real time    0.0011
    CHARGE:  cpu time    0.0200: real time    0.0192
    MIXING:  cpu time    0.0000: real time    0.0004
    --------------------------------------------
      LOOP:  cpu time    1.1640: real time    1.1649

 eigenvalue-minimisations  :  3880
 total energy-change (2. order) : 0.8114854E-02  (-0.3849289E-02)
 number of electron      64.9999927 magnetization       0.4906488
 augmentation part        5.2716612 magnetization       0.0061087

 Broyden mixing:
  rms(total) = 0.48373E-01    rms(broyden)= 0.48369E-01
  rms(prec ) = 0.55759E-01
  weight for this iteration     100.00

 eigenvalues of (default mixing * dielectric matrix)
  average eigenvalue GAMMA=   1.2535
  2.4219  0.9687  0.9687  0.6544

 Free energy of the ion-electron system (eV)
  ---------------------------------------------------
  alpha Z        PSCENC =       167.07285220
  Ewald energy   TEWEN  =     -2907.63381137
  -Hartree energ DENC   =     -1141.01756965
  -exchange      EXHF   =         0.00000000
  -V(xc)+E(xc)   XCENC  =      -201.17859324
  PAW double counting   =      4618.05623723    -4167.49272440
  entropy T*S    EENTRO =        -0.00972459
  eigenvalues    EBANDS =      -126.17458584
  atomic energy  EATOM  =      3665.43652948
  Solvation  Ediel_sol  =         0.00000000
  ---------------------------------------------------
  free energy    TOTEN  =       -92.94139018 eV

  energy without entropy =      -92.93166559  energy(sigma->0) =      -92.93652788


--------------------------------------------------------------------------------------------------------




----------------------------------------- Iteration    1(  10)  ---------------------------------------


    POTLOK:  cpu time    0.0080: real time    0.0084
    SETDIJ:  cpu time    0.3760: real time    0.3774
     EDDAV:  cpu time    0.7920: real time    0.7916
       DOS:  cpu time    0.0000: real time    0.0010
    CHARGE:  cpu time    0.0200: real time    0.0193
    MIXING:  cpu time    0.0000: real time    0.0004
    --------------------------------------------
      LOOP:  cpu time    1.1960: real time    1.2011

 eigenvalue-minimisations  :  4076
 total energy-change (2. order) : 0.8579038E-03  (-0.2524805E-03)
 number of electron      64.9999927 magnetization       0.5032703
 augmentation part        5.2671572 magnetization       0.0176577

 Broyden mixing:
  rms(total) = 0.14726E-01    rms(broyden)= 0.14723E-01
  rms(prec ) = 0.19888E-01
  weight for this iteration     100.00

 eigenvalues of (default mixing * dielectric matrix)
  average eigenvalue GAMMA=   1.2277
  2.5012  1.1533  0.9204  0.9204  0.6433

 Free energy of the ion-electron system (eV)
  ---------------------------------------------------
  alpha Z        PSCENC =       167.07285220
  Ewald energy   TEWEN  =     -2907.63381137
  -Hartree energ DENC   =     -1141.65634974
  -exchange      EXHF   =         0.00000000
  -V(xc)+E(xc)   XCENC  =      -201.11576804
  PAW double counting   =      4612.94055822    -4162.38894442
  entropy T*S    EENTRO =        -0.00968202
  eigenvalues    EBANDS =      -125.58591658
  atomic energy  EATOM  =      3665.43652948
  Solvation  Ediel_sol  =         0.00000000
  ---------------------------------------------------
  free energy    TOTEN  =       -92.94053227 eV

  energy without entropy =      -92.93085025  energy(sigma->0) =      -92.93569126


--------------------------------------------------------------------------------------------------------




----------------------------------------- Iteration    1(  11)  ---------------------------------------


    POTLOK:  cpu time    0.0080: real time    0.0092
    SETDIJ:  cpu time    0.3800: real time    0.3790
     EDDAV:  cpu time    0.7800: real time    0.7804
       DOS:  cpu time    0.0000: real time    0.0010
    CHARGE:  cpu time    0.0200: real time    0.0194
    MIXING:  cpu time    0.0000: real time    0.0004
    --------------------------------------------
      LOOP:  cpu time    1.1880: real time    1.1923

 eigenvalue-minimisations  :  4000
 total energy-change (2. order) :-0.4144618E-03  (-0.9242646E-04)
 number of electron      64.9999927 magnetization       0.5008404
 augmentation part        5.2669415 magnetization       0.0133337

 Broyden mixing:
  rms(total) = 0.71888E-02    rms(broyden)= 0.71869E-02
  rms(prec ) = 0.99146E-02
  weight for this iteration     100.00

 eigenvalues of (default mixing * dielectric matrix)
  average eigenvalue GAMMA=   1.2847
  2.5824  1.7373  0.9741  0.9741  0.8064  0.6340

 Free energy of the ion-electron system (eV)
  ---------------------------------------------------
  alpha Z        PSCENC =       167.07285220
  Ewald energy   TEWEN  =     -2907.63381137
  -Hartree energ DENC   =     -1141.71580061
  -exchange      EXHF   =         0.00000000
  -V(xc)+E(xc)   XCENC  =      -201.09474472
  PAW double counting   =      4601.58249068    -4151.03788649
  entropy T*S    EENTRO =        -0.00967667
  eigenvalues    EBANDS =      -125.54089924
  atomic energy  EATOM  =      3665.43652948
  Solvation  Ediel_sol  =         0.00000000
  ---------------------------------------------------
  free energy    TOTEN  =       -92.94094674 eV

  energy without entropy =      -92.93127006  energy(sigma->0) =      -92.93610840


--------------------------------------------------------------------------------------------------------




----------------------------------------- Iteration    1(  12)  ---------------------------------------


    POTLOK:  cpu time    0.0120: real time    0.0089
    SETDIJ:  cpu time    0.3760: real time    0.3774
     EDDAV:  cpu time    0.7360: real time    0.7359
       DOS:  cpu time    0.0000: real time    0.0010
    CHARGE:  cpu time    0.0200: real time    0.0190
    MIXING:  cpu time    0.0000: real time    0.0004
    --------------------------------------------
      LOOP:  cpu time    1.1440: real time    1.1455

 eigenvalue-minimisations  :  3732
 total energy-change (2. order) :-0.7324281E-04  (-0.8908646E-05)
 number of electron      64.9999927 magnetization       0.4993070
 augmentation part        5.2673180 magnetization       0.0118967

 Broyden mixing:
  rms(total) = 0.32946E-02    rms(broyden)= 0.32942E-02
  rms(prec ) = 0.44550E-02
  weight for this iteration     100.00

 eigenvalues of (default mixing * dielectric matrix)
  average eigenvalue GAMMA=   1.3073
  2.5736  2.2161  1.0634  0.9724  0.8597  0.8342  0.6315

 Free energy of the ion-electron system (eV)
  ---------------------------------------------------
  alpha Z        PSCENC =       167.07285220
  Ewald energy   TEWEN  =     -2907.63381137
  -Hartree energ DENC   =     -1141.70120981
  -exchange      EXHF   =         0.00000000
  -V(xc)+E(xc)   XCENC  =      -201.08781658
  PAW double counting   =      4596.32882350    -4145.78694510
  entropy T*S    EENTRO =        -0.00966710
  eigenvalues    EBANDS =      -125.55977520
  atomic energy  EATOM  =      3665.43652948
  Solvation  Ediel_sol  =         0.00000000
  ---------------------------------------------------
  free energy    TOTEN  =       -92.94101998 eV

  energy without entropy =      -92.93135288  energy(sigma->0) =      -92.93618643


--------------------------------------------------------------------------------------------------------




----------------------------------------- Iteration    1(  13)  ---------------------------------------


    POTLOK:  cpu time    0.0080: real time    0.0083
    SETDIJ:  cpu time    0.3760: real time    0.3777
     EDDAV:  cpu time    0.7600: real time    0.7569
       DOS:  cpu time    0.0000: real time    0.0010
    CHARGE:  cpu time    0.0200: real time    0.0210
    MIXING:  cpu time    0.0000: real time    0.0005
    --------------------------------------------
      LOOP:  cpu time    1.1640: real time    1.1693

 eigenvalue-minimisations  :  3840
 total energy-change (2. order) :-0.3415682E-04  (-0.5434050E-05)
 number of electron      64.9999927 magnetization       0.4994121
 augmentation part        5.2673786 magnetization       0.0122668

 Broyden mixing:
  rms(total) = 0.12686E-02    rms(broyden)= 0.12679E-02
  rms(prec ) = 0.18344E-02
  weight for this iteration     100.00

 eigenvalues of (default mixing * dielectric matrix)
  average eigenvalue GAMMA=   1.2819
  2.6349  2.4125  1.0839  0.9597  0.9248  0.9248  0.6297  0.6851

 Free energy of the ion-electron system (eV)
  ---------------------------------------------------
  alpha Z        PSCENC =       167.07285220
  Ewald energy   TEWEN  =     -2907.63381137
  -Hartree energ DENC   =     -1141.70310370
  -exchange      EXHF   =         0.00000000
  -V(xc)+E(xc)   XCENC  =      -201.08316724
  PAW double counting   =      4592.02934553    -4141.49064827
  entropy T*S    EENTRO =        -0.00967268
  eigenvalues    EBANDS =      -125.55937809
  atomic energy  EATOM  =      3665.43652948
  Solvation  Ediel_sol  =         0.00000000
  ---------------------------------------------------
  free energy    TOTEN  =       -92.94105414 eV

  energy without entropy =      -92.93138146  energy(sigma->0) =      -92.93621780


--------------------------------------------------------------------------------------------------------




----------------------------------------- Iteration    1(  14)  ---------------------------------------


    POTLOK:  cpu time    0.0120: real time    0.0089
    SETDIJ:  cpu time    0.3760: real time    0.3781
     EDDAV:  cpu time    0.7560: real time    0.7568
       DOS:  cpu time    0.0000: real time    0.0010
    CHARGE:  cpu time    0.0240: real time    0.0215
    MIXING:  cpu time    0.0000: real time    0.0005
    --------------------------------------------
      LOOP:  cpu time    1.1680: real time    1.1698

 eigenvalue-minimisations  :  3712
 total energy-change (2. order) :-0.1253756E-05  (-0.4415889E-06)
 number of electron      64.9999927 magnetization       0.4994946
 augmentation part        5.2674143 magnetization       0.0123133

 Broyden mixing:
  rms(total) = 0.56372E-03    rms(broyden)= 0.56362E-03
  rms(prec ) = 0.78548E-03
  weight for this iteration     100.00

 eigenvalues of (default mixing * dielectric matrix)
  average eigenvalue GAMMA=   1.2961
  2.7159  2.4200  1.2015  1.2015  0.9742  0.9742  0.8783  0.6286  0.6705

 Free energy of the ion-electron system (eV)
  ---------------------------------------------------
  alpha Z        PSCENC =       167.07285220
  Ewald energy   TEWEN  =     -2907.63381137
  -Hartree energ DENC   =     -1141.70270086
  -exchange      EXHF   =         0.00000000
  -V(xc)+E(xc)   XCENC  =      -201.08248715
  PAW double counting   =      4591.33635295    -4140.79823257
  entropy T*S    EENTRO =        -0.00967038
  eigenvalues    EBANDS =      -125.55988768
  atomic energy  EATOM  =      3665.43652948
  Solvation  Ediel_sol  =         0.00000000
  ---------------------------------------------------
  free energy    TOTEN  =       -92.94105539 eV

  energy without entropy =      -92.93138501  energy(sigma->0) =      -92.93622020


--------------------------------------------------------------------------------------------------------




----------------------------------------- Iteration    1(  15)  ---------------------------------------


    POTLOK:  cpu time    0.0080: real time    0.0082
    SETDIJ:  cpu time    0.3800: real time    0.3788
     EDDAV:  cpu time    0.6600: real time    0.6637
       DOS:  cpu time    0.0040: real time    0.0010
    --------------------------------------------
      LOOP:  cpu time    1.0520: real time    1.0546

 eigenvalue-minimisations  :  3244
 total energy-change (2. order) :-0.6273685E-06  (-0.3493138E-06)
 number of electron      64.9999927 magnetization       0.4994946
 augmentation part        5.2674143 magnetization       0.0123133

 Free energy of the ion-electron system (eV)
  ---------------------------------------------------
  alpha Z        PSCENC =       167.07285220
  Ewald energy   TEWEN  =     -2907.63381137
  -Hartree energ DENC   =     -1141.70902539
  -exchange      EXHF   =         0.00000000
  -V(xc)+E(xc)   XCENC  =      -201.08200421
  PAW double counting   =      4591.04967635    -4140.51204759
  entropy T*S    EENTRO =        -0.00967108
  eigenvalues    EBANDS =      -125.55355442
  atomic energy  EATOM  =      3665.43652948
  Solvation  Ediel_sol  =         0.00000000
  ---------------------------------------------------
  free energy    TOTEN  =       -92.94105602 eV

  energy without entropy =      -92.93138494  energy(sigma->0) =      -92.93622048


--------------------------------------------------------------------------------------------------------




 average (electrostatic) potential at core
  the test charge radii are     1.0714  0.7215
  (the norm of the test charge is              1.0000)
       1 -35.3208       2 -35.0450       3 -35.0274       4 -35.0426       5 -34.1201
       6 -35.0337       7 -34.1063       8 -34.1238       9 -34.1003      10 -69.3770
      11 -69.3696      12 -69.3752      13 -69.2714      14 -69.3698      15 -69.2644
      16 -69.2723      17 -69.2631
 
 
 
 E-fermi :  10.0565     XC(G=0): -11.2015     alpha+bet :-13.9167


 spin component 1

 k-point     1 :       0.2500    0.2500    0.2500
  band No.  band energies     occupation 
      1     -13.6630      1.00000
      2     -12.8123      1.00000
      3     -12.5835      1.00000
      4     -12.5778      1.00000
      5     -12.5725      1.00000
      6     -12.3934      1.00000
      7     -12.3898      1.00000
      8     -12.3872      1.00000
      9      -1.1498      1.00000
     10      -0.8576      1.00000
     11      -0.8546      1.00000
     12      -0.6961      1.00000
     13      -0.6256      1.00000
     14      -0.3363      1.00000
     15      -0.3343      1.00000
     16       1.4429      1.00000
     17       1.6415      1.00000
     18       1.6452      1.00000
     19       1.9665      1.00000
     20       2.0365      1.00000
     21       2.0397      1.00000
     22       2.2444      1.00000
     23       2.2538      1.00000
     24       2.2613      1.00000
     25       2.3445      1.00000
     26       2.4567      1.00000
     27       2.4617      1.00000
     28       2.7615      1.00000
     29       2.8495      1.00000
     30       2.8507      1.00000
     31       3.1824      1.00000
     32       3.1854      1.00000
     33       8.5595      1.00000
     34      10.4719      0.00000
     35      11.1496      0.00000
     36      11.4890      0.00000
     37      11.5165      0.00000
     38      12.3928      0.00000
     39      12.4350      0.00000
     40      12.4589      0.00000
     41      12.9981      0.00000
     42      13.0075      0.00000
     43      13.5631      0.00000
     44      15.3167      0.00000
     45      15.4557      0.00000
     46      15.4629      0.00000
     47      15.5137      0.00000
     48      16.0321      0.00000
     49      16.0480      0.00000
     50      16.1269      0.00000
     51      17.2613      0.00000
     52      17.3084      0.00000

 k-point     2 :       0.2500    0.0000    0.0000
  band No.  band energies     occupation 
      1     -13.6628      1.00000
      2     -12.8124      1.00000
      3     -12.5884      1.00000
      4     -12.5754      1.00000
      5     -12.5695      1.00000
      6     -12.3959      1.00000
      7     -12.3887      1.00000
      8     -12.3864      1.00000
      9      -1.1487      1.00000
     10      -0.8574      1.00000
     11      -0.8556      1.00000
     12      -0.6938      1.00000
     13      -0.6276      1.00000
     14      -0.3362      1.00000
     15      -0.3346      1.00000
     16       1.4402      1.00000
     17       1.6407      1.00000
     18       1.6447      1.00000
     19       1.9627      1.00000
     20       2.0371      1.00000
     21       2.0400      1.00000
     22       2.2438      1.00000
     23       2.2577      1.00000
     24       2.2606      1.00000
     25       2.3436      1.00000
     26       2.4597      1.00000
     27       2.4633      1.00000
     28       2.7636      1.00000
     29       2.8483      1.00000
     30       2.8491      1.00000
     31       3.1837      1.00000
     32       3.1861      1.00000
     33       8.5597      1.00000
     34      10.4773      0.00000
     35      11.1439      0.00000
     36      11.4919      0.00000
     37      11.5115      0.00000
     38      12.4174      0.00000
     39      12.4379      0.00000
     40      12.4553      0.00000
     41      12.9829      0.00000
     42      12.9977      0.00000
     43      13.5598      0.00000
     44      15.3172      0.00000
     45      15.4638      0.00000
     46      15.4680      0.00000
     47      15.5092      0.00000
     48      16.0343      0.00000
     49      16.0519      0.00000
     50      16.1112      0.00000
     51      17.2561      0.00000
     52      17.3325      0.00000

 k-point     3 :       0.0000    0.0000   -0.2500
  band No.  band energies     occupation 
      1     -13.6628      1.00000
      2     -12.8123      1.00000
      3     -12.5893      1.00000
      4     -12.5745      1.00000
      5     -12.5695      1.00000
      6     -12.3970      1.00000
      7     -12.3878      1.00000
      8     -12.3863      1.00000
      9      -1.1483      1.00000
     10      -0.8575      1.00000
     11      -0.8559      1.00000
     12      -0.6925      1.00000
     13      -0.6287      1.00000
     14      -0.3364      1.00000
     15      -0.3347      1.00000
     16       1.4394      1.00000
     17       1.6402      1.00000
     18       1.6446      1.00000
     19       1.9623      1.00000
     20       2.0374      1.00000
     21       2.0395      1.00000
     22       2.2468      1.00000
     23       2.2572      1.00000
     24       2.2581      1.00000
     25       2.3431      1.00000
     26       2.4607      1.00000
     27       2.4641      1.00000
     28       2.7646      1.00000
     29       2.8480      1.00000
     30       2.8490      1.00000
     31       3.1844      1.00000
     32       3.1859      1.00000
     33       8.5596      1.00000
     34      10.4791      0.00000
     35      11.1409      0.00000
     36      11.4916      0.00000
     37      11.5133      0.00000
     38      12.4138      0.00000
     39      12.4433      0.00000
     40      12.4574      0.00000
     41      12.9802      0.00000
     42      12.9950      0.00000
     43      13.5588      0.00000
     44      15.3173      0.00000
     45      15.4612      0.00000
     46      15.4740      0.00000
     47      15.5108      0.00000
     48      16.0366      0.00000
     49      16.0504      0.00000
     50      16.1064      0.00000
     51      17.2453      0.00000
     52      17.2853      0.00000

 k-point     4 :       0.0000    0.2500    0.0000
  band No.  band energies     occupation 
      1     -13.6629      1.00000
      2     -12.8124      1.00000
      3     -12.5842      1.00000
      4     -12.5778      1.00000
      5     -12.5716      1.00000
      6     -12.3938      1.00000
      7     -12.3897      1.00000
      8     -12.3871      1.00000
      9      -1.1496      1.00000
     10      -0.8573      1.00000
     11      -0.8548      1.00000
     12      -0.6954      1.00000
     13      -0.6264      1.00000
     14      -0.3364      1.00000
     15      -0.3343      1.00000
     16       1.4427      1.00000
     17       1.6410      1.00000
     18       1.6453      1.00000
     19       1.9663      1.00000
     20       2.0366      1.00000
     21       2.0394      1.00000
     22       2.2460      1.00000
     23       2.2549      1.00000
     24       2.2590      1.00000
     25       2.3443      1.00000
     26       2.4571      1.00000
     27       2.4619      1.00000
     28       2.7616      1.00000
     29       2.8492      1.00000
     30       2.8508      1.00000
     31       3.1827      1.00000
     32       3.1854      1.00000
     33       8.5597      1.00000
     34      10.4733      0.00000
     35      11.1487      0.00000
     36      11.4865      0.00000
     37      11.5187      0.00000
     38      12.3984      0.00000
     39      12.4309      0.00000
     40      12.4631      0.00000
     41      12.9962      0.00000
     42      13.0026      0.00000
     43      13.5623      0.00000
     44      15.3168      0.00000
     45      15.4556      0.00000
     46      15.4667      0.00000
     47      15.5126      0.00000
     48      16.0317      0.00000
     49      16.0510      0.00000
     50      16.1210      0.00000
     51      17.2585      0.00000
     52      17.3002      0.00000

 k-point     5 :      -0.2500    0.2500    0.2500
  band No.  band energies     occupation 
      1     -13.2999      1.00000
      2     -13.0100      1.00000
      3     -12.7742      1.00000
      4     -12.6195      1.00000
      5     -12.6151      1.00000
      6     -12.4514      1.00000
      7     -12.3570      1.00000
      8     -12.3538      1.00000
      9      -0.5343      1.00000
     10      -0.3048      1.00000
     11      -0.2723      1.00000
     12      -0.2144      1.00000
     13       0.0169      1.00000
     14       0.0880      1.00000
     15       0.1809      1.00000
     16       0.7148      1.00000
     17       0.9918      1.00000
     18       1.0150      1.00000
     19       1.1153      1.00000
     20       1.6187      1.00000
     21       1.6373      1.00000
     22       1.8287      1.00000
     23       1.9410      1.00000
     24       2.1551      1.00000
     25       2.2169      1.00000
     26       2.3855      1.00000
     27       2.4414      1.00000
     28       2.5091      1.00000
     29       2.6221      1.00000
     30       2.8522      1.00000
     31       2.8548      1.00000
     32       2.9532      1.00000
     33      10.0404      0.67587
     34      10.7948      0.00000
     35      11.5521      0.00000
     36      12.1211      0.00000
     37      12.1880      0.00000
     38      12.8577      0.00000
     39      13.3922      0.00000
     40      13.4818      0.00000
     41      13.7554      0.00000
     42      13.9244      0.00000
     43      14.0014      0.00000
     44      14.5633      0.00000
     45      15.0028      0.00000
     46      15.0981      0.00000
     47      15.2814      0.00000
     48      15.4054      0.00000
     49      15.4801      0.00000
     50      15.6626      0.00000
     51      16.3116      0.00000
     52      16.7809      0.00000

 k-point     6 :       0.2500   -0.2500    0.2500
  band No.  band energies     occupation 
      1     -13.3003      1.00000
      2     -13.0096      1.00000
      3     -12.7735      1.00000
      4     -12.6185      1.00000
      5     -12.6175      1.00000
      6     -12.4503      1.00000
      7     -12.3580      1.00000
      8     -12.3531      1.00000
      9      -0.5362      1.00000
     10      -0.2977      1.00000
     11      -0.2798      1.00000
     12      -0.2151      1.00000
     13       0.0175      1.00000
     14       0.0877      1.00000
     15       0.1831      1.00000
     16       0.7166      1.00000
     17       0.9927      1.00000
     18       1.0141      1.00000
     19       1.1155      1.00000
     20       1.6205      1.00000
     21       1.6379      1.00000
     22       1.8287      1.00000
     23       1.9397      1.00000
     24       2.1544      1.00000
     25       2.2203      1.00000
     26       2.3789      1.00000
     27       2.4430      1.00000
     28       2.5121      1.00000
     29       2.6197      1.00000
     30       2.8515      1.00000
     31       2.8541      1.00000
     32       2.9532      1.00000
     33      10.0416      0.66374
     34      10.7855      0.00000
     35      11.5551      0.00000
     36      12.1162      0.00000
     37      12.2015      0.00000
     38      12.8571      0.00000
     39      13.3682      0.00000
     40      13.4947      0.00000
     41      13.7691      0.00000
     42      13.9330      0.00000
     43      13.9940      0.00000
     44      14.5523      0.00000
     45      15.0124      0.00000
     46      15.1045      0.00000
     47      15.2720      0.00000
     48      15.3877      0.00000
     49      15.4831      0.00000
     50      15.6885      0.00000
     51      16.2975      0.00000
     52      16.8039      0.00000

 k-point     7 :       0.2500    0.2500   -0.2500
  band No.  band energies     occupation 
      1     -13.2997      1.00000
      2     -13.0101      1.00000
      3     -12.7739      1.00000
      4     -12.6210      1.00000
      5     -12.6139      1.00000
      6     -12.4515      1.00000
      7     -12.3559      1.00000
      8     -12.3548      1.00000
      9      -0.5329      1.00000
     10      -0.2895      1.00000
     11      -0.2840      1.00000
     12      -0.2179      1.00000
     13       0.0160      1.00000
     14       0.0865      1.00000
     15       0.1816      1.00000
     16       0.7138      1.00000
     17       0.9913      1.00000
     18       1.0137      1.00000
     19       1.1158      1.00000
     20       1.6171      1.00000
     21       1.6376      1.00000
     22       1.8275      1.00000
     23       1.9379      1.00000
     24       2.1536      1.00000
     25       2.2198      1.00000
     26       2.3864      1.00000
     27       2.4470      1.00000
     28       2.5098      1.00000
     29       2.6217      1.00000
     30       2.8524      1.00000
     31       2.8536      1.00000
     32       2.9553      1.00000
     33      10.0388      0.69206
     34      10.8003      0.00000
     35      11.5589      0.00000
     36      12.1150      0.00000
     37      12.1782      0.00000
     38      12.8665      0.00000
     39      13.3827      0.00000
     40      13.4916      0.00000
     41      13.7835      0.00000
     42      13.9186      0.00000
     43      13.9714      0.00000
     44      14.5544      0.00000
     45      15.0295      0.00000
     46      15.0913      0.00000
     47      15.2860      0.00000
     48      15.3812      0.00000
     49      15.4709      0.00000
     50      15.6717      0.00000
     51      16.2915      0.00000
     52      16.7992      0.00000

 k-point     8 :       0.2500    0.0000    0.5000
  band No.  band energies     occupation 
      1     -13.3000      1.00000
      2     -13.0093      1.00000
      3     -12.7758      1.00000
      4     -12.6215      1.00000
      5     -12.6109      1.00000
      6     -12.4533      1.00000
      7     -12.3561      1.00000
      8     -12.3539      1.00000
      9      -0.5334      1.00000
     10      -0.3004      1.00000
     11      -0.2758      1.00000
     12      -0.2161      1.00000
     13       0.0148      1.00000
     14       0.0892      1.00000
     15       0.1812      1.00000
     16       0.7129      1.00000
     17       0.9924      1.00000
     18       1.0174      1.00000
     19       1.1150      1.00000
     20       1.6200      1.00000
     21       1.6342      1.00000
     22       1.8287      1.00000
     23       1.9406      1.00000
     24       2.1514      1.00000
     25       2.2158      1.00000
     26       2.3903      1.00000
     27       2.4454      1.00000
     28       2.5077      1.00000
     29       2.6235      1.00000
     30       2.8515      1.00000
     31       2.8549      1.00000
     32       2.9525      1.00000
     33      10.0405      0.67492
     34      10.7922      0.00000
     35      11.5712      0.00000
     36      12.1184      0.00000
     37      12.1600      0.00000
     38      12.8608      0.00000
     39      13.4084      0.00000
     40      13.4873      0.00000
     41      13.7540      0.00000
     42      13.9300      0.00000
     43      13.9956      0.00000
     44      14.5553      0.00000
     45      15.0056      0.00000
     46      15.0921      0.00000
     47      15.2820      0.00000
     48      15.3964      0.00000
     49      15.4772      0.00000
     50      15.6690      0.00000
     51      16.2995      0.00000
     52      16.8169      0.00000

 k-point     9 :      -0.2500    0.5000    0.5000
  band No.  band energies     occupation 
      1     -13.3005      1.00000
      2     -13.0088      1.00000
      3     -12.7751      1.00000
      4     -12.6192      1.00000
      5     -12.6150      1.00000
      6     -12.4515      1.00000
      7     -12.3566      1.00000
      8     -12.3540      1.00000
      9      -0.5358      1.00000
     10      -0.2939      1.00000
     11      -0.2846      1.00000
     12      -0.2156      1.00000
     13       0.0171      1.00000
     14       0.0882      1.00000
     15       0.1844      1.00000
     16       0.7160      1.00000
     17       0.9933      1.00000
     18       1.0168      1.00000
     19       1.1154      1.00000
     20       1.6196      1.00000
     21       1.6361      1.00000
     22       1.8288      1.00000
     23       1.9397      1.00000
     24       2.1526      1.00000
     25       2.2182      1.00000
     26       2.3780      1.00000
     27       2.4481      1.00000
     28       2.5101      1.00000
     29       2.6215      1.00000
     30       2.8514      1.00000
     31       2.8530      1.00000
     32       2.9537      1.00000
     33      10.0437      0.64130
     34      10.7756      0.00000
     35      11.5747      0.00000
     36      12.1120      0.00000
     37      12.1872      0.00000
     38      12.8550      0.00000
     39      13.3705      0.00000
     40      13.4967      0.00000
     41      13.7824      0.00000
     42      13.9312      0.00000
     43      13.9940      0.00000
     44      14.5532      0.00000
     45      15.0109      0.00000
     46      15.1006      0.00000
     47      15.2734      0.00000
     48      15.3801      0.00000
     49      15.4872      0.00000
     50      15.6935      0.00000
     51      16.2807      0.00000
     52      16.8086      0.00000

 k-point    10 :       0.2500    0.5000    0.0000
  band No.  band energies     occupation 
      1     -13.3003      1.00000
      2     -13.0090      1.00000
      3     -12.7752      1.00000
      4     -12.6201      1.00000
      5     -12.6138      1.00000
      6     -12.4517      1.00000
      7     -12.3565      1.00000
      8     -12.3541      1.00000
      9      -0.5351      1.00000
     10      -0.2976      1.00000
     11      -0.2773      1.00000
     12      -0.2175      1.00000
     13       0.0155      1.00000
     14       0.0894      1.00000
     15       0.1816      1.00000
     16       0.7172      1.00000
     17       0.9934      1.00000
     18       1.0152      1.00000
     19       1.1154      1.00000
     20       1.6164      1.00000
     21       1.6366      1.00000
     22       1.8277      1.00000
     23       1.9383      1.00000
     24       2.1500      1.00000
     25       2.2205      1.00000
     26       2.3882      1.00000
     27       2.4426      1.00000
     28       2.5109      1.00000
     29       2.6211      1.00000
     30       2.8521      1.00000
     31       2.8552      1.00000
     32       2.9531      1.00000
     33      10.0416      0.66334
     34      10.7821      0.00000
     35      11.5784      0.00000
     36      12.1283      0.00000
     37      12.1715      0.00000
     38      12.8476      0.00000
     39      13.3886      0.00000
     40      13.4794      0.00000
     41      13.7625      0.00000
     42      13.9138      0.00000
     43      14.0138      0.00000
     44      14.5666      0.00000
     45      14.9858      0.00000
     46      15.1006      0.00000
     47      15.2902      0.00000
     48      15.4088      0.00000
     49      15.4902      0.00000
     50      15.6581      0.00000
     51      16.2985      0.00000
     52      16.7920      0.00000

 k-point    11 :       0.0000    0.5000   -0.2500
  band No.  band energies     occupation 
      1     -13.3004      1.00000
      2     -13.0089      1.00000
      3     -12.7753      1.00000
      4     -12.6200      1.00000
      5     -12.6137      1.00000
      6     -12.4519      1.00000
      7     -12.3561      1.00000
      8     -12.3545      1.00000
      9      -0.5356      1.00000
     10      -0.2974      1.00000
     11      -0.2811      1.00000
     12      -0.2147      1.00000
     13       0.0157      1.00000
     14       0.0890      1.00000
     15       0.1837      1.00000
     16       0.7158      1.00000
     17       0.9930      1.00000
     18       1.0183      1.00000
     19       1.1148      1.00000
     20       1.6195      1.00000
     21       1.6351      1.00000
     22       1.8286      1.00000
     23       1.9401      1.00000
     24       2.1509      1.00000
     25       2.2174      1.00000
     26       2.3811      1.00000
     27       2.4481      1.00000
     28       2.5090      1.00000
     29       2.6222      1.00000
     30       2.8509      1.00000
     31       2.8544      1.00000
     32       2.9531      1.00000
     33      10.0437      0.64225
     34      10.7774      0.00000
     35      11.5786      0.00000
     36      12.1130      0.00000
     37      12.1788      0.00000
     38      12.8538      0.00000
     39      13.3818      0.00000
     40      13.4927      0.00000
     41      13.7718      0.00000
     42      13.9301      0.00000
     43      13.9998      0.00000
     44      14.5580      0.00000
     45      15.0016      0.00000
     46      15.0997      0.00000
     47      15.2779      0.00000
     48      15.3884      0.00000
     49      15.4843      0.00000
     50      15.6854      0.00000
     51      16.2880      0.00000
     52      16.8020      0.00000

 k-point    12 :       0.5000    0.0000   -0.2500
  band No.  band energies     occupation 
      1     -13.3001      1.00000
      2     -13.0093      1.00000
      3     -12.7758      1.00000
      4     -12.6214      1.00000
      5     -12.6108      1.00000
      6     -12.4534      1.00000
      7     -12.3560      1.00000
      8     -12.3539      1.00000
      9      -0.5340      1.00000
     10      -0.2976      1.00000
     11      -0.2796      1.00000
     12      -0.2160      1.00000
     13       0.0149      1.00000
     14       0.0894      1.00000
     15       0.1824      1.00000
     16       0.7132      1.00000
     17       0.9930      1.00000
     18       1.0179      1.00000
     19       1.1149      1.00000
     20       1.6203      1.00000
     21       1.6340      1.00000
     22       1.8288      1.00000
     23       1.9402      1.00000
     24       2.1507      1.00000
     25       2.2156      1.00000
     26       2.3889      1.00000
     27       2.4469      1.00000
     28       2.5074      1.00000
     29       2.6234      1.00000
     30       2.8499      1.00000
     31       2.8555      1.00000
     32       2.9528      1.00000
     33      10.0416      0.66408
     34      10.7870      0.00000
     35      11.5772      0.00000
     36      12.1134      0.00000
     37      12.1622      0.00000
     38      12.8611      0.00000
     39      13.4017      0.00000
     40      13.4925      0.00000
     41      13.7610      0.00000
     42      13.9278      0.00000
     43      13.9963      0.00000
     44      14.5544      0.00000
     45      15.0072      0.00000
     46      15.0919      0.00000
     47      15.2779      0.00000
     48      15.3902      0.00000
     49      15.4764      0.00000
     50      15.6806      0.00000
     51      16.2928      0.00000
     52      16.7918      0.00000

 k-point    13 :       0.5000    0.5000    0.2500
[...]
     34      10.9666      0.00000
     35      11.7066      0.00000
     36      12.2866      0.00000
     37      12.2991      0.00000
     38      12.9586      0.00000
     39      13.4928      0.00000
     40      13.5887      0.00000
     41      13.8650      0.00000
     42      14.0401      0.00000
     43      14.0912      0.00000
     44      14.6695      0.00000
     45      15.1074      0.00000
     46      15.1859      0.00000
     47      15.3830      0.00000
     48      15.4919      0.00000
     49      15.5740      0.00000
     50      15.7651      0.00000
     51      16.3816      0.00000
     52      16.8484      0.00000

 k-point    16 :       0.5000    0.2500    0.0000
  band No.  band energies     occupation 
      1     -13.2549      1.00000
      2     -12.9662      1.00000
      3     -12.7311      1.00000
      4     -12.5784      1.00000
      5     -12.5714      1.00000
      6     -12.4097      1.00000
      7     -12.3160      1.00000
      8     -12.3135      1.00000
      9      -0.4600      1.00000
     10      -0.2377      1.00000
     11      -0.2242      1.00000
     12      -0.1686      1.00000
     13       0.0632      1.00000
     14       0.1354      1.00000
     15       0.2338      1.00000
     16       0.7713      1.00000
     17       1.0411      1.00000
     18       1.0568      1.00000
     19       1.1628      1.00000
     20       1.6602      1.00000
     21       1.6824      1.00000
     22       1.8708      1.00000
     23       1.9785      1.00000
     24       2.1951      1.00000
     25       2.2593      1.00000
     26       2.4243      1.00000
     27       2.4823      1.00000
     28       2.5480      1.00000
     29       2.6571      1.00000
     30       2.8880      1.00000
     31       2.8914      1.00000
     32       2.9909      1.00000
     33      10.1748      0.00041
     34      10.9665      0.00000
     35      11.7122      0.00000
     36      12.2781      0.00000
     37      12.3053      0.00000
     38      12.9613      0.00000
     39      13.4829      0.00000
     40      13.5905      0.00000
     41      13.8878      0.00000
     42      14.0248      0.00000
     43      14.0816      0.00000
     44      14.6647      0.00000
     45      15.1222      0.00000
     46      15.1830      0.00000
     47      15.3830      0.00000
     48      15.4801      0.00000
     49      15.5704      0.00000
     50      15.7751      0.00000
     51      16.3671      0.00000
     52      16.8817      0.00000


--------------------------------------------------------------------------------------------------------


 soft charge-density along one line, spin component           1
         0         1         2         3         4         5         6         7         8         9
 total charge-density along one line
 
 soft charge-density along one line, spin component           2
         0         1         2         3         4         5         6         7         8         9
 total charge-density along one line
 
 pseudopotential strength for first ion, spin component:           1
  3.016   9.576  -0.000   0.000  -0.000  -0.000   0.000  -0.000
  9.576  30.253  -0.001   0.000  -0.000  -0.001   0.000  -0.000
 -0.000  -0.001   7.465   0.000  -0.000  10.795   0.000  -0.000
  0.000   0.000   0.000   7.466   0.000   0.000  10.796   0.001
 -0.000  -0.000  -0.000   0.000   7.465  -0.000   0.001  10.795
 -0.000  -0.001  10.795   0.000  -0.000  14.838   0.000  -0.000
  0.000   0.000   0.000  10.796   0.001   0.000  14.838   0.001
 -0.000  -0.000  -0.000   0.001  10.795  -0.000   0.001  14.838
 -0.000  -0.000  -0.000  -0.007  -0.000  -0.000  -0.009  -0.000
  0.000   0.000   0.000  -0.000  -0.007   0.000  -0.000  -0.009
  0.000   0.000  -0.000   0.000   0.000  -0.000   0.000   0.000
  0.000   0.001  -0.007  -0.000   0.000  -0.009  -0.000   0.000
 -0.000  -0.000   0.000   0.000  -0.000   0.000   0.000  -0.000
 pseudopotential strength for first ion, spin component:           2
  3.016   9.574  -0.000   0.000  -0.000  -0.000   0.000  -0.000
  9.574  30.246  -0.000   0.000  -0.000  -0.001   0.000  -0.000
 -0.000  -0.000   7.465   0.000  -0.000  10.794   0.000  -0.000
  0.000   0.000   0.000   7.465   0.000   0.000  10.794   0.001
 -0.000  -0.000  -0.000   0.000   7.465  -0.000   0.001  10.794
 -0.000  -0.001  10.794   0.000  -0.000  14.835   0.000  -0.000
  0.000   0.000   0.000  10.794   0.001   0.000  14.835   0.001
 -0.000  -0.000  -0.000   0.001  10.794  -0.000   0.001  14.835
 -0.000  -0.000  -0.000  -0.007  -0.000  -0.000  -0.009  -0.000
  0.000   0.000   0.000  -0.000  -0.007   0.000  -0.000  -0.009
  0.000   0.000  -0.000   0.000   0.000  -0.000   0.000   0.000
  0.000   0.001  -0.007  -0.000   0.000  -0.009  -0.000   0.000
 -0.000  -0.000   0.000   0.000   0.000   0.000   0.000  -0.000
 total augmentation occupancy for first ion, spin component:           1
  1.898  -0.084  -0.001   0.000  -0.000  -0.000   0.000  -0.000   0.000  -0.000   0.001  -0.001   0.000
 -0.084   0.005  -0.000  -0.000  -0.000   0.000   0.000  -0.000  -0.000   0.000  -0.000   0.000  -0.000
 -0.001  -0.000   0.217  -0.000   0.000  -0.021   0.000  -0.000  -0.000  -0.000  -0.001   0.071  -0.001
  0.000  -0.000  -0.000   0.218  -0.001   0.000  -0.021   0.000   0.071  -0.001  -0.000  -0.000   0.000
 -0.000  -0.000   0.000  -0.001   0.217  -0.000   0.000  -0.021   0.000   0.071  -0.000   0.000   0.000
 -0.000   0.000  -0.021   0.000  -0.000   0.002  -0.000   0.000   0.000   0.000   0.000  -0.008   0.000
  0.000   0.000   0.000  -0.021   0.000  -0.000   0.002  -0.000  -0.008   0.000   0.000   0.000  -0.000
 -0.000  -0.000  -0.000   0.000  -0.021   0.000  -0.000   0.002  -0.000  -0.008   0.000  -0.000  -0.000
  0.000  -0.000  -0.000   0.071   0.000   0.000  -0.008  -0.000   0.071   0.000  -0.000  -0.000   0.000
 -0.000   0.000  -0.000  -0.001   0.071   0.000   0.000  -0.008   0.000   0.071  -0.000   0.000   0.000
  0.001  -0.000  -0.001  -0.000  -0.000   0.000   0.000   0.000  -0.000  -0.000   0.035  -0.001  -0.000
 -0.001   0.000   0.071  -0.000   0.000  -0.008   0.000  -0.000  -0.000   0.000  -0.001   0.071  -0.000
  0.000  -0.000  -0.001   0.000   0.000   0.000  -0.000  -0.000   0.000   0.000  -0.000  -0.000   0.035
 total augmentation occupancy for first ion, spin component:           2
  0.053   0.001  -0.001  -0.000  -0.000   0.000   0.000   0.000  -0.000   0.000  -0.000   0.001  -0.000
  0.001   0.000  -0.000  -0.000  -0.000  -0.000  -0.000  -0.000  -0.000   0.000  -0.000   0.000  -0.000
 -0.001  -0.000   0.002   0.000   0.000  -0.000  -0.000  -0.000  -0.000  -0.000   0.000  -0.001   0.000
 -0.000  -0.000   0.000   0.002   0.000  -0.000  -0.000  -0.000  -0.001  -0.000  -0.000  -0.000  -0.000
 -0.000  -0.000   0.000   0.000   0.002  -0.000  -0.000  -0.000  -0.000  -0.001   0.000  -0.000  -0.000
  0.000  -0.000  -0.000  -0.000  -0.000   0.000   0.000   0.000   0.000  -0.000  -0.000   0.000  -0.000
  0.000  -0.000  -0.000  -0.000  -0.000   0.000   0.000   0.000   0.000   0.000   0.000   0.000   0.000
  0.000  -0.000  -0.000  -0.000  -0.000   0.000   0.000   0.000   0.000   0.000  -0.000  -0.000   0.000
 -0.000  -0.000  -0.000  -0.001  -0.000   0.000   0.000   0.000   0.000   0.000   0.000   0.000   0.000
  0.000   0.000  -0.000  -0.000  -0.001  -0.000   0.000   0.000   0.000   0.000  -0.000   0.000  -0.000
 -0.000  -0.000   0.000  -0.000   0.000  -0.000   0.000  -0.000   0.000  -0.000   0.000  -0.000   0.000
  0.001   0.000  -0.001  -0.000  -0.000   0.000   0.000  -0.000   0.000   0.000  -0.000   0.000   0.000
 -0.000  -0.000   0.000  -0.000  -0.000  -0.000   0.000   0.000   0.000  -0.000   0.000   0.000   0.000


------------------------ aborting loop because EDIFF is reached ----------------------------------------


 


 total charge     
 
# of ion     s       p       d       tot
----------------------------------------
  1        0.279   0.330   0.155   0.764
  2        0.203   0.205   0.089   0.496
  3        0.200   0.204   0.088   0.492
  4        0.202   0.204   0.089   0.495
  5        0.150   0.166   0.072   0.388
  6        0.201   0.204   0.088   0.493
  7        0.150   0.167   0.072   0.390
  8        0.150   0.166   0.072   0.388
  9        0.150   0.167   0.072   0.390
 10        1.589   3.541   0.000   5.130
 11        1.589   3.543   0.000   5.132
 12        1.589   3.541   0.000   5.130
 13        1.587   3.580   0.000   5.167
 14        1.589   3.542   0.000   5.131
 15        1.587   3.579   0.000   5.166
 16        1.587   3.580   0.000   5.167
 17        1.587   3.579   0.000   5.166
------------------------------------------------
tot       14.388  30.297   0.798  45.483
 


 magnetization (x)
 
# of ion     s       p       d       tot
----------------------------------------
  1        0.011   0.003   0.000   0.013
  2        0.016   0.003   0.001   0.021
  3        0.015   0.003   0.001   0.019
  4        0.016   0.003   0.001   0.020
  5        0.005   0.002   0.000   0.007
  6        0.015   0.003   0.001   0.019
  7        0.005   0.002   0.000   0.007
  8        0.005   0.002   0.000   0.007
  9        0.005   0.002   0.000   0.007
 10        0.009   0.011   0.000   0.019
 11        0.009   0.011   0.000   0.020
 12        0.009   0.011   0.000   0.019
 13        0.009   0.014   0.000   0.023
 14        0.009   0.011   0.000   0.020
 15        0.009   0.014   0.000   0.023
 16        0.009   0.014   0.000   0.023
 17        0.009   0.014   0.000   0.023
------------------------------------------------
tot        0.161   0.123   0.008   0.291
 
    CHARGE:  cpu time    0.0200: real time    0.0206
    FORLOC:  cpu time    0.0000: real time    0.0007
    FORNL :  cpu time    0.1360: real time    0.1340
    STRESS:  cpu time    0.4080: real time    0.4089
    FORCOR:  cpu time    0.0080: real time    0.0081
    FORHAR:  cpu time    0.0040: real time    0.0014
    MIXING:  cpu time    0.0000: real time    0.0005
    OFIELD:  cpu time    0.0000: real time    0.0000

  FORCE on cell =-STRESS in cart. coord.  units (eV):
  Direction    XX          YY          ZZ          XY          YZ          ZX
  --------------------------------------------------------------------------------------
  Alpha Z   167.07285   167.07285   167.07285
  Ewald    -969.89211  -969.74861  -967.99925     0.03538    -0.25153    -0.86759
  Hartree   380.54756   380.53661   380.62448    -0.00022    -0.02010    -0.08291
  E(xc)    -297.10761  -297.11204  -297.13416    -0.00158    -0.00002     0.00138
  Local    -335.84931  -335.93900  -337.57405    -0.04097     0.31952     1.11012
  n-local  -131.52354  -131.50604  -131.35508     0.01029    -0.00689    -0.01712
  augment    53.81317    53.81405    53.81156     0.00064     0.00015    -0.00124
  Kinetic  1148.35869  1148.38656  1148.41314     0.00690     0.01765     0.03979
  Fock        0.00000     0.00000     0.00000     0.00000     0.00000     0.00000
  -------------------------------------------------------------------------------------
  Total      15.41970    15.50438    15.85950     0.01044     0.05877     0.18245
  in kB     161.26591   162.15148   165.86550     0.10920     0.61463     1.90812
  external pressure =      163.09 kB  Pullay stress =        0.00 kB


 VOLUME and BASIS-vectors are now :
 -----------------------------------------------------------------------------
  energy-cutoff  :      400.00
  volume of cell :      153.19
      direct lattice vectors                 reciprocal lattice vectors
     0.000000000  4.246893000  4.246893000    -0.117733129  0.117733129  0.117733129
     4.246893000  0.000000000  4.246893000     0.117733129 -0.117733129  0.117733129
     4.246893000  4.246893000  0.000000000     0.117733129  0.117733129 -0.117733129

  length of vectors
     6.006013679  6.006013679  6.006013679     0.203919761  0.203919761  0.203919761


 FORCES acting on ions
    electron-ion (+dipol)            ewald-force                    non-local-force                 convergence-correction
 -----------------------------------------------------------------------------------------------
   0.958E-01 0.475E+00 0.437E-01   -.895E-01 -.450E+00 -.475E-01   0.144E-01 0.440E-02 -.902E-02   0.267E-05 0.101E-04 -.701E-06
   -.622E+01 -.675E+01 -.723E+01   0.460E+01 0.502E+01 0.546E+01   0.161E+01 0.174E+01 0.181E+01   -.422E-03 -.407E-03 -.419E-03
   0.643E+01 0.652E+01 -.625E+01   -.474E+01 -.482E+01 0.461E+01   -.171E+01 -.172E+01 0.164E+01   0.408E-03 0.421E-03 -.407E-03
   0.641E+01 -.635E+01 0.722E+01   -.475E+01 0.468E+01 -.544E+01   -.166E+01 0.166E+01 -.183E+01   0.426E-03 -.409E-03 0.414E-03
   0.101E+01 -.721E+00 -.667E+00   -.891E+00 0.660E+00 0.587E+00   -.120E+00 0.614E-01 0.848E-01   0.349E-03 -.368E-03 -.351E-03
   -.670E+01 0.634E+01 0.628E+01   0.496E+01 -.467E+01 -.465E+01   0.176E+01 -.168E+01 -.163E+01   -.406E-03 0.427E-03 0.407E-03
   -.559E+00 0.103E+01 -.699E+00   0.511E+00 -.916E+00 0.616E+00   0.397E-01 -.142E+00 0.965E-01   -.369E-03 0.347E-03 -.368E-03
   -.938E+00 -.882E+00 0.773E+00   0.831E+00 0.800E+00 -.679E+00   0.105E+00 0.102E+00 -.107E+00   -.350E-03 -.363E-03 0.350E-03
   0.407E+00 0.996E+00 0.558E+00   -.379E+00 -.886E+00 -.493E+00   -.883E-02 -.129E+00 -.704E-01   0.362E-03 0.350E-03 0.374E-03
   -.620E+01 -.616E+01 -.628E+01   0.960E+01 0.980E+01 0.988E+01   -.339E+01 -.364E+01 -.360E+01   0.114E-02 0.123E-02 0.115E-02
   0.570E+01 0.636E+01 -.468E+01   -.922E+01 -.987E+01 0.801E+01   0.352E+01 0.351E+01 -.336E+01   -.117E-02 -.114E-02 0.114E-02
   0.640E+01 -.567E+01 0.611E+01   -.986E+01 0.917E+01 -.971E+01   0.345E+01 -.350E+01 0.361E+01   -.113E-02 0.120E-02 -.116E-02
   0.418E+01 -.470E+01 -.463E+01   -.740E+01 0.802E+01 0.807E+01   0.320E+01 -.330E+01 -.343E+01   0.113E-04 -.730E-04 -.300E-04
   -.563E+01 0.638E+01 0.500E+01   0.922E+01 -.985E+01 -.834E+01   -.362E+01 0.347E+01 0.336E+01   0.119E-02 -.113E-02 -.114E-02
   -.469E+01 0.398E+01 -.493E+01   0.801E+01 -.731E+01 0.814E+01   -.332E+01 0.332E+01 -.320E+01   -.775E-04 0.384E-04 -.661E-04
   -.431E+01 -.461E+01 0.444E+01   0.758E+01 0.790E+01 -.786E+01   -.326E+01 -.328E+01 0.342E+01   -.307E-04 -.629E-04 0.306E-04
   0.459E+01 0.410E+01 0.495E+01   -.798E+01 -.730E+01 -.816E+01   0.339E+01 0.319E+01 0.320E+01   0.769E-04 0.541E-04 0.803E-04
 -----------------------------------------------------------------------------------------------
   -.165E-01 0.321E+00 0.869E-02   -.515E-13 0.444E-14 -.355E-14   0.173E-01 -.317E+00 -.117E-01   0.894E-05 0.123E-03 0.806E-05
 
 
 POSITION                                       TOTAL-FORCE (eV/Angst)
 -----------------------------------------------------------------------------------
      1.05109      1.05429      1.05308         0.020605      0.029181     -0.012685
      8.32949      8.32387      8.30076        -0.011882      0.016238      0.033796
      6.53120      6.54376      8.32517        -0.015014     -0.025031      0.003936
      6.52707      8.33469      6.54421         0.007873     -0.008784     -0.043515
      4.24121      6.37502      6.35878         0.001055     -0.000082      0.004888
      8.30994      6.53971      6.51955         0.019334     -0.003886      0.004124
      6.36315      4.25608      6.35543        -0.008567     -0.030793      0.013526
      2.11461      2.12504      4.23963        -0.002022      0.019507     -0.012253
      4.23637      4.25558      4.24161         0.018820     -0.018295     -0.004945
      2.12861      2.13516      2.12275         0.007729      0.011182     -0.002248
      4.22513      4.23906      2.14011         0.005431     -0.005557     -0.028819
      4.22878      2.13980      4.22708        -0.007232     -0.000063      0.011156
      6.35071      4.27102      4.26344        -0.014926      0.018476      0.012478
      2.12639      4.23759      4.21386        -0.025399     -0.001415      0.019118
      4.26037      6.35428      4.25265        -0.000365     -0.005773      0.008930
      4.25626      4.26916      6.33387         0.007454      0.013868      0.000624
      6.33820      6.35920      6.34454        -0.002894     -0.008773     -0.008112
 -----------------------------------------------------------------------------------
    total drift:                                0.000741      0.003708     -0.002961


--------------------------------------------------------------------------------------------------------



  FREE ENERGIE OF THE ION-ELECTRON SYSTEM (eV)
  ---------------------------------------------------
  free  energy   TOTEN  =       -92.94105602 eV

  energy  without entropy=      -92.93138494  energy(sigma->0) =      -92.93622048
 


--------------------------------------------------------------------------------------------------------


    POTLOK:  cpu time    0.3840: real time    0.3862


--------------------------------------------------------------------------------------------------------




--------------------------------------------------------------------------------------------------------


  
 reached required accuracy - stopping structural energy minimisation
     LOOP+:  cpu time   17.0800: real time   17.1603
    4ORBIT:  cpu time    0.0000: real time    0.0000
 


 total charge     
 
# of ion     s       p       d       tot
----------------------------------------
  1        0.279   0.330   0.155   0.764
  2        0.203   0.205   0.089   0.496
  3        0.200   0.204   0.088   0.492
  4        0.202   0.204   0.089   0.495
  5        0.150   0.166   0.072   0.388
  6        0.201   0.204   0.088   0.493
  7        0.150   0.167   0.072   0.390
  8        0.150   0.166   0.072   0.388
  9        0.150   0.167   0.072   0.390
 10        1.589   3.541   0.000   5.130
 11        1.589   3.543   0.000   5.132
 12        1.589   3.541   0.000   5.130
 13        1.587   3.580   0.000   5.167
 14        1.589   3.542   0.000   5.131
 15        1.587   3.579   0.000   5.166
 16        1.587   3.580   0.000   5.167
 17        1.587   3.579   0.000   5.166
------------------------------------------------
tot       14.388  30.297   0.798  45.483
 


 magnetization (x)
 
# of ion     s       p       d       tot
----------------------------------------
  1        0.011   0.003   0.000   0.013
  2        0.016   0.003   0.001   0.021
  3        0.015   0.003   0.001   0.019
  4        0.016   0.003   0.001   0.020
  5        0.005   0.002   0.000   0.007
  6        0.015   0.003   0.001   0.019
  7        0.005   0.002   0.000   0.007
  8        0.005   0.002   0.000   0.007
  9        0.005   0.002   0.000   0.007
 10        0.009   0.011   0.000   0.019
 11        0.009   0.011   0.000   0.020
 12        0.009   0.011   0.000   0.019
 13        0.009   0.014   0.000   0.023
 14        0.009   0.011   0.000   0.020
 15        0.009   0.014   0.000   0.023
 16        0.009   0.014   0.000   0.023
 17        0.009   0.014   0.000   0.023
------------------------------------------------
tot        0.161   0.123   0.008   0.291
 

 total amount of memory used by VASP on root node    34501. kBytes
========================================================================

   base      :      30000. kBytes
   nonlr-proj:        970. kBytes
   fftplans  :        353. kBytes
   grid      :        883. kBytes
   one-center:         32. kBytes
   wavefun   :       2263. kBytes
 
  
  
 General timing and accounting informations for this job:
 ========================================================
  
                  Total CPU time used (sec):       18.572
                            User time (sec):       18.272
                          System time (sec):        0.300
                         Elapsed time (sec):       18.954
  
                   Maximum memory used (kb):       85148.
                   Average memory used (kb):           0.
  
                          Minor page faults:        17594
                          Major page faults:            9
                 Voluntary context switches:         2285
