<?xml version="1.0" encoding="ISO-8859-1"?>
<modeling>
 <generator>
  <i name="program" type="string">vasp </i>
  <i name="version" type="string">5.4.1  </i>
  <i name="subversion" type="string">05Feb16 (build Mar 31 2016 13:39:20) complex                          parallel </i>
  <i name="platform" type="string">IFC91_ompi </i>
  <i name="date" type="string">2018 04 12 </i>
  <i name="time" type="string">14:17:26 </i>
 </generator>
 <incar>
  <i type="string" name="PREC">n</i>
  <i type="string" name="ALGO"> N</i>
  <i type="int" name="ISPIN">     2</i>
  <i type="int" name="NELM">   100</i>
  <i type="int" name="NELMIN">     4</i>
  <i type="int" name="IBRION">     2</i>
  <i name="EDIFF">      0.00000100</i>
  <i name="EDIFFG">     -0.05000000</i>
  <i type="int" name="NSW">    20</i>
  <i type="int" name="ISIF">     2</i>
  <i name="ENCUT">    400.00000000</i>
  <i name="NELECT">     65.00000000</i>
  <i type="string" name="LREAL"> A</i>
  <i type="int" name="ISMEAR">     0</i>
  <i name="SIGMA">      0.05000000</i>
  <i type="logical" name="LWAVE"> F  </i>
  <i type="logical" name="LCHARG"> F  </i>
  <i type="logical" name="LORBIT"> F  </i>
  <i type="logical" name="LASPH"> T  </i>
  <v type="int" name="KPOINT_BSE">    -1     0     0     0</v>
  <i type="int" name="NELM">   100</i>
  <i type="logical" name="LASPH"> T  </i>
 </incar>
 <kpoints>
  <generation param="Monkhorst-Pack">
   <v type="int" name="divisions">       2        2        2 </v>
   <v name="usershift">      0.00000000       0.00000000       0.00000000 </v>
   <v name="genvec1">      0.50000000       0.00000000       0.00000000 </v>
   <v name="genvec2">      0.00000000       0.50000000       0.00000000 </v>
   <v name="genvec3">      0.00000000       0.00000000       0.50000000 </v>
   <v name="shift">      0.50000000       0.50000000       0.50000000 </v>
  </generation>
  <varray name="kpointlist" >
   <v>       0.25000000       0.25000000       0.25000000 </v>
   <v>       0.25000000       0.00000000       0.00000000 </v>
   <v>       0.00000000       0.00000000      -0.25000000 </v>
   <v>       0.00000000       0.25000000       0.00000000 </v>
   <v>      -0.25000000       0.25000000       0.25000000 </v>
   <v>       0.25000000      -0.25000000       0.25000000 </v>
   <v>       0.25000000       0.25000000      -0.25000000 </v>
   <v>       0.25000000       0.00000000       0.50000000 </v>
   <v>      -0.25000000       0.50000000       0.50000000 </v>
   <v>       0.25000000       0.50000000       0.00000000 </v>
   <v>       0.00000000       0.50000000      -0.25000000 </v>
   <v>       0.50000000       0.00000000      -0.25000000 </v>
   <v>       0.50000000       0.50000000       0.25000000 </v>
   <v>       0.50000000      -0.25000000       0.50000000 </v>
   <v>       0.00000000       0.25000000       0.50000000 </v>
   <v>       0.50000000       0.25000000       0.00000000 </v>
  </varray>
  <varray name="weights" >
   <v>       0.06250000 </v>
   <v>       0.06250000 </v>
   <v>       0.06250000 </v>
   <v>       0.06250000 </v>
   <v>       0.06250000 </v>
   <v>       0.06250000 </v>
   <v>       0.06250000 </v>
   <v>       0.06250000 </v>
   <v>       0.06250000 </v>
   <v>       0.06250000 </v>
   <v>       0.06250000 </v>
   <v>       0.06250000 </v>
   <v>       0.06250000 </v>
   <v>       0.06250000 </v>
   <v>       0.06250000 </v>
   <v>       0.06250000 </v>
  </varray>
 </kpoints>
 <parameters>
  <separator name="general" >
   <i type="string" name="SYSTEM">unknown system</i>
   <i type="logical" name="LCOMPAT"> F  </i>
  </separator>
  <separator name="electronic" >
   <i type="string" name="PREC">n</i>
   <i name="ENMAX">    400.00000000</i>
   <i name="ENAUG">    605.39200000</i>
   <i name="EDIFF">      0.00000100</i>
   <i type="int" name="IALGO">    38</i>
   <i type="int" name="IWAVPR">    11</i>
   <i type="int" name="NBANDS">    52</i>
   <i name="NELECT">     65.00000000</i>
   <i type="int" name="TURBO">     0</i>
   <i type="int" name="IRESTART">     0</i>
   <i type="int" name="NREBOOT">     0</i>
   <i type="int" name="NMIN">     0</i>
   <i name="EREF">      0.00000000</i>
   <separator name="electronic smearing" >
    <i type="int" name="ISMEAR">     0</i>
    <i name="SIGMA">      0.05000000</i>
    <i name="KSPACING">      0.50000000</i>
    <i type="logical" name="KGAMMA"> T  </i>
   </separator>
   <separator name="electronic projectors" >
    <i type="logical" name="LREAL"> T  </i>
    <v name="ROPT">     -0.00050000     -0.00050000</v>
    <i type="int" name="LMAXPAW">  -100</i>
    <i type="int" name="LMAXMIX">     2</i>
    <i type="logical" name="NLSPLINE"> F  </i>
   </separator>
   <separator name="electronic startup" >
    <i type="int" name="ISTART">     0</i>
    <i type="int" name="ICHARG">     2</i>
    <i type="int" name="INIWAV">     1</i>
   </separator>
   <separator name="electronic spin" >
    <i type="int" name="ISPIN">     2</i>
    <i type="logical" name="LNONCOLLINEAR"> F  </i>
    <v name="MAGMOM">      1.00000000      1.00000000      1.00000000      1.00000000      1.00000000      1.00000000      1.00000000      1.00000000      1.00000000      1.00000000      1.00000000      1.00000000      1.00000000      1.00000000      1.00000000      1.00000000      1.00000000</v>
    <i name="NUPDOWN">     -1.00000000</i>
    <i type="logical" name="LSORBIT"> F  </i>
    <v name="SAXIS">      0.00000000      0.00000000      1.00000000</v>
    <i type="logical" name="LSPIRAL"> F  </i>
    <v name="QSPIRAL">      0.00000000      0.00000000      0.00000000</v>
    <i type="logical" name="LZEROZ"> F  </i>
   </separator>
   <separator name="electronic exchange-correlation" >
    <i type="logical" name="LASPH"> T  </i>
    <i type="logical" name="LMETAGGA"> F  </i>
   </separator>
   <separator name="electronic convergence" >
    <i type="int" name="NELM">   100</i>
    <i type="int" name="NELMDL">     0</i>
    <i type="int" name="NELMIN">     4</i>
    <i name="ENINI">    400.00000000</i>
    <separator name="electronic convergence detail" >
     <i type="logical" name="LDIAG"> T  </i>
     <i type="logical" name="LSUBROT"> F  </i>
     <i name="WEIMIN">      0.00100000</i>
     <i name="EBREAK">      0.00000000</i>
     <i name="DEPER">      0.30000000</i>
     <i type="int" name="NRMM">     4</i>
     <i name="TIME">      0.40000000</i>
    </separator>
   </separator>
   <separator name="electronic mixer" >
    <i name="AMIX">      0.40000000</i>
    <i name="BMIX">      1.00000000</i>
    <i name="AMIN">      0.10000000</i>
    <i name="AMIX_MAG">      1.60000000</i>
    <i name="BMIX_MAG">      1.00000000</i>
    <separator name="electronic mixer details" >
     <i type="int" name="IMIX">     4</i>
     <i type="logical" name="MIXFIRST"> F  </i>
     <i type="int" name="MAXMIX">   -45</i>
     <i name="WC">    100.00000000</i>
     <i type="int" name="INIMIX">     1</i>
     <i type="int" name="MIXPRE">     1</i>
     <i type="int" name="MREMOVE">     5</i>
    </separator>
   </separator>
   <separator name="electronic dipolcorrection" >
    <i type="logical" name="LDIPOL"> F  </i>
    <i type="logical" name="LMONO"> F  </i>
    <i type="int" name="IDIPOL">     0</i>
    <i name="EPSILON">      1.00000000</i>
    <v name="DIPOL">   -100.00000000   -100.00000000   -100.00000000</v>
    <i name="EFIELD">      0.00000000</i>
   </separator>
  </separator>
  <separator name="grids" >
   <i type="int" name="NGX">    30</i>
   <i type="int" name="NGY">    30</i>
   <i type="int" name="NGZ">    30</i>
   <i type="int" name="NGXF">    60</i>
   <i type="int" name="NGYF">    60</i>
   <i type="int" name="NGZF">    60</i>
   <i type="logical" name="ADDGRID"> F  </i>
  </separator>
  <separator name="ionic" >
   <i type="int" name="NSW">    20</i>
   <i type="int" name="IBRION">     2</i>
   <i type="int" name="ISIF">     2</i>
   <i name="PSTRESS">      0.00000000</i>
   <i name="EDIFFG">     -0.05000000</i>
   <i type="int" name="NFREE">     1</i>
   <i name="POTIM">      0.50000000</i>
   <i name="SMASS">     -3.00000000</i>
   <i name="SCALEE">      1.00000000</i>
  </separator>
  <separator name="ionic md" >
   <i name="TEBEG">      0.00010000</i>
   <i name="TEEND">      0.00010000</i>
   <i type="int" name="NBLOCK">     1</i>
   <i type="int" name="KBLOCK">    20</i>
   <i type="int" name="NPACO">   256</i>
   <i name="APACO">     16.00000000</i>
  </separator>
  <separator name="symmetry" >
   <i type="int" name="ISYM">     2</i>
   <i name="SYMPREC">      0.00001000</i>
  </separator>
  <separator name="dos" >
   <i type="logical" name="LORBIT"> F  </i>
   <v name="RWIGS">     -1.00000000     -1.00000000</v>
   <i type="int" name="NEDOS">   301</i>
   <i name="EMIN">     10.00000000</i>
   <i name="EMAX">    -10.00000000</i>
   <i name="EFERMI">      0.00000000</i>
  </separator>
  <separator name="writing" >
   <i type="int" name="NWRITE">     2</i>
   <i type="logical" name="LWAVE"> F  </i>
   <i type="logical" name="LCHARG"> F  </i>
   <i type="logical" name="LPARD"> F  </i>
   <i type="logical" name="LVTOT"> F  </i>
   <i type="logical" name="LVHAR"> F  </i>
   <i type="logical" name="LELF"> F  </i>
   <i type="logical" name="LOPTICS"> F  </i>
   <v name="STM">      0.00000000      0.00000000      0.00000000      0.00000000      0.00000000      0.00000000      0.00000000</v>
  </separator>
  <separator name="performance" >
   <i type="int" name="NPAR">     4</i>
   <i type="int" name="NSIM">     4</i>
   <i type="int" name="NBLK">    -1</i>
   <i type="logical" name="LPLANE"> T  </i>
   <i type="logical" name="LSCALAPACK"> T  </i>
   <i type="logical" name="LSCAAWARE"> F  </i>
   <i type="logical" name="LSCALU"> F  </i>
   <i type="logical" name="LASYNC"> F  </i>
   <i type="logical" name="LORBITALREAL"> F  </i>
  </separator>
  <separator name="miscellaneous" >
   <i type="int" name="IDIOT">     3</i>
   <i type="logical" name="LMUSIC"> F  </i>
   <v name="POMASS">     24.30500000     16.00000000</v>
   <v name="DARWINR">      0.00000000      0.00000000</v>
   <v name="DARWINV">      1.00000000      1.00000000</v>
   <i type="logical" name="LCORR"> T  </i>
  </separator>
  <i type="logical" name="GGA_COMPAT"> T  </i>
  <i type="logical" name="LBERRY"> F  </i>
  <i type="int" name="ICORELEVEL">     0</i>
  <i type="logical" name="LDAU"> F  </i>
  <i type="int" name="I_CONSTRAINED_M">     0</i>
  <separator name="electronic exchange-correlation" >
   <i type="string" name="GGA">--</i>
   <i type="int" name="VOSKOWN">     0</i>
   <i type="logical" name="LHFCALC"> F  </i>
   <i type="string" name="PRECFOCK"></i>
   <i type="logical" name="LSYMGRAD"> F  </i>
   <i type="logical" name="LHFONE"> F  </i>
   <i type="logical" name="LRHFCALC"> F  </i>
   <i type="logical" name="LTHOMAS"> F  </i>
   <i type="logical" name="LMODELHF"> F  </i>
   <i name="ENCUT4O">     -1.00000000</i>
   <i type="int" name="EXXOEP">     0</i>
   <i type="int" name="FOURORBIT">     0</i>
   <i name="AEXX">      0.00000000</i>
   <i name="HFALPHA">      0.00000000</i>
   <i name="MCALPHA">      0.00000000</i>
   <i name="ALDAX">      1.00000000</i>
   <i name="AGGAX">      1.00000000</i>
   <i name="ALDAC">      1.00000000</i>
   <i name="AGGAC">      1.00000000</i>
   <i type="int" name="NKREDX">     1</i>
   <i type="int" name="NKREDY">     1</i>
   <i type="int" name="NKREDZ">     1</i>
   <i type="logical" name="SHIFTRED"> F  </i>
   <i type="logical" name="ODDONLY"> F  </i>
   <i type="logical" name="EVENONLY"> F  </i>
   <i type="int" name="LMAXFOCK">     0</i>
   <i type="int" name="NMAXFOCKAE">     0</i>
   <i type="logical" name="LFOCKAEDFT"> F  </i>
   <i name="HFSCREEN">      0.00000000</i>
   <i name="HFSCREENC">      0.00000000</i>
   <i type="int" name="NBANDSGWLOW">     0</i>
  </separator>
  <separator name="vdW DFT" >
   <i type="logical" name="LUSE_VDW"> F  </i>
   <i name="Zab_VDW">     -0.84910000</i>
   <i name="PARAM1">      0.12340000</i>
   <i name="PARAM2">      1.00000000</i>
   <i name="PARAM3">      0.00000000</i>
  </separator>
  <separator name="model GW" >
   <i type="int" name="MODEL_GW">     0</i>
   <i name="MODEL_EPS0">      5.40687441</i>
   <i name="MODEL_ALPHA">      1.00000000</i>
  </separator>
  <separator name="linear response parameters" >
   <i type="logical" name="LEPSILON"> F  </i>
   <i type="logical" name="LRPA"> F  </i>
   <i type="logical" name="LNABLA"> F  </i>
   <i type="logical" name="LVEL"> F  </i>
   <i type="int" name="KINTER">     0</i>
   <i name="CSHIFT">      0.10000000</i>
   <i name="OMEGAMAX">     -1.00000000</i>
   <i name="DEG_THRESHOLD">      0.00200000</i>
  </separator>
  <separator name="orbital magnetization" >
   <i type="logical" name="NUCIND"> F  </i>
   <v name="MAGPOS">      0.00000000      0.00000000      0.00000000</v>
   <i type="logical" name="LNICSALL"> T  </i>
   <i type="logical" name="ORBITALMAG"> F  </i>
   <i type="logical" name="LMAGBLOCH"> F  </i>
   <i type="logical" name="LCHIMAG"> F  </i>
   <i type="logical" name="LGAUGE"> T  </i>
   <i type="int" name="MAGATOM">     0</i>
   <v name="MAGDIPOL">      0.00000000      0.00000000      0.00000000</v>
   <v name="AVECCONST">      0.00000000      0.00000000      0.00000000</v>
  </separator>
  <separator name="response functions" >
   <i type="logical" name="LADDER"> F  </i>
   <i type="logical" name="LFXC"> F  </i>
   <i type="logical" name="LHARTREE"> T  </i>
   <i type="int" name="IBSE">     0</i>
   <v type="int" name="KPOINT">    -1     0     0     0</v>
   <i type="logical" name="LTCTE"> F  </i>
   <i type="logical" name="LTETE"> F  </i>
   <i type="logical" name="LTRIPLET"> F  </i>
   <i type="logical" name="LFXCEPS"> F  </i>
   <i type="logical" name="LFXHEG"> F  </i>
   <i type="int" name="NATURALO">     0</i>
   <i type="logical" name="L2ORDER"> F  </i>
   <i type="logical" name="LUSEW"> F  </i>
   <i name="ENCUTGW">     -2.00000000</i>
   <i name="ENCUTGWSOFT">     -2.00000000</i>
   <i name="ENCUTLF">     -1.00000000</i>
   <i type="int" name="LMAXMP2">    -1</i>
   <i name="SCISSOR">      0.00000000</i>
   <i type="int" name="NOMEGA">     0</i>
   <i type="int" name="NOMEGAR">     0</i>
   <i type="int" name="NBANDSGW">    -1</i>
   <i type="int" name="NBANDSO">    -1</i>
   <i type="int" name="NBANDSV">    -1</i>
   <i type="int" name="NELM">   100</i>
   <i type="int" name="NELMHF">     1</i>
   <i type="int" name="DIM">     3</i>
   <i type="int" name="ANTIRES">     0</i>
   <i name="OMEGAMAX">    -30.00000000</i>
   <i name="OMEGAMIN">    -30.00000000</i>
   <i name="OMEGATL">   -200.00000000</i>
   <i type="int" name="OMEGAGRID">     0</i>
   <i name="CSHIFT">     -0.10000000</i>
   <i type="logical" name="SELFENERGY"> F  </i>
   <i type="logical" name="LSPECTRAL"> F  </i>
   <i type="logical" name="LSPECTRALGW"> F  </i>
   <i type="logical" name="LSINGLES"> F  </i>
   <i type="logical" name="LFERMIGW"> F  </i>
   <i type="logical" name="ODDONLYGW"> F  </i>
   <i type="logical" name="EVENONLYGW"> F  </i>
   <i type="int" name="NKREDLFX">     1</i>
   <i type="int" name="NKREDLFY">     1</i>
   <i type="int" name="NKREDLFZ">     1</i>
   <i type="int" name="MAXMEM">  1800</i>
   <i type="int" name="TELESCOPE">     0</i>
   <i type="int" name="TAUPAR">     1</i>
   <i type="int" name="OMEGAPAR">    -1</i>
   <i name="LAMBDA">      1.00000000</i>
  </separator>
  <separator name="External order field" >
   <i name="OFIELD_KAPPA">      0.00000000</i>
   <v name="OFIELD_K">      0.00000000      0.00000000      0.00000000</v>
   <i name="OFIELD_Q6_NEAR">      0.00000000</i>
   <i name="OFIELD_Q6_FAR">      0.00000000</i>
   <i name="OFIELD_A">      0.00000000</i>
  </separator>
 </parameters>
 <atominfo>
  <atoms>      17 </atoms>
  <types>       2 </types>
  <array name="atoms" >
   <dimension dim="1">ion</dimension>
   <field type="string">element</field>
   <field type="int">atomtype</field>
   <set>
    <rc><c>Mg</c><c>   1</c></rc>
    <rc><c>Mg</c><c>   1</c></rc>
    <rc><c>Mg</c><c>   1</c></rc>
    <rc><c>Mg</c><c>   1</c></rc>
    <rc><c>Mg</c><c>   1</c></rc>
    <rc><c>Mg</c><c>   1</c></rc>
    <rc><c>Mg</c><c>   1</c></rc>
    <rc><c>Mg</c><c>   1</c></rc>
    <rc><c>Mg</c><c>   1</c></rc>
    <rc><c>O </c><c>   2</c></rc>
    <rc><c>O </c><c>   2</c></rc>
    <rc><c>O </c><c>   2</c></rc>
    <rc><c>O </c><c>   2</c></rc>
    <rc><c>O </c><c>   2</c></rc>
    <rc><c>O </c><c>   2</c></rc>
    <rc><c>O </c><c>   2</c></rc>
    <rc><c>O </c><c>   2</c></rc>
   </set>
  </array>
  <array name="atomtypes" >
   <dimension dim="1">type</dimension>
   <field type="int">atomspertype</field>
   <field type="string">element</field>
   <field>mass</field>
   <field>valence</field>
   <field type="string">pseudopotential</field>
   <set>
    <rc><c>   9</c><c>Mg</c><c>     24.30500000</c><c>      2.00000000</c><c>  PAW_PBE Mg 13Apr2007                  </c></rc>
    <rc><c>   8</c><c>O </c><c>     16.00000000</c><c>      6.00000000</c><c>  PAW_PBE O 08Apr2002                   </c></rc>
   </set>
  </array>
 </atominfo>
 <structure name="initialpos" >
  <crystal>
   <varray name="basis" >
    <v>       0.00000000       4.24689300       4.24689300 </v>
    <v>       4.24689300       0.00000000       4.24689300 </v>
    <v>       4.24689300       4.24689300       0.00000000 </v>
   </varray>
   <i name="volume">    153.19477498 </i>
   <varray name="rec_basis" >
    <v>      -0.11773313       0.11773313       0.11773313 </v>
    <v>       0.11773313      -0.11773313       0.11773313 </v>
    <v>       0.11773313       0.11773313      -0.11773313 </v>
   </varray>
  </crystal>
  <varray name="positions" >
   <v>       0.12435886       0.12360650       0.12389075 </v>
   <v>       0.97661277       0.97793599       0.98337710 </v>
   <v>       0.98162741       0.97867002       0.55920745 </v>
   <v>       0.98328773       0.55765301       0.97925151 </v>
   <v>       0.99985824       0.49741987       0.50124312 </v>
   <v>       0.55915282       0.97598161       0.98072826 </v>
   <v>       0.50017188       0.99631766       0.50199022 </v>
   <v>       0.50037215       0.49791749       0.00000280 </v>
   <v>       0.50163837       0.49711651       0.50040648 </v>
   <v>       0.25068929       0.24914646       0.25206875 </v>
   <v>       0.25360212       0.25032271       0.74455309 </v>
   <v>       0.25172521       0.74360862       0.25212614 </v>
   <v>       0.25709903       0.74679651       0.74858209 </v>
   <v>       0.74466905       0.24755207       0.25314001 </v>
   <v>       0.74719930       0.25415537       0.74901885 </v>
   <v>       0.74722538       0.74418758       0.25801846 </v>
   <v>       0.74943438       0.74449103       0.74794192 </v>
  </varray>
 </structure>
 <calculation>
  <scstep>
   <time name="dav">    0.76    0.77</time>
   <time name="total">    1.13    1.14</time>
   <energy>
    <i name="alphaZ">    167.07285220 </i>
    <i name="ewald">  -2907.63381137 </i>
    <i name="hartreedc">   -980.59886169 </i>
    <i name="XCdc">   -207.36946899 </i>
    <i name="pawpsdc">   3357.85734499 </i>
    <i name="pawaedc">  -2905.44438128 </i>
    <i name="eentropy">     -0.00342574 </i>
    <i name="bandstr">     79.32893626 </i>
    <i name="atom">   3665.43652948 </i>
    <i name="e_fr_energy">    268.64571387 </i>
    <i name="e_wo_entrp">    268.64913960 </i>
    <i name="e_0_energy">    268.64742673 </i>
   </energy>
  </scstep>
  <scstep>
   <time name="dav">    0.80    0.81</time>
   <time name="total">    0.80    0.81</time>
   <energy>
    <i name="e_fr_energy">    -80.91425725 </i>
    <i name="e_wo_entrp">    -80.91246901 </i>
    <i name="e_0_energy">    -80.91336313 </i>
   </energy>
  </scstep>
  <scstep>
   <time name="dav">    0.79    0.79</time>
   <time name="total">    0.79    0.80</time>
   <energy>
    <i name="e_fr_energy">    -98.71082332 </i>
    <i name="e_wo_entrp">    -98.71082332 </i>
    <i name="e_0_energy">    -98.71082332 </i>
   </energy>
  </scstep>
  <scstep>
   <time name="dav">    0.76    0.76</time>
   <time name="total">    0.76    0.77</time>
   <energy>
    <i name="e_fr_energy">    -98.82773528 </i>
    <i name="e_wo_entrp">    -98.82773528 </i>
    <i name="e_0_energy">    -98.82773528 </i>
   </energy>
  </scstep>
  <scstep>
   <time name="dav">    0.75    0.75</time>
   <time name="total">    0.77    0.77</time>
   <energy>
    <i name="e_fr_energy">    -98.82847323 </i>
    <i name="e_wo_entrp">    -98.82847323 </i>
    <i name="e_0_energy">    -98.82847323 </i>
   </energy>
  </scstep>
  <scstep>
   <time name="dav">    0.71    0.72</time>
   <time name="total">    1.12    1.13</time>
   <energy>
    <i name="e_fr_energy">    -92.89152214 </i>
    <i name="e_wo_entrp">    -92.88188901 </i>
    <i name="e_0_energy">    -92.88670557 </i>
   </energy>
  </scstep>
  <scstep>
   <time name="dav">    0.72    0.72</time>
   <time name="total">    1.12    1.12</time>
   <energy>
    <i name="e_fr_energy">    -93.05763139 </i>
    <i name="e_wo_entrp">    -93.04799785 </i>
    <i name="e_0_energy">    -93.05281462 </i>
   </energy>
  </scstep>
  <scstep>
   <time name="dav">    0.75    0.75</time>
   <time name="total">    1.16    1.17</time>
   <energy>
    <i name="e_fr_energy">    -92.94950503 </i>
    <i name="e_wo_entrp">    -92.93911149 </i>
    <i name="e_0_energy">    -92.94430826 </i>
   </energy>
  </scstep>
  <scstep>
   <time name="dav">    0.76    0.76</time>
   <time name="total">    1.16    1.16</time>
   <energy>
    <i name="e_fr_energy">    -92.94139018 </i>
    <i name="e_wo_entrp">    -92.93166559 </i>
    <i name="e_0_energy">    -92.93652788 </i>
   </energy>
  </scstep>
  <scstep>
   <time name="dav">    0.79    0.79</time>
   <time name="total">    1.20    1.20</time>
   <energy>
    <i name="e_fr_energy">    -92.94053227 </i>
    <i name="e_wo_entrp">    -92.93085025 </i>
    <i name="e_0_energy">    -92.93569126 </i>
   </energy>
  </scstep>
  <scstep>
   <time name="dav">    0.78    0.78</time>
   <time name="total">    1.19    1.19</time>
   <energy>
    <i name="e_fr_energy">    -92.94094674 </i>
    <i name="e_wo_entrp">    -92.93127006 </i>
    <i name="e_0_energy">    -92.93610840 </i>
   </energy>
  </scstep>
  <scstep>
   <time name="dav">    0.74    0.74</time>
   <time name="total">    1.14    1.15</time>
   <energy>
    <i name="e_fr_energy">    -92.94101998 </i>
    <i name="e_wo_entrp">    -92.93135288 </i>
    <i name="e_0_energy">    -92.93618643 </i>
   </energy>
  </scstep>
  <scstep>
   <time name="dav">    0.76    0.76</time>
   <time name="total">    1.16    1.17</time>
   <energy>
    <i name="e_fr_energy">    -92.94105414 </i>
    <i name="e_wo_entrp">    -92.93138146 </i>
    <i name="e_0_energy">    -92.93621780 </i>
   </energy>
  </scstep>
  <scstep>
   <time name="dav">    0.76    0.76</time>
   <time name="total">    1.17    1.17</time>
   <energy>
    <i name="e_fr_energy">    -92.94105539 </i>
    <i name="e_wo_entrp">    -92.93138501 </i>
    <i name="e_0_energy">    -92.93622020 </i>
   </energy>
  </scstep>
  <scstep>
   <time name="dav">    0.66    0.66</time>
   <time name="total">    1.05    1.05</time>
   <energy>
    <i name="alphaZ">    167.07285220 </i>
    <i name="ewald">  -2907.63381137 </i>
    <i name="hartreedc">  -1141.70902539 </i>
    <i name="XCdc">   -201.08200421 </i>
    <i name="pawpsdc">   4591.04967635 </i>
    <i name="pawaedc">  -4140.51204759 </i>
    <i name="eentropy">     -0.00967108 </i>
    <i name="bandstr">   -125.55355442 </i>
    <i name="atom">   3665.43652948 </i>
    <i name="e_fr_energy">    -92.94105602 </i>
    <i name="e_wo_entrp">    -92.93138494 </i>
    <i name="e_0_energy">    -92.93622048 </i>
   </energy>
  </scstep>
  <structure>
   <crystal>
    <varray name="basis" >
     <v>       0.00000000       4.24689300       4.24689300 </v>
     <v>       4.24689300       0.00000000       4.24689300 </v>
     <v>       4.24689300       4.24689300       0.00000000 </v>
    </varray>
    <i name="volume">    153.19477498 </i>
    <varray name="rec_basis" >
     <v>      -0.11773313       0.11773313       0.11773313 </v>
     <v>       0.11773313      -0.11773313       0.11773313 </v>
     <v>       0.11773313       0.11773313      -0.11773313 </v>
    </varray>
   </crystal>
   <varray name="positions" >
    <v>       0.12435886       0.12360650       0.12389075 </v>
    <v>       0.97661277       0.97793599       0.98337710 </v>
    <v>       0.98162741       0.97867002       0.55920745 </v>
    <v>       0.98328773       0.55765301       0.97925151 </v>
    <v>       0.99985824       0.49741987       0.50124312 </v>
    <v>       0.55915282       0.97598161       0.98072826 </v>
    <v>       0.50017188       0.99631766       0.50199022 </v>
    <v>       0.50037215       0.49791749       0.00000280 </v>
    <v>       0.50163837       0.49711651       0.50040648 </v>
    <v>       0.25068929       0.24914646       0.25206875 </v>
    <v>       0.25360212       0.25032271       0.74455309 </v>
    <v>       0.25172521       0.74360862       0.25212614 </v>
    <v>       0.25709903       0.74679651       0.74858209 </v>
    <v>       0.74466905       0.24755207       0.25314001 </v>
    <v>       0.74719930       0.25415537       0.74901885 </v>
    <v>       0.74722538       0.74418758       0.25801846 </v>
    <v>       0.74943438       0.74449103       0.74794192 </v>
   </varray>
  </structure>
  <varray name="forces" >
   <v>       0.02060540       0.02918120      -0.01268489 </v>
   <v>      -0.01188223       0.01623766       0.03379606 </v>
   <v>      -0.01501364      -0.02503079       0.00393559 </v>
   <v>       0.00787261      -0.00878378      -0.04351458 </v>
   <v>       0.00105497      -0.00008222       0.00488840 </v>
   <v>       0.01933380      -0.00388554       0.00412371 </v>
   <v>      -0.00856718      -0.03079304       0.01352629 </v>
   <v>      -0.00202180       0.01950714      -0.01225273 </v>
   <v>       0.01882039      -0.01829501      -0.00494451 </v>
   <v>       0.00772940       0.01118184      -0.00224807 </v>
   <v>       0.00543098      -0.00555745      -0.02881927 </v>
   <v>      -0.00723245      -0.00006267       0.01115596 </v>
   <v>      -0.01492591       0.01847601       0.01247779 </v>
   <v>      -0.02539938      -0.00141473       0.01911778 </v>
   <v>      -0.00036541      -0.00577299       0.00892993 </v>
   <v>       0.00745422       0.01386758       0.00062409 </v>
   <v>      -0.00289378      -0.00877321      -0.00811156 </v>
  </varray>
  <varray name="stress" >
   <v>     161.26591216       0.10920299       1.90811675 </v>
   <v>       0.10920312     162.15148425       0.61463410 </v>
   <v>       1.90811778       0.61463419     165.86550123 </v>
  </varray>
  <energy>
   <i name="e_fr_energy">    -92.94105602 </i>
   <i name="e_wo_entrp">    -92.93622048 </i>
   <i name="e_0_energy">     -0.00967108 </i>
  </energy>
  <time name="totalsc">   17.08   17.16</time>
  <eigenvalues>
   <array>
    <dimension dim="1">band</dimension>
    <dimension dim="2">kpoint</dimension>
    <dimension dim="3">spin</dimension>
    <field>eigene</field>
    <field>occ</field>
    <set>
     <set comment="spin 1">
      <set comment="kpoint 1">
       <r>  -13.6630    1.0000 </r>
       <r>  -12.8123    1.0000 </r>
       <r>  -12.5835    1.0000 </r>
       <r>  -12.5778    1.0000 </r>
       <r>  -12.5725    1.0000 </r>
       <r>  -12.3934    1.0000 </r>
       <r>  -12.3898    1.0000 </r>
       <r>  -12.3872    1.0000 </r>
       <r>   -1.1498    1.0000 </r>
       <r>   -0.8576    1.0000 </r>
       <r>   -0.8546    1.0000 </r>
       <r>   -0.6961    1.0000 </r>
       <r>   -0.6256    1.0000 </r>
       <r>   -0.3363    1.0000 </r>
       <r>   -0.3343    1.0000 </r>
       <r>    1.4429    1.0000 </r>
       <r>    1.6415    1.0000 </r>
       <r>    1.6452    1.0000 </r>
       <r>    1.9665    1.0000 </r>
       <r>    2.0365    1.0000 </r>
       <r>    2.0397    1.0000 </r>
       <r>    2.2444    1.0000 </r>
       <r>    2.2538    1.0000 </r>
       <r>    2.2613    1.0000 </r>
       <r>    2.3445    1.0000 </r>
       <r>    2.4567    1.0000 </r>
       <r>    2.4617    1.0000 </r>
       <r>    2.7615    1.0000 </r>
       <r>    2.8495    1.0000 </r>
       <r>    2.8507    1.0000 </r>
       <r>    3.1824    1.0000 </r>
       <r>    3.1854    1.0000 </r>
       <r>    8.5595    1.0000 </r>
       <r>   10.4719    0.0000 </r>
       <r>   11.1496    0.0000 </r>
       <r>   11.4890    0.0000 </r>
       <r>   11.5165    0.0000 </r>
       <r>   12.3928    0.0000 </r>
       <r>   12.4350    0.0000 </r>
       <r>   12.4589    0.0000 </r>
       <r>   12.9981    0.0000 </r>
       <r>   13.0075    0.0000 </r>
       <r>   13.5631    0.0000 </r>
       <r>   15.3167    0.0000 </r>
       <r>   15.4557    0.0000 </r>
       <r>   15.4629    0.0000 </r>
       <r>   15.5137    0.0000 </r>
       <r>   16.0321    0.0000 </r>
       <r>   16.0480    0.0000 </r>
       <r>   16.1269    0.0000 </r>
       <r>   17.2613    0.0000 </r>
       <r>   17.3084    0.0000 </r>
      </set>
      <set comment="kpoint 2">
       <r>  -13.6628    1.0000 </r>
       <r>  -12.8124    1.0000 </r>
       <r>  -12.5884    1.0000 </r>
       <r>  -12.5754    1.0000 </r>
       <r>  -12.5695    1.0000 </r>
       <r>  -12.3959    1.0000 </r>
       <r>  -12.3887    1.0000 </r>
       <r>  -12.3864    1.0000 </r>
       <r>   -1.1487    1.0000 </r>
       <r>   -0.8574    1.0000 </r>
       <r>   -0.8556    1.0000 </r>
       <r>   -0.6938    1.0000 </r>
       <r>   -0.6276    1.0000 </r>
       <r>   -0.3362    1.0000 </r>
       <r>   -0.3346    1.0000 </r>
       <r>    1.4402    1.0000 </r>
       <r>    1.6407    1.0000 </r>
       <r>    1.6447    1.0000 </r>
       <r>    1.9627    1.0000 </r>
       <r>    2.0371    1.0000 </r>
       <r>    2.0400    1.0000 </r>
       <r>    2.2438    1.0000 </r>
       <r>    2.2577    1.0000 </r>
       <r>    2.2606    1.0000 </r>
       <r>    2.3436    1.0000 </r>
       <r>    2.4597    1.0000 </r>
       <r>    2.4633    1.0000 </r>
       <r>    2.7636    1.0000 </r>
       <r>    2.8483    1.0000 </r>
       <r>    2.8491    1.0000 </r>
       <r>    3.1837    1.0000 </r>
       <r>    3.1861    1.0000 </r>
       <r>    8.5597    1.0000 </r>
       <r>   10.4773    0.0000 </r>
       <r>   11.1439    0.0000 </r>
       <r>   11.4919    0.0000 </r>
       <r>   11.5115    0.0000 </r>
       <r>   12.4174    0.0000 </r>
       <r>   12.4379    0.0000 </r>
       <r>   12.4553    0.0000 </r>
       <r>   12.9829    0.0000 </r>
       <r>   12.9977    0.0000 </r>
       <r>   13.5598    0.0000 </r>
       <r>   15.3172    0.0000 </r>
       <r>   15.4638    0.0000 </r>
       <r>   15.4680    0.0000 </r>
       <r>   15.5092    0.0000 </r>
       <r>   16.0343    0.0000 </r>
       <r>   16.0519    0.0000 </r>
       <r>   16.1112    0.0000 </r>
       <r>   17.2561    0.0000 </r>
       <r>   17.3325    0.0000 </r>
      </set>
      <set comment="kpoint 3">
       <r>  -13.6628    1.0000 </r>
       <r>  -12.8123    1.0000 </r>
       <r>  -12.5893    1.0000 </r>
       <r>  -12.5745    1.0000 </r>
       <r>  -12.5695    1.0000 </r>
       <r>  -12.3970    1.0000 </r>
       <r>  -12.3878    1.0000 </r>
       <r>  -12.3863    1.0000 </r>
       <r>   -1.1483    1.0000 </r>
       <r>   -0.8575    1.0000 </r>
       <r>   -0.8559    1.0000 </r>
       <r>   -0.6925    1.0000 </r>
       <r>   -0.6287    1.0000 </r>
       <r>   -0.3364    1.0000 </r>
       <r>   -0.3347    1.0000 </r>
       <r>    1.4394    1.0000 </r>
       <r>    1.6402    1.0000 </r>
       <r>    1.6446    1.0000 </r>
       <r>    1.9623    1.0000 </r>
       <r>    2.0374    1.0000 </r>
       <r>    2.0395    1.0000 </r>
       <r>    2.2468    1.0000 </r>
       <r>    2.2572    1.0000 </r>
       <r>    2.2581    1.0000 </r>
       <r>    2.3431    1.0000 </r>
       <r>    2.4607    1.0000 </r>
       <r>    2.4641    1.0000 </r>
       <r>    2.7646    1.0000 </r>
       <r>    2.8480    1.0000 </r>
       <r>    2.8490    1.0000 </r>
       <r>    3.1844    1.0000 </r>
       <r>    3.1859    1.0000 </r>
       <r>    8.5596    1.0000 </r>
       <r>   10.4791    0.0000 </r>
       <r>   11.1409    0.0000 </r>
       <r>   11.4916    0.0000 </r>
       <r>   11.5133    0.0000 </r>
       <r>   12.4138    0.0000 </r>
       <r>   12.4433    0.0000 </r>
       <r>   12.4574    0.0000 </r>
       <r>   12.9802    0.0000 </r>
       <r>   12.9950    0.0000 </r>
       <r>   13.5588    0.0000 </r>
       <r>   15.3173    0.0000 </r>
       <r>   15.4612    0.0000 </r>
       <r>   15.4740    0.0000 </r>
       <r>   15.5108    0.0000 </r>
       <r>   16.0366    0.0000 </r>
       <r>   16.0504    0.0000 </r>
       <r>   16.1064    0.0000 </r>
       <r>   17.2453    0.0000 </r>
       <r>   17.2853    0.0000 </r>
      </set>
      <set comment="kpoint 4">
       <r>  -13.6629    1.0000 </r>
       <r>  -12.8124    1.0000 </r>
       <r>  -12.5842    1.0000 </r>
       <r>  -12.5778    1.0000 </r>
       <r>  -12.5716    1.0000 </r>
       <r>  -12.3938    1.0000 </r>
       <r>  -12.3897    1.0000 </r>
       <r>  -12.3871    1.0000 </r>
       <r>   -1.1496    1.0000 </r>
       <r>   -0.8573    1.0000 </r>
       <r>   -0.8548    1.0000 </r>
       <r>   -0.6954    1.0000 </r>
       <r>   -0.6264    1.0000 </r>
       <r>   -0.3364    1.0000 </r>
       <r>   -0.3343    1.0000 </r>
       <r>    1.4427    1.0000 </r>
       <r>    1.6410    1.0000 </r>
       <r>    1.6453    1.0000 </r>
       <r>    1.9663    1.0000 </r>
       <r>    2.0366    1.0000 </r>
       <r>    2.0394    1.0000 </r>
       <r>    2.2460    1.0000 </r>
       <r>    2.2549    1.0000 </r>
       <r>    2.2590    1.0000 </r>
       <r>    2.3443    1.0000 </r>
       <r>    2.4571    1.0000 </r>
       <r>    2.4619    1.0000 </r>
       <r>    2.7616    1.0000 </r>
       <r>    2.8492    1.0000 </r>
       <r>    2.8508    1.0000 </r>
       <r>    3.1827    1.0000 </r>
       <r>    3.1854    1.0000 </r>
       <r>    8.5597    1.0000 </r>
       <r>   10.4733    0.0000 </r>
       <r>   11.1487    0.0000 </r>
       <r>   11.4865    0.0000 </r>
       <r>   11.5187    0.0000 </r>
       <r>   12.3984    0.0000 </r>
       <r>   12.4309    0.0000 </r>
       <r>   12.4631    0.0000 </r>
       <r>   12.9962    0.0000 </r>
       <r>   13.0026    0.0000 </r>
       <r>   13.5623    0.0000 </r>
       <r>   15.3168    0.0000 </r>
       <r>   15.4556    0.0000 </r>
       <r>   15.4667    0.0000 </r>
       <r>   15.5126    0.0000 </r>
       <r>   16.0317    0.0000 </r>
       <r>   16.0510    0.0000 </r>
       <r>   16.1210    0.0000 </r>
       <r>   17.2585    0.0000 </r>
       <r>   17.3002    0.0000 </r>
      </set>
      <set comment="kpoint 5">
       <r>  -13.2999    1.0000 </r>
       <r>  -13.0100    1.0000 </r>
       <r>  -12.7742    1.0000 </r>
       <r>  -12.6195    1.0000 </r>
       <r>  -12.6151    1.0000 </r>
       <r>  -12.4514    1.0000 </r>
       <r>  -12.3570    1.0000 </r>
       <r>  -12.3538    1.0000 </r>
       <r>   -0.5343    1.0000 </r>
       <r>   -0.3048    1.0000 </r>
       <r>   -0.2723    1.0000 </r>
       <r>   -0.2144    1.0000 </r>
       <r>    0.0169    1.0000 </r>
       <r>    0.0880    1.0000 </r>
       <r>    0.1809    1.0000 </r>
       <r>    0.7148    1.0000 </r>
       <r>    0.9918    1.0000 </r>
       <r>    1.0150    1.0000 </r>
       <r>    1.1153    1.0000 </r>
       <r>    1.6187    1.0000 </r>
       <r>    1.6373    1.0000 </r>
       <r>    1.8287    1.0000 </r>
       <r>    1.9410    1.0000 </r>
       <r>    2.1551    1.0000 </r>
       <r>    2.2169    1.0000 </r>
       <r>    2.3855    1.0000 </r>
       <r>    2.4414    1.0000 </r>
       <r>    2.5091    1.0000 </r>
       <r>    2.6221    1.0000 </r>
       <r>    2.8522    1.0000 </r>
       <r>    2.8548    1.0000 </r>
       <r>    2.9532    1.0000 </r>
       <r>   10.0404    0.6759 </r>
       <r>   10.7948    0.0000 </r>
       <r>   11.5521    0.0000 </r>
       <r>   12.1211    0.0000 </r>
       <r>   12.1880    0.0000 </r>
       <r>   12.8577    0.0000 </r>
       <r>   13.3922    0.0000 </r>
       <r>   13.4818    0.0000 </r>
       <r>   13.7554    0.0000 </r>
       <r>   13.9244    0.0000 </r>
       <r>   14.0014    0.0000 </r>
       <r>   14.5633    0.0000 </r>
       <r>   15.0028    0.0000 </r>
       <r>   15.0981    0.0000 </r>
       <r>   15.2814    0.0000 </r>
       <r>   15.4054    0.0000 </r>
       <r>   15.4801    0.0000 </r>
       <r>   15.6626    0.0000 </r>
       <r>   16.3116    0.0000 </r>
       <r>   16.7809    0.0000 </r>
      </set>
      <set comment="kpoint 6">
       <r>  -13.3003    1.0000 </r>
       <r>  -13.0096    1.0000 </r>
       <r>  -12.7735    1.0000 </r>
       <r>  -12.6185    1.0000 </r>
       <r>  -12.6175    1.0000 </r>
       <r>  -12.4503    1.0000 </r>
       <r>  -12.3580    1.0000 </r>
       <r>  -12.3531    1.0000 </r>
       <r>   -0.5362    1.0000 </r>
       <r>   -0.2977    1.0000 </r>
       <r>   -0.2798    1.0000 </r>
       <r>   -0.2151    1.0000 </r>
       <r>    0.0175    1.0000 </r>
       <r>    0.0877    1.0000 </r>
       <r>    0.1831    1.0000 </r>
       <r>    0.7166    1.0000 </r>
       <r>    0.9927    1.0000 </r>
       <r>    1.0141    1.0000 </r>
       <r>    1.1155    1.0000 </r>
       <r>    1.6205    1.0000 </r>
       <r>    1.6379    1.0000 </r>
       <r>    1.8287    1.0000 </r>
       <r>    1.9397    1.0000 </r>
       <r>    2.1544    1.0000 </r>
       <r>    2.2203    1.0000 </r>
       <r>    2.3789    1.0000 </r>
       <r>    2.4430    1.0000 </r>
       <r>    2.5121    1.0000 </r>
       <r>    2.6197    1.0000 </r>
       <r>    2.8515    1.0000 </r>
       <r>    2.8541    1.0000 </r>
       <r>    2.9532    1.0000 </r>
       <r>   10.0416    0.6637 </r>
       <r>   10.7855    0.0000 </r>
       <r>   11.5551    0.0000 </r>
       <r>   12.1162    0.0000 </r>
       <r>   12.2015    0.0000 </r>
       <r>   12.8571    0.0000 </r>
       <r>   13.3682    0.0000 </r>
       <r>   13.4947    0.0000 </r>
       <r>   13.7691    0.0000 </r>
       <r>   13.9330    0.0000 </r>
       <r>   13.9940    0.0000 </r>
       <r>   14.5523    0.0000 </r>
       <r>   15.0124    0.0000 </r>
       <r>   15.1045    0.0000 </r>
       <r>   15.2720    0.0000 </r>
       <r>   15.3877    0.0000 </r>
       <r>   15.4831    0.0000 </r>
       <r>   15.6885    0.0000 </r>
       <r>   16.2975    0.0000 </r>
       <r>   16.8039    0.0000 </r>
      </set>
      <set comment="kpoint 7">
       <r>  -13.2997    1.0000 </r>
       <r>  -13.0101    1.0000 </r>
       <r>  -12.7739    1.0000 </r>
       <r>  -12.6210    1.0000 </r>
       <r>  -12.6139    1.0000 </r>
       <r>  -12.4515    1.0000 </r>
       <r>  -12.3559    1.0000 </r>
       <r>  -12.3548    1.0000 </r>
       <r>   -0.5329    1.0000 </r>
       <r>   -0.2895    1.0000 </r>
       <r>   -0.2840    1.0000 </r>
       <r>   -0.2179    1.0000 </r>
       <r>    0.0160    1.0000 </r>
       <r>    0.0865    1.0000 </r>
       <r>    0.1816    1.0000 </r>
       <r>    0.7138    1.0000 </r>
       <r>    0.9913    1.0000 </r>
       <r>    1.0137    1.0000 </r>
       <r>    1.1158    1.0000 </r>
       <r>    1.6171    1.0000 </r>
       <r>    1.6376    1.0000 </r>
       <r>    1.8275    1.0000 </r>
       <r>    1.9379    1.0000 </r>
       <r>    2.1536    1.0000 </r>
       <r>    2.2198    1.0000 </r>
       <r>    2.3864    1.0000 </r>
       <r>    2.4470    1.0000 </r>
       <r>    2.5098    1.0000 </r>
       <r>    2.6217    1.0000 </r>
       <r>    2.8524    1.0000 </r>
       <r>    2.8536    1.0000 </r>
       <r>    2.9553    1.0000 </r>
       <r>   10.0388    0.6921 </r>
       <r>   10.8003    0.0000 </r>
       <r>   11.5589    0.0000 </r>
       <r>   12.1150    0.0000 </r>
       <r>   12.1782    0.0000 </r>
       <r>   12.8665    0.0000 </r>
       <r>   13.3827    0.0000 </r>
       <r>   13.4916    0.0000 </r>
       <r>   13.7835    0.0000 </r>
       <r>   13.9186    0.0000 </r>
       <r>   13.9714    0.0000 </r>
       <r>   14.5544    0.0000 </r>
       <r>   15.0295    0.0000 </r>
       <r>   15.0913    0.0000 </r>
       <r>   15.2860    0.0000 </r>
       <r>   15.3812    0.0000 </r>
       <r>   15.4709    0.0000 </r>
       <r>   15.6717    0.0000 </r>
       <r>   16.2915    0.0000 </r>
       <r>   16.7992    0.0000 </r>
      </set>
      <set comment="kpoint 8">
       <r>  -13.3000    1.0000 </r>
       <r>  -13.0093    1.0000 </r>
       <r>  -12.7758    1.0000 </r>
       <r>  -12.6215    1.0000 </r>
       <r>  -12.6109    1.0000 </r>
       <r>  -12.4533    1.0000 </r>
       <r>  -12.3561    1.0000 </r>
       <r>  -12.3539    1.0000 </r>
       <r>   -0.5334    1.0000 </r>
       <r>   -0.3004    1.0000 </r>
       <r>   -0.2758    1.0000 </r>
       <r>   -0.2161    1.0000 </r>
       <r>    0.0148    1.0000 </r>
       <r>    0.0892    1.0000 </r>
       <r>    0.1812    1.0000 </r>
       <r>    0.7129    1.0000 </r>
       <r>    0.9924    1.0000 </r>
       <r>    1.0174    1.0000 </r>
       <r>    1.1150    1.0000 </r>
       <r>    1.6200    1.0000 </r>
       <r>    1.6342    1.0000 </r>
       <r>    1.8287    1.0000 </r>
       <r>    1.9406    1.0000 </r>
       <r>    2.1514    1.0000 </r>
       <r>    2.2158    1.0000 </r>
       <r>    2.3903    1.0000 </r>
       <r>    2.4454    1.0000 </r>
       <r>    2.5077    1.0000 </r>
       <r>    2.6235    1.0000 </r>
       <r>    2.8515    1.0000 </r>
       <r>    2.8549    1.0000 </r>
       <r>    2.9525    1.0000 </r>
       <r>   10.0405    0.6749 </r>
       <r>   10.7922    0.0000 </r>
       <r>   11.5712    0.0000 </r>
       <r>   12.1184    0.0000 </r>
       <r>   12.1600    0.0000 </r>
       <r>   12.8608    0.0000 </r>
       <r>   13.4084    0.0000 </r>
       <r>   13.4873    0.0000 </r>
       <r>   13.7540    0.0000 </r>
       <r>   13.9300    0.0000 </r>
       <r>   13.9956    0.0000 </r>
       <r>   14.5553    0.0000 </r>
       <r>   15.0056    0.0000 </r>
       <r>   15.0921    0.0000 </r>
       <r>   15.2820    0.0000 </r>
       <r>   15.3964    0.0000 </r>
       <r>   15.4772    0.0000 </r>
       <r>   15.6690    0.0000 </r>
       <r>   16.2995    0.0000 </r>
       <r>   16.8169    0.0000 </r>
      </set>
      <set comment="kpoint 9">
       <r>  -13.3005    1.0000 </r>
       <r>  -13.0088    1.0000 </r>
       <r>  -12.7751    1.0000 </r>
       <r>  -12.6192    1.0000 </r>
       <r>  -12.6150    1.0000 </r>
       <r>  -12.4515    1.0000 </r>
       <r>  -12.3566    1.0000 </r>
       <r>  -12.3540    1.0000 </r>
       <r>   -0.5358    1.0000 </r>
       <r>   -0.2939    1.0000 </r>
       <r>   -0.2846    1.0000 </r>
       <r>   -0.2156    1.0000 </r>
       <r>    0.0171    1.0000 </r>
       <r>    0.0882    1.0000 </r>
       <r>    0.1844    1.0000 </r>
       <r>    0.7160    1.0000 </r>
       <r>    0.9933    1.0000 </r>
       <r>    1.0168    1.0000 </r>
       <r>    1.1154    1.0000 </r>
       <r>    1.6196    1.0000 </r>
       <r>    1.6361    1.0000 </r>
       <r>    1.8288    1.0000 </r>
       <r>    1.9397    1.0000 </r>
       <r>    2.1526    1.0000 </r>
       <r>    2.2182    1.0000 </r>
       <r>    2.3780    1.0000 </r>
       <r>    2.4481    1.0000 </r>
       <r>    2.5101    1.0000 </r>
       <r>    2.6215    1.0000 </r>
       <r>    2.8514    1.0000 </r>
       <r>    2.8530    1.0000 </r>
       <r>    2.9537    1.0000 </r>
       <r>   10.0437    0.6413 </r>
       <r>   10.7756    0.0000 </r>
       <r>   11.5747    0.0000 </r>
       <r>   12.1120    0.0000 </r>
       <r>   12.1872    0.0000 </r>
       <r>   12.8550    0.0000 </r>
       <r>   13.3705    0.0000 </r>
       <r>   13.4967    0.0000 </r>
       <r>   13.7824    0.0000 </r>
       <r>   13.9312    0.0000 </r>
       <r>   13.9940    0.0000 </r>
       <r>   14.5532    0.0000 </r>
       <r>   15.0109    0.0000 </r>
       <r>   15.1006    0.0000 </r>
       <r>   15.2734    0.0000 </r>
       <r>   15.3801    0.0000 </r>
       <r>   15.4872    0.0000 </r>
       <r>   15.6935    0.0000 </r>
       <r>   16.2807    0.0000 </r>
       <r>   16.8086    0.0000 </r>
      </set>
      <set comment="kpoint 10">
       <r>  -13.3003    1.0000 </r>
       <r>  -13.0090    1.0000 </r>
       <r>  -12.7752    1.0000 </r>
       <r>  -12.6201    1.0000 </r>
       <r>  -12.6138    1.0000 </r>
       <r>  -12.4517    1.0000 </r>
       <r>  -12.3565    1.0000 </r>
       <r>  -12.3541    1.0000 </r>
       <r>   -0.5351    1.0000 </r>
       <r>   -0.2976    1.0000 </r>
       <r>   -0.2773    1.0000 </r>
       <r>   -0.2175    1.0000 </r>
       <r>    0.0155    1.0000 </r>
       <r>    0.0894    1.0000 </r>
       <r>    0.1816    1.0000 </r>
       <r>    0.7172    1.0000 </r>
       <r>    0.9934    1.0000 </r>
       <r>    1.0152    1.0000 </r>
       <r>    1.1154    1.0000 </r>
       <r>    1.6164    1.0000 </r>
       <r>    1.6366    1.0000 </r>
       <r>    1.8277    1.0000 </r>
       <r>    1.9383    1.0000 </r>
       <r>    2.1500    1.0000 </r>
       <r>    2.2205    1.0000 </r>
       <r>    2.3882    1.0000 </r>
       <r>    2.4426    1.0000 </r>
       <r>    2.5109    1.0000 </r>
       <r>    2.6211    1.0000 </r>
       <r>    2.8521    1.0000 </r>
       <r>    2.8552    1.0000 </r>
       <r>    2.9531    1.0000 </r>
       <r>   10.0416    0.6633 </r>
       <r>   10.7821    0.0000 </r>
       <r>   11.5784    0.0000 </r>
       <r>   12.1283    0.0000 </r>
       <r>   12.1715    0.0000 </r>
       <r>   12.8476    0.0000 </r>
       <r>   13.3886    0.0000 </r>
       <r>   13.4794    0.0000 </r>
       <r>   13.7625    0.0000 </r>
       <r>   13.9138    0.0000 </r>
       <r>   14.0138    0.0000 </r>
       <r>   14.5666    0.0000 </r>
       <r>   14.9858    0.0000 </r>
       <r>   15.1006    0.0000 </r>
       <r>   15.2902    0.0000 </r>
       <r>   15.4088    0.0000 </r>
       <r>   15.4902    0.0000 </r>
       <r>   15.6581    0.0000 </r>
       <r>   16.2985    0.0000 </r>
       <r>   16.7920    0.0000 </r>
      </set>
      <set comment="kpoint 11">
       <r>  -13.3004    1.0000 </r>
       <r>  -13.0089    1.0000 </r>
       <r>  -12.7753    1.0000 </r>
       <r>  -12.6200    1.0000 </r>
       <r>  -12.6137    1.0000 </r>
       <r>  -12.4519    1.0000 </r>
       <r>  -12.3561    1.0000 </r>
       <r>  -12.3545    1.0000 </r>
       <r>   -0.5356    1.0000 </r>
       <r>   -0.2974    1.0000 </r>
       <r>   -0.2811    1.0000 </r>
       <r>   -0.2147    1.0000 </r>
       <r>    0.0157    1.0000 </r>
       <r>    0.0890    1.0000 </r>
       <r>    0.1837    1.0000 </r>
       <r>    0.7158    1.0000 </r>
       <r>    0.9930    1.0000 </r>
       <r>    1.0183    1.0000 </r>
       <r>    1.1148    1.0000 </r>
       <r>    1.6195    1.0000 </r>
       <r>    1.6351    1.0000 </r>
       <r>    1.8286    1.0000 </r>
       <r>    1.9401    1.0000 </r>
       <r>    2.1509    1.0000 </r>
       <r>    2.2174    1.0000 </r>
       <r>    2.3811    1.0000 </r>
       <r>    2.4481    1.0000 </r>
       <r>    2.5090    1.0000 </r>
       <r>    2.6222    1.0000 </r>
       <r>    2.8509    1.0000 </r>
       <r>    2.8544    1.0000 </r>
       <r>    2.9531    1.0000 </r>
       <r>   10.0437    0.6422 </r>
       <r>   10.7774    0.0000 </r>
       <r>   11.5786    0.0000 </r>
       <r>   12.1130    0.0000 </r>
       <r>   12.1788    0.0000 </r>
       <r>   12.8538    0.0000 </r>
       <r>   13.3818    0.0000 </r>
       <r>   13.4927    0.0000 </r>
       <r>   13.7718    0.0000 </r>
       <r>   13.9301    0.0000 </r>
       <r>   13.9998    0.0000 </r>
       <r>   14.5580    0.0000 </r>
       <r>   15.0016    0.0000 </r>
       <r>   15.0997    0.0000 </r>
       <r>   15.2779    0.0000 </r>
       <r>   15.3884    0.0000 </r>
       <r>   15.4843    0.0000 </r>
       <r>   15.6854    0.0000 </r>
       <r>   16.2880    0.0000 </r>
       <r>   16.8020    0.0000 </r>
      </set>
      <set comment="kpoint 12">
       <r>  -13.3001    1.0000 </r>
       <r>  -13.0093    1.0000 </r>
       <r>  -12.7758    1.0000 </r>
       <r>  -12.6214    1.0000 </r>
       <r>  -12.6108    1.0000 </r>
       <r>  -12.4534    1.0000 </r>
       <r>  -12.3560    1.0000 </r>
       <r>  -12.3539    1.0000 </r>
       <r>   -0.5340    1.0000 </r>
       <r>   -0.2976    1.0000 </r>
       <r>   -0.2796    1.0000 </r>
       <r>   -0.2160    1.0000 </r>
       <r>    0.0149    1.0000 </r>
       <r>    0.0894    1.0000 </r>
       <r>    0.1824    1.0000 </r>
       <r>    0.7132    1.0000 </r>
       <r>    0.9930    1.0000 </r>
       <r>    1.0179    1.0000 </r>
       <r>    1.1149    1.0000 </r>
       <r>    1.6203    1.0000 </r>
       <r>    1.6340    1.0000 </r>
       <r>    1.8288    1.0000 </r>
       <r>    1.9402    1.0000 </r>
       <r>    2.1507    1.0000 </r>
       <r>    2.2156    1.0000 </r>
       <r>    2.3889    1.0000 </r>
       <r>    2.4469    1.0000 </r>
       <r>    2.5074    1.0000 </r>
       <r>    2.6234    1.0000 </r>
       <r>    2.8499    1.0000 </r>
       <r>    2.8555    1.0000 </r>
       <r>    2.9528    1.0000 </r>
       <r>   10.0416    0.6641 </r>
       <r>   10.7870    0.0000 </r>
       <r>   11.5772    0.0000 </r>
       <r>   12.1134    0.0000 </r>
       <r>   12.1622    0.0000 </r>
       <r>   12.8611    0.0000 </r>
       <r>   13.4017    0.0000 </r>
       <r>   13.4925    0.0000 </r>
       <r>   13.7610    0.0000 </r>
       <r>   13.9278    0.0000 </r>
       <r>   13.9963    0.0000 </r>
       <r>   14.5544    0.0000 </r>
       <r>   15.0072    0.0000 </r>
       <r>   15.0919    0.0000 </r>
       <r>   15.2779    0.0000 </r>
       <r>   15.3902    0.0000 </r>
       <r>   15.4764    0.0000 </r>
       <r>   15.6806    0.0000 </r>
       <r>   16.2928    0.0000 </r>
       <r>   16.7918    0.0000 </r>
      </set>
      <set comment="kpoint 13">
       <r>  -13.3004    1.0000 </r>
       <r>  -13.0088    1.0000 </r>
       <r>  -12.7751    1.0000 </r>
       <r>  -12.6207    1.0000 </r>
       <r>  -12.6138    1.0000 </r>
       <r>  -12.4513    1.0000 </r>
       <r>  -12.3560    1.0000 </r>
       <r>  -12.3547    1.0000 </r>
       <r>   -0.5352    1.0000 </r>
       <r>   -0.2979    1.0000 </r>
       <r>   -0.2775    1.0000 </r>
       <r>   -0.2178    1.0000 </r>
       <r>    0.0151    1.0000 </r>
       <r>    0.0899    1.0000 </r>
       <r>    0.1822    1.0000 </r>
       <r>    0.7171    1.0000 </r>
       <r>    0.9948    1.0000 </r>
       <r>    1.0153    1.0000 </r>
       <r>    1.1151    1.0000 </r>
       <r>    1.6173    1.0000 </r>
       <r>    1.6354    1.0000 </r>
       <r>    1.8276    1.0000 </r>
       <r>    1.9383    1.0000 </r>
       <r>    2.1491    1.0000 </r>
       <r>    2.2203    1.0000 </r>
       <r>    2.3879    1.0000 </r>
       <r>    2.4440    1.0000 </r>
       <r>    2.5102    1.0000 </r>
       <r>    2.6218    1.0000 </r>
       <r>    2.8508    1.0000 </r>
       <r>    2.8564    1.0000 </r>
       <r>    2.9528    1.0000 </r>
       <r>   10.0423    0.6565 </r>
       <r>   10.7771    0.0000 </r>
       <r>   11.5837    0.0000 </r>
       <r>   12.1311    0.0000 </r>
       <r>   12.1678    0.0000 </r>
       <r>   12.8451    0.0000 </r>
       <r>   13.3849    0.0000 </r>
       <r>   13.4815    0.0000 </r>
       <r>   13.7631    0.0000 </r>
       <r>   13.9132    0.0000 </r>
       <r>   14.0194    0.0000 </r>
       <r>   14.5668    0.0000 </r>
       <r>   14.9805    0.0000 </r>
       <r>   15.1044    0.0000 </r>
       <r>   15.2907    0.0000 </r>
       <r>   15.4075    0.0000 </r>
       <r>   15.4945    0.0000 </r>
       <r>   15.6584    0.0000 </r>
       <r>   16.2956    0.0000 </r>
       <r>   16.7873    0.0000 </r>
      </set>
      <set comment="kpoint 14">
       <r>  -13.3005    1.0000 </r>
       <r>  -13.0092    1.0000 </r>
       <r>  -12.7738    1.0000 </r>
       <r>  -12.6184    1.0000 </r>
       <r>  -12.6175    1.0000 </r>
       <r>  -12.4502    1.0000 </r>
       <r>  -12.3579    1.0000 </r>
       <r>  -12.3532    1.0000 </r>
       <r>   -0.5364    1.0000 </r>
       <r>   -0.3018    1.0000 </r>
       <r>   -0.2763    1.0000 </r>
       <r>   -0.2148    1.0000 </r>
       <r>    0.0171    1.0000 </r>
       <r>    0.0883    1.0000 </r>
       <r>    0.1828    1.0000 </r>
       <r>    0.7170    1.0000 </r>
       <r>    0.9925    1.0000 </r>
       <r>    1.0151    1.0000 </r>
       <r>    1.1154    1.0000 </r>
       <r>    1.6204    1.0000 </r>
       <r>    1.6375    1.0000 </r>
       <r>    1.8288    1.0000 </r>
       <r>    1.9399    1.0000 </r>
       <r>    2.1538    1.0000 </r>
       <r>    2.2201    1.0000 </r>
       <r>    2.3804    1.0000 </r>
       <r>    2.4416    1.0000 </r>
       <r>    2.5117    1.0000 </r>
       <r>    2.6201    1.0000 </r>
       <r>    2.8516    1.0000 </r>
       <r>    2.8548    1.0000 </r>
       <r>    2.9524    1.0000 </r>
       <r>   10.0421    0.6589 </r>
       <r>   10.7808    0.0000 </r>
       <r>   11.5598    0.0000 </r>
       <r>   12.1202    0.0000 </r>
       <r>   12.1996    0.0000 </r>
       <r>   12.8517    0.0000 </r>
       <r>   13.3728    0.0000 </r>
       <r>   13.4891    0.0000 </r>
       <r>   13.7615    0.0000 </r>
       <r>   13.9293    0.0000 </r>
       <r>   14.0088    0.0000 </r>
       <r>   14.5568    0.0000 </r>
       <r>   14.9996    0.0000 </r>
       <r>   15.1050    0.0000 </r>
       <r>   15.2756    0.0000 </r>
       <r>   15.3970    0.0000 </r>
       <r>   15.4924    0.0000 </r>
       <r>   15.6781    0.0000 </r>
       <r>   16.3007    0.0000 </r>
       <r>   16.8005    0.0000 </r>
      </set>
      <set comment="kpoint 15">
       <r>  -13.2999    1.0000 </r>
       <r>  -13.0098    1.0000 </r>
       <r>  -12.7745    1.0000 </r>
       <r>  -12.6204    1.0000 </r>
       <r>  -12.6138    1.0000 </r>
       <r>  -12.4518    1.0000 </r>
       <r>  -12.3567    1.0000 </r>
       <r>  -12.3540    1.0000 </r>
       <r>   -0.5335    1.0000 </r>
       <r>   -0.3015    1.0000 </r>
       <r>   -0.2761    1.0000 </r>
       <r>   -0.2137    1.0000 </r>
       <r>    0.0163    1.0000 </r>
       <r>    0.0876    1.0000 </r>
       <r>    0.1810    1.0000 </r>
       <r>    0.7136    1.0000 </r>
       <r>    0.9908    1.0000 </r>
       <r>    1.0163    1.0000 </r>
       <r>    1.1153    1.0000 </r>
       <r>    1.6189    1.0000 </r>
       <r>    1.6368    1.0000 </r>
       <r>    1.8285    1.0000 </r>
       <r>    1.9409    1.0000 </r>
       <r>    2.1543    1.0000 </r>
       <r>    2.2166    1.0000 </r>
       <r>    2.3853    1.0000 </r>
       <r>    2.4450    1.0000 </r>
       <r>    2.5080    1.0000 </r>
       <r>    2.6227    1.0000 </r>
       <r>    2.8515    1.0000 </r>
       <r>    2.8555    1.0000 </r>
       <r>    2.9532    1.0000 </r>
       <r>   10.0402    0.6784 </r>
       <r>   10.7966    0.0000 </r>
       <r>   11.5567    0.0000 </r>
       <r>   12.1172    0.0000 </r>
       <r>   12.1788    0.0000 </r>
       <r>   12.8613    0.0000 </r>
       <r>   13.3928    0.0000 </r>
       <r>   13.4897    0.0000 </r>
       <r>   13.7611    0.0000 </r>
       <r>   13.9277    0.0000 </r>
       <r>   13.9902    0.0000 </r>
       <r>   14.5599    0.0000 </r>
       <r>   15.0097    0.0000 </r>
       <r>   15.0962    0.0000 </r>
       <r>   15.2818    0.0000 </r>
       <r>   15.3957    0.0000 </r>
       <r>   15.4768    0.0000 </r>
       <r>   15.6663    0.0000 </r>
       <r>   16.3036    0.0000 </r>
       <r>   16.7912    0.0000 </r>
      </set>
      <set comment="kpoint 16">
       <r>  -13.2998    1.0000 </r>
       <r>  -13.0099    1.0000 </r>
       <r>  -12.7744    1.0000 </r>
       <r>  -12.6205    1.0000 </r>
       <r>  -12.6138    1.0000 </r>
       <r>  -12.4520    1.0000 </r>
       <r>  -12.3566    1.0000 </r>
       <r>  -12.3539    1.0000 </r>
       <r>   -0.5334    1.0000 </r>
       <r>   -0.2900    1.0000 </r>
       <r>   -0.2845    1.0000 </r>
       <r>   -0.2177    1.0000 </r>
       <r>    0.0164    1.0000 </r>
       <r>    0.0868    1.0000 </r>
       <r>    0.1823    1.0000 </r>
       <r>    0.7145    1.0000 </r>
       <r>    0.9922    1.0000 </r>
       <r>    1.0134    1.0000 </r>
       <r>    1.1160    1.0000 </r>
       <r>    1.6163    1.0000 </r>
       <r>    1.6380    1.0000 </r>
       <r>    1.8278    1.0000 </r>
       <r>    1.9378    1.0000 </r>
       <r>    2.1535    1.0000 </r>
       <r>    2.2201    1.0000 </r>
       <r>    2.3857    1.0000 </r>
       <r>    2.4462    1.0000 </r>
       <r>    2.5102    1.0000 </r>
       <r>    2.6215    1.0000 </r>
       <r>    2.8512    1.0000 </r>
       <r>    2.8544    1.0000 </r>
       <r>    2.9552    1.0000 </r>
       <r>   10.0396    0.6845 </r>
       <r>   10.7955    0.0000 </r>
       <r>   11.5649    0.0000 </r>
       <r>   12.1142    0.0000 </r>
       <r>   12.1779    0.0000 </r>
       <r>   12.8639    0.0000 </r>
       <r>   13.3822    0.0000 </r>
       <r>   13.4918    0.0000 </r>
       <r>   13.7841    0.0000 </r>
       <r>   13.9139    0.0000 </r>
       <r>   13.9796    0.0000 </r>
       <r>   14.5550    0.0000 </r>
       <r>   15.0243    0.0000 </r>
       <r>   15.0928    0.0000 </r>
       <r>   15.2827    0.0000 </r>
       <r>   15.3833    0.0000 </r>
       <r>   15.4729    0.0000 </r>
       <r>   15.6769    0.0000 </r>
       <r>   16.2894    0.0000 </r>
       <r>   16.8026    0.0000 </r>
      </set>
     </set>
     <set comment="spin 2">
      <set comment="kpoint 1">
       <r>  -13.6174    1.0000 </r>
       <r>  -12.7691    1.0000 </r>
       <r>  -12.5404    1.0000 </r>
       <r>  -12.5350    1.0000 </r>
       <r>  -12.5300    1.0000 </r>
       <r>  -12.3527    1.0000 </r>
       <r>  -12.3492    1.0000 </r>
       <r>  -12.3468    1.0000 </r>
       <r>   -1.0739    1.0000 </r>
       <r>   -0.8072    1.0000 </r>
       <r>   -0.8050    1.0000 </r>
       <r>   -0.6310    1.0000 </r>
       <r>   -0.5723    1.0000 </r>
       <r>   -0.2879    1.0000 </r>
       <r>   -0.2861    1.0000 </r>
       <r>    1.4909    1.0000 </r>
       <r>    1.6836    1.0000 </r>
       <r>    1.6870    1.0000 </r>
       <r>    2.0123    1.0000 </r>
       <r>    2.0754    1.0000 </r>
       <r>    2.0784    1.0000 </r>
       <r>    2.2808    1.0000 </r>
       <r>    2.2942    1.0000 </r>
       <r>    2.3008    1.0000 </r>
       <r>    2.3889    1.0000 </r>
       <r>    2.4955    1.0000 </r>
       <r>    2.5004    1.0000 </r>
       <r>    2.7956    1.0000 </r>
       <r>    2.8851    1.0000 </r>
       <r>    2.8863    1.0000 </r>
       <r>    3.2191    1.0000 </r>
       <r>    3.2218    1.0000 </r>
       <r>    8.6828    1.0000 </r>
       <r>   10.7028    0.0000 </r>
       <r>   11.3056    0.0000 </r>
       <r>   11.6004    0.0000 </r>
       <r>   11.6246    0.0000 </r>
       <r>   12.4979    0.0000 </r>
       <r>   12.5330    0.0000 </r>
       <r>   12.5551    0.0000 </r>
       <r>   13.1009    0.0000 </r>
       <r>   13.1107    0.0000 </r>
       <r>   13.6724    0.0000 </r>
       <r>   15.4173    0.0000 </r>
       <r>   15.5477    0.0000 </r>
       <r>   15.5544    0.0000 </r>
       <r>   15.6114    0.0000 </r>
       <r>   16.1183    0.0000 </r>
       <r>   16.1341    0.0000 </r>
       <r>   16.2356    0.0000 </r>
       <r>   17.3478    0.0000 </r>
       <r>   17.3538    0.0000 </r>
      </set>
      <set comment="kpoint 2">
       <r>  -13.6172    1.0000 </r>
       <r>  -12.7692    1.0000 </r>
       <r>  -12.5449    1.0000 </r>
       <r>  -12.5328    1.0000 </r>
       <r>  -12.5272    1.0000 </r>
       <r>  -12.3549    1.0000 </r>
       <r>  -12.3482    1.0000 </r>
       <r>  -12.3462    1.0000 </r>
       <r>   -1.0734    1.0000 </r>
       <r>   -0.8067    1.0000 </r>
       <r>   -0.8054    1.0000 </r>
       <r>   -0.6293    1.0000 </r>
       <r>   -0.5744    1.0000 </r>
       <r>   -0.2878    1.0000 </r>
       <r>   -0.2863    1.0000 </r>
       <r>    1.4886    1.0000 </r>
       <r>    1.6831    1.0000 </r>
       <r>    1.6869    1.0000 </r>
       <r>    2.0090    1.0000 </r>
       <r>    2.0753    1.0000 </r>
       <r>    2.0784    1.0000 </r>
       <r>    2.2813    1.0000 </r>
       <r>    2.2977    1.0000 </r>
       <r>    2.3003    1.0000 </r>
       <r>    2.3880    1.0000 </r>
       <r>    2.4977    1.0000 </r>
       <r>    2.5014    1.0000 </r>
       <r>    2.7977    1.0000 </r>
       <r>    2.8840    1.0000 </r>
       <r>    2.8847    1.0000 </r>
       <r>    3.2203    1.0000 </r>
       <r>    3.2224    1.0000 </r>
       <r>    8.6829    1.0000 </r>
       <r>   10.7076    0.0000 </r>
       <r>   11.3000    0.0000 </r>
       <r>   11.6035    0.0000 </r>
       <r>   11.6206    0.0000 </r>
       <r>   12.5175    0.0000 </r>
       <r>   12.5370    0.0000 </r>
       <r>   12.5525    0.0000 </r>
       <r>   13.0869    0.0000 </r>
       <r>   13.1012    0.0000 </r>
       <r>   13.6704    0.0000 </r>
       <r>   15.4172    0.0000 </r>
       <r>   15.5559    0.0000 </r>
       <r>   15.5600    0.0000 </r>
       <r>   15.6060    0.0000 </r>
       <r>   16.1198    0.0000 </r>
       <r>   16.1379    0.0000 </r>
       <r>   16.2207    0.0000 </r>
       <r>   17.3421    0.0000 </r>
       <r>   17.4009    0.0000 </r>
      </set>
      <set comment="kpoint 3">
       <r>  -13.6172    1.0000 </r>
       <r>  -12.7691    1.0000 </r>
       <r>  -12.5458    1.0000 </r>
       <r>  -12.5319    1.0000 </r>
       <r>  -12.5273    1.0000 </r>
       <r>  -12.3558    1.0000 </r>
       <r>  -12.3473    1.0000 </r>
       <r>  -12.3461    1.0000 </r>
       <r>   -1.0731    1.0000 </r>
       <r>   -0.8071    1.0000 </r>
       <r>   -0.8053    1.0000 </r>
       <r>   -0.6281    1.0000 </r>
       <r>   -0.5755    1.0000 </r>
       <r>   -0.2879    1.0000 </r>
       <r>   -0.2863    1.0000 </r>
       <r>    1.4879    1.0000 </r>
       <r>    1.6826    1.0000 </r>
       <r>    1.6869    1.0000 </r>
       <r>    2.0088    1.0000 </r>
       <r>    2.0756    1.0000 </r>
       <r>    2.0776    1.0000 </r>
       <r>    2.2842    1.0000 </r>
       <r>    2.2972    1.0000 </r>
       <r>    2.2983    1.0000 </r>
       <r>    2.3875    1.0000 </r>
       <r>    2.4985    1.0000 </r>
       <r>    2.5020    1.0000 </r>
       <r>    2.7987    1.0000 </r>
       <r>    2.8836    1.0000 </r>
       <r>    2.8846    1.0000 </r>
       <r>    3.2209    1.0000 </r>
       <r>    3.2223    1.0000 </r>
       <r>    8.6828    1.0000 </r>
       <r>   10.7091    0.0000 </r>
       <r>   11.2973    0.0000 </r>
       <r>   11.6024    0.0000 </r>
       <r>   11.6233    0.0000 </r>
       <r>   12.5141    0.0000 </r>
       <r>   12.5414    0.0000 </r>
       <r>   12.5550    0.0000 </r>
       <r>   13.0843    0.0000 </r>
       <r>   13.0987    0.0000 </r>
       <r>   13.6697    0.0000 </r>
       <r>   15.4173    0.0000 </r>
       <r>   15.5533    0.0000 </r>
       <r>   15.5658    0.0000 </r>
       <r>   15.6074    0.0000 </r>
       <r>   16.1221    0.0000 </r>
       <r>   16.1362    0.0000 </r>
       <r>   16.2160    0.0000 </r>
       <r>   17.3373    0.0000 </r>
       <r>   17.3710    0.0000 </r>
      </set>
      <set comment="kpoint 4">
       <r>  -13.6173    1.0000 </r>
       <r>  -12.7692    1.0000 </r>
       <r>  -12.5410    1.0000 </r>
       <r>  -12.5350    1.0000 </r>
       <r>  -12.5293    1.0000 </r>
       <r>  -12.3530    1.0000 </r>
       <r>  -12.3491    1.0000 </r>
       <r>  -12.3468    1.0000 </r>
       <r>   -1.0739    1.0000 </r>
       <r>   -0.8067    1.0000 </r>
       <r>   -0.8051    1.0000 </r>
       <r>   -0.6305    1.0000 </r>
       <r>   -0.5731    1.0000 </r>
       <r>   -0.2879    1.0000 </r>
       <r>   -0.2861    1.0000 </r>
       <r>    1.4908    1.0000 </r>
       <r>    1.6832    1.0000 </r>
       <r>    1.6872    1.0000 </r>
       <r>    2.0123    1.0000 </r>
       <r>    2.0753    1.0000 </r>
       <r>    2.0780    1.0000 </r>
       <r>    2.2826    1.0000 </r>
       <r>    2.2951    1.0000 </r>
       <r>    2.2989    1.0000 </r>
       <r>    2.3886    1.0000 </r>
       <r>    2.4956    1.0000 </r>
       <r>    2.5004    1.0000 </r>
       <r>    2.7958    1.0000 </r>
       <r>    2.8848    1.0000 </r>
       <r>    2.8864    1.0000 </r>
       <r>    3.2194    1.0000 </r>
       <r>    3.2218    1.0000 </r>
       <r>    8.6829    1.0000 </r>
       <r>   10.7039    0.0000 </r>
       <r>   11.3048    0.0000 </r>
       <r>   11.5982    0.0000 </r>
       <r>   11.6269    0.0000 </r>
       <r>   12.5019    0.0000 </r>
       <r>   12.5297    0.0000 </r>
       <r>   12.5592    0.0000 </r>
       <r>   13.0988    0.0000 </r>
       <r>   13.1065    0.0000 </r>
       <r>   13.6720    0.0000 </r>
       <r>   15.4172    0.0000 </r>
       <r>   15.5478    0.0000 </r>
       <r>   15.5582    0.0000 </r>
       <r>   15.6100    0.0000 </r>
       <r>   16.1180    0.0000 </r>
       <r>   16.1368    0.0000 </r>
       <r>   16.2300    0.0000 </r>
       <r>   17.3521    0.0000 </r>
       <r>   17.3640    0.0000 </r>
      </set>
      <set comment="kpoint 5">
       <r>  -13.2551    1.0000 </r>
       <r>  -12.9663    1.0000 </r>
       <r>  -12.7308    1.0000 </r>
       <r>  -12.5776    1.0000 </r>
       <r>  -12.5726    1.0000 </r>
       <r>  -12.4091    1.0000 </r>
       <r>  -12.3164    1.0000 </r>
       <r>  -12.3134    1.0000 </r>
       <r>   -0.4606    1.0000 </r>
       <r>   -0.2484    1.0000 </r>
       <r>   -0.2160    1.0000 </r>
       <r>   -0.1656    1.0000 </r>
       <r>    0.0636    1.0000 </r>
       <r>    0.1366    1.0000 </r>
       <r>    0.2325    1.0000 </r>
       <r>    0.7715    1.0000 </r>
       <r>    1.0400    1.0000 </r>
       <r>    1.0588    1.0000 </r>
       <r>    1.1623    1.0000 </r>
       <r>    1.6623    1.0000 </r>
       <r>    1.6818    1.0000 </r>
       <r>    1.8716    1.0000 </r>
       <r>    1.9815    1.0000 </r>
       <r>    2.1966    1.0000 </r>
       <r>    2.2563    1.0000 </r>
       <r>    2.4242    1.0000 </r>
       <r>    2.4776    1.0000 </r>
       <r>    2.5468    1.0000 </r>
       <r>    2.6578    1.0000 </r>
       <r>    2.8890    1.0000 </r>
       <r>    2.8918    1.0000 </r>
       <r>    2.9891    1.0000 </r>
       <r>   10.1758    0.0004 </r>
       <r>   10.9655    0.0000 </r>
       <r>   11.7014    0.0000 </r>
       <r>   12.2946    0.0000 </r>
       <r>   12.3041    0.0000 </r>
       <r>   12.9550    0.0000 </r>
       <r>   13.4932    0.0000 </r>
       <r>   13.5802    0.0000 </r>
       <r>   13.8590    0.0000 </r>
       <r>   14.0369    0.0000 </r>
       <r>   14.1022    0.0000 </r>
       <r>   14.6729    0.0000 </r>
       <r>   15.1007    0.0000 </r>
       <r>   15.1878    0.0000 </r>
       <r>   15.3823    0.0000 </r>
       <r>   15.5010    0.0000 </r>
       <r>   15.5776    0.0000 </r>
       <r>   15.7617    0.0000 </r>
       <r>   16.3896    0.0000 </r>
       <r>   16.8795    0.0000 </r>
      </set>
      <set comment="kpoint 6">
       <r>  -13.2554    1.0000 </r>
       <r>  -12.9659    1.0000 </r>
       <r>  -12.7302    1.0000 </r>
       <r>  -12.5760    1.0000 </r>
       <r>  -12.5756    1.0000 </r>
       <r>  -12.4080    1.0000 </r>
       <r>  -12.3171    1.0000 </r>
       <r>  -12.3129    1.0000 </r>
       <r>   -0.4620    1.0000 </r>
       <r>   -0.2424    1.0000 </r>
       <r>   -0.2219    1.0000 </r>
       <r>   -0.1668    1.0000 </r>
       <r>    0.0639    1.0000 </r>
       <r>    0.1364    1.0000 </r>
       <r>    0.2345    1.0000 </r>
       <r>    0.7727    1.0000 </r>
       <r>    1.0413    1.0000 </r>
       <r>    1.0575    1.0000 </r>
       <r>    1.1623    1.0000 </r>
       <r>    1.6639    1.0000 </r>
       <r>    1.6827    1.0000 </r>
       <r>    1.8717    1.0000 </r>
       <r>    1.9802    1.0000 </r>
       <r>    2.1957    1.0000 </r>
       <r>    2.2596    1.0000 </r>
       <r>    2.4177    1.0000 </r>
       <r>    2.4798    1.0000 </r>
       <r>    2.5497    1.0000 </r>
       <r>    2.6555    1.0000 </r>
       <r>    2.8885    1.0000 </r>
       <r>    2.8912    1.0000 </r>
       <r>    2.9890    1.0000 </r>
       <r>   10.1768    0.0003 </r>
       <r>   10.9578    0.0000 </r>
       <r>   11.7015    0.0000 </r>
       <r>   12.2956    0.0000 </r>
       <r>   12.3126    0.0000 </r>
       <r>   12.9556    0.0000 </r>
       <r>   13.4716    0.0000 </r>
       <r>   13.5917    0.0000 </r>
       <r>   13.8725    0.0000 </r>
       <r>   14.0441    0.0000 </r>
       <r>   14.0942    0.0000 </r>
       <r>   14.6621    0.0000 </r>
       <r>   15.1098    0.0000 </r>
       <r>   15.1946    0.0000 </r>
       <r>   15.3731    0.0000 </r>
       <r>   15.4839    0.0000 </r>
       <r>   15.5810    0.0000 </r>
       <r>   15.7875    0.0000 </r>
       <r>   16.3752    0.0000 </r>
       <r>   16.8710    0.0000 </r>
      </set>
      <set comment="kpoint 7">
       <r>  -13.2549    1.0000 </r>
       <r>  -12.9664    1.0000 </r>
       <r>  -12.7306    1.0000 </r>
       <r>  -12.5790    1.0000 </r>
       <r>  -12.5715    1.0000 </r>
       <r>  -12.4092    1.0000 </r>
       <r>  -12.3154    1.0000 </r>
       <r>  -12.3143    1.0000 </r>
       <r>   -0.4596    1.0000 </r>
       <r>   -0.2374    1.0000 </r>
       <r>   -0.2237    1.0000 </r>
       <r>   -0.1689    1.0000 </r>
       <r>    0.0629    1.0000 </r>
       <r>    0.1352    1.0000 </r>
       <r>    0.2332    1.0000 </r>
       <r>    0.7707    1.0000 </r>
       <r>    1.0404    1.0000 </r>
       <r>    1.0573    1.0000 </r>
       <r>    1.1626    1.0000 </r>
       <r>    1.6610    1.0000 </r>
       <r>    1.6820    1.0000 </r>
       <r>    1.8706    1.0000 </r>
       <r>    1.9786    1.0000 </r>
       <r>    2.1951    1.0000 </r>
       <r>    2.2591    1.0000 </r>
       <r>    2.4249    1.0000 </r>
       <r>    2.4830    1.0000 </r>
       <r>    2.5477    1.0000 </r>
       <r>    2.6574    1.0000 </r>
       <r>    2.8890    1.0000 </r>
       <r>    2.8908    1.0000 </r>
       <r>    2.9910    1.0000 </r>
       <r>   10.1742    0.0004 </r>
       <r>   10.9705    0.0000 </r>
       <r>   11.7070    0.0000 </r>
       <r>   12.2846    0.0000 </r>
       <r>   12.3001    0.0000 </r>
       <r>   12.9634    0.0000 </r>
       <r>   13.4831    0.0000 </r>
       <r>   13.5905    0.0000 </r>
       <r>   13.8873    0.0000 </r>
       <r>   14.0308    0.0000 </r>
       <r>   14.0726    0.0000 </r>
       <r>   14.6644    0.0000 </r>
       <r>   15.1274    0.0000 </r>
       <r>   15.1810    0.0000 </r>
       <r>   15.3865    0.0000 </r>
       <r>   15.4781    0.0000 </r>
       <r>   15.5684    0.0000 </r>
       <r>   15.7701    0.0000 </r>
       <r>   16.3693    0.0000 </r>
       <r>   16.8765    0.0000 </r>
      </set>
      <set comment="kpoint 8">
       <r>  -13.2551    1.0000 </r>
       <r>  -12.9657    1.0000 </r>
       <r>  -12.7324    1.0000 </r>
       <r>  -12.5794    1.0000 </r>
       <r>  -12.5688    1.0000 </r>
       <r>  -12.4110    1.0000 </r>
       <r>  -12.3155    1.0000 </r>
       <r>  -12.3135    1.0000 </r>
       <r>   -0.4600    1.0000 </r>
       <r>   -0.2444    1.0000 </r>
       <r>   -0.2195    1.0000 </r>
       <r>   -0.1667    1.0000 </r>
       <r>    0.0619    1.0000 </r>
       <r>    0.1375    1.0000 </r>
       <r>    0.2327    1.0000 </r>
       <r>    0.7701    1.0000 </r>
       <r>    1.0405    1.0000 </r>
       <r>    1.0608    1.0000 </r>
       <r>    1.1622    1.0000 </r>
       <r>    1.6638    1.0000 </r>
       <r>    1.6786    1.0000 </r>
       <r>    1.8714    1.0000 </r>
       <r>    1.9815    1.0000 </r>
       <r>    2.1933    1.0000 </r>
       <r>    2.2552    1.0000 </r>
       <r>    2.4287    1.0000 </r>
       <r>    2.4812    1.0000 </r>
       <r>    2.5457    1.0000 </r>
       <r>    2.6589    1.0000 </r>
       <r>    2.8887    1.0000 </r>
       <r>    2.8916    1.0000 </r>
       <r>    2.9882    1.0000 </r>
       <r>   10.1760    0.0004 </r>
       <r>   10.9623    0.0000 </r>
       <r>   11.7215    0.0000 </r>
       <r>   12.2691    0.0000 </r>
       <r>   12.2985    0.0000 </r>
       <r>   12.9588    0.0000 </r>
       <r>   13.5078    0.0000 </r>
       <r>   13.5866    0.0000 </r>
       <r>   13.8586    0.0000 </r>
       <r>   14.0408    0.0000 </r>
       <r>   14.0971    0.0000 </r>
       <r>   14.6647    0.0000 </r>
       <r>   15.1039    0.0000 </r>
       <r>   15.1815    0.0000 </r>
       <r>   15.3831    0.0000 </r>
       <r>   15.4930    0.0000 </r>
       <r>   15.5742    0.0000 </r>
       <r>   15.7674    0.0000 </r>
       <r>   16.3772    0.0000 </r>
       <r>   16.8543    0.0000 </r>
      </set>
      <set comment="kpoint 9">
       <r>  -13.2556    1.0000 </r>
       <r>  -12.9651    1.0000 </r>
       <r>  -12.7317    1.0000 </r>
       <r>  -12.5773    1.0000 </r>
       <r>  -12.5726    1.0000 </r>
       <r>  -12.4092    1.0000 </r>
       <r>  -12.3160    1.0000 </r>
       <r>  -12.3137    1.0000 </r>
       <r>   -0.4614    1.0000 </r>
       <r>   -0.2401    1.0000 </r>
       <r>   -0.2255    1.0000 </r>
       <r>   -0.1667    1.0000 </r>
       <r>    0.0639    1.0000 </r>
       <r>    0.1365    1.0000 </r>
       <r>    0.2355    1.0000 </r>
       <r>    0.7721    1.0000 </r>
       <r>    1.0416    1.0000 </r>
       <r>    1.0600    1.0000 </r>
       <r>    1.1624    1.0000 </r>
       <r>    1.6630    1.0000 </r>
       <r>    1.6808    1.0000 </r>
       <r>    1.8716    1.0000 </r>
       <r>    1.9806    1.0000 </r>
       <r>    2.1944    1.0000 </r>
       <r>    2.2575    1.0000 </r>
       <r>    2.4166    1.0000 </r>
       <r>    2.4846    1.0000 </r>
       <r>    2.5478    1.0000 </r>
       <r>    2.6572    1.0000 </r>
       <r>    2.8886    1.0000 </r>
       <r>    2.8899    1.0000 </r>
       <r>    2.9895    1.0000 </r>
       <r>   10.1785    0.0003 </r>
       <r>   10.9489    0.0000 </r>
       <r>   11.7206    0.0000 </r>
       <r>   12.2772    0.0000 </r>
       <r>   12.3120    0.0000 </r>
       <r>   12.9547    0.0000 </r>
       <r>   13.4736    0.0000 </r>
       <r>   13.5943    0.0000 </r>
       <r>   13.8851    0.0000 </r>
       <r>   14.0416    0.0000 </r>
       <r>   14.0944    0.0000 </r>
       <r>   14.6622    0.0000 </r>
       <r>   15.1090    0.0000 </r>
       <r>   15.1910    0.0000 </r>
       <r>   15.3742    0.0000 </r>
       <r>   15.4771    0.0000 </r>
       <r>   15.5845    0.0000 </r>
       <r>   15.7918    0.0000 </r>
       <r>   16.3583    0.0000 </r>
       <r>   16.8819    0.0000 </r>
      </set>
      <set comment="kpoint 10">
       <r>  -13.2554    1.0000 </r>
       <r>  -12.9654    1.0000 </r>
       <r>  -12.7318    1.0000 </r>
       <r>  -12.5781    1.0000 </r>
       <r>  -12.5715    1.0000 </r>
       <r>  -12.4094    1.0000 </r>
       <r>  -12.3159    1.0000 </r>
       <r>  -12.3137    1.0000 </r>
       <r>   -0.4611    1.0000 </r>
       <r>   -0.2415    1.0000 </r>
       <r>   -0.2209    1.0000 </r>
       <r>   -0.1685    1.0000 </r>
       <r>    0.0624    1.0000 </r>
       <r>    0.1377    1.0000 </r>
       <r>    0.2330    1.0000 </r>
       <r>    0.7736    1.0000 </r>
       <r>    1.0412    1.0000 </r>
       <r>    1.0588    1.0000 </r>
       <r>    1.1627    1.0000 </r>
       <r>    1.6601    1.0000 </r>
       <r>    1.6812    1.0000 </r>
       <r>    1.8707    1.0000 </r>
       <r>    1.9793    1.0000 </r>
       <r>    2.1917    1.0000 </r>
       <r>    2.2601    1.0000 </r>
       <r>    2.4266    1.0000 </r>
       <r>    2.4790    1.0000 </r>
       <r>    2.5487    1.0000 </r>
       <r>    2.6567    1.0000 </r>
       <r>    2.8894    1.0000 </r>
       <r>    2.8919    1.0000 </r>
       <r>    2.9888    1.0000 </r>
       <r>   10.1763    0.0004 </r>
       <r>   10.9550    0.0000 </r>
       <r>   11.7257    0.0000 </r>
       <r>   12.2759    0.0000 </r>
       <r>   12.3129    0.0000 </r>
       <r>   12.9470    0.0000 </r>
       <r>   13.4906    0.0000 </r>
       <r>   13.5774    0.0000 </r>
       <r>   13.8658    0.0000 </r>
       <r>   14.0246    0.0000 </r>
       <r>   14.1146    0.0000 </r>
       <r>   14.6755    0.0000 </r>
       <r>   15.0851    0.0000 </r>
       <r>   15.1912    0.0000 </r>
       <r>   15.3900    0.0000 </r>
       <r>   15.5048    0.0000 </r>
       <r>   15.5876    0.0000 </r>
       <r>   15.7564    0.0000 </r>
       <r>   16.3761    0.0000 </r>
       <r>   16.8606    0.0000 </r>
      </set>
      <set comment="kpoint 11">
       <r>  -13.2555    1.0000 </r>
       <r>  -12.9653    1.0000 </r>
       <r>  -12.7319    1.0000 </r>
       <r>  -12.5780    1.0000 </r>
       <r>  -12.5714    1.0000 </r>
       <r>  -12.4096    1.0000 </r>
       <r>  -12.3155    1.0000 </r>
       <r>  -12.3140    1.0000 </r>
       <r>   -0.4614    1.0000 </r>
       <r>   -0.2416    1.0000 </r>
       <r>   -0.2245    1.0000 </r>
       <r>   -0.1653    1.0000 </r>
       <r>    0.0627    1.0000 </r>
       <r>    0.1372    1.0000 </r>
       <r>    0.2349    1.0000 </r>
       <r>    0.7722    1.0000 </r>
       <r>    1.0410    1.0000 </r>
       <r>    1.0617    1.0000 </r>
       <r>    1.1620    1.0000 </r>
       <r>    1.6630    1.0000 </r>
       <r>    1.6796    1.0000 </r>
       <r>    1.8713    1.0000 </r>
       <r>    1.9810    1.0000 </r>
       <r>    2.1928    1.0000 </r>
       <r>    2.2569    1.0000 </r>
       <r>    2.4196    1.0000 </r>
       <r>    2.4844    1.0000 </r>
       <r>    2.5468    1.0000 </r>
       <r>    2.6578    1.0000 </r>
       <r>    2.8883    1.0000 </r>
       <r>    2.8912    1.0000 </r>
       <r>    2.9888    1.0000 </r>
       <r>   10.1784    0.0003 </r>
       <r>   10.9502    0.0000 </r>
       <r>   11.7257    0.0000 </r>
       <r>   12.2709    0.0000 </r>
       <r>   12.3102    0.0000 </r>
       <r>   12.9534    0.0000 </r>
       <r>   13.4839    0.0000 </r>
       <r>   13.5908    0.0000 </r>
       <r>   13.8750    0.0000 </r>
       <r>   14.0405    0.0000 </r>
       <r>   14.1006    0.0000 </r>
       <r>   14.6669    0.0000 </r>
       <r>   15.1001    0.0000 </r>
       <r>   15.1899    0.0000 </r>
       <r>   15.3785    0.0000 </r>
       <r>   15.4853    0.0000 </r>
       <r>   15.5814    0.0000 </r>
       <r>   15.7838    0.0000 </r>
       <r>   16.3657    0.0000 </r>
       <r>   16.8717    0.0000 </r>
      </set>
      <set comment="kpoint 12">
       <r>  -13.2552    1.0000 </r>
       <r>  -12.9657    1.0000 </r>
       <r>  -12.7324    1.0000 </r>
       <r>  -12.5793    1.0000 </r>
       <r>  -12.5687    1.0000 </r>
       <r>  -12.4111    1.0000 </r>
       <r>  -12.3154    1.0000 </r>
       <r>  -12.3136    1.0000 </r>
       <r>   -0.4604    1.0000 </r>
       <r>   -0.2420    1.0000 </r>
       <r>   -0.2229    1.0000 </r>
       <r>   -0.1665    1.0000 </r>
       <r>    0.0620    1.0000 </r>
       <r>    0.1377    1.0000 </r>
       <r>    0.2337    1.0000 </r>
       <r>    0.7703    1.0000 </r>
       <r>    1.0412    1.0000 </r>
       <r>    1.0612    1.0000 </r>
       <r>    1.1621    1.0000 </r>
       <r>    1.6639    1.0000 </r>
       <r>    1.6783    1.0000 </r>
       <r>    1.8715    1.0000 </r>
       <r>    1.9812    1.0000 </r>
       <r>    2.1928    1.0000 </r>
       <r>    2.2550    1.0000 </r>
[...]
        <r>  0.0055  0.0013  0.0009  0.0009  0.0048  0.0004  0.0001  0.0003  0.0000 </r>
        <r>  0.0020  0.0011  0.0015  0.0022  0.0066  0.0007  0.0001  0.0005  0.0001 </r>
        <r>  0.0027  0.0023  0.0008  0.0012  0.0067  0.0005  0.0001  0.0005  0.0001 </r>
        <r>  0.0015  0.0225  0.0006  0.0042  0.0000  0.0000  0.0000  0.0000  0.0000 </r>
        <r>  0.0011  0.0072  0.0004  0.0219  0.0000  0.0000  0.0000  0.0000  0.0000 </r>
        <r>  0.0028  0.0196  0.0110  0.0204  0.0000  0.0000  0.0000  0.0000  0.0000 </r>
        <r>  0.0019  0.0010  0.0100  0.0008  0.0000  0.0000  0.0000  0.0000  0.0000 </r>
        <r>  0.0009  0.0036  0.0043  0.0044  0.0000  0.0000  0.0000  0.0000  0.0000 </r>
        <r>  0.0004  0.0076  0.0077  0.0069  0.0000  0.0000  0.0000  0.0000  0.0000 </r>
        <r>  0.0005  0.0002  0.0035  0.0014  0.0000  0.0000  0.0000  0.0000  0.0000 </r>
        <r>  0.0011  0.0024  0.0038  0.0011  0.0000  0.0000  0.0000  0.0000  0.0000 </r>
       </set>
       <set comment="band 42">
        <r>  0.0198  0.0009  0.0053  0.0012  0.0006  0.0012  0.0054  0.0028  0.0014 </r>
        <r>  0.0038  0.0017  0.0014  0.0018  0.0077  0.0043  0.0003  0.0011  0.0002 </r>
        <r>  0.0011  0.0037  0.0007  0.0010  0.0088  0.0044  0.0006  0.0016  0.0006 </r>
        <r>  0.0060  0.0002  0.0007  0.0009  0.0095  0.0039  0.0012  0.0033  0.0001 </r>
        <r>  0.0175  0.0022  0.0005  0.0018  0.0070  0.0010  0.0001  0.0003  0.0000 </r>
        <r>  0.0104  0.0014  0.0043  0.0013  0.0059  0.0012  0.0002  0.0031  0.0003 </r>
        <r>  0.0012  0.0062  0.0015  0.0010  0.0056  0.0002  0.0003  0.0000  0.0000 </r>
        <r>  0.0034  0.0054  0.0021  0.0008  0.0064  0.0006  0.0000  0.0018  0.0000 </r>
        <r>  0.0007  0.0004  0.0006  0.0065  0.0072  0.0001  0.0001  0.0001  0.0000 </r>
        <r>  0.0038  0.0085  0.0019  0.0127  0.0000  0.0000  0.0000  0.0000  0.0000 </r>
        <r>  0.0008  0.0165  0.0021  0.0058  0.0000  0.0000  0.0000  0.0000  0.0000 </r>
        <r>  0.0012  0.0014  0.0257  0.0030  0.0000  0.0000  0.0000  0.0000  0.0000 </r>
        <r>  0.0054  0.0007  0.0009  0.0026  0.0000  0.0000  0.0000  0.0000  0.0000 </r>
        <r>  0.0076  0.0149  0.0012  0.0188  0.0000  0.0000  0.0000  0.0000  0.0000 </r>
        <r>  0.0019  0.0029  0.0044  0.0052  0.0000  0.0000  0.0000  0.0000  0.0000 </r>
        <r>  0.0051  0.0043  0.0019  0.0088  0.0000  0.0000  0.0000  0.0000  0.0000 </r>
        <r>  0.0055  0.0181  0.0059  0.0004  0.0000  0.0000  0.0000  0.0000  0.0000 </r>
       </set>
       <set comment="band 43">
        <r>  0.0028  0.0031  0.0005  0.0030  0.0002  0.0050  0.0004  0.0030  0.0122 </r>
        <r>  0.0150  0.0025  0.0000  0.0042  0.0013  0.0033  0.0003  0.0115  0.0005 </r>
        <r>  0.0189  0.0024  0.0008  0.0040  0.0002  0.0069  0.0001  0.0064  0.0001 </r>
        <r>  0.0009  0.0042  0.0001  0.0029  0.0010  0.0065  0.0002  0.0086  0.0008 </r>
        <r>  0.0020  0.0014  0.0000  0.0017  0.0008  0.0046  0.0000  0.0055  0.0004 </r>
        <r>  0.0020  0.0060  0.0009  0.0067  0.0004  0.0022  0.0000  0.0006  0.0024 </r>
        <r>  0.0005  0.0016  0.0002  0.0073  0.0005  0.0006  0.0000  0.0008  0.0002 </r>
        <r>  0.0025  0.0014  0.0026  0.0002  0.0010  0.0015  0.0002  0.0012  0.0000 </r>
        <r>  0.0056  0.0006  0.0042  0.0004  0.0003  0.0026  0.0001  0.0020  0.0000 </r>
        <r>  0.0016  0.0086  0.0174  0.0128  0.0000  0.0000  0.0000  0.0000  0.0000 </r>
        <r>  0.0053  0.0080  0.0168  0.0107  0.0000  0.0000  0.0000  0.0000  0.0000 </r>
        <r>  0.0002  0.0093  0.0038  0.0090  0.0000  0.0000  0.0000  0.0000  0.0000 </r>
        <r>  0.0007  0.0098  0.0004  0.0091  0.0000  0.0000  0.0000  0.0000  0.0000 </r>
        <r>  0.0009  0.0120  0.0002  0.0070  0.0000  0.0000  0.0000  0.0000  0.0000 </r>
        <r>  0.0002  0.0036  0.0006  0.0023  0.0000  0.0000  0.0000  0.0000  0.0000 </r>
        <r>  0.0008  0.0120  0.0095  0.0183  0.0000  0.0000  0.0000  0.0000  0.0000 </r>
        <r>  0.0008  0.0081  0.0055  0.0150  0.0000  0.0000  0.0000  0.0000  0.0000 </r>
       </set>
       <set comment="band 44">
        <r>  0.0198  0.0032  0.0252  0.0035  0.0227  0.0028  0.0082  0.0021  0.0000 </r>
        <r>  0.0034  0.0018  0.0027  0.0029  0.0057  0.0016  0.0002  0.0079  0.0000 </r>
        <r>  0.0051  0.0041  0.0027  0.0022  0.0060  0.0087  0.0001  0.0017  0.0000 </r>
        <r>  0.0091  0.0004  0.0094  0.0003  0.0025  0.0062  0.0016  0.0055  0.0000 </r>
        <r>  0.0186  0.0002  0.0002  0.0004  0.0011  0.0003  0.0001  0.0003  0.0000 </r>
        <r>  0.0057  0.0020  0.0029  0.0026  0.0081  0.0018  0.0006  0.0019  0.0000 </r>
        <r>  0.0095  0.0005  0.0093  0.0004  0.0027  0.0017  0.0001  0.0014  0.0000 </r>
        <r>  0.0071  0.0062  0.0030  0.0005  0.0017  0.0021  0.0001  0.0001  0.0001 </r>
        <r>  0.0074  0.0005  0.0024  0.0061  0.0018  0.0001  0.0001  0.0020  0.0001 </r>
        <r>  0.0016  0.0014  0.0066  0.0064  0.0000  0.0000  0.0000  0.0000  0.0000 </r>
        <r>  0.0017  0.0068  0.0066  0.0017  0.0000  0.0000  0.0000  0.0000  0.0000 </r>
        <r>  0.0001  0.0035  0.0087  0.0031  0.0000  0.0000  0.0000  0.0000  0.0000 </r>
        <r>  0.0054  0.0012  0.0033  0.0015  0.0000  0.0000  0.0000  0.0000  0.0000 </r>
        <r>  0.0026  0.0251  0.0432  0.0214  0.0000  0.0000  0.0000  0.0000  0.0000 </r>
        <r>  0.0010  0.0034  0.0042  0.0024  0.0000  0.0000  0.0000  0.0000  0.0000 </r>
        <r>  0.0017  0.0009  0.0015  0.0100  0.0000  0.0000  0.0000  0.0000  0.0000 </r>
        <r>  0.0023  0.0095  0.0006  0.0008  0.0000  0.0000  0.0000  0.0000  0.0000 </r>
       </set>
       <set comment="band 45">
        <r>  0.0001  0.0001  0.0003  0.0002  0.0001  0.0004  0.0001  0.0002  0.0144 </r>
        <r>  0.0029  0.0051  0.0009  0.0039  0.0003  0.0011  0.0004  0.0010  0.0015 </r>
        <r>  0.0018  0.0048  0.0028  0.0046  0.0005  0.0013  0.0006  0.0015  0.0021 </r>
        <r>  0.0000  0.0033  0.0002  0.0036  0.0001  0.0010  0.0000  0.0011  0.0010 </r>
        <r>  0.0000  0.0017  0.0001  0.0015  0.0001  0.0005  0.0000  0.0010  0.0000 </r>
        <r>  0.0001  0.0009  0.0001  0.0008  0.0001  0.0122  0.0000  0.0142  0.0001 </r>
        <r>  0.0000  0.0001  0.0000  0.0000  0.0001  0.0098  0.0000  0.0077  0.0003 </r>
        <r>  0.0166  0.0004  0.0065  0.0004  0.0008  0.0008  0.0000  0.0013  0.0000 </r>
        <r>  0.0121  0.0006  0.0050  0.0007  0.0012  0.0014  0.0000  0.0007  0.0000 </r>
        <r>  0.0021  0.0053  0.0204  0.0031  0.0000  0.0000  0.0000  0.0000  0.0000 </r>
        <r>  0.0021  0.0037  0.0111  0.0036  0.0000  0.0000  0.0000  0.0000  0.0000 </r>
        <r>  0.0001  0.0172  0.0001  0.0149  0.0000  0.0000  0.0000  0.0000  0.0000 </r>
        <r>  0.0000  0.0139  0.0003  0.0097  0.0000  0.0000  0.0000  0.0000  0.0000 </r>
        <r>  0.0000  0.0319  0.0002  0.0293  0.0000  0.0000  0.0000  0.0000  0.0000 </r>
        <r>  0.0001  0.0254  0.0003  0.0303  0.0000  0.0000  0.0000  0.0000  0.0000 </r>
        <r>  0.0016  0.0020  0.0234  0.0031  0.0000  0.0000  0.0000  0.0000  0.0000 </r>
        <r>  0.0011  0.0041  0.0325  0.0033  0.0000  0.0000  0.0000  0.0000  0.0000 </r>
       </set>
       <set comment="band 46">
        <r>  0.0021  0.0006  0.0080  0.0007  0.0035  0.0014  0.0013  0.0019  0.0003 </r>
        <r>  0.0044  0.0003  0.0084  0.0010  0.0003  0.0013  0.0019  0.0014  0.0007 </r>
        <r>  0.0062  0.0003  0.0068  0.0012  0.0002  0.0010  0.0012  0.0009  0.0003 </r>
        <r>  0.0017  0.0006  0.0090  0.0001  0.0025  0.0008  0.0008  0.0008  0.0000 </r>
        <r>  0.0051  0.0008  0.0074  0.0006  0.0031  0.0050  0.0002  0.0045  0.0000 </r>
        <r>  0.0089  0.0000  0.0022  0.0002  0.0040  0.0039  0.0001  0.0020  0.0000 </r>
        <r>  0.0045  0.0003  0.0005  0.0002  0.0052  0.0064  0.0001  0.0088  0.0000 </r>
        <r>  0.0058  0.0026  0.0007  0.0030  0.0024  0.0044  0.0000  0.0044  0.0001 </r>
        <r>  0.0106  0.0028  0.0017  0.0025  0.0018  0.0042  0.0000  0.0044  0.0001 </r>
        <r>  0.0001  0.0016  0.0155  0.0064  0.0000  0.0000  0.0000  0.0000  0.0000 </r>
        <r>  0.0003  0.0053  0.0223  0.0032  0.0000  0.0000  0.0000  0.0000  0.0000 </r>
        <r>  0.0032  0.0049  0.0083  0.0094  0.0000  0.0000  0.0000  0.0000  0.0000 </r>
        <r>  0.0006  0.0121  0.0140  0.0155  0.0000  0.0000  0.0000  0.0000  0.0000 </r>
        <r>  0.0011  0.0025  0.0076  0.0084  0.0000  0.0000  0.0000  0.0000  0.0000 </r>
        <r>  0.0044  0.0131  0.0171  0.0077  0.0000  0.0000  0.0000  0.0000  0.0000 </r>
        <r>  0.0001  0.0062  0.0190  0.0020  0.0000  0.0000  0.0000  0.0000  0.0000 </r>
        <r>  0.0001  0.0016  0.0093  0.0043  0.0000  0.0000  0.0000  0.0000  0.0000 </r>
       </set>
       <set comment="band 47">
        <r>  0.0008  0.0021  0.0008  0.0017  0.0033  0.0003  0.0085  0.0008  0.0001 </r>
        <r>  0.0001  0.0041  0.0058  0.0010  0.0019  0.0003  0.0040  0.0004  0.0012 </r>
        <r>  0.0003  0.0008  0.0044  0.0029  0.0020  0.0004  0.0030  0.0004  0.0013 </r>
        <r>  0.0012  0.0078  0.0017  0.0080  0.0007  0.0005  0.0048  0.0001  0.0000 </r>
        <r>  0.0025  0.0028  0.0030  0.0027  0.0002  0.0038  0.0000  0.0020  0.0000 </r>
        <r>  0.0010  0.0036  0.0010  0.0020  0.0017  0.0019  0.0009  0.0011  0.0000 </r>
        <r>  0.0005  0.0022  0.0117  0.0015  0.0001  0.0025  0.0001  0.0019  0.0000 </r>
        <r>  0.0030  0.0051  0.0013  0.0013  0.0020  0.0095  0.0001  0.0037  0.0001 </r>
        <r>  0.0022  0.0026  0.0016  0.0032  0.0022  0.0042  0.0002  0.0083  0.0002 </r>
        <r>  0.0006  0.0167  0.0055  0.0048  0.0000  0.0000  0.0000  0.0000  0.0000 </r>
        <r>  0.0005  0.0064  0.0074  0.0162  0.0000  0.0000  0.0000  0.0000  0.0000 </r>
        <r>  0.0014  0.0043  0.0044  0.0023  0.0000  0.0000  0.0000  0.0000  0.0000 </r>
        <r>  0.0048  0.0081  0.0225  0.0038  0.0000  0.0000  0.0000  0.0000  0.0000 </r>
        <r>  0.0014  0.0068  0.0226  0.0044  0.0000  0.0000  0.0000  0.0000  0.0000 </r>
        <r>  0.0007  0.0134  0.0091  0.0095  0.0000  0.0000  0.0000  0.0000  0.0000 </r>
        <r>  0.0005  0.0196  0.0119  0.0101  0.0000  0.0000  0.0000  0.0000  0.0000 </r>
        <r>  0.0008  0.0129  0.0074  0.0156  0.0000  0.0000  0.0000  0.0000  0.0000 </r>
       </set>
       <set comment="band 48">
        <r>  0.0000  0.0012  0.0000  0.0017  0.0000  0.0035  0.0000  0.0030  0.0058 </r>
        <r>  0.0116  0.0064  0.0031  0.0075  0.0012  0.0010  0.0015  0.0004  0.0010 </r>
        <r>  0.0092  0.0064  0.0041  0.0086  0.0021  0.0000  0.0018  0.0000  0.0011 </r>
        <r>  0.0001  0.0016  0.0001  0.0016  0.0001  0.0089  0.0001  0.0113  0.0008 </r>
        <r>  0.0003  0.0000  0.0001  0.0004  0.0000  0.0059  0.0000  0.0064  0.0004 </r>
        <r>  0.0001  0.0056  0.0000  0.0076  0.0000  0.0016  0.0000  0.0016  0.0030 </r>
        <r>  0.0003  0.0041  0.0002  0.0062  0.0000  0.0005  0.0000  0.0009  0.0001 </r>
        <r>  0.0217  0.0034  0.0007  0.0048  0.0000  0.0006  0.0003  0.0018  0.0001 </r>
        <r>  0.0183  0.0044  0.0008  0.0070  0.0001  0.0009  0.0003  0.0026  0.0000 </r>
        <r>  0.0019  0.0071  0.0075  0.0119  0.0000  0.0000  0.0000  0.0000  0.0000 </r>
        <r>  0.0020  0.0051  0.0052  0.0085  0.0000  0.0000  0.0000  0.0000  0.0000 </r>
        <r>  0.0000  0.0156  0.0001  0.0181  0.0000  0.0000  0.0000  0.0000  0.0000 </r>
        <r>  0.0001  0.0166  0.0007  0.0226  0.0000  0.0000  0.0000  0.0000  0.0000 </r>
        <r>  0.0000  0.0047  0.0007  0.0081  0.0000  0.0000  0.0000  0.0000  0.0000 </r>
        <r>  0.0000  0.0062  0.0002  0.0104  0.0000  0.0000  0.0000  0.0000  0.0000 </r>
        <r>  0.0016  0.0065  0.0192  0.0109  0.0000  0.0000  0.0000  0.0000  0.0000 </r>
        <r>  0.0009  0.0036  0.0218  0.0122  0.0000  0.0000  0.0000  0.0000  0.0000 </r>
       </set>
       <set comment="band 49">
        <r>  0.0009  0.0007  0.0014  0.0008  0.0047  0.0008  0.0011  0.0004  0.0000 </r>
        <r>  0.0002  0.0021  0.0003  0.0043  0.0041  0.0138  0.0002  0.0021  0.0006 </r>
        <r>  0.0005  0.0060  0.0009  0.0017  0.0034  0.0028  0.0004  0.0148  0.0005 </r>
        <r>  0.0009  0.0013  0.0059  0.0008  0.0102  0.0023  0.0035  0.0011  0.0000 </r>
        <r>  0.0307  0.0017  0.0104  0.0016  0.0049  0.0024  0.0002  0.0034  0.0000 </r>
        <r>  0.0179  0.0001  0.0014  0.0004  0.0009  0.0005  0.0001  0.0008  0.0000 </r>
        <r>  0.0255  0.0007  0.0014  0.0005  0.0007  0.0005  0.0000  0.0004  0.0000 </r>
        <r>  0.0009  0.0001  0.0017  0.0012  0.0046  0.0037  0.0001  0.0027  0.0000 </r>
        <r>  0.0023  0.0005  0.0012  0.0001  0.0044  0.0028  0.0000  0.0030  0.0000 </r>
        <r>  0.0001  0.0011  0.0002  0.0116  0.0000  0.0000  0.0000  0.0000  0.0000 </r>
        <r>  0.0001  0.0148  0.0009  0.0022  0.0000  0.0000  0.0000  0.0000  0.0000 </r>
        <r>  0.0005  0.0020  0.0247  0.0005  0.0000  0.0000  0.0000  0.0000  0.0000 </r>
        <r>  0.0003  0.0023  0.0301  0.0022  0.0000  0.0000  0.0000  0.0000  0.0000 </r>
        <r>  0.0005  0.0014  0.0084  0.0008  0.0000  0.0000  0.0000  0.0000  0.0000 </r>
        <r>  0.0013  0.0010  0.0262  0.0024  0.0000  0.0000  0.0000  0.0000  0.0000 </r>
        <r>  0.0002  0.0087  0.0007  0.0078  0.0000  0.0000  0.0000  0.0000  0.0000 </r>
        <r>  0.0004  0.0103  0.0035  0.0100  0.0000  0.0000  0.0000  0.0000  0.0000 </r>
       </set>
       <set comment="band 50">
        <r>  0.0002  0.0009  0.0042  0.0010  0.0059  0.0009  0.0048  0.0012  0.0000 </r>
        <r>  0.0033  0.0010  0.0010  0.0011  0.0054  0.0004  0.0006  0.0093  0.0004 </r>
        <r>  0.0044  0.0014  0.0014  0.0013  0.0045  0.0099  0.0004  0.0003  0.0003 </r>
        <r>  0.0135  0.0025  0.0088  0.0029  0.0012  0.0025  0.0006  0.0017  0.0000 </r>
        <r>  0.0051  0.0067  0.0006  0.0065  0.0003  0.0004  0.0003  0.0007  0.0000 </r>
        <r>  0.0001  0.0028  0.0141  0.0019  0.0048  0.0004  0.0056  0.0004  0.0000 </r>
        <r>  0.0076  0.0068  0.0049  0.0052  0.0059  0.0002  0.0005  0.0002  0.0000 </r>
        <r>  0.0041  0.0068  0.0045  0.0003  0.0007  0.0001  0.0002  0.0079  0.0000 </r>
        <r>  0.0057  0.0005  0.0042  0.0058  0.0007  0.0085  0.0001  0.0001  0.0000 </r>
        <r>  0.0003  0.0047  0.0043  0.0072  0.0000  0.0000  0.0000  0.0000  0.0000 </r>
        <r>  0.0005  0.0093  0.0038  0.0030  0.0000  0.0000  0.0000  0.0000  0.0000 </r>
        <r>  0.0023  0.0004  0.0105  0.0001  0.0000  0.0000  0.0000  0.0000  0.0000 </r>
        <r>  0.0004  0.0064  0.0190  0.0047  0.0000  0.0000  0.0000  0.0000  0.0000 </r>
        <r>  0.0004  0.0018  0.0055  0.0010  0.0000  0.0000  0.0000  0.0000  0.0000 </r>
        <r>  0.0011  0.0023  0.0262  0.0013  0.0000  0.0000  0.0000  0.0000  0.0000 </r>
        <r>  0.0004  0.0178  0.0055  0.0053  0.0000  0.0000  0.0000  0.0000  0.0000 </r>
        <r>  0.0005  0.0070  0.0063  0.0146  0.0000  0.0000  0.0000  0.0000  0.0000 </r>
       </set>
       <set comment="band 51">
        <r>  0.0315  0.0004  0.0018  0.0005  0.0012  0.0008  0.0072  0.0008  0.0000 </r>
        <r>  0.0058  0.0009  0.0055  0.0078  0.0036  0.0001  0.0009  0.0001  0.0006 </r>
        <r>  0.0063  0.0064  0.0053  0.0009  0.0041  0.0001  0.0007  0.0001  0.0006 </r>
        <r>  0.0076  0.0006  0.0112  0.0008  0.0075  0.0007  0.0007  0.0007  0.0000 </r>
        <r>  0.0388  0.0015  0.0011  0.0015  0.0070  0.0004  0.0000  0.0005  0.0000 </r>
        <r>  0.0113  0.0013  0.0005  0.0010  0.0031  0.0015  0.0005  0.0014  0.0000 </r>
        <r>  0.1057  0.0013  0.0002  0.0012  0.0069  0.0011  0.0001  0.0011  0.0000 </r>
        <r>  0.0106  0.0046  0.0017  0.0020  0.0047  0.0003  0.0000  0.0015  0.0000 </r>
        <r>  0.0115  0.0021  0.0015  0.0046  0.0046  0.0014  0.0000  0.0002  0.0000 </r>
        <r>  0.0003  0.0099  0.0075  0.0014  0.0000  0.0000  0.0000  0.0000  0.0000 </r>
        <r>  0.0004  0.0016  0.0068  0.0092  0.0000  0.0000  0.0000  0.0000  0.0000 </r>
        <r>  0.0011  0.0030  0.0096  0.0029  0.0000  0.0000  0.0000  0.0000  0.0000 </r>
        <r>  0.0011  0.0069  0.0050  0.0081  0.0000  0.0000  0.0000  0.0000  0.0000 </r>
        <r>  0.0002  0.0014  0.0022  0.0010  0.0000  0.0000  0.0000  0.0000  0.0000 </r>
        <r>  0.0010  0.0009  0.0058  0.0008  0.0000  0.0000  0.0000  0.0000  0.0000 </r>
        <r>  0.0002  0.0092  0.0021  0.0063  0.0000  0.0000  0.0000  0.0000  0.0000 </r>
        <r>  0.0002  0.0068  0.0022  0.0100  0.0000  0.0000  0.0000  0.0000  0.0000 </r>
       </set>
       <set comment="band 52">
        <r>  0.0528  0.0001  0.0039  0.0011  0.0019  0.0008  0.0046  0.0000  0.0006 </r>
        <r>  0.0029  0.0018  0.0036  0.0036  0.0013  0.0028  0.0001  0.0022  0.0001 </r>
        <r>  0.0004  0.0008  0.0098  0.0012  0.0008  0.0026  0.0006  0.0030  0.0001 </r>
        <r>  0.0006  0.0033  0.0108  0.0033  0.0017  0.0013  0.0005  0.0003  0.0002 </r>
        <r>  0.0019  0.0013  0.0156  0.0001  0.0035  0.0010  0.0001  0.0009  0.0000 </r>
        <r>  0.0012  0.0009  0.0029  0.0022  0.0033  0.0019  0.0003  0.0032  0.0002 </r>
        <r>  0.0557  0.0009  0.0138  0.0017  0.0028  0.0012  0.0000  0.0010  0.0000 </r>
        <r>  0.0367  0.0015  0.0100  0.0033  0.0021  0.0007  0.0001  0.0016  0.0000 </r>
        <r>  0.0335  0.0018  0.0088  0.0006  0.0021  0.0013  0.0000  0.0006  0.0000 </r>
        <r>  0.0004  0.0034  0.0037  0.0046  0.0000  0.0000  0.0000  0.0000  0.0000 </r>
        <r>  0.0001  0.0024  0.0011  0.0079  0.0000  0.0000  0.0000  0.0000  0.0000 </r>
        <r>  0.0001  0.0136  0.0039  0.0090  0.0000  0.0000  0.0000  0.0000  0.0000 </r>
        <r>  0.0009  0.0055  0.0055  0.0030  0.0000  0.0000  0.0000  0.0000  0.0000 </r>
        <r>  0.0000  0.0003  0.0045  0.0015  0.0000  0.0000  0.0000  0.0000  0.0000 </r>
        <r>  0.0005  0.0059  0.0216  0.0066  0.0000  0.0000  0.0000  0.0000  0.0000 </r>
        <r>  0.0003  0.0035  0.0179  0.0034  0.0000  0.0000  0.0000  0.0000  0.0000 </r>
        <r>  0.0000  0.0052  0.0126  0.0020  0.0000  0.0000  0.0000  0.0000  0.0000 </r>
       </set>
      </set>
     </set>
    </set>
   </array>
  </projected>
 </calculation>
 <structure name="finalpos" >
  <crystal>
   <varray name="basis" >
    <v>       0.00000000       4.24689300       4.24689300 </v>
    <v>       4.24689300       0.00000000       4.24689300 </v>
    <v>       4.24689300       4.24689300       0.00000000 </v>
   </varray>
   <i name="volume">    153.19477498 </i>
   <varray name="rec_basis" >
    <v>      -0.11773313       0.11773313       0.11773313 </v>
    <v>       0.11773313      -0.11773313       0.11773313 </v>
    <v>       0.11773313       0.11773313      -0.11773313 </v>
   </varray>
  </crystal>
  <varray name="positions" >
   <v>       0.12435886       0.12360650       0.12389075 </v>
   <v>       0.97661277       0.97793599       0.98337710 </v>
   <v>       0.98162741       0.97867002       0.55920745 </v>
   <v>       0.98328773       0.55765301       0.97925151 </v>
   <v>       0.99985824       0.49741987       0.50124312 </v>
   <v>       0.55915282       0.97598161       0.98072826 </v>
   <v>       0.50017188       0.99631766       0.50199022 </v>
   <v>       0.50037215       0.49791749       0.00000280 </v>
   <v>       0.50163837       0.49711651       0.50040648 </v>
   <v>       0.25068929       0.24914646       0.25206875 </v>
   <v>       0.25360212       0.25032271       0.74455309 </v>
   <v>       0.25172521       0.74360862       0.25212614 </v>
   <v>       0.25709903       0.74679651       0.74858209 </v>
   <v>       0.74466905       0.24755207       0.25314001 </v>
   <v>       0.74719930       0.25415537       0.74901885 </v>
   <v>       0.74722538       0.74418758       0.25801846 </v>
   <v>       0.74943438       0.74449103       0.74794192 </v>
  </varray>
 </structure>
</modeling>
