<?xml version="1.0" encoding="ISO-8859-1"?>
<modeling>
 <generator>
  <i name="program" type="string">vasp </i>
  <i name="version" type="string">5.4.1  </i>
  <i name="subversion" type="string">05Feb16 (build Mar 31 2016 13:39:20) complex                          parallel </i>
  <i name="platform" type="string">IFC91_ompi </i>
  <i name="date" type="string">2018 04 28 </i>
  <i name="time" type="string">12:48:15 </i>
 </generator>
 <incar>
  <i type="string" name="PREC">n</i>
  <i type="string" name="ALGO"> N</i>
  <i type="int" name="ISPIN">     2</i>
  <i type="int" name="NELM">   100</i>
  <i type="int" name="NELMIN">     4</i>
  <i type="int" name="IBRION">     2</i>
  <i name="EDIFF">      0.00000100</i>
  <i name="EDIFFG">     -0.05000000</i>
  <i type="int" name="NSW">    20</i>
  <i type="int" name="ISIF">     2</i>
  <i name="ENCUT">    400.00000000</i>
  <i name="NELECT">     65.00000000</i>
  <i type="string" name="LREAL"> A</i>
  <i type="int" name="ISMEAR">     0</i>
  <i name="SIGMA">      0.05000000</i>
  <i type="logical" name="LWAVE"> F  </i>
  <i type="logical" name="LCHARG"> F  </i>
  <i type="logical" name="LORBIT"> F  </i>
  <i type="logical" name="LASPH"> T  </i>
  <v type="int" name="KPOINT_BSE">    -1     0     0     0</v>
  <i type="int" name="NELM">   100</i>
  <i type="logical" name="LASPH"> T  </i>
 </incar>
 <kpoints>
  <generation param="Gamma">
   <v type="int" name="divisions">       2        2        2 </v>
   <v name="usershift">      0.00000000       0.00000000       0.00000000 </v>
   <v name="genvec1">      0.50000000       0.00000000       0.00000000 </v>
   <v name="genvec2">      0.00000000       0.50000000       0.00000000 </v>
   <v name="genvec3">      0.00000000       0.00000000       0.50000000 </v>
   <v name="shift">      0.00000000       0.00000000       0.00000000 </v>
  </generation>
  <varray name="kpointlist" >
   <v>       0.00000000       0.00000000       0.00000000 </v>
   <v>       0.50000000       0.00000000       0.00000000 </v>
   <v>       0.00000000       0.50000000       0.00000000 </v>
   <v>       0.50000000       0.50000000       0.00000000 </v>
   <v>       0.00000000       0.00000000       0.50000000 </v>
   <v>       0.50000000       0.00000000       0.50000000 </v>
   <v>       0.00000000       0.50000000       0.50000000 </v>
   <v>       0.50000000       0.50000000       0.50000000 </v>
  </varray>
  <varray name="weights" >
   <v>       0.12500000 </v>
   <v>       0.12500000 </v>
   <v>       0.12500000 </v>
   <v>       0.12500000 </v>
   <v>       0.12500000 </v>
   <v>       0.12500000 </v>
   <v>       0.12500000 </v>
   <v>       0.12500000 </v>
  </varray>
 </kpoints>
 <parameters>
  <separator name="general" >
   <i type="string" name="SYSTEM">unknown system</i>
   <i type="logical" name="LCOMPAT"> F  </i>
  </separator>
  <separator name="electronic" >
   <i type="string" name="PREC">n</i>
   <i name="ENMAX">    400.00000000</i>
   <i name="ENAUG">    605.39200000</i>
   <i name="EDIFF">      0.00000100</i>
   <i type="int" name="IALGO">    38</i>
   <i type="int" name="IWAVPR">    11</i>
   <i type="int" name="NBANDS">    52</i>
   <i name="NELECT">     65.00000000</i>
   <i type="int" name="TURBO">     0</i>
   <i type="int" name="IRESTART">     0</i>
   <i type="int" name="NREBOOT">     0</i>
   <i type="int" name="NMIN">     0</i>
   <i name="EREF">      0.00000000</i>
   <separator name="electronic smearing" >
    <i type="int" name="ISMEAR">     0</i>
    <i name="SIGMA">      0.05000000</i>
    <i name="KSPACING">      0.50000000</i>
    <i type="logical" name="KGAMMA"> T  </i>
   </separator>
   <separator name="electronic projectors" >
    <i type="logical" name="LREAL"> T  </i>
    <v name="ROPT">     -0.00050000     -0.00050000</v>
    <i type="int" name="LMAXPAW">  -100</i>
    <i type="int" name="LMAXMIX">     2</i>
    <i type="logical" name="NLSPLINE"> F  </i>
   </separator>
   <separator name="electronic startup" >
    <i type="int" name="ISTART">     0</i>
    <i type="int" name="ICHARG">     2</i>
    <i type="int" name="INIWAV">     1</i>
   </separator>
   <separator name="electronic spin" >
    <i type="int" name="ISPIN">     2</i>
    <i type="logical" name="LNONCOLLINEAR"> F  </i>
    <v name="MAGMOM">      1.00000000      1.00000000      1.00000000      1.00000000      1.00000000      1.00000000      1.00000000      1.00000000      1.00000000      1.00000000      1.00000000      1.00000000      1.00000000      1.00000000      1.00000000      1.00000000      1.00000000</v>
    <i name="NUPDOWN">     -1.00000000</i>
    <i type="logical" name="LSORBIT"> F  </i>
    <v name="SAXIS">      0.00000000      0.00000000      1.00000000</v>
    <i type="logical" name="LSPIRAL"> F  </i>
    <v name="QSPIRAL">      0.00000000      0.00000000      0.00000000</v>
    <i type="logical" name="LZEROZ"> F  </i>
   </separator>
   <separator name="electronic exchange-correlation" >
    <i type="logical" name="LASPH"> T  </i>
    <i type="logical" name="LMETAGGA"> F  </i>
   </separator>
   <separator name="electronic convergence" >
    <i type="int" name="NELM">   100</i>
    <i type="int" name="NELMDL">     0</i>
    <i type="int" name="NELMIN">     4</i>
    <i name="ENINI">    400.00000000</i>
    <separator name="electronic convergence detail" >
     <i type="logical" name="LDIAG"> T  </i>
     <i type="logical" name="LSUBROT"> F  </i>
     <i name="WEIMIN">      0.00100000</i>
     <i name="EBREAK">      0.00000000</i>
     <i name="DEPER">      0.30000000</i>
     <i type="int" name="NRMM">     4</i>
     <i name="TIME">      0.40000000</i>
    </separator>
   </separator>
   <separator name="electronic mixer" >
    <i name="AMIX">      0.40000000</i>
    <i name="BMIX">      1.00000000</i>
    <i name="AMIN">      0.10000000</i>
    <i name="AMIX_MAG">      1.60000000</i>
    <i name="BMIX_MAG">      1.00000000</i>
    <separator name="electronic mixer details" >
     <i type="int" name="IMIX">     4</i>
     <i type="logical" name="MIXFIRST"> F  </i>
     <i type="int" name="MAXMIX">   -45</i>
     <i name="WC">    100.00000000</i>
     <i type="int" name="INIMIX">     1</i>
     <i type="int" name="MIXPRE">     1</i>
     <i type="int" name="MREMOVE">     5</i>
    </separator>
   </separator>
   <separator name="electronic dipolcorrection" >
    <i type="logical" name="LDIPOL"> F  </i>
    <i type="logical" name="LMONO"> F  </i>
    <i type="int" name="IDIPOL">     0</i>
    <i name="EPSILON">      1.00000000</i>
    <v name="DIPOL">   -100.00000000   -100.00000000   -100.00000000</v>
    <i name="EFIELD">      0.00000000</i>
   </separator>
  </separator>
  <separator name="grids" >
   <i type="int" name="NGX">    30</i>
   <i type="int" name="NGY">    30</i>
   <i type="int" name="NGZ">    30</i>
   <i type="int" name="NGXF">    60</i>
   <i type="int" name="NGYF">    60</i>
   <i type="int" name="NGZF">    60</i>
   <i type="logical" name="ADDGRID"> F  </i>
  </separator>
  <separator name="ionic" >
   <i type="int" name="NSW">    20</i>
   <i type="int" name="IBRION">     2</i>
   <i type="int" name="ISIF">     2</i>
   <i name="PSTRESS">      0.00000000</i>
   <i name="EDIFFG">     -0.05000000</i>
   <i type="int" name="NFREE">     1</i>
   <i name="POTIM">      0.50000000</i>
   <i name="SMASS">     -3.00000000</i>
   <i name="SCALEE">      1.00000000</i>
  </separator>
  <separator name="ionic md" >
   <i name="TEBEG">      0.00010000</i>
   <i name="TEEND">      0.00010000</i>
   <i type="int" name="NBLOCK">     1</i>
   <i type="int" name="KBLOCK">    20</i>
   <i type="int" name="NPACO">   256</i>
   <i name="APACO">     16.00000000</i>
  </separator>
  <separator name="symmetry" >
   <i type="int" name="ISYM">     2</i>
   <i name="SYMPREC">      0.00001000</i>
  </separator>
  <separator name="dos" >
   <i type="logical" name="LORBIT"> F  </i>
   <v name="RWIGS">     -1.00000000     -1.00000000</v>
   <i type="int" name="NEDOS">   301</i>
   <i name="EMIN">     10.00000000</i>
   <i name="EMAX">    -10.00000000</i>
   <i name="EFERMI">      0.00000000</i>
  </separator>
  <separator name="writing" >
   <i type="int" name="NWRITE">     2</i>
   <i type="logical" name="LWAVE"> F  </i>
   <i type="logical" name="LCHARG"> F  </i>
   <i type="logical" name="LPARD"> F  </i>
   <i type="logical" name="LVTOT"> F  </i>
   <i type="logical" name="LVHAR"> F  </i>
   <i type="logical" name="LELF"> F  </i>
   <i type="logical" name="LOPTICS"> F  </i>
   <v name="STM">      0.00000000      0.00000000      0.00000000      0.00000000      0.00000000      0.00000000      0.00000000</v>
  </separator>
  <separator name="performance" >
   <i type="int" name="NPAR">     4</i>
   <i type="int" name="NSIM">     4</i>
   <i type="int" name="NBLK">    -1</i>
   <i type="logical" name="LPLANE"> T  </i>
   <i type="logical" name="LSCALAPACK"> T  </i>
   <i type="logical" name="LSCAAWARE"> F  </i>
   <i type="logical" name="LSCALU"> F  </i>
   <i type="logical" name="LASYNC"> F  </i>
   <i type="logical" name="LORBITALREAL"> F  </i>
  </separator>
  <separator name="miscellaneous" >
   <i type="int" name="IDIOT">     3</i>
   <i type="logical" name="LMUSIC"> F  </i>
   <v name="POMASS">     24.30500000     16.00000000</v>
   <v name="DARWINR">      0.00000000      0.00000000</v>
   <v name="DARWINV">      1.00000000      1.00000000</v>
   <i type="logical" name="LCORR"> T  </i>
  </separator>
  <i type="logical" name="GGA_COMPAT"> T  </i>
  <i type="logical" name="LBERRY"> F  </i>
  <i type="int" name="ICORELEVEL">     0</i>
  <i type="logical" name="LDAU"> F  </i>
  <i type="int" name="I_CONSTRAINED_M">     0</i>
  <separator name="electronic exchange-correlation" >
   <i type="string" name="GGA">--</i>
   <i type="int" name="VOSKOWN">     0</i>
   <i type="logical" name="LHFCALC"> F  </i>
   <i type="string" name="PRECFOCK"></i>
   <i type="logical" name="LSYMGRAD"> F  </i>
   <i type="logical" name="LHFONE"> F  </i>
   <i type="logical" name="LRHFCALC"> F  </i>
   <i type="logical" name="LTHOMAS"> F  </i>
   <i type="logical" name="LMODELHF"> F  </i>
   <i name="ENCUT4O">     -1.00000000</i>
   <i type="int" name="EXXOEP">     0</i>
   <i type="int" name="FOURORBIT">     0</i>
   <i name="AEXX">      0.00000000</i>
   <i name="HFALPHA">      0.00000000</i>
   <i name="MCALPHA">      0.00000000</i>
   <i name="ALDAX">      1.00000000</i>
   <i name="AGGAX">      1.00000000</i>
   <i name="ALDAC">      1.00000000</i>
   <i name="AGGAC">      1.00000000</i>
   <i type="int" name="NKREDX">     1</i>
   <i type="int" name="NKREDY">     1</i>
   <i type="int" name="NKREDZ">     1</i>
   <i type="logical" name="SHIFTRED"> F  </i>
   <i type="logical" name="ODDONLY"> F  </i>
   <i type="logical" name="EVENONLY"> F  </i>
   <i type="int" name="LMAXFOCK">     0</i>
   <i type="int" name="NMAXFOCKAE">     0</i>
   <i type="logical" name="LFOCKAEDFT"> F  </i>
   <i name="HFSCREEN">      0.00000000</i>
   <i name="HFSCREENC">      0.00000000</i>
   <i type="int" name="NBANDSGWLOW">     0</i>
  </separator>
  <separator name="vdW DFT" >
   <i type="logical" name="LUSE_VDW"> F  </i>
   <i name="Zab_VDW">     -0.84910000</i>
   <i name="PARAM1">      0.12340000</i>
   <i name="PARAM2">      1.00000000</i>
   <i name="PARAM3">      0.00000000</i>
  </separator>
  <separator name="model GW" >
   <i type="int" name="MODEL_GW">     0</i>
   <i name="MODEL_EPS0">      5.40687441</i>
   <i name="MODEL_ALPHA">      1.00000000</i>
  </separator>
  <separator name="linear response parameters" >
   <i type="logical" name="LEPSILON"> F  </i>
   <i type="logical" name="LRPA"> F  </i>
   <i type="logical" name="LNABLA"> F  </i>
   <i type="logical" name="LVEL"> F  </i>
   <i type="int" name="KINTER">     0</i>
   <i name="CSHIFT">      0.10000000</i>
   <i name="OMEGAMAX">     -1.00000000</i>
   <i name="DEG_THRESHOLD">      0.00200000</i>
  </separator>
  <separator name="orbital magnetization" >
   <i type="logical" name="NUCIND"> F  </i>
   <v name="MAGPOS">      0.00000000      0.00000000      0.00000000</v>
   <i type="logical" name="LNICSALL"> T  </i>
   <i type="logical" name="ORBITALMAG"> F  </i>
   <i type="logical" name="LMAGBLOCH"> F  </i>
   <i type="logical" name="LCHIMAG"> F  </i>
   <i type="logical" name="LGAUGE"> T  </i>
   <i type="int" name="MAGATOM">     0</i>
   <v name="MAGDIPOL">      0.00000000      0.00000000      0.00000000</v>
   <v name="AVECCONST">      0.00000000      0.00000000      0.00000000</v>
  </separator>
  <separator name="response functions" >
   <i type="logical" name="LADDER"> F  </i>
   <i type="logical" name="LFXC"> F  </i>
   <i type="logical" name="LHARTREE"> T  </i>
   <i type="int" name="IBSE">     0</i>
   <v type="int" name="KPOINT">    -1     0     0     0</v>
   <i type="logical" name="LTCTE"> F  </i>
   <i type="logical" name="LTETE"> F  </i>
   <i type="logical" name="LTRIPLET"> F  </i>
   <i type="logical" name="LFXCEPS"> F  </i>
   <i type="logical" name="LFXHEG"> F  </i>
   <i type="int" name="NATURALO">     0</i>
   <i type="logical" name="L2ORDER"> F  </i>
   <i type="logical" name="LUSEW"> F  </i>
   <i name="ENCUTGW">     -2.00000000</i>
   <i name="ENCUTGWSOFT">     -2.00000000</i>
   <i name="ENCUTLF">     -1.00000000</i>
   <i type="int" name="LMAXMP2">    -1</i>
   <i name="SCISSOR">      0.00000000</i>
   <i type="int" name="NOMEGA">     0</i>
   <i type="int" name="NOMEGAR">     0</i>
   <i type="int" name="NBANDSGW">    -1</i>
   <i type="int" name="NBANDSO">    -1</i>
   <i type="int" name="NBANDSV">    -1</i>
   <i type="int" name="NELM">   100</i>
   <i type="int" name="NELMHF">     1</i>
   <i type="int" name="DIM">     3</i>
   <i type="int" name="ANTIRES">     0</i>
   <i name="OMEGAMAX">    -30.00000000</i>
   <i name="OMEGAMIN">    -30.00000000</i>
   <i name="OMEGATL">   -200.00000000</i>
   <i type="int" name="OMEGAGRID">     0</i>
   <i name="CSHIFT">     -0.10000000</i>
   <i type="logical" name="SELFENERGY"> F  </i>
   <i type="logical" name="LSPECTRAL"> F  </i>
   <i type="logical" name="LSPECTRALGW"> F  </i>
   <i type="logical" name="LSINGLES"> F  </i>
   <i type="logical" name="LFERMIGW"> F  </i>
   <i type="logical" name="ODDONLYGW"> F  </i>
   <i type="logical" name="EVENONLYGW"> F  </i>
   <i type="int" name="NKREDLFX">     1</i>
   <i type="int" name="NKREDLFY">     1</i>
   <i type="int" name="NKREDLFZ">     1</i>
   <i type="int" name="MAXMEM">  1800</i>
   <i type="int" name="TELESCOPE">     0</i>
   <i type="int" name="TAUPAR">     1</i>
   <i type="int" name="OMEGAPAR">    -1</i>
   <i name="LAMBDA">      1.00000000</i>
  </separator>
  <separator name="External order field" >
   <i name="OFIELD_KAPPA">      0.00000000</i>
   <v name="OFIELD_K">      0.00000000      0.00000000      0.00000000</v>
   <i name="OFIELD_Q6_NEAR">      0.00000000</i>
   <i name="OFIELD_Q6_FAR">      0.00000000</i>
   <i name="OFIELD_A">      0.00000000</i>
  </separator>
 </parameters>
 <atominfo>
  <atoms>      17 </atoms>
  <types>       2 </types>
  <array name="atoms" >
   <dimension dim="1">ion</dimension>
   <field type="string">element</field>
   <field type="int">atomtype</field>
   <set>
    <rc><c>Mg</c><c>   1</c></rc>
    <rc><c>Mg</c><c>   1</c></rc>
    <rc><c>Mg</c><c>   1</c></rc>
    <rc><c>Mg</c><c>   1</c></rc>
    <rc><c>Mg</c><c>   1</c></rc>
    <rc><c>Mg</c><c>   1</c></rc>
    <rc><c>Mg</c><c>   1</c></rc>
    <rc><c>Mg</c><c>   1</c></rc>
    <rc><c>Mg</c><c>   1</c></rc>
    <rc><c>O </c><c>   2</c></rc>
    <rc><c>O </c><c>   2</c></rc>
    <rc><c>O </c><c>   2</c></rc>
    <rc><c>O </c><c>   2</c></rc>
    <rc><c>O </c><c>   2</c></rc>
    <rc><c>O </c><c>   2</c></rc>
    <rc><c>O </c><c>   2</c></rc>
    <rc><c>O </c><c>   2</c></rc>
   </set>
  </array>
  <array name="atomtypes" >
   <dimension dim="1">type</dimension>
   <field type="int">atomspertype</field>
   <field type="string">element</field>
   <field>mass</field>
   <field>valence</field>
   <field type="string">pseudopotential</field>
   <set>
    <rc><c>   9</c><c>Mg</c><c>     24.30500000</c><c>      2.00000000</c><c>  PAW_PBE Mg 13Apr2007                  </c></rc>
    <rc><c>   8</c><c>O </c><c>     16.00000000</c><c>      6.00000000</c><c>  PAW_PBE O 08Apr2002                   </c></rc>
   </set>
  </array>
 </atominfo>
 <structure name="initialpos" >
  <crystal>
   <varray name="basis" >
    <v>       0.00000000       4.24689300       4.24689300 </v>
    <v>       4.24689300       0.00000000       4.24689300 </v>
    <v>       4.24689300       4.24689300       0.00000000 </v>
   </varray>
   <i name="volume">    153.19477498 </i>
   <varray name="rec_basis" >
    <v>      -0.11773313       0.11773313       0.11773313 </v>
    <v>       0.11773313      -0.11773313       0.11773313 </v>
    <v>       0.11773313       0.11773313      -0.11773313 </v>
   </varray>
  </crystal>
  <varray name="positions" >
   <v>       0.12418823       0.12395916       0.12386582 </v>
   <v>       0.97677672       0.97805400       0.98344825 </v>
   <v>       0.98161610       0.97875387       0.55893826 </v>
   <v>       0.98326510       0.55765643       0.97925022 </v>
   <v>       0.00017302       0.49729550       0.50120464 </v>
   <v>       0.55873652       0.97617942       0.98077999 </v>
   <v>       0.50015938       0.99641784       0.50197278 </v>
   <v>       0.50032935       0.49776068       0.00027620 </v>
   <v>       0.50157378       0.49697774       0.50031114 </v>
   <v>       0.25104230       0.24903426       0.25229161 </v>
   <v>       0.25388690       0.25023076       0.74419881 </v>
   <v>       0.25178897       0.74356765       0.25215143 </v>
   <v>       0.25654234       0.74695343       0.74873111 </v>
   <v>       0.74421316       0.24739497       0.25343482 </v>
   <v>       0.74742601       0.25358925       0.74914252 </v>
   <v>       0.74744891       0.74437737       0.25740845 </v>
   <v>       0.74955720       0.74467668       0.74814094 </v>
  </varray>
 </structure>
 <calculation>
  <scstep>
   <time name="dav">    0.60    0.61</time>
   <time name="total">    1.58    1.59</time>
   <energy>
    <i name="alphaZ">    167.07285220 </i>
    <i name="ewald">  -2907.62879340 </i>
    <i name="hartreedc">   -980.59163301 </i>
    <i name="XCdc">   -207.36888646 </i>
    <i name="pawpsdc">   3357.85734499 </i>
    <i name="pawaedc">  -2905.44438128 </i>
    <i name="eentropy">     -0.00422071 </i>
    <i name="bandstr">     75.91518728 </i>
    <i name="atom">   3665.43652948 </i>
    <i name="e_fr_energy">    265.24399910 </i>
    <i name="e_wo_entrp">    265.24821982 </i>
    <i name="e_0_energy">    265.24610946 </i>
   </energy>
  </scstep>
  <scstep>
   <time name="dav">    0.68    0.69</time>
   <time name="total">    0.69    0.69</time>
   <energy>
    <i name="e_fr_energy">    -80.80044463 </i>
    <i name="e_wo_entrp">    -80.79693079 </i>
    <i name="e_0_energy">    -80.79868771 </i>
   </energy>
  </scstep>
  <scstep>
   <time name="dav">    0.66    0.66</time>
   <time name="total">    0.66    0.66</time>
   <energy>
    <i name="e_fr_energy">    -98.62531438 </i>
    <i name="e_wo_entrp">    -98.61895068 </i>
    <i name="e_0_energy">    -98.62213253 </i>
   </energy>
  </scstep>
  <scstep>
   <time name="dav">    0.63    0.63</time>
   <time name="total">    0.63    0.63</time>
   <energy>
    <i name="e_fr_energy">    -98.74373782 </i>
    <i name="e_wo_entrp">    -98.73700955 </i>
    <i name="e_0_energy">    -98.74037369 </i>
   </energy>
  </scstep>
  <scstep>
   <time name="dav">    0.64    0.65</time>
   <time name="total">    0.67    0.67</time>
   <energy>
    <i name="e_fr_energy">    -98.74445554 </i>
    <i name="e_wo_entrp">    -98.73771911 </i>
    <i name="e_0_energy">    -98.74108732 </i>
   </energy>
  </scstep>
  <scstep>
   <time name="dav">    0.62    0.63</time>
   <time name="total">    1.63    1.63</time>
   <energy>
    <i name="e_fr_energy">    -92.80879378 </i>
    <i name="e_wo_entrp">    -92.80082087 </i>
    <i name="e_0_energy">    -92.80480732 </i>
   </energy>
  </scstep>
  <scstep>
   <time name="dav">    0.60    0.61</time>
   <time name="total">    1.61    1.61</time>
   <energy>
    <i name="e_fr_energy">    -92.93109502 </i>
    <i name="e_wo_entrp">    -92.92214979 </i>
    <i name="e_0_energy">    -92.92662240 </i>
   </energy>
  </scstep>
  <scstep>
   <time name="dav">    0.60    0.60</time>
   <time name="total">    1.61    1.61</time>
   <energy>
    <i name="e_fr_energy">    -92.84727942 </i>
    <i name="e_wo_entrp">    -92.83626304 </i>
    <i name="e_0_energy">    -92.84177123 </i>
   </energy>
  </scstep>
  <scstep>
   <time name="dav">    0.65    0.65</time>
   <time name="total">    1.66    1.66</time>
   <energy>
    <i name="e_fr_energy">    -92.83717415 </i>
    <i name="e_wo_entrp">    -92.82931896 </i>
    <i name="e_0_energy">    -92.83324656 </i>
   </energy>
  </scstep>
  <scstep>
   <time name="dav">    0.63    0.63</time>
   <time name="total">    1.63    1.63</time>
   <energy>
    <i name="e_fr_energy">    -92.83604984 </i>
    <i name="e_wo_entrp">    -92.82814099 </i>
    <i name="e_0_energy">    -92.83209542 </i>
   </energy>
  </scstep>
  <scstep>
   <time name="dav">    0.68    0.68</time>
   <time name="total">    1.68    1.69</time>
   <energy>
    <i name="e_fr_energy">    -92.83639350 </i>
    <i name="e_wo_entrp">    -92.82836867 </i>
    <i name="e_0_energy">    -92.83238108 </i>
   </energy>
  </scstep>
  <scstep>
   <time name="dav">    0.63    0.63</time>
   <time name="total">    1.64    1.64</time>
   <energy>
    <i name="e_fr_energy">    -92.83647230 </i>
    <i name="e_wo_entrp">    -92.82823964 </i>
    <i name="e_0_energy">    -92.83235597 </i>
   </energy>
  </scstep>
  <scstep>
   <time name="dav">    0.68    0.67</time>
   <time name="total">    1.68    1.68</time>
   <energy>
    <i name="e_fr_energy">    -92.83651186 </i>
    <i name="e_wo_entrp">    -92.82824158 </i>
    <i name="e_0_energy">    -92.83237672 </i>
   </energy>
  </scstep>
  <scstep>
   <time name="dav">    0.62    0.62</time>
   <time name="total">    1.63    1.63</time>
   <energy>
    <i name="e_fr_energy">    -92.83651509 </i>
    <i name="e_wo_entrp">    -92.82822003 </i>
    <i name="e_0_energy">    -92.83236756 </i>
   </energy>
  </scstep>
  <scstep>
   <time name="dav">    0.63    0.63</time>
   <time name="total">    1.61    1.62</time>
   <energy>
    <i name="alphaZ">    167.07285220 </i>
    <i name="ewald">  -2907.62879340 </i>
    <i name="hartreedc">  -1141.72090240 </i>
    <i name="XCdc">   -201.07894941 </i>
    <i name="pawpsdc">   4591.89731100 </i>
    <i name="pawaedc">  -4141.37764040 </i>
    <i name="eentropy">     -0.00829025 </i>
    <i name="bandstr">   -125.42863264 </i>
    <i name="atom">   3665.43652948 </i>
    <i name="e_fr_energy">    -92.83651581 </i>
    <i name="e_wo_entrp">    -92.82822557 </i>
    <i name="e_0_energy">    -92.83237069 </i>
   </energy>
  </scstep>
  <structure>
   <crystal>
    <varray name="basis" >
     <v>       0.00000000       4.24689300       4.24689300 </v>
     <v>       4.24689300       0.00000000       4.24689300 </v>
     <v>       4.24689300       4.24689300       0.00000000 </v>
    </varray>
    <i name="volume">    153.19477498 </i>
    <varray name="rec_basis" >
     <v>      -0.11773313       0.11773313       0.11773313 </v>
     <v>       0.11773313      -0.11773313       0.11773313 </v>
     <v>       0.11773313       0.11773313      -0.11773313 </v>
    </varray>
   </crystal>
   <varray name="positions" >
    <v>       0.12418823       0.12395916       0.12386582 </v>
    <v>       0.97677672       0.97805400       0.98344825 </v>
    <v>       0.98161610       0.97875387       0.55893826 </v>
    <v>       0.98326510       0.55765643       0.97925022 </v>
    <v>       0.00017302       0.49729550       0.50120464 </v>
    <v>       0.55873652       0.97617942       0.98077999 </v>
    <v>       0.50015938       0.99641784       0.50197278 </v>
    <v>       0.50032935       0.49776068       0.00027620 </v>
    <v>       0.50157378       0.49697774       0.50031114 </v>
    <v>       0.25104230       0.24903426       0.25229161 </v>
    <v>       0.25388690       0.25023076       0.74419881 </v>
    <v>       0.25178897       0.74356765       0.25215143 </v>
    <v>       0.25654234       0.74695343       0.74873111 </v>
    <v>       0.74421316       0.24739497       0.25343482 </v>
    <v>       0.74742601       0.25358925       0.74914252 </v>
    <v>       0.74744891       0.74437737       0.25740845 </v>
    <v>       0.74955720       0.74467668       0.74814094 </v>
   </varray>
  </structure>
  <varray name="forces" >
   <v>       0.01825049       0.02377178      -0.01407643 </v>
   <v>      -0.01521963       0.01306524       0.03293276 </v>
   <v>      -0.01705146      -0.02309693       0.00740171 </v>
   <v>       0.00984000      -0.01102033      -0.04138999 </v>
   <v>      -0.00343452       0.00194183       0.00422825 </v>
   <v>       0.02288489      -0.00120091       0.00429398 </v>
   <v>      -0.00920286      -0.03559141       0.01191563 </v>
   <v>      -0.00164501       0.01939260      -0.01444817 </v>
   <v>       0.01890669      -0.01827900      -0.00387529 </v>
   <v>       0.01130101       0.01082115      -0.00039078 </v>
   <v>       0.00749584      -0.00506686      -0.02813185 </v>
   <v>      -0.01111146       0.00485335       0.00644794 </v>
   <v>      -0.01273451       0.01749281       0.01072074 </v>
   <v>      -0.02166389      -0.00085611       0.02339424 </v>
   <v>      -0.00003923      -0.00255642       0.00734093 </v>
   <v>       0.00555437       0.01202005       0.00253448 </v>
   <v>      -0.00213072      -0.00569083      -0.00889815 </v>
  </varray>
  <varray name="stress" >
   <v>     158.57313628       0.00246539       1.95593618 </v>
   <v>       0.00246546     159.30042306       0.45417407 </v>
   <v>       1.95593711       0.45417407     163.38478585 </v>
  </varray>
  <energy>
   <i name="e_fr_energy">    -92.83651581 </i>
   <i name="e_wo_entrp">    -92.83237069 </i>
   <i name="e_0_energy">     -0.00829025 </i>
  </energy>
  <time name="totalsc">   23.23   23.29</time>
  <eigenvalues>
   <array>
    <dimension dim="1">band</dimension>
    <dimension dim="2">kpoint</dimension>
    <dimension dim="3">spin</dimension>
    <field>eigene</field>
    <field>occ</field>
    <set>
     <set comment="spin 1">
      <set comment="kpoint 1">
       <r>  -13.7853    1.0000 </r>
       <r>  -12.5913    1.0000 </r>
       <r>  -12.5794    1.0000 </r>
       <r>  -12.5757    1.0000 </r>
       <r>  -12.5727    1.0000 </r>
       <r>  -12.3159    1.0000 </r>
       <r>  -12.3146    1.0000 </r>
       <r>  -12.3140    1.0000 </r>
       <r>   -1.3947    1.0000 </r>
       <r>   -1.0808    1.0000 </r>
       <r>   -1.0805    1.0000 </r>
       <r>   -1.0781    1.0000 </r>
       <r>   -0.8233    1.0000 </r>
       <r>   -0.4957    1.0000 </r>
       <r>   -0.4940    1.0000 </r>
       <r>    1.8355    1.0000 </r>
       <r>    1.8361    1.0000 </r>
       <r>    1.8386    1.0000 </r>
       <r>    2.1806    1.0000 </r>
       <r>    2.1824    1.0000 </r>
       <r>    2.1841    1.0000 </r>
       <r>    2.4431    1.0000 </r>
       <r>    2.4460    1.0000 </r>
       <r>    2.4491    1.0000 </r>
       <r>    2.8222    1.0000 </r>
       <r>    2.8229    1.0000 </r>
       <r>    2.8939    1.0000 </r>
       <r>    2.8959    1.0000 </r>
       <r>    2.8980    1.0000 </r>
       <r>    3.2916    1.0000 </r>
       <r>    3.2944    1.0000 </r>
       <r>    3.2963    1.0000 </r>
       <r>    7.7530    1.0000 </r>
       <r>   10.3833    0.0000 </r>
       <r>   11.0114    0.0000 </r>
       <r>   11.0134    0.0000 </r>
       <r>   11.0369    0.0000 </r>
       <r>   12.0889    0.0000 </r>
       <r>   12.1190    0.0000 </r>
       <r>   12.1432    0.0000 </r>
       <r>   12.4827    0.0000 </r>
       <r>   12.4896    0.0000 </r>
       <r>   13.2626    0.0000 </r>
       <r>   15.6675    0.0000 </r>
       <r>   15.8553    0.0000 </r>
       <r>   15.8701    0.0000 </r>
       <r>   15.8792    0.0000 </r>
       <r>   16.0642    0.0000 </r>
       <r>   16.0702    0.0000 </r>
       <r>   16.4509    0.0000 </r>
       <r>   18.4466    0.0000 </r>
       <r>   18.4604    0.0000 </r>
      </set>
      <set comment="kpoint 2">
       <r>  -13.2506    1.0000 </r>
       <r>  -13.2096    1.0000 </r>
       <r>  -12.5049    1.0000 </r>
       <r>  -12.4991    1.0000 </r>
       <r>  -12.4927    1.0000 </r>
       <r>  -12.4362    1.0000 </r>
       <r>  -12.4083    1.0000 </r>
       <r>  -12.4065    1.0000 </r>
       <r>   -0.6344    1.0000 </r>
       <r>   -0.5134    1.0000 </r>
       <r>   -0.3137    1.0000 </r>
       <r>   -0.3049    1.0000 </r>
       <r>   -0.2443    1.0000 </r>
       <r>   -0.2372    1.0000 </r>
       <r>    0.6577    1.0000 </r>
       <r>    0.6909    1.0000 </r>
       <r>    1.3050    1.0000 </r>
       <r>    1.3667    1.0000 </r>
       <r>    1.5313    1.0000 </r>
       <r>    1.5410    1.0000 </r>
       <r>    1.5713    1.0000 </r>
       <r>    1.5749    1.0000 </r>
       <r>    2.2186    1.0000 </r>
       <r>    2.2274    1.0000 </r>
       <r>    2.2586    1.0000 </r>
       <r>    2.2687    1.0000 </r>
       <r>    2.4358    1.0000 </r>
       <r>    2.6076    1.0000 </r>
       <r>    2.9817    1.0000 </r>
       <r>    2.9877    1.0000 </r>
       <r>    3.0458    1.0000 </r>
       <r>    3.0512    1.0000 </r>
       <r>    9.9337    0.5654 </r>
       <r>   10.2133    0.0000 </r>
       <r>   11.7920    0.0000 </r>
       <r>   12.1355    0.0000 </r>
       <r>   12.1727    0.0000 </r>
       <r>   12.9750    0.0000 </r>
       <r>   13.0909    0.0000 </r>
       <r>   13.1157    0.0000 </r>
       <r>   13.8605    0.0000 </r>
       <r>   13.8976    0.0000 </r>
       <r>   14.4407    0.0000 </r>
       <r>   14.4724    0.0000 </r>
       <r>   15.0252    0.0000 </r>
       <r>   15.0520    0.0000 </r>
       <r>   15.3904    0.0000 </r>
       <r>   15.8541    0.0000 </r>
       <r>   15.9985    0.0000 </r>
       <r>   16.0390    0.0000 </r>
       <r>   16.2752    0.0000 </r>
       <r>   16.3378    0.0000 </r>
      </set>
      <set comment="kpoint 3">
       <r>  -13.2563    1.0000 </r>
       <r>  -13.2037    1.0000 </r>
       <r>  -12.5086    1.0000 </r>
       <r>  -12.5011    1.0000 </r>
       <r>  -12.4871    1.0000 </r>
       <r>  -12.4391    1.0000 </r>
       <r>  -12.4072    1.0000 </r>
       <r>  -12.4048    1.0000 </r>
       <r>   -0.6372    1.0000 </r>
       <r>   -0.5111    1.0000 </r>
       <r>   -0.3145    1.0000 </r>
       <r>   -0.3096    1.0000 </r>
       <r>   -0.2400    1.0000 </r>
       <r>   -0.2371    1.0000 </r>
       <r>    0.6576    1.0000 </r>
       <r>    0.6948    1.0000 </r>
       <r>    1.3135    1.0000 </r>
       <r>    1.3623    1.0000 </r>
       <r>    1.5328    1.0000 </r>
       <r>    1.5411    1.0000 </r>
       <r>    1.5707    1.0000 </r>
       <r>    1.5766    1.0000 </r>
       <r>    2.2221    1.0000 </r>
       <r>    2.2280    1.0000 </r>
       <r>    2.2555    1.0000 </r>
       <r>    2.2636    1.0000 </r>
       <r>    2.4320    1.0000 </r>
       <r>    2.6070    1.0000 </r>
       <r>    2.9845    1.0000 </r>
       <r>    2.9894    1.0000 </r>
       <r>    3.0447    1.0000 </r>
       <r>    3.0451    1.0000 </r>
       <r>    9.9403    0.4911 </r>
       <r>   10.2001    0.0000 </r>
       <r>   11.8010    0.0000 </r>
       <r>   12.1303    0.0000 </r>
       <r>   12.1814    0.0000 </r>
       <r>   12.9379    0.0000 </r>
       <r>   13.0979    0.0000 </r>
       <r>   13.1091    0.0000 </r>
       <r>   13.8955    0.0000 </r>
       <r>   13.9237    0.0000 </r>
       <r>   14.4319    0.0000 </r>
       <r>   14.4807    0.0000 </r>
       <r>   15.0025    0.0000 </r>
       <r>   15.0367    0.0000 </r>
       <r>   15.4099    0.0000 </r>
       <r>   15.8731    0.0000 </r>
       <r>   15.9913    0.0000 </r>
       <r>   16.0311    0.0000 </r>
       <r>   16.3050    0.0000 </r>
       <r>   16.3189    0.0000 </r>
      </set>
      <set comment="kpoint 4">
       <r>  -13.0770    1.0000 </r>
       <r>  -13.0756    1.0000 </r>
       <r>  -12.6520    1.0000 </r>
       <r>  -12.6405    1.0000 </r>
       <r>  -12.6362    1.0000 </r>
       <r>  -12.6289    1.0000 </r>
       <r>  -12.2737    1.0000 </r>
       <r>  -12.2731    1.0000 </r>
       <r>   -0.2656    1.0000 </r>
       <r>   -0.1799    1.0000 </r>
       <r>    0.0300    1.0000 </r>
       <r>    0.0304    1.0000 </r>
       <r>    0.2419    1.0000 </r>
       <r>    0.3606    1.0000 </r>
       <r>    0.5921    1.0000 </r>
       <r>    0.6366    1.0000 </r>
       <r>    0.7938    1.0000 </r>
       <r>    0.8154    1.0000 </r>
       <r>    1.3737    1.0000 </r>
       <r>    1.3817    1.0000 </r>
       <r>    1.3927    1.0000 </r>
       <r>    1.4456    1.0000 </r>
       <r>    1.5564    1.0000 </r>
       <r>    1.5584    1.0000 </r>
       <r>    2.5016    1.0000 </r>
       <r>    2.5032    1.0000 </r>
       <r>    2.5918    1.0000 </r>
       <r>    2.5943    1.0000 </r>
       <r>    2.7338    1.0000 </r>
       <r>    2.7353    1.0000 </r>
       <r>    2.8058    1.0000 </r>
       <r>    2.8981    1.0000 </r>
       <r>   10.7700    0.0000 </r>
       <r>   10.8670    0.0000 </r>
       <r>   11.9866    0.0000 </r>
       <r>   12.3319    0.0000 </r>
       <r>   12.3356    0.0000 </r>
       <r>   12.8539    0.0000 </r>
       <r>   13.6685    0.0000 </r>
       <r>   13.8666    0.0000 </r>
       <r>   13.8821    0.0000 </r>
       <r>   14.2459    0.0000 </r>
       <r>   14.4680    0.0000 </r>
       <r>   14.7927    0.0000 </r>
       <r>   14.8587    0.0000 </r>
       <r>   15.1350    0.0000 </r>
       <r>   15.1792    0.0000 </r>
       <r>   15.1906    0.0000 </r>
       <r>   15.2658    0.0000 </r>
       <r>   15.5555    0.0000 </r>
       <r>   16.3981    0.0000 </r>
       <r>   17.1035    0.0000 </r>
      </set>
      <set comment="kpoint 5">
       <r>  -13.2507    1.0000 </r>
       <r>  -13.2094    1.0000 </r>
       <r>  -12.5047    1.0000 </r>
       <r>  -12.4985    1.0000 </r>
       <r>  -12.4931    1.0000 </r>
       <r>  -12.4380    1.0000 </r>
       <r>  -12.4086    1.0000 </r>
       <r>  -12.4048    1.0000 </r>
       <r>   -0.6340    1.0000 </r>
       <r>   -0.5127    1.0000 </r>
       <r>   -0.3129    1.0000 </r>
       <r>   -0.3044    1.0000 </r>
       <r>   -0.2451    1.0000 </r>
       <r>   -0.2388    1.0000 </r>
       <r>    0.6569    1.0000 </r>
       <r>    0.6905    1.0000 </r>
       <r>    1.3051    1.0000 </r>
       <r>    1.3658    1.0000 </r>
       <r>    1.5314    1.0000 </r>
       <r>    1.5410    1.0000 </r>
       <r>    1.5709    1.0000 </r>
       <r>    1.5746    1.0000 </r>
       <r>    2.2218    1.0000 </r>
       <r>    2.2254    1.0000 </r>
       <r>    2.2604    1.0000 </r>
       <r>    2.2672    1.0000 </r>
       <r>    2.4363    1.0000 </r>
       <r>    2.6082    1.0000 </r>
       <r>    2.9825    1.0000 </r>
       <r>    2.9880    1.0000 </r>
       <r>    3.0455    1.0000 </r>
       <r>    3.0510    1.0000 </r>
       <r>    9.9324    0.5799 </r>
       <r>   10.2157    0.0000 </r>
       <r>   11.7900    0.0000 </r>
       <r>   12.1368    0.0000 </r>
       <r>   12.1730    0.0000 </r>
       <r>   12.9785    0.0000 </r>
       <r>   13.0962    0.0000 </r>
       <r>   13.1095    0.0000 </r>
       <r>   13.8619    0.0000 </r>
       <r>   13.8871    0.0000 </r>
       <r>   14.4361    0.0000 </r>
       <r>   14.4772    0.0000 </r>
       <r>   15.0295    0.0000 </r>
       <r>   15.0554    0.0000 </r>
       <r>   15.3907    0.0000 </r>
       <r>   15.8512    0.0000 </r>
       <r>   16.0018    0.0000 </r>
       <r>   16.0326    0.0000 </r>
       <r>   16.2820    0.0000 </r>
       <r>   16.3263    0.0000 </r>
      </set>
      <set comment="kpoint 6">
       <r>  -13.0814    1.0000 </r>
       <r>  -13.0716    1.0000 </r>
       <r>  -12.6501    1.0000 </r>
       <r>  -12.6399    1.0000 </r>
       <r>  -12.6340    1.0000 </r>
       <r>  -12.6333    1.0000 </r>
       <r>  -12.2745    1.0000 </r>
       <r>  -12.2722    1.0000 </r>
       <r>   -0.2676    1.0000 </r>
       <r>   -0.1829    1.0000 </r>
       <r>    0.0303    1.0000 </r>
       <r>    0.0330    1.0000 </r>
       <r>    0.2472    1.0000 </r>
       <r>    0.3554    1.0000 </r>
       <r>    0.5869    1.0000 </r>
       <r>    0.6436    1.0000 </r>
       <r>    0.7947    1.0000 </r>
       <r>    0.8154    1.0000 </r>
       <r>    1.3781    1.0000 </r>
       <r>    1.3806    1.0000 </r>
       <r>    1.3861    1.0000 </r>
       <r>    1.4533    1.0000 </r>
       <r>    1.5581    1.0000 </r>
       <r>    1.5608    1.0000 </r>
       <r>    2.4907    1.0000 </r>
       <r>    2.5058    1.0000 </r>
       <r>    2.5910    1.0000 </r>
       <r>    2.5950    1.0000 </r>
       <r>    2.7323    1.0000 </r>
       <r>    2.7344    1.0000 </r>
       <r>    2.8073    1.0000 </r>
       <r>    2.8964    1.0000 </r>
       <r>   10.7626    0.0000 </r>
       <r>   10.8737    0.0000 </r>
       <r>   11.9769    0.0000 </r>
       <r>   12.3050    0.0000 </r>
       <r>   12.3676    0.0000 </r>
       <r>   12.8384    0.0000 </r>
       <r>   13.7025    0.0000 </r>
       <r>   13.8778    0.0000 </r>
       <r>   13.8864    0.0000 </r>
       <r>   14.2287    0.0000 </r>
       <r>   14.4670    0.0000 </r>
       <r>   14.7857    0.0000 </r>
       <r>   14.8676    0.0000 </r>
       <r>   15.1145    0.0000 </r>
       <r>   15.1813    0.0000 </r>
       <r>   15.1895    0.0000 </r>
       <r>   15.2589    0.0000 </r>
       <r>   15.5839    0.0000 </r>
       <r>   16.4238    0.0000 </r>
       <r>   17.0850    0.0000 </r>
      </set>
      <set comment="kpoint 7">
       <r>  -13.0799    1.0000 </r>
       <r>  -13.0730    1.0000 </r>
       <r>  -12.6506    1.0000 </r>
       <r>  -12.6402    1.0000 </r>
       <r>  -12.6350    1.0000 </r>
       <r>  -12.6314    1.0000 </r>
       <r>  -12.2744    1.0000 </r>
       <r>  -12.2725    1.0000 </r>
       <r>   -0.2674    1.0000 </r>
       <r>   -0.1830    1.0000 </r>
       <r>    0.0305    1.0000 </r>
       <r>    0.0326    1.0000 </r>
       <r>    0.2472    1.0000 </r>
       <r>    0.3566    1.0000 </r>
       <r>    0.5885    1.0000 </r>
       <r>    0.6429    1.0000 </r>
       <r>    0.7951    1.0000 </r>
       <r>    0.8144    1.0000 </r>
       <r>    1.3710    1.0000 </r>
       <r>    1.3863    1.0000 </r>
       <r>    1.3883    1.0000 </r>
       <r>    1.4507    1.0000 </r>
       <r>    1.5580    1.0000 </r>
       <r>    1.5616    1.0000 </r>
       <r>    2.4952    1.0000 </r>
       <r>    2.4990    1.0000 </r>
       <r>    2.5918    1.0000 </r>
       <r>    2.5949    1.0000 </r>
       <r>    2.7312    1.0000 </r>
       <r>    2.7330    1.0000 </r>
       <r>    2.8102    1.0000 </r>
       <r>    2.8974    1.0000 </r>
       <r>   10.7666    0.0000 </r>
       <r>   10.8702    0.0000 </r>
       <r>   11.9754    0.0000 </r>
       <r>   12.3175    0.0000 </r>
       <r>   12.3558    0.0000 </r>
       <r>   12.8390    0.0000 </r>
       <r>   13.7042    0.0000 </r>
       <r>   13.8737    0.0000 </r>
       <r>   13.8825    0.0000 </r>
       <r>   14.2323    0.0000 </r>
       <r>   14.4705    0.0000 </r>
       <r>   14.7875    0.0000 </r>
       <r>   14.8707    0.0000 </r>
       <r>   15.1178    0.0000 </r>
       <r>   15.1783    0.0000 </r>
       <r>   15.1898    0.0000 </r>
       <r>   15.2584    0.0000 </r>
       <r>   15.5811    0.0000 </r>
       <r>   16.4148    0.0000 </r>
       <r>   17.0977    0.0000 </r>
      </set>
      <set comment="kpoint 8">
       <r>  -13.2559    1.0000 </r>
       <r>  -13.2041    1.0000 </r>
       <r>  -12.5087    1.0000 </r>
       <r>  -12.5010    1.0000 </r>
       <r>  -12.4872    1.0000 </r>
       <r>  -12.4382    1.0000 </r>
       <r>  -12.4079    1.0000 </r>
       <r>  -12.4049    1.0000 </r>
       <r>   -0.6368    1.0000 </r>
       <r>   -0.5118    1.0000 </r>
       <r>   -0.3141    1.0000 </r>
       <r>   -0.3101    1.0000 </r>
       <r>   -0.2386    1.0000 </r>
       <r>   -0.2380    1.0000 </r>
       <r>    0.6579    1.0000 </r>
       <r>    0.6942    1.0000 </r>
       <r>    1.3123    1.0000 </r>
       <r>    1.3635    1.0000 </r>
       <r>    1.5329    1.0000 </r>
       <r>    1.5393    1.0000 </r>
       <r>    1.5715    1.0000 </r>
       <r>    1.5763    1.0000 </r>
       <r>    2.2212    1.0000 </r>
       <r>    2.2290    1.0000 </r>
       <r>    2.2543    1.0000 </r>
       <r>    2.2651    1.0000 </r>
       <r>    2.4319    1.0000 </r>
       <r>    2.6074    1.0000 </r>
       <r>    2.9844    1.0000 </r>
       <r>    2.9891    1.0000 </r>
       <r>    3.0435    1.0000 </r>
       <r>    3.0473    1.0000 </r>
       <r>    9.9399    0.4958 </r>
       <r>   10.2001    0.0000 </r>
       <r>   11.8008    0.0000 </r>
       <r>   12.1283    0.0000 </r>
       <r>   12.1821    0.0000 </r>
       <r>   12.9398    0.0000 </r>
       <r>   13.0945    0.0000 </r>
       <r>   13.1134    0.0000 </r>
       <r>   13.8889    0.0000 </r>
       <r>   13.9292    0.0000 </r>
       <r>   14.4321    0.0000 </r>
       <r>   14.4800    0.0000 </r>
       <r>   15.0028    0.0000 </r>
       <r>   15.0375    0.0000 </r>
       <r>   15.4080    0.0000 </r>
       <r>   15.8743    0.0000 </r>
       <r>   15.9894    0.0000 </r>
       <r>   16.0346    0.0000 </r>
       <r>   16.2898    0.0000 </r>
       <r>   16.3323    0.0000 </r>
      </set>
     </set>
     <set comment="spin 2">
      <set comment="kpoint 1">
       <r>  -13.8043    1.0000 </r>
       <r>  -12.6086    1.0000 </r>
       <r>  -12.5963    1.0000 </r>
       <r>  -12.5925    1.0000 </r>
       <r>  -12.5895    1.0000 </r>
       <r>  -12.3318    1.0000 </r>
       <r>  -12.3305    1.0000 </r>
       <r>  -12.3297    1.0000 </r>
       <r>   -1.4278    1.0000 </r>
       <r>   -1.1033    1.0000 </r>
       <r>   -1.1030    1.0000 </r>
       <r>   -1.1004    1.0000 </r>
       <r>   -0.8523    1.0000 </r>
       <r>   -0.5174    1.0000 </r>
       <r>   -0.5156    1.0000 </r>
       <r>    1.8180    1.0000 </r>
       <r>    1.8185    1.0000 </r>
       <r>    1.8210    1.0000 </r>
       <r>    2.1670    1.0000 </r>
       <r>    2.1686    1.0000 </r>
       <r>    2.1701    1.0000 </r>
       <r>    2.4269    1.0000 </r>
       <r>    2.4297    1.0000 </r>
       <r>    2.4327    1.0000 </r>
       <r>    2.8089    1.0000 </r>
       <r>    2.8095    1.0000 </r>
       <r>    2.8816    1.0000 </r>
       <r>    2.8835    1.0000 </r>
       <r>    2.8855    1.0000 </r>
       <r>    3.2784    1.0000 </r>
       <r>    3.2807    1.0000 </r>
       <r>    3.2823    1.0000 </r>
       <r>    7.6949    1.0000 </r>
       <r>   10.2648    0.0000 </r>
       <r>   10.9587    0.0000 </r>
       <r>   10.9605    0.0000 </r>
       <r>   10.9855    0.0000 </r>
       <r>   12.0424    0.0000 </r>
       <r>   12.0745    0.0000 </r>
       <r>   12.1005    0.0000 </r>
       <r>   12.4302    0.0000 </r>
       <r>   12.4378    0.0000 </r>
       <r>   13.2131    0.0000 </r>
       <r>   15.6201    0.0000 </r>
       <r>   15.8214    0.0000 </r>
       <r>   15.8358    0.0000 </r>
       <r>   15.8453    0.0000 </r>
       <r>   16.0169    0.0000 </r>
       <r>   16.0223    0.0000 </r>
       <r>   16.3965    0.0000 </r>
       <r>   18.3856    0.0000 </r>
       <r>   18.4042    0.0000 </r>
      </set>
      <set comment="kpoint 2">
       <r>  -13.2697    1.0000 </r>
       <r>  -13.2266    1.0000 </r>
       <r>  -12.5220    1.0000 </r>
       <r>  -12.5163    1.0000 </r>
       <r>  -12.5100    1.0000 </r>
       <r>  -12.4522    1.0000 </r>
       <r>  -12.4238    1.0000 </r>
       <r>  -12.4221    1.0000 </r>
       <r>   -0.6692    1.0000 </r>
       <r>   -0.5365    1.0000 </r>
       <r>   -0.3356    1.0000 </r>
       <r>   -0.3269    1.0000 </r>
       <r>   -0.2647    1.0000 </r>
       <r>   -0.2578    1.0000 </r>
       <r>    0.6341    1.0000 </r>
       <r>    0.6691    1.0000 </r>
       <r>    1.2819    1.0000 </r>
       <r>    1.3486    1.0000 </r>
       <r>    1.5142    1.0000 </r>
       <r>    1.5234    1.0000 </r>
       <r>    1.5537    1.0000 </r>
       <r>    1.5571    1.0000 </r>
       <r>    2.2032    1.0000 </r>
       <r>    2.2117    1.0000 </r>
       <r>    2.2425    1.0000 </r>
       <r>    2.2526    1.0000 </r>
       <r>    2.4215    1.0000 </r>
       <r>    2.5953    1.0000 </r>
       <r>    2.9682    1.0000 </r>
       <r>    2.9737    1.0000 </r>
       <r>    3.0322    1.0000 </r>
       <r>    3.0378    1.0000 </r>
       <r>    9.8716    0.9726 </r>
       <r>   10.1526    0.0000 </r>
       <r>   11.6902    0.0000 </r>
       <r>   12.0810    0.0000 </r>
       <r>   12.1211    0.0000 </r>
       <r>   12.9297    0.0000 </r>
       <r>   13.0453    0.0000 </r>
       <r>   13.0701    0.0000 </r>
       <r>   13.8122    0.0000 </r>
       <r>   13.8490    0.0000 </r>
       <r>   14.3869    0.0000 </r>
       <r>   14.4310    0.0000 </r>
       <r>   14.9811    0.0000 </r>
       <r>   15.0078    0.0000 </r>
       <r>   15.3459    0.0000 </r>
       <r>   15.8041    0.0000 </r>
       <r>   15.9502    0.0000 </r>
       <r>   15.9912    0.0000 </r>
       <r>   16.2465    0.0000 </r>
       <r>   16.3081    0.0000 </r>
      </set>
      <set comment="kpoint 3">
       <r>  -13.2753    1.0000 </r>
       <r>  -13.2208    1.0000 </r>
       <r>  -12.5257    1.0000 </r>
       <r>  -12.5182    1.0000 </r>
       <r>  -12.5045    1.0000 </r>
       <r>  -12.4548    1.0000 </r>
       <r>  -12.4228    1.0000 </r>
       <r>  -12.4206    1.0000 </r>
       <r>   -0.6720    1.0000 </r>
       <r>   -0.5350    1.0000 </r>
       <r>   -0.3367    1.0000 </r>
       <r>   -0.3316    1.0000 </r>
       <r>   -0.2603    1.0000 </r>
       <r>   -0.2576    1.0000 </r>
       <r>    0.6348    1.0000 </r>
       <r>    0.6723    1.0000 </r>
       <r>    1.2903    1.0000 </r>
       <r>    1.3443    1.0000 </r>
       <r>    1.5153    1.0000 </r>
       <r>    1.5232    1.0000 </r>
       <r>    1.5532    1.0000 </r>
       <r>    1.5591    1.0000 </r>
       <r>    2.2066    1.0000 </r>
       <r>    2.2123    1.0000 </r>
       <r>    2.2397    1.0000 </r>
       <r>    2.2476    1.0000 </r>
       <r>    2.4182    1.0000 </r>
       <r>    2.5948    1.0000 </r>
       <r>    2.9713    1.0000 </r>
       <r>    2.9757    1.0000 </r>
       <r>    3.0315    1.0000 </r>
       <r>    3.0320    1.0000 </r>
       <r>    9.8777    0.9598 </r>
       <r>   10.1376    0.0000 </r>
       <r>   11.7002    0.0000 </r>
       <r>   12.0746    0.0000 </r>
       <r>   12.1293    0.0000 </r>
       <r>   12.8880    0.0000 </r>
       <r>   13.0532    0.0000 </r>
       <r>   13.0646    0.0000 </r>
       <r>   13.8480    0.0000 </r>
       <r>   13.8755    0.0000 </r>
       <r>   14.3937    0.0000 </r>
       <r>   14.4249    0.0000 </r>
       <r>   14.9586    0.0000 </r>
       <r>   14.9936    0.0000 </r>
       <r>   15.3658    0.0000 </r>
       <r>   15.8227    0.0000 </r>
       <r>   15.9443    0.0000 </r>
       <r>   15.9835    0.0000 </r>
       <r>   16.2765    0.0000 </r>
       <r>   16.2902    0.0000 </r>
      </set>
      <set comment="kpoint 4">
       <r>  -13.0945    1.0000 </r>
       <r>  -13.0939    1.0000 </r>
       <r>  -12.6690    1.0000 </r>
       <r>  -12.6573    1.0000 </r>
       <r>  -12.6530    1.0000 </r>
       <r>  -12.6455    1.0000 </r>
       <r>  -12.2896    1.0000 </r>
       <r>  -12.2890    1.0000 </r>
       <r>   -0.2963    1.0000 </r>
       <r>   -0.2029    1.0000 </r>
       <r>    0.0093    1.0000 </r>
       <r>    0.0097    1.0000 </r>
       <r>    0.2126    1.0000 </r>
       <r>    0.3385    1.0000 </r>
       <r>    0.5718    1.0000 </r>
       <r>    0.6186    1.0000 </r>
       <r>    0.7736    1.0000 </r>
       <r>    0.7944    1.0000 </r>
       <r>    1.3540    1.0000 </r>
       <r>    1.3627    1.0000 </r>
       <r>    1.3729    1.0000 </r>
       <r>    1.4276    1.0000 </r>
       <r>    1.5390    1.0000 </r>
       <r>    1.5410    1.0000 </r>
       <r>    2.4863    1.0000 </r>
       <r>    2.4879    1.0000 </r>
       <r>    2.5774    1.0000 </r>
       <r>    2.5799    1.0000 </r>
       <r>    2.7200    1.0000 </r>
       <r>    2.7214    1.0000 </r>
       <r>    2.7926    1.0000 </r>
       <r>    2.8854    1.0000 </r>
       <r>   10.6933    0.0000 </r>
       <r>   10.8151    0.0000 </r>
       <r>   11.8924    0.0000 </r>
       <r>   12.2813    0.0000 </r>
       <r>   12.2852    0.0000 </r>
       <r>   12.8127    0.0000 </r>
       <r>   13.6116    0.0000 </r>
       <r>   13.8222    0.0000 </r>
       <r>   13.8375    0.0000 </r>
       <r>   14.1935    0.0000 </r>
       <r>   14.4146    0.0000 </r>
       <r>   14.7505    0.0000 </r>
       <r>   14.8040    0.0000 </r>
       <r>   15.0930    0.0000 </r>
       <r>   15.1316    0.0000 </r>
       <r>   15.1436    0.0000 </r>
       <r>   15.2222    0.0000 </r>
       <r>   15.5099    0.0000 </r>
       <r>   16.3550    0.0000 </r>
       <r>   17.0812    0.0000 </r>
      </set>
      <set comment="kpoint 5">
       <r>  -13.2698    1.0000 </r>
       <r>  -13.2264    1.0000 </r>
       <r>  -12.5218    1.0000 </r>
       <r>  -12.5157    1.0000 </r>
       <r>  -12.5104    1.0000 </r>
       <r>  -12.4541    1.0000 </r>
       <r>  -12.4240    1.0000 </r>
       <r>  -12.4205    1.0000 </r>
       <r>   -0.6687    1.0000 </r>
       <r>   -0.5356    1.0000 </r>
       <r>   -0.3347    1.0000 </r>
       <r>   -0.3263    1.0000 </r>
       <r>   -0.2656    1.0000 </r>
       <r>   -0.2594    1.0000 </r>
       <r>    0.6332    1.0000 </r>
       <r>    0.6686    1.0000 </r>
       <r>    1.2820    1.0000 </r>
       <r>    1.3477    1.0000 </r>
       <r>    1.5143    1.0000 </r>
       <r>    1.5234    1.0000 </r>
       <r>    1.5535    1.0000 </r>
       <r>    1.5564    1.0000 </r>
       <r>    2.2063    1.0000 </r>
       <r>    2.2098    1.0000 </r>
       <r>    2.2444    1.0000 </r>
       <r>    2.2510    1.0000 </r>
       <r>    2.4220    1.0000 </r>
       <r>    2.5960    1.0000 </r>
       <r>    2.9689    1.0000 </r>
       <r>    2.9739    1.0000 </r>
       <r>    3.0319    1.0000 </r>
       <r>    3.0376    1.0000 </r>
       <r>    9.8704    0.9746 </r>
       <r>   10.1554    0.0000 </r>
       <r>   11.6880    0.0000 </r>
       <r>   12.0826    0.0000 </r>
       <r>   12.1214    0.0000 </r>
       <r>   12.9338    0.0000 </r>
       <r>   13.0505    0.0000 </r>
       <r>   13.0638    0.0000 </r>
       <r>   13.8137    0.0000 </r>
       <r>   13.8383    0.0000 </r>
       <r>   14.3812    0.0000 </r>
       <r>   14.4365    0.0000 </r>
       <r>   14.9854    0.0000 </r>
       <r>   15.0111    0.0000 </r>
       <r>   15.3460    0.0000 </r>
       <r>   15.8014    0.0000 </r>
       <r>   15.9538    0.0000 </r>
       <r>   15.9842    0.0000 </r>
       <r>   16.2536    0.0000 </r>
       <r>   16.2996    0.0000 </r>
      </set>
      <set comment="kpoint 6">
       <r>  -13.0989    1.0000 </r>
       <r>  -13.0899    1.0000 </r>
       <r>  -12.6671    1.0000 </r>
       <r>  -12.6567    1.0000 </r>
       <r>  -12.6507    1.0000 </r>
       <r>  -12.6500    1.0000 </r>
       <r>  -12.2904    1.0000 </r>
       <r>  -12.2880    1.0000 </r>
       <r>   -0.2986    1.0000 </r>
       <r>   -0.2061    1.0000 </r>
       <r>    0.0096    1.0000 </r>
       <r>    0.0125    1.0000 </r>
       <r>    0.2180    1.0000 </r>
       <r>    0.3333    1.0000 </r>
       <r>    0.5667    1.0000 </r>
       <r>    0.6255    1.0000 </r>
       <r>    0.7745    1.0000 </r>
       <r>    0.7943    1.0000 </r>
       <r>    1.3586    1.0000 </r>
       <r>    1.3607    1.0000 </r>
       <r>    1.3672    1.0000 </r>
       <r>    1.4353    1.0000 </r>
       <r>    1.5408    1.0000 </r>
       <r>    1.5435    1.0000 </r>
       <r>    2.4758    1.0000 </r>
       <r>    2.4902    1.0000 </r>
       <r>    2.5767    1.0000 </r>
       <r>    2.5805    1.0000 </r>
       <r>    2.7187    1.0000 </r>
       <r>    2.7204    1.0000 </r>
       <r>    2.7940    1.0000 </r>
       <r>    2.8837    1.0000 </r>
       <r>   10.6860    0.0000 </r>
       <r>   10.8214    0.0000 </r>
       <r>   11.8821    0.0000 </r>
       <r>   12.2536    0.0000 </r>
       <r>   12.3189    0.0000 </r>
       <r>   12.7965    0.0000 </r>
       <r>   13.6461    0.0000 </r>
       <r>   13.8325    0.0000 </r>
       <r>   13.8430    0.0000 </r>
       <r>   14.1754    0.0000 </r>
       <r>   14.4134    0.0000 </r>
       <r>   14.7431    0.0000 </r>
       <r>   14.8144    0.0000 </r>
       <r>   15.0738    0.0000 </r>
       <r>   15.1334    0.0000 </r>
       <r>   15.1414    0.0000 </r>
       <r>   15.2152    0.0000 </r>
       <r>   15.5380    0.0000 </r>
       <r>   16.3806    0.0000 </r>
       <r>   17.0639    0.0000 </r>
      </set>
      <set comment="kpoint 7">
       <r>  -13.0974    1.0000 </r>
       <r>  -13.0914    1.0000 </r>
       <r>  -12.6676    1.0000 </r>
       <r>  -12.6570    1.0000 </r>
       <r>  -12.6518    1.0000 </r>
       <r>  -12.6480    1.0000 </r>
       <r>  -12.2903    1.0000 </r>
       <r>  -12.2884    1.0000 </r>
       <r>   -0.2984    1.0000 </r>
       <r>   -0.2062    1.0000 </r>
       <r>    0.0098    1.0000 </r>
       <r>    0.0120    1.0000 </r>
       <r>    0.2180    1.0000 </r>
       <r>    0.3345    1.0000 </r>
       <r>    0.5683    1.0000 </r>
       <r>    0.6248    1.0000 </r>
       <r>    0.7749    1.0000 </r>
       <r>    0.7932    1.0000 </r>
       <r>    1.3513    1.0000 </r>
       <r>    1.3667    1.0000 </r>
       <r>    1.3692    1.0000 </r>
       <r>    1.4327    1.0000 </r>
       <r>    1.5407    1.0000 </r>
       <r>    1.5442    1.0000 </r>
       <r>    2.4799    1.0000 </r>
       <r>    2.4836    1.0000 </r>
       <r>    2.5774    1.0000 </r>
       <r>    2.5805    1.0000 </r>
       <r>    2.7174    1.0000 </r>
       <r>    2.7191    1.0000 </r>
       <r>    2.7969    1.0000 </r>
       <r>    2.8847    1.0000 </r>
       <r>   10.6897    0.0000 </r>
       <r>   10.8182    0.0000 </r>
       <r>   11.8805    0.0000 </r>
       <r>   12.2669    0.0000 </r>
       <r>   12.3063    0.0000 </r>
       <r>   12.7973    0.0000 </r>
       <r>   13.6478    0.0000 </r>
       <r>   13.8291    0.0000 </r>
       <r>   13.8384    0.0000 </r>
       <r>   14.1791    0.0000 </r>
       <r>   14.4170    0.0000 </r>
       <r>   14.7451    0.0000 </r>
       <r>   14.8168    0.0000 </r>
       <r>   15.0769    0.0000 </r>
       <r>   15.1307    0.0000 </r>
       <r>   15.1418    0.0000 </r>
       <r>   15.2150    0.0000 </r>
       <r>   15.5352    0.0000 </r>
       <r>   16.3716    0.0000 </r>
       <r>   17.0657    0.0000 </r>
      </set>
      <set comment="kpoint 8">
       <r>  -13.2749    1.0000 </r>
       <r>  -13.2212    1.0000 </r>
       <r>  -12.5258    1.0000 </r>
       <r>  -12.5182    1.0000 </r>
       <r>  -12.5046    1.0000 </r>
       <r>  -12.4539    1.0000 </r>
       <r>  -12.4234    1.0000 </r>
       <r>  -12.4206    1.0000 </r>
       <r>   -0.6715    1.0000 </r>
       <r>   -0.5358    1.0000 </r>
       <r>   -0.3364    1.0000 </r>
       <r>   -0.3320    1.0000 </r>
       <r>   -0.2590    1.0000 </r>
       <r>   -0.2583    1.0000 </r>
       <r>    0.6351    1.0000 </r>
       <r>    0.6718    1.0000 </r>
       <r>    1.2891    1.0000 </r>
       <r>    1.3454    1.0000 </r>
       <r>    1.5153    1.0000 </r>
       <r>    1.5216    1.0000 </r>
       <r>    1.5541    1.0000 </r>
       <r>    1.5587    1.0000 </r>
       <r>    2.2057    1.0000 </r>
       <r>    2.2133    1.0000 </r>
       <r>    2.2384    1.0000 </r>
       <r>    2.2492    1.0000 </r>
       <r>    2.4181    1.0000 </r>
       <r>    2.5951    1.0000 </r>
       <r>    2.9711    1.0000 </r>
       <r>    2.9755    1.0000 </r>
       <r>    3.0305    1.0000 </r>
       <r>    3.0340    1.0000 </r>
       <r>    9.8773    0.9608 </r>
       <r>   10.1376    0.0000 </r>
       <r>   11.7001    0.0000 </r>
       <r>   12.0726    0.0000 </r>
       <r>   12.1301    0.0000 </r>
       <r>   12.8901    0.0000 </r>
       <r>   13.0498    0.0000 </r>
       <r>   13.0689    0.0000 </r>
       <r>   13.8411    0.0000 </r>
       <r>   13.8813    0.0000 </r>
       <r>   14.3939    0.0000 </r>
       <r>   14.4242    0.0000 </r>
       <r>   14.9589    0.0000 </r>
       <r>   14.9943    0.0000 </r>
       <r>   15.3638    0.0000 </r>
       <r>   15.8239    0.0000 </r>
       <r>   15.9421    0.0000 </r>
       <r>   15.9873    0.0000 </r>
       <r>   16.2622    0.0000 </r>
       <r>   16.3039    0.0000 </r>
      </set>
     </set>
    </set>
   </array>
  </eigenvalues>
  <separator name="orbital magnetization" >
   <v name="MAGDIPOLOUT">      0.00000000      0.00000000      0.00000000</v>
  </separator>
  <dos>
   <i name="efermi">      9.93950831 </i>
   <total>
    <array>
     <dimension dim="1">gridpoints</dimension>
     <dimension dim="2">spin</dimension>
     <field>energy</field>
     <field>total</field>
     <field>integrated</field>
     <set>
      <set comment="spin 1">
       <r>   -15.4175     0.0000     0.0000 </r>
       <r>   -15.2992     0.0000     0.0000 </r>
       <r>   -15.1809     0.0000     0.0000 </r>
       <r>   -15.0626     0.0000     0.0000 </r>
       <r>   -14.9443     0.0000     0.0000 </r>
       <r>   -14.8260     0.0000     0.0000 </r>
       <r>   -14.7077     0.0000     0.0000 </r>
       <r>   -14.5894     0.0000     0.0000 </r>
       <r>   -14.4711     0.0000     0.0000 </r>
       <r>   -14.3528     0.0000     0.0000 </r>
       <r>   -14.2345     0.0000     0.0000 </r>
       <r>   -14.1162     0.0000     0.0000 </r>
       <r>   -13.9978     0.0000     0.0000 </r>
       <r>   -13.8795     0.0041     0.0005 </r>
       <r>   -13.7612     0.7908     0.0940 </r>
       <r>   -13.6429     0.2617     0.1250 </r>
       <r>   -13.5246     0.0000     0.1250 </r>
       <r>   -13.4063     0.0000     0.1250 </r>
       <r>   -13.2880     0.7400     0.2126 </r>
       <r>   -13.1697     7.0742     1.0495 </r>
       <r>   -13.0514     5.4513     1.6944 </r>
       <r>   -12.9331     1.5267     1.8750 </r>
       <r>   -12.8148     0.0002     1.8750 </r>
       <r>   -12.6965     0.7244     1.9607 </r>
       <r>   -12.5782    13.7435     3.5866 </r>
       <r>   -12.4599    15.0278     5.3645 </r>
       <r>   -12.3416    13.3573     6.9447 </r>
       <r>   -12.2233     8.4086     7.9395 </r>
       <r>   -12.1050     0.5118     8.0000 </r>
       <r>   -11.9867     0.0000     8.0000 </r>
       <r>   -11.8684     0.0000     8.0000 </r>
       <r>   -11.7501     0.0000     8.0000 </r>
       <r>   -11.6318     0.0000     8.0000 </r>
       <r>   -11.5135     0.0000     8.0000 </r>
       <r>   -11.3952     0.0000     8.0000 </r>
       <r>   -11.2769     0.0000     8.0000 </r>
       <r>   -11.1586     0.0000     8.0000 </r>
       <r>   -11.0403     0.0000     8.0000 </r>
       <r>   -10.9219     0.0000     8.0000 </r>
       <r>   -10.8036     0.0000     8.0000 </r>
       <r>   -10.6853     0.0000     8.0000 </r>
       <r>   -10.5670     0.0000     8.0000 </r>
       <r>   -10.4487     0.0000     8.0000 </r>
       <r>   -10.3304     0.0000     8.0000 </r>
       <r>   -10.2121     0.0000     8.0000 </r>
       <r>   -10.0938     0.0000     8.0000 </r>
       <r>    -9.9755     0.0000     8.0000 </r>
       <r>    -9.8572     0.0000     8.0000 </r>
       <r>    -9.7389     0.0000     8.0000 </r>
       <r>    -9.6206     0.0000     8.0000 </r>
       <r>    -9.5023     0.0000     8.0000 </r>
       <r>    -9.3840     0.0000     8.0000 </r>
       <r>    -9.2657     0.0000     8.0000 </r>
       <r>    -9.1474     0.0000     8.0000 </r>
       <r>    -9.0291     0.0000     8.0000 </r>
       <r>    -8.9108     0.0000     8.0000 </r>
       <r>    -8.7925     0.0000     8.0000 </r>
       <r>    -8.6742     0.0000     8.0000 </r>
       <r>    -8.5559     0.0000     8.0000 </r>
       <r>    -8.4376     0.0000     8.0000 </r>
       <r>    -8.3193     0.0000     8.0000 </r>
       <r>    -8.2010     0.0000     8.0000 </r>
       <r>    -8.0827     0.0000     8.0000 </r>
       <r>    -7.9643     0.0000     8.0000 </r>
       <r>    -7.8460     0.0000     8.0000 </r>
       <r>    -7.7277     0.0000     8.0000 </r>
       <r>    -7.6094     0.0000     8.0000 </r>
       <r>    -7.4911     0.0000     8.0000 </r>
       <r>    -7.3728     0.0000     8.0000 </r>
       <r>    -7.2545     0.0000     8.0000 </r>
       <r>    -7.1362     0.0000     8.0000 </r>
       <r>    -7.0179     0.0000     8.0000 </r>
       <r>    -6.8996     0.0000     8.0000 </r>
       <r>    -6.7813     0.0000     8.0000 </r>
       <r>    -6.6630     0.0000     8.0000 </r>
       <r>    -6.5447     0.0000     8.0000 </r>
       <r>    -6.4264     0.0000     8.0000 </r>
       <r>    -6.3081     0.0000     8.0000 </r>
       <r>    -6.1898     0.0000     8.0000 </r>
       <r>    -6.0715     0.0000     8.0000 </r>
       <r>    -5.9532     0.0000     8.0000 </r>
       <r>    -5.8349     0.0000     8.0000 </r>
       <r>    -5.7166     0.0000     8.0000 </r>
       <r>    -5.5983     0.0000     8.0000 </r>
       <r>    -5.4800     0.0000     8.0000 </r>
       <r>    -5.3617     0.0000     8.0000 </r>
       <r>    -5.2434     0.0000     8.0000 </r>
       <r>    -5.1251     0.0000     8.0000 </r>
       <r>    -5.0068     0.0000     8.0000 </r>
       <r>    -4.8884     0.0000     8.0000 </r>
       <r>    -4.7701     0.0000     8.0000 </r>
       <r>    -4.6518     0.0000     8.0000 </r>
       <r>    -4.5335     0.0000     8.0000 </r>
       <r>    -4.4152     0.0000     8.0000 </r>
       <r>    -4.2969     0.0000     8.0000 </r>
       <r>    -4.1786     0.0000     8.0000 </r>
       <r>    -4.0603     0.0000     8.0000 </r>
       <r>    -3.9420     0.0000     8.0000 </r>
       <r>    -3.8237     0.0000     8.0000 </r>
       <r>    -3.7054     0.0000     8.0000 </r>
       <r>    -3.5871     0.0000     8.0000 </r>
       <r>    -3.4688     0.0000     8.0000 </r>
       <r>    -3.3505     0.0000     8.0000 </r>
       <r>    -3.2322     0.0000     8.0000 </r>
       <r>    -3.1139     0.0000     8.0000 </r>
       <r>    -2.9956     0.0000     8.0000 </r>
       <r>    -2.8773     0.0000     8.0000 </r>
       <r>    -2.7590     0.0000     8.0000 </r>
       <r>    -2.6407     0.0000     8.0000 </r>
       <r>    -2.5224     0.0000     8.0000 </r>
       <r>    -2.4041     0.0000     8.0000 </r>
       <r>    -2.2858     0.0000     8.0000 </r>
       <r>    -2.1675     0.0000     8.0000 </r>
       <r>    -2.0492     0.0000     8.0000 </r>
       <r>    -1.9309     0.0000     8.0000 </r>
       <r>    -1.8125     0.0000     8.0000 </r>
       <r>    -1.6942     0.0000     8.0000 </r>
       <r>    -1.5759     0.0000     8.0000 </r>
       <r>    -1.4576     0.0396     8.0047 </r>
       <r>    -1.3393     0.9549     8.1177 </r>
       <r>    -1.2210     0.0621     8.1250 </r>
       <r>    -1.1027     0.8186     8.2219 </r>
       <r>    -0.9844     2.3399     8.4987 </r>
       <r>    -0.8661     0.1306     8.5141 </r>
       <r>    -0.7478     0.9230     8.6233 </r>
       <r>    -0.6295     2.4176     8.9093 </r>
       <r>    -0.5112     4.6647     9.4612 </r>
       <r>    -0.3929     3.5793     9.8847 </r>
       <r>    -0.2746     9.7605    11.0394 </r>
       <r>    -0.1563    12.5790    12.5275 </r>
       <r>    -0.0380     0.9849    12.6440 </r>
       <r>     0.0803     5.6579    13.3134 </r>
       <r>     0.1986     0.8167    13.4100 </r>
       <r>     0.3169     3.2032    13.7889 </r>
       <r>     0.4352     2.7958    14.1197 </r>
       <r>     0.5535     0.5718    14.1873 </r>
       <r>     0.6718     9.1267    15.2671 </r>
       <r>     0.7901     7.3169    16.1327 </r>
       <r>     0.9084     4.1465    16.6232 </r>
       <r>     1.0267     0.0151    16.6250 </r>
       <r>     1.1451     0.0000    16.6250 </r>
       <r>     1.2634     0.4358    16.6766 </r>
       <r>     1.3817    11.3996    18.0252 </r>
       <r>     1.5000    10.8051    19.3035 </r>
       <r>     1.6183    20.4841    21.7268 </r>
       <r>     1.7366     1.2600    21.8759 </r>
       <r>     1.8549     2.1989    22.1360 </r>
       <r>     1.9732     0.9634    22.2500 </r>
       <r>     2.0915     0.0172    22.2520 </r>
       <r>     2.2098     5.9706    22.9584 </r>
       <r>     2.3281    13.8149    24.5927 </r>
       <r>     2.4464     5.0016    25.1844 </r>
       <r>     2.5647    10.6072    26.4393 </r>
       <r>     2.6830     9.3528    27.5458 </r>
       <r>     2.8013     7.7346    28.4608 </r>
       <r>     2.9196     8.4592    29.4616 </r>
       <r>     3.0379    12.6228    30.9549 </r>
       <r>     3.1562     5.6559    31.6240 </r>
       <r>     3.2745     0.9284    31.7338 </r>
       <r>     3.3928     2.2415    31.9990 </r>
       <r>     3.5111     0.0084    32.0000 </r>
       <r>     3.6294     0.0000    32.0000 </r>
       <r>     3.7477     0.0000    32.0000 </r>
       <r>     3.8660     0.0000    32.0000 </r>
       <r>     3.9843     0.0000    32.0000 </r>
       <r>     4.1026     0.0000    32.0000 </r>
       <r>     4.2210     0.0000    32.0000 </r>
       <r>     4.3393     0.0000    32.0000 </r>
       <r>     4.4576     0.0000    32.0000 </r>
       <r>     4.5759     0.0000    32.0000 </r>
       <r>     4.6942     0.0000    32.0000 </r>
       <r>     4.8125     0.0000    32.0000 </r>
       <r>     4.9308     0.0000    32.0000 </r>
       <r>     5.0491     0.0000    32.0000 </r>
       <r>     5.1674     0.0000    32.0000 </r>
       <r>     5.2857     0.0000    32.0000 </r>
       <r>     5.4040     0.0000    32.0000 </r>
       <r>     5.5223     0.0000    32.0000 </r>
       <r>     5.6406     0.0000    32.0000 </r>
       <r>     5.7589     0.0000    32.0000 </r>
       <r>     5.8772     0.0000    32.0000 </r>
       <r>     5.9955     0.0000    32.0000 </r>
       <r>     6.1138     0.0000    32.0000 </r>
       <r>     6.2321     0.0000    32.0000 </r>
       <r>     6.3504     0.0000    32.0000 </r>
       <r>     6.4687     0.0000    32.0000 </r>
       <r>     6.5870     0.0000    32.0000 </r>
       <r>     6.7053     0.0000    32.0000 </r>
       <r>     6.8236     0.0000    32.0000 </r>
       <r>     6.9419     0.0000    32.0000 </r>
       <r>     7.0602     0.0000    32.0000 </r>
       <r>     7.1786     0.0000    32.0000 </r>
       <r>     7.2969     0.0000    32.0000 </r>
       <r>     7.4152     0.0000    32.0000 </r>
       <r>     7.5335     0.0000    32.0000 </r>
       <r>     7.6518     0.0022    32.0003 </r>
       <r>     7.7701     0.7218    32.0857 </r>
       <r>     7.8884     0.3325    32.1250 </r>
       <r>     8.0067     0.0001    32.1250 </r>
       <r>     8.1250     0.0000    32.1250 </r>
       <r>     8.2433     0.0000    32.1250 </r>
       <r>     8.3616     0.0000    32.1250 </r>
       <r>     8.4799     0.0000    32.1250 </r>
       <r>     8.5982     0.0000    32.1250 </r>
       <r>     8.7165     0.0000    32.1250 </r>
       <r>     8.8348     0.0000    32.1250 </r>
       <r>     8.9531     0.0000    32.1250 </r>
       <r>     9.0714     0.0000    32.1250 </r>
       <r>     9.1897     0.0000    32.1250 </r>
       <r>     9.3080     0.0000    32.1250 </r>
       <r>     9.4263     0.0000    32.1250 </r>
       <r>     9.5446     0.0000    32.1250 </r>
       <r>     9.6629     0.0000    32.1250 </r>
       <r>     9.7812     0.0000    32.1250 </r>
       <r>     9.8995     0.6287    32.1994 </r>
       <r>    10.0178     3.5509    32.6195 </r>
       <r>    10.1361     0.1497    32.6372 </r>
       <r>    10.2545     3.7194    33.0772 </r>
       <r>    10.3728     0.8085    33.1728 </r>
       <r>    10.4911     0.6511    33.2499 </r>
       <r>    10.6094     0.0012    33.2500 </r>
       <r>    10.7277     0.4363    33.3016 </r>
       <r>    10.8460     3.4745    33.7127 </r>
       <r>    10.9643     2.6209    34.0227 </r>
       <r>    11.0826     2.8241    34.3568 </r>
       <r>    11.2009     0.1536    34.3750 </r>
       <r>    11.3192     0.0000    34.3750 </r>
       <r>    11.4375     0.0000    34.3750 </r>
       <r>    11.5558     0.0000    34.3750 </r>
       <r>    11.6741     0.0014    34.3752 </r>
       <r>    11.7924     1.9448    34.6052 </r>
       <r>    11.9107     2.3621    34.8847 </r>
       <r>    12.0290     2.8850    35.2260 </r>
       <r>    12.1473     6.2495    35.9653 </r>
       <r>    12.2656     5.8278    36.6548 </r>
       <r>    12.3839     5.3164    37.2837 </r>
       <r>    12.5022     2.1974    37.5437 </r>
       <r>    12.6205     0.6871    37.6250 </r>
       <r>    12.7388     0.0058    37.6257 </r>
       <r>    12.8571     2.0606    37.8694 </r>
       <r>    12.9754     3.9246    38.3337 </r>
       <r>    13.0937     4.7476    38.8954 </r>
       <r>    13.2121     5.1792    39.5081 </r>
       <r>    13.3304     0.9587    39.6215 </r>
       <r>    13.4487     0.0292    39.6250 </r>
       <r>    13.5670     0.0023    39.6253 </r>
       <r>    13.6853     1.3620    39.7864 </r>
       <r>    13.8036     2.0579    40.0299 </r>
       <r>    13.9219    11.7151    41.4158 </r>
       <r>    14.0402     2.8234    41.7498 </r>
       <r>    14.1585     0.0529    41.7561 </r>
       <r>    14.2768     2.7144    42.0772 </r>
       <r>    14.3951     1.0551    42.2020 </r>
       <r>    14.5134     9.9273    43.3765 </r>
       <r>    14.6317     1.0442    43.5000 </r>
       <r>    14.7500     0.4402    43.5521 </r>
       <r>    14.8683     4.3681    44.0688 </r>
       <r>    14.9866     2.7059    44.3890 </r>
       <r>    15.1049     8.1126    45.3487 </r>
       <r>    15.2232     8.2262    46.3219 </r>
       <r>    15.3415     3.8161    46.7734 </r>
       <r>    15.4598     3.8216    47.2255 </r>
       <r>    15.5781     1.9469    47.4558 </r>
       <r>    15.6964     2.2672    47.7240 </r>
       <r>    15.8147     0.8515    47.8247 </r>
       <r>    15.9330     6.7009    48.6175 </r>
       <r>    16.0513     7.6283    49.5199 </r>
       <r>    16.1696     2.9996    49.8748 </r>
       <r>    16.2880     2.6615    50.1897 </r>
       <r>    16.4063     7.2120    51.0429 </r>
       <r>    16.5246     2.7841    51.3723 </r>
       <r>    16.6429     0.0232    51.3750 </r>
       <r>    16.7612     0.0000    51.3750 </r>
       <r>    16.8795     0.0000    51.3750 </r>
       <r>    16.9978     0.0112    51.3763 </r>
       <r>    17.1161     2.2580    51.6435 </r>
       <r>    17.2344     0.9004    51.7500 </r>
       <r>    17.3527     0.0002    51.7500 </r>
       <r>    17.4710     0.0000    51.7500 </r>
       <r>    17.5893     0.0000    51.7500 </r>
       <r>    17.7076     0.0000    51.7500 </r>
       <r>    17.8259     0.0000    51.7500 </r>
       <r>    17.9442     0.0000    51.7500 </r>
       <r>    18.0625     0.0000    51.7500 </r>
       <r>    18.1808     0.0000    51.7500 </r>
       <r>    18.2991     0.0000    51.7500 </r>
       <r>    18.4174     0.3340    51.7895 </r>
       <r>    18.5357     1.7555    51.9972 </r>
       <r>    18.6540     0.0238    52.0000 </r>
       <r>    18.7723     0.0000    52.0000 </r>
       <r>    18.8906     0.0000    52.0000 </r>
       <r>    19.0089     0.0000    52.0000 </r>
       <r>    19.1272     0.0000    52.0000 </r>
       <r>    19.2455     0.0000    52.0000 </r>
       <r>    19.3639     0.0000    52.0000 </r>
       <r>    19.4822     0.0000    52.0000 </r>
       <r>    19.6005     0.0000    52.0000 </r>
       <r>    19.7188     0.0000    52.0000 </r>
       <r>    19.8371     0.0000    52.0000 </r>
       <r>    19.9554     0.0000    52.0000 </r>
       <r>    20.0737     0.0000    52.0000 </r>
      </set>
      <set comment="spin 2">
       <r>   -15.4175     0.0000     0.0000 </r>
       <r>   -15.2992     0.0000     0.0000 </r>
       <r>   -15.1809     0.0000     0.0000 </r>
       <r>   -15.0626     0.0000     0.0000 </r>
       <r>   -14.9443     0.0000     0.0000 </r>
       <r>   -14.8260     0.0000     0.0000 </r>
       <r>   -14.7077     0.0000     0.0000 </r>
       <r>   -14.5894     0.0000     0.0000 </r>
       <r>   -14.4711     0.0000     0.0000 </r>
       <r>   -14.3528     0.0000     0.0000 </r>
       <r>   -14.2345     0.0000     0.0000 </r>
       <r>   -14.1162     0.0000     0.0000 </r>
       <r>   -13.9978     0.0000     0.0000 </r>
       <r>   -13.8795     0.0176     0.0021 </r>
       <r>   -13.7612     0.9209     0.1110 </r>
       <r>   -13.6429     0.1182     0.1250 </r>
       <r>   -13.5246     0.0000     0.1250 </r>
       <r>   -13.4063     0.0003     0.1250 </r>
       <r>   -13.2880     1.5431     0.3076 </r>
       <r>   -13.1697     6.7383     1.1048 </r>
       <r>   -13.0514     5.7930     1.7901 </r>
       <r>   -12.9331     0.7177     1.8750 </r>
       <r>   -12.8148     0.0001     1.8750 </r>
       <r>   -12.6965     1.6894     2.0749 </r>
       <r>   -12.5782    14.2733     3.7635 </r>
       <r>   -12.4599    15.9006     5.6446 </r>
       <r>   -12.3416    11.9435     7.0575 </r>
       <r>   -12.2233     7.7662     7.9763 </r>
       <r>   -12.1050     0.2005     8.0000 </r>
       <r>   -11.9867     0.0000     8.0000 </r>
       <r>   -11.8684     0.0000     8.0000 </r>
       <r>   -11.7501     0.0000     8.0000 </r>
       <r>   -11.6318     0.0000     8.0000 </r>
       <r>   -11.5135     0.0000     8.0000 </r>
       <r>   -11.3952     0.0000     8.0000 </r>
       <r>   -11.2769     0.0000     8.0000 </r>
       <r>   -11.1586     0.0000     8.0000 </r>
       <r>   -11.0403     0.0000     8.0000 </r>
       <r>   -10.9219     0.0000     8.0000 </r>
       <r>   -10.8036     0.0000     8.0000 </r>
       <r>   -10.6853     0.0000     8.0000 </r>
       <r>   -10.5670     0.0000     8.0000 </r>
       <r>   -10.4487     0.0000     8.0000 </r>
       <r>   -10.3304     0.0000     8.0000 </r>
       <r>   -10.2121     0.0000     8.0000 </r>
       <r>   -10.0938     0.0000     8.0000 </r>
       <r>    -9.9755     0.0000     8.0000 </r>
       <r>    -9.8572     0.0000     8.0000 </r>
       <r>    -9.7389     0.0000     8.0000 </r>
       <r>    -9.6206     0.0000     8.0000 </r>
       <r>    -9.5023     0.0000     8.0000 </r>
       <r>    -9.3840     0.0000     8.0000 </r>
       <r>    -9.2657     0.0000     8.0000 </r>
       <r>    -9.1474     0.0000     8.0000 </r>
       <r>    -9.0291     0.0000     8.0000 </r>
       <r>    -8.9108     0.0000     8.0000 </r>
       <r>    -8.7925     0.0000     8.0000 </r>
       <r>    -8.6742     0.0000     8.0000 </r>
       <r>    -8.5559     0.0000     8.0000 </r>
       <r>    -8.4376     0.0000     8.0000 </r>
       <r>    -8.3193     0.0000     8.0000 </r>
       <r>    -8.2010     0.0000     8.0000 </r>
       <r>    -8.0827     0.0000     8.0000 </r>
       <r>    -7.9643     0.0000     8.0000 </r>
       <r>    -7.8460     0.0000     8.0000 </r>
       <r>    -7.7277     0.0000     8.0000 </r>
       <r>    -7.6094     0.0000     8.0000 </r>
       <r>    -7.4911     0.0000     8.0000 </r>
       <r>    -7.3728     0.0000     8.0000 </r>
       <r>    -7.2545     0.0000     8.0000 </r>
       <r>    -7.1362     0.0000     8.0000 </r>
       <r>    -7.0179     0.0000     8.0000 </r>
       <r>    -6.8996     0.0000     8.0000 </r>
       <r>    -6.7813     0.0000     8.0000 </r>
       <r>    -6.6630     0.0000     8.0000 </r>
       <r>    -6.5447     0.0000     8.0000 </r>
       <r>    -6.4264     0.0000     8.0000 </r>
       <r>    -6.3081     0.0000     8.0000 </r>
       <r>    -6.1898     0.0000     8.0000 </r>
       <r>    -6.0715     0.0000     8.0000 </r>
       <r>    -5.9532     0.0000     8.0000 </r>
       <r>    -5.8349     0.0000     8.0000 </r>
       <r>    -5.7166     0.0000     8.0000 </r>
       <r>    -5.5983     0.0000     8.0000 </r>
       <r>    -5.4800     0.0000     8.0000 </r>
       <r>    -5.3617     0.0000     8.0000 </r>
       <r>    -5.2434     0.0000     8.0000 </r>
       <r>    -5.1251     0.0000     8.0000 </r>
       <r>    -5.0068     0.0000     8.0000 </r>
       <r>    -4.8884     0.0000     8.0000 </r>
       <r>    -4.7701     0.0000     8.0000 </r>
       <r>    -4.6518     0.0000     8.0000 </r>
       <r>    -4.5335     0.0000     8.0000 </r>
       <r>    -4.4152     0.0000     8.0000 </r>
       <r>    -4.2969     0.0000     8.0000 </r>
       <r>    -4.1786     0.0000     8.0000 </r>
       <r>    -4.0603     0.0000     8.0000 </r>
       <r>    -3.9420     0.0000     8.0000 </r>
       <r>    -3.8237     0.0000     8.0000 </r>
       <r>    -3.7054     0.0000     8.0000 </r>
       <r>    -3.5871     0.0000     8.0000 </r>
       <r>    -3.4688     0.0000     8.0000 </r>
       <r>    -3.3505     0.0000     8.0000 </r>
       <r>    -3.2322     0.0000     8.0000 </r>
       <r>    -3.1139     0.0000     8.0000 </r>
       <r>    -2.9956     0.0000     8.0000 </r>
       <r>    -2.8773     0.0000     8.0000 </r>
       <r>    -2.7590     0.0000     8.0000 </r>
       <r>    -2.6407     0.0000     8.0000 </r>
       <r>    -2.5224     0.0000     8.0000 </r>
       <r>    -2.4041     0.0000     8.0000 </r>
       <r>    -2.2858     0.0000     8.0000 </r>
       <r>    -2.1675     0.0000     8.0000 </r>
       <r>    -2.0492     0.0000     8.0000 </r>
       <r>    -1.9309     0.0000     8.0000 </r>
       <r>    -1.8125     0.0000     8.0000 </r>
       <r>    -1.6942     0.0000     8.0000 </r>
       <r>    -1.5759     0.0000     8.0000 </r>
       <r>    -1.4576     0.2108     8.0249 </r>
       <r>    -1.3393     0.8393     8.1242 </r>
       <r>    -1.2210     0.0078     8.1251 </r>
       <r>    -1.1027     1.5663     8.3104 </r>
       <r>    -0.9844     1.6010     8.4998 </r>
       <r>    -0.8661     0.3685     8.5434 </r>
       <r>    -0.7478     0.7482     8.6320 </r>
       <r>    -0.6295     3.6615     9.0651 </r>
       <r>    -0.5112     4.8840     9.6429 </r>
       <r>    -0.3929     2.3517     9.9212 </r>
       <r>    -0.2746    12.9691    11.4554 </r>
       <r>    -0.1563     9.6053    12.5918 </r>
       <r>    -0.0380     0.8214    12.6890 </r>
       <r>     0.0803     5.6456    13.3569 </r>
       <r>     0.1986     1.1358    13.4912 </r>
       <r>     0.3169     3.1328    13.8619 </r>
       <r>     0.4352     2.2169    14.1241 </r>
       <r>     0.5535     1.1884    14.2647 </r>
       <r>     0.6718    10.6879    15.5291 </r>
       <r>     0.7901     6.5004    16.2982 </r>
       <r>     0.9084     2.7605    16.6247 </r>
       <r>     1.0267     0.0022    16.6250 </r>
       <r>     1.1451     0.0002    16.6250 </r>
       <r>     1.2634     1.1824    16.7649 </r>
       <r>     1.3817    13.5016    18.3622 </r>
       <r>     1.5000    10.1281    19.5604 </r>
       <r>     1.6183    19.1195    21.8223 </r>
       <r>     1.7366     0.4764    21.8787 </r>
       <r>     1.8549     2.6427    22.1913 </r>
       <r>     1.9732     0.4961    22.2500 </r>
       <r>     2.0915     0.0507    22.2560 </r>
       <r>     2.2098     8.4008    23.2498 </r>
       <r>     2.3281    11.5589    24.6173 </r>
       <r>     2.4464     6.4149    25.3762 </r>
       <r>     2.5647    10.3198    26.5971 </r>
[...]
        <r>  0.0025  0.0000  0.0002  0.0027  0.0004  0.0000  0.0001  0.0002  0.0000 </r>
        <r>  0.0031  0.0000  0.0002  0.0026  0.0003  0.0000  0.0001  0.0003  0.0001 </r>
        <r>  0.0001  0.0015  0.0015  0.0000  0.0068  0.0000  0.0003  0.0047  0.0001 </r>
        <r>  0.0000  0.0094  0.0106  0.0003  0.0000  0.0000  0.0000  0.0000  0.0000 </r>
        <r>  0.0026  0.0031  0.0031  0.0242  0.0000  0.0000  0.0000  0.0000  0.0000 </r>
        <r>  0.0028  0.0015  0.0008  0.0306  0.0000  0.0000  0.0000  0.0000  0.0000 </r>
        <r>  0.0000  0.0040  0.0009  0.0001  0.0000  0.0000  0.0000  0.0000  0.0000 </r>
        <r>  0.0000  0.0202  0.0113  0.0000  0.0000  0.0000  0.0000  0.0000  0.0000 </r>
        <r>  0.0001  0.0097  0.0080  0.0221  0.0000  0.0000  0.0000  0.0000  0.0000 </r>
        <r>  0.0003  0.0110  0.0124  0.0201  0.0000  0.0000  0.0000  0.0000  0.0000 </r>
        <r>  0.0001  0.0101  0.0129  0.0002  0.0000  0.0000  0.0000  0.0000  0.0000 </r>
       </set>
       <set comment="band 42">
        <r>  0.0000  0.0031  0.0016  0.0093  0.0017  0.0099  0.0022  0.0034  0.0110 </r>
        <r>  0.0000  0.0020  0.0010  0.0060  0.0000  0.0001  0.0003  0.0000  0.0016 </r>
        <r>  0.0093  0.0009  0.0006  0.0056  0.0008  0.0134  0.0000  0.0033  0.0005 </r>
        <r>  0.0189  0.0011  0.0002  0.0061  0.0014  0.0140  0.0004  0.0015  0.0000 </r>
        <r>  0.0033  0.0004  0.0011  0.0001  0.0001  0.0003  0.0000  0.0002  0.0001 </r>
        <r>  0.0556  0.0035  0.0020  0.0043  0.0034  0.0042  0.0001  0.0057  0.0002 </r>
        <r>  0.0012  0.0000  0.0040  0.0010  0.0000  0.0004  0.0001  0.0001  0.0001 </r>
        <r>  0.0007  0.0045  0.0000  0.0017  0.0001  0.0003  0.0000  0.0001  0.0002 </r>
        <r>  0.0000  0.0006  0.0003  0.0019  0.0015  0.0077  0.0001  0.0028  0.0003 </r>
        <r>  0.0000  0.0049  0.0026  0.0141  0.0000  0.0000  0.0000  0.0000  0.0000 </r>
        <r>  0.0005  0.0262  0.0004  0.0037  0.0000  0.0000  0.0000  0.0000  0.0000 </r>
        <r>  0.0012  0.0009  0.0286  0.0009  0.0000  0.0000  0.0000  0.0000  0.0000 </r>
        <r>  0.0002  0.0180  0.0201  0.0152  0.0000  0.0000  0.0000  0.0000  0.0000 </r>
        <r>  0.0036  0.0119  0.0172  0.0034  0.0000  0.0000  0.0000  0.0000  0.0000 </r>
        <r>  0.0001  0.0047  0.0155  0.0017  0.0000  0.0000  0.0000  0.0000  0.0000 </r>
        <r>  0.0000  0.0107  0.0020  0.0001  0.0000  0.0000  0.0000  0.0000  0.0000 </r>
        <r>  0.0000  0.0051  0.0028  0.0139  0.0000  0.0000  0.0000  0.0000  0.0000 </r>
       </set>
       <set comment="band 43">
        <r>  0.0132  0.0009  0.0006  0.0007  0.0086  0.0085  0.0000  0.0096  0.0000 </r>
        <r>  0.0348  0.0037  0.0031  0.0027  0.0000  0.0000  0.0000  0.0000  0.0000 </r>
        <r>  0.0004  0.0019  0.0027  0.0015  0.0000  0.0006  0.0012  0.0008  0.0000 </r>
        <r>  0.0008  0.0027  0.0013  0.0015  0.0003  0.0005  0.0003  0.0000  0.0009 </r>
        <r>  0.0057  0.0031  0.0023  0.0181  0.0010  0.0009  0.0000  0.0010  0.0001 </r>
        <r>  0.0004  0.0019  0.0012  0.0032  0.0004  0.0000  0.0002  0.0008  0.0008 </r>
        <r>  0.0056  0.0184  0.0025  0.0029  0.0010  0.0009  0.0000  0.0009  0.0000 </r>
        <r>  0.0055  0.0025  0.0188  0.0022  0.0009  0.0009  0.0001  0.0011  0.0000 </r>
        <r>  0.0235  0.0000  0.0000  0.0000  0.0008  0.0010  0.0000  0.0012  0.0000 </r>
        <r>  0.0138  0.0285  0.0293  0.0294  0.0000  0.0000  0.0000  0.0000  0.0000 </r>
        <r>  0.0056  0.0036  0.0316  0.0039  0.0000  0.0000  0.0000  0.0000  0.0000 </r>
        <r>  0.0044  0.0333  0.0032  0.0025  0.0000  0.0000  0.0000  0.0000  0.0000 </r>
        <r>  0.0009  0.0038  0.0036  0.0009  0.0000  0.0000  0.0000  0.0000  0.0000 </r>
        <r>  0.0051  0.0029  0.0036  0.0324  0.0000  0.0000  0.0000  0.0000  0.0000 </r>
        <r>  0.0009  0.0015  0.0030  0.0029  0.0000  0.0000  0.0000  0.0000  0.0000 </r>
        <r>  0.0010  0.0043  0.0008  0.0042  0.0000  0.0000  0.0000  0.0000  0.0000 </r>
        <r>  0.0140  0.0000  0.0001  0.0000  0.0000  0.0000  0.0000  0.0000  0.0000 </r>
       </set>
       <set comment="band 44">
        <r>  0.0508  0.0072  0.0069  0.0068  0.0028  0.0026  0.0000  0.0027  0.0000 </r>
        <r>  0.0105  0.0000  0.0000  0.0000  0.0029  0.0031  0.0000  0.0031  0.0000 </r>
        <r>  0.0071  0.0001  0.0028  0.0002  0.0037  0.0099  0.0011  0.0097  0.0000 </r>
        <r>  0.0077  0.0028  0.0001  0.0001  0.0101  0.0099  0.0003  0.0036  0.0010 </r>
        <r>  0.0016  0.0012  0.0010  0.0012  0.0018  0.0004  0.0001  0.0016  0.0003 </r>
        <r>  0.0069  0.0001  0.0001  0.0034  0.0101  0.0038  0.0003  0.0100  0.0011 </r>
        <r>  0.0006  0.0012  0.0009  0.0012  0.0020  0.0017  0.0001  0.0004  0.0003 </r>
        <r>  0.0007  0.0011  0.0013  0.0011  0.0003  0.0017  0.0003  0.0018  0.0000 </r>
        <r>  0.0732  0.0002  0.0002  0.0002  0.0001  0.0001  0.0000  0.0001  0.0000 </r>
        <r>  0.0043  0.0226  0.0230  0.0254  0.0000  0.0000  0.0000  0.0000  0.0000 </r>
        <r>  0.0000  0.0017  0.0259  0.0026  0.0000  0.0000  0.0000  0.0000  0.0000 </r>
        <r>  0.0000  0.0259  0.0018  0.0028  0.0000  0.0000  0.0000  0.0000  0.0000 </r>
        <r>  0.0063  0.0036  0.0033  0.0067  0.0000  0.0000  0.0000  0.0000  0.0000 </r>
        <r>  0.0000  0.0020  0.0021  0.0264  0.0000  0.0000  0.0000  0.0000  0.0000 </r>
        <r>  0.0075  0.0072  0.0039  0.0031  0.0000  0.0000  0.0000  0.0000  0.0000 </r>
        <r>  0.0072  0.0044  0.0065  0.0035  0.0000  0.0000  0.0000  0.0000  0.0000 </r>
        <r>  0.0008  0.0001  0.0000  0.0000  0.0000  0.0000  0.0000  0.0000  0.0000 </r>
       </set>
       <set comment="band 45">
        <r>  0.0001  0.0000  0.0000  0.0000  0.0000  0.0001  0.0001  0.0001  0.0127 </r>
        <r>  0.0000  0.0004  0.0000  0.0005  0.0002  0.0135  0.0000  0.0113  0.0001 </r>
        <r>  0.0000  0.0040  0.0001  0.0053  0.0000  0.0002  0.0000  0.0001  0.0010 </r>
        <r>  0.0002  0.0044  0.0000  0.0066  0.0001  0.0000  0.0001  0.0001  0.0022 </r>
        <r>  0.0256  0.0001  0.0000  0.0000  0.0013  0.0041  0.0002  0.0015  0.0000 </r>
        <r>  0.0001  0.0059  0.0004  0.0053  0.0002  0.0000  0.0002  0.0000  0.0025 </r>
        <r>  0.0206  0.0000  0.0000  0.0001  0.0027  0.0030  0.0002  0.0033  0.0000 </r>
        <r>  0.0002  0.0000  0.0000  0.0001  0.0000  0.0084  0.0000  0.0081  0.0007 </r>
        <r>  0.0000  0.0014  0.0000  0.0022  0.0000  0.0001  0.0000  0.0000  0.0000 </r>
        <r>  0.0000  0.0343  0.0005  0.0391  0.0000  0.0000  0.0000  0.0000  0.0000 </r>
        <r>  0.0000  0.0299  0.0001  0.0267  0.0000  0.0000  0.0000  0.0000  0.0000 </r>
        <r>  0.0028  0.0023  0.0158  0.0054  0.0000  0.0000  0.0000  0.0000  0.0000 </r>
        <r>  0.0035  0.0011  0.0144  0.0020  0.0000  0.0000  0.0000  0.0000  0.0000 </r>
        <r>  0.0036  0.0018  0.0091  0.0019  0.0000  0.0000  0.0000  0.0000  0.0000 </r>
        <r>  0.0023  0.0013  0.0204  0.0045  0.0000  0.0000  0.0000  0.0000  0.0000 </r>
        <r>  0.0000  0.0342  0.0000  0.0321  0.0000  0.0000  0.0000  0.0000  0.0000 </r>
        <r>  0.0000  0.0197  0.0003  0.0259  0.0000  0.0000  0.0000  0.0000  0.0000 </r>
       </set>
       <set comment="band 46">
        <r>  0.0001  0.0000  0.0001  0.0000  0.0002  0.0000  0.0124  0.0000  0.0001 </r>
        <r>  0.0000  0.0001  0.0004  0.0001  0.0171  0.0029  0.0001  0.0053  0.0000 </r>
        <r>  0.0003  0.0033  0.0064  0.0017  0.0001  0.0001  0.0026  0.0000  0.0000 </r>
        <r>  0.0001  0.0020  0.0070  0.0005  0.0000  0.0002  0.0016  0.0000  0.0003 </r>
        <r>  0.0062  0.0000  0.0001  0.0000  0.0077  0.0009  0.0004  0.0064  0.0002 </r>
        <r>  0.0000  0.0011  0.0071  0.0009  0.0000  0.0000  0.0011  0.0003  0.0001 </r>
        <r>  0.0116  0.0000  0.0001  0.0000  0.0063  0.0052  0.0003  0.0015  0.0002 </r>
        <r>  0.0313  0.0000  0.0001  0.0000  0.0053  0.0001  0.0000  0.0001  0.0000 </r>
        <r>  0.0000  0.0007  0.0021  0.0002  0.0001  0.0000  0.0000  0.0001  0.0000 </r>
        <r>  0.0000  0.0166  0.0502  0.0078  0.0000  0.0000  0.0000  0.0000  0.0000 </r>
        <r>  0.0041  0.0004  0.0028  0.0023  0.0000  0.0000  0.0000  0.0000  0.0000 </r>
        <r>  0.0015  0.0007  0.0150  0.0227  0.0000  0.0000  0.0000  0.0000  0.0000 </r>
        <r>  0.0006  0.0345  0.0222  0.0003  0.0000  0.0000  0.0000  0.0000  0.0000 </r>
        <r>  0.0006  0.0275  0.0197  0.0003  0.0000  0.0000  0.0000  0.0000  0.0000 </r>
        <r>  0.0013  0.0006  0.0154  0.0301  0.0000  0.0000  0.0000  0.0000  0.0000 </r>
        <r>  0.0037  0.0014  0.0019  0.0054  0.0000  0.0000  0.0000  0.0000  0.0000 </r>
        <r>  0.0000  0.0106  0.0282  0.0057  0.0000  0.0000  0.0000  0.0000  0.0000 </r>
       </set>
       <set comment="band 47">
        <r>  0.0003  0.0075  0.0077  0.0072  0.0001  0.0001  0.0000  0.0001  0.0000 </r>
        <r>  0.0081  0.0010  0.0013  0.0010  0.0013  0.0015  0.0000  0.0017  0.0000 </r>
        <r>  0.0006  0.0030  0.0000  0.0032  0.0016  0.0005  0.0024  0.0007  0.0000 </r>
        <r>  0.0008  0.0000  0.0034  0.0031  0.0006  0.0006  0.0007  0.0014  0.0016 </r>
        <r>  0.0036  0.0000  0.0001  0.0039  0.0061  0.0088  0.0000  0.0073  0.0001 </r>
        <r>  0.0011  0.0032  0.0035  0.0000  0.0006  0.0016  0.0006  0.0007  0.0015 </r>
        <r>  0.0037  0.0040  0.0001  0.0001  0.0061  0.0069  0.0000  0.0088  0.0001 </r>
        <r>  0.0064  0.0000  0.0042  0.0000  0.0082  0.0067  0.0001  0.0070  0.0000 </r>
        <r>  0.0001  0.0047  0.0045  0.0050  0.0006  0.0006  0.0000  0.0005  0.0000 </r>
        <r>  0.0001  0.0002  0.0001  0.0003  0.0000  0.0000  0.0000  0.0000  0.0000 </r>
        <r>  0.0000  0.0056  0.0037  0.0051  0.0000  0.0000  0.0000  0.0000  0.0000 </r>
        <r>  0.0000  0.0038  0.0055  0.0066  0.0000  0.0000  0.0000  0.0000  0.0000 </r>
        <r>  0.0003  0.0064  0.0057  0.0391  0.0000  0.0000  0.0000  0.0000  0.0000 </r>
        <r>  0.0000  0.0064  0.0047  0.0040  0.0000  0.0000  0.0000  0.0000  0.0000 </r>
        <r>  0.0003  0.0377  0.0054  0.0066  0.0000  0.0000  0.0000  0.0000  0.0000 </r>
        <r>  0.0002  0.0045  0.0400  0.0050  0.0000  0.0000  0.0000  0.0000  0.0000 </r>
        <r>  0.0061  0.0087  0.0107  0.0091  0.0000  0.0000  0.0000  0.0000  0.0000 </r>
       </set>
       <set comment="band 48">
        <r>  0.0051  0.0000  0.0001  0.0001  0.0009  0.0022  0.0000  0.0015  0.0000 </r>
        <r>  0.0213  0.0005  0.0011  0.0003  0.0001  0.0001  0.0001  0.0001  0.0000 </r>
        <r>  0.0010  0.0021  0.0049  0.0023  0.0166  0.0040  0.0010  0.0035  0.0000 </r>
        <r>  0.0018  0.0042  0.0015  0.0015  0.0034  0.0049  0.0002  0.0154  0.0009 </r>
        <r>  0.0008  0.0028  0.0022  0.0000  0.0009  0.0016  0.0000  0.0010  0.0000 </r>
        <r>  0.0025  0.0015  0.0013  0.0032  0.0041  0.0144  0.0002  0.0053  0.0008 </r>
        <r>  0.0009  0.0000  0.0019  0.0037  0.0010  0.0008  0.0000  0.0017  0.0000 </r>
        <r>  0.0009  0.0029  0.0003  0.0040  0.0017  0.0008  0.0001  0.0009  0.0000 </r>
        <r>  0.0321  0.0034  0.0028  0.0036  0.0091  0.0072  0.0000  0.0079  0.0000 </r>
        <r>  0.0001  0.0000  0.0001  0.0000  0.0000  0.0000  0.0000  0.0000  0.0000 </r>
        <r>  0.0001  0.0004  0.0205  0.0005  0.0000  0.0000  0.0000  0.0000  0.0000 </r>
        <r>  0.0000  0.0189  0.0002  0.0004  0.0000  0.0000  0.0000  0.0000  0.0000 </r>
        <r>  0.0000  0.0101  0.0074  0.0060  0.0000  0.0000  0.0000  0.0000  0.0000 </r>
        <r>  0.0000  0.0002  0.0002  0.0171  0.0000  0.0000  0.0000  0.0000  0.0000 </r>
        <r>  0.0000  0.0074  0.0081  0.0122  0.0000  0.0000  0.0000  0.0000  0.0000 </r>
        <r>  0.0000  0.0097  0.0094  0.0112  0.0000  0.0000  0.0000  0.0000  0.0000 </r>
        <r>  0.0007  0.0037  0.0046  0.0028  0.0000  0.0000  0.0000  0.0000  0.0000 </r>
       </set>
       <set comment="band 49">
        <r>  0.0000  0.0041  0.0057  0.0005  0.0104  0.0005  0.0021  0.0056  0.0001 </r>
        <r>  0.0000  0.0105  0.0161  0.0015  0.0016  0.0001  0.0059  0.0010  0.0005 </r>
        <r>  0.0129  0.0028  0.0041  0.0029  0.0029  0.0037  0.0002  0.0000  0.0001 </r>
        <r>  0.0060  0.0031  0.0021  0.0011  0.0030  0.0069  0.0006  0.0031  0.0005 </r>
        <r>  0.0004  0.0071  0.0150  0.0010  0.0005  0.0000  0.0001  0.0003  0.0000 </r>
        <r>  0.0005  0.0003  0.0003  0.0003  0.0090  0.0005  0.0012  0.0100  0.0005 </r>
        <r>  0.0008  0.0100  0.0161  0.0003  0.0004  0.0000  0.0002  0.0002  0.0001 </r>
        <r>  0.0017  0.0095  0.0162  0.0016  0.0002  0.0000  0.0003  0.0003  0.0000 </r>
        <r>  0.0000  0.0003  0.0009  0.0000  0.0072  0.0007  0.0010  0.0056  0.0001 </r>
        <r>  0.0000  0.0047  0.0074  0.0006  0.0000  0.0000  0.0000  0.0000  0.0000 </r>
        <r>  0.0038  0.0017  0.0062  0.0003  0.0000  0.0000  0.0000  0.0000  0.0000 </r>
        <r>  0.0024  0.0051  0.0066  0.0024  0.0000  0.0000  0.0000  0.0000  0.0000 </r>
        <r>  0.0002  0.0087  0.0169  0.0017  0.0000  0.0000  0.0000  0.0000  0.0000 </r>
        <r>  0.0003  0.0074  0.0096  0.0007  0.0000  0.0000  0.0000  0.0000  0.0000 </r>
        <r>  0.0012  0.0110  0.0139  0.0016  0.0000  0.0000  0.0000  0.0000  0.0000 </r>
        <r>  0.0022  0.0059  0.0160  0.0001  0.0000  0.0000  0.0000  0.0000  0.0000 </r>
        <r>  0.0000  0.0147  0.0209  0.0018  0.0000  0.0000  0.0000  0.0000  0.0000 </r>
       </set>
       <set comment="band 50">
        <r>  0.0000  0.0033  0.0006  0.0067  0.0010  0.0106  0.0002  0.0055  0.0014 </r>
        <r>  0.0000  0.0083  0.0013  0.0186  0.0001  0.0017  0.0005  0.0007  0.0056 </r>
        <r>  0.0014  0.0003  0.0003  0.0001  0.0001  0.0072  0.0000  0.0124  0.0016 </r>
        <r>  0.0064  0.0032  0.0013  0.0011  0.0091  0.0023  0.0010  0.0014  0.0000 </r>
        <r>  0.0005  0.0096  0.0026  0.0179  0.0000  0.0003  0.0001  0.0002  0.0003 </r>
        <r>  0.0112  0.0025  0.0031  0.0072  0.0026  0.0045  0.0002  0.0000  0.0001 </r>
        <r>  0.0001  0.0085  0.0008  0.0163  0.0000  0.0005  0.0000  0.0000  0.0002 </r>
        <r>  0.0001  0.0067  0.0013  0.0147  0.0000  0.0006  0.0000  0.0002  0.0001 </r>
        <r>  0.0000  0.0004  0.0002  0.0005  0.0005  0.0091  0.0001  0.0037  0.0010 </r>
        <r>  0.0000  0.0040  0.0006  0.0085  0.0000  0.0000  0.0000  0.0000  0.0000 </r>
        <r>  0.0004  0.0074  0.0003  0.0092  0.0000  0.0000  0.0000  0.0000  0.0000 </r>
        <r>  0.0021  0.0034  0.0026  0.0070  0.0000  0.0000  0.0000  0.0000  0.0000 </r>
        <r>  0.0023  0.0056  0.0003  0.0175  0.0000  0.0000  0.0000  0.0000  0.0000 </r>
        <r>  0.0044  0.0025  0.0000  0.0104  0.0000  0.0000  0.0000  0.0000  0.0000 </r>
        <r>  0.0012  0.0079  0.0038  0.0118  0.0000  0.0000  0.0000  0.0000  0.0000 </r>
        <r>  0.0002  0.0105  0.0015  0.0154  0.0000  0.0000  0.0000  0.0000  0.0000 </r>
        <r>  0.0000  0.0111  0.0015  0.0256  0.0000  0.0000  0.0000  0.0000  0.0000 </r>
       </set>
       <set comment="band 51">
        <r>  0.0000  0.0000  0.0000  0.0001  0.0001  0.0001  0.0083  0.0000  0.0136 </r>
        <r>  0.0000  0.0000  0.0000  0.0000  0.0003  0.0009  0.0003  0.0000  0.0003 </r>
        <r>  0.0002  0.0009  0.0104  0.0186  0.0000  0.0001  0.0003  0.0002  0.0016 </r>
        <r>  0.0000  0.0032  0.0041  0.0184  0.0003  0.0003  0.0014  0.0001  0.0010 </r>
        <r>  0.1729  0.0001  0.0001  0.0005  0.0004  0.0001  0.0000  0.0005  0.0000 </r>
        <r>  0.0001  0.0054  0.0106  0.0261  0.0000  0.0001  0.0004  0.0001  0.0005 </r>
        <r>  0.0271  0.0000  0.0001  0.0000  0.0001  0.0000  0.0001  0.0001  0.0000 </r>
        <r>  0.0658  0.0003  0.0003  0.0000  0.0001  0.0002  0.0000  0.0002  0.0001 </r>
        <r>  0.0000  0.0005  0.0013  0.0047  0.0001  0.0002  0.0000  0.0000  0.0000 </r>
        <r>  0.0000  0.0000  0.0000  0.0000  0.0000  0.0000  0.0000  0.0000  0.0000 </r>
        <r>  0.0001  0.0047  0.0043  0.0055  0.0000  0.0000  0.0000  0.0000  0.0000 </r>
        <r>  0.0000  0.0012  0.0013  0.0027  0.0000  0.0000  0.0000  0.0000  0.0000 </r>
        <r>  0.0012  0.0145  0.0116  0.0088  0.0000  0.0000  0.0000  0.0000  0.0000 </r>
        <r>  0.0004  0.0113  0.0142  0.0114  0.0000  0.0000  0.0000  0.0000  0.0000 </r>
        <r>  0.0002  0.0011  0.0054  0.0002  0.0000  0.0000  0.0000  0.0000  0.0000 </r>
        <r>  0.0003  0.0083  0.0023  0.0021  0.0000  0.0000  0.0000  0.0000  0.0000 </r>
        <r>  0.0000  0.0001  0.0001  0.0000  0.0000  0.0000  0.0000  0.0000  0.0000 </r>
       </set>
       <set comment="band 52">
        <r>  0.0001  0.0000  0.0000  0.0000  0.0001  0.0000  0.0139  0.0002  0.0083 </r>
        <r>  0.0000  0.0000  0.0000  0.0000  0.0004  0.0000  0.0005  0.0010  0.0002 </r>
        <r>  0.0005  0.0174  0.0174  0.0000  0.0000  0.0003  0.0005  0.0000  0.0011 </r>
        <r>  0.0003  0.0248  0.0149  0.0015  0.0000  0.0003  0.0010  0.0001  0.0002 </r>
        <r>  0.0040  0.0000  0.0000  0.0000  0.0000  0.0001  0.0001  0.0000  0.0000 </r>
        <r>  0.0000  0.0137  0.0089  0.0003  0.0004  0.0000  0.0015  0.0003  0.0007 </r>
        <r>  0.1460  0.0008  0.0001  0.0002  0.0003  0.0004  0.0000  0.0000  0.0000 </r>
        <r>  0.1108  0.0000  0.0005  0.0003  0.0003  0.0004  0.0000  0.0003  0.0000 </r>
        <r>  0.0000  0.0045  0.0019  0.0000  0.0002  0.0000  0.0000  0.0001  0.0000 </r>
        <r>  0.0000  0.0000  0.0000  0.0000  0.0000  0.0000  0.0000  0.0000  0.0000 </r>
        <r>  0.0002  0.0086  0.0070  0.0078  0.0000  0.0000  0.0000  0.0000  0.0000 </r>
        <r>  0.0003  0.0104  0.0135  0.0107  0.0000  0.0000  0.0000  0.0000  0.0000 </r>
        <r>  0.0000  0.0002  0.0021  0.0000  0.0000  0.0000  0.0000  0.0000  0.0000 </r>
        <r>  0.0000  0.0005  0.0000  0.0001  0.0000  0.0000  0.0000  0.0000  0.0000 </r>
        <r>  0.0009  0.0087  0.0086  0.0147  0.0000  0.0000  0.0000  0.0000  0.0000 </r>
        <r>  0.0006  0.0051  0.0032  0.0109  0.0000  0.0000  0.0000  0.0000  0.0000 </r>
        <r>  0.0000  0.0001  0.0000  0.0001  0.0000  0.0000  0.0000  0.0000  0.0000 </r>
       </set>
      </set>
     </set>
    </set>
   </array>
  </projected>
 </calculation>
 <structure name="finalpos" >
  <crystal>
   <varray name="basis" >
    <v>       0.00000000       4.24689300       4.24689300 </v>
    <v>       4.24689300       0.00000000       4.24689300 </v>
    <v>       4.24689300       4.24689300       0.00000000 </v>
   </varray>
   <i name="volume">    153.19477498 </i>
   <varray name="rec_basis" >
    <v>      -0.11773313       0.11773313       0.11773313 </v>
    <v>       0.11773313      -0.11773313       0.11773313 </v>
    <v>       0.11773313       0.11773313      -0.11773313 </v>
   </varray>
  </crystal>
  <varray name="positions" >
   <v>       0.12418823       0.12395916       0.12386582 </v>
   <v>       0.97677672       0.97805400       0.98344825 </v>
   <v>       0.98161610       0.97875387       0.55893826 </v>
   <v>       0.98326510       0.55765643       0.97925022 </v>
   <v>       0.00017302       0.49729550       0.50120464 </v>
   <v>       0.55873652       0.97617942       0.98077999 </v>
   <v>       0.50015938       0.99641784       0.50197278 </v>
   <v>       0.50032935       0.49776068       0.00027620 </v>
   <v>       0.50157378       0.49697774       0.50031114 </v>
   <v>       0.25104230       0.24903426       0.25229161 </v>
   <v>       0.25388690       0.25023076       0.74419881 </v>
   <v>       0.25178897       0.74356765       0.25215143 </v>
   <v>       0.25654234       0.74695343       0.74873111 </v>
   <v>       0.74421316       0.24739497       0.25343482 </v>
   <v>       0.74742601       0.25358925       0.74914252 </v>
   <v>       0.74744891       0.74437737       0.25740845 </v>
   <v>       0.74955720       0.74467668       0.74814094 </v>
  </varray>
 </structure>
</modeling>
