 vasp.5.4.4.18Apr17-6-g9f103f2a35 (build Apr 25 2017 10:43:04) complex          
  
 executed on             LinuxIFC date 2019.08.15  15:46:52
 running on   36 total cores
 distrk:  each k-point on    9 cores,    4 groups
 distr:  one band on NCORES_PER_BAND=   1 cores,    9 groups


--------------------------------------------------------------------------------------------------------


 INCAR:
 POTCAR:    PAW_PBE Mg 13Apr2007                  
 POTCAR:    PAW_PBE Al 04Jan2001                  
 POTCAR:    PAW_PBE Se 06Sep2000                  

 ----------------------------------------------------------------------------- 
|                                                                             |
|           W    W    AA    RRRRR   N    N  II  N    N   GGGG   !!!           |
|           W    W   A  A   R    R  NN   N  II  NN   N  G    G  !!!           |
|           W    W  A    A  R    R  N N  N  II  N N  N  G       !!!           |
|           W WW W  AAAAAA  RRRRR   N  N N  II  N  N N  G  GGG   !            |
|           WW  WW  A    A  R   R   N   NN  II  N   NN  G    G                |
|           W    W  A    A  R    R  N    N  II  N    N   GGGG   !!!           |
|                                                                             |
|      For optimal performance we recommend to set                            |
|        NCORE= 4 - approx SQRT( number of cores)                             |
|      NCORE specifies how many cores store one orbital (NPAR=cpu/NCORE).     |
|      This setting can  greatly improve the performance of VASP for DFT.     |
|      The default,   NCORE=1            might be grossly inefficient         |
|      on modern multi-core architectures or massively parallel machines.     |
|      Do your own testing !!!!                                               |
|      Unfortunately you need to use the default for GW and RPA calculations. |
|      (for HF NCORE is supported but not extensively tested yet)             |
|                                                                             |
 ----------------------------------------------------------------------------- 


 ----------------------------------------------------------------------------- 
|                                                                             |
|           W    W    AA    RRRRR   N    N  II  N    N   GGGG   !!!           |
|           W    W   A  A   R    R  NN   N  II  NN   N  G    G  !!!           |
|           W    W  A    A  R    R  N N  N  II  N N  N  G       !!!           |
|           W WW W  AAAAAA  RRRRR   N  N N  II  N  N N  G  GGG   !            |
|           WW  WW  A    A  R   R   N   NN  II  N   NN  G    G                |
|           W    W  A    A  R    R  N    N  II  N    N   GGGG   !!!           |
|                                                                             |
|      You have enabled k-point parallelism (KPAR>1).                         |
|      This developmental code was originally  written by Paul Kent at ORNL,  |
|      and carefully double checked in Vienna.                                |
|      GW as well as linear response parallelism added by Martijn Marsman     |
|      and Georg Kresse.                                                      |
|      Carefully verify results versus KPAR=1.                                |
|      Report problems to Paul Kent and Vienna.                               |
|                                                                             |
 ----------------------------------------------------------------------------- 

 POTCAR:    PAW_PBE Mg 13Apr2007                  
   VRHFIN =Mg: s2p0                                                             
   LEXCH  = PE                                                                  
   EATOM  =    23.0369 eV,    1.6932 Ry                                         
                                                                                
   TITEL  = PAW_PBE Mg 13Apr2007                                                
   LULTRA =        F    use ultrasoft PP ?                                      
   IUNSCR =        1    unscreen: 0-lin 1-nonlin 2-no                           
   RPACOR =    1.500    partial core radius                                     
   POMASS =   24.305; ZVAL   =    2.000    mass and valenz                      
   RCORE  =    2.000    outmost cutoff radius                                   
   RWIGS  =    2.880; RWIGS  =    1.524    wigner-seitz radius (au A)           
   ENMAX  =  200.000; ENMIN  =  100.000 eV                                      
   RCLOC  =    1.506    cutoff for local pot                                    
   LCOR   =        T    correct aug charges                                     
   LPAW   =        T    paw PP                                                  
   EAUG   =  454.734                                                            
   DEXC   =    0.000                                                            
   RMAX   =    2.045    core radius for proj-oper                               
   RAUG   =    1.300    factor for augmentation sphere                          
   RDEP   =    2.025    radius for radial grids                                 
   RDEPT  =    1.942    core radius for aug-charge                              
                                                                                
   Atomic configuration                                                         
    6 entries                                                                   
     n  l   j            E        occ.                                          
     1  0  0.50     -1259.6230   2.0000                                         
     2  0  0.50       -79.8442   2.0000                                         
     2  1  1.50       -46.6121   6.0000                                         
     3  0  0.50        -4.7055   2.0000                                         
     3  1  0.50        -1.3660   0.0000                                         
     3  2  1.50        -1.3606   0.0000                                         
   Description                                                                  
     l       E           TYP  RCUT    TYP  RCUT                                 
     0     -4.7054661     23  2.000                                             
     0     27.2116520     23  2.000                                             
     1      1.3605826     23  2.000                                             
     1     27.2116520     23  2.000                                             
     2     -1.3605826     23  2.000                                             
  local pseudopotential read in
  partial core-charges read in
  partial kinetic energy density read in
  atomic valenz-charges read in
  non local Contribution for L=           0  read in
    real space projection operators read in
  non local Contribution for L=           0  read in
    real space projection operators read in
  non local Contribution for L=           1  read in
    real space projection operators read in
  non local Contribution for L=           1  read in
    real space projection operators read in
  non local Contribution for L=           2  read in
    real space projection operators read in
    PAW grid and wavefunctions read in
 
   number of l-projection  operators is LMAX  =           5
   number of lm-projection operators is LMMAX =          13
 
 POTCAR:    PAW_PBE Al 04Jan2001                  
   VRHFIN =Al: s2p1                                                             
   LEXCH  = PE                                                                  
   EATOM  =    53.5387 eV,    3.9350 Ry                                         
                                                                                
   TITEL  = PAW_PBE Al 04Jan2001                                                
   LULTRA =        F    use ultrasoft PP ?                                      
   IUNSCR =        1    unscreen: 0-lin 1-nonlin 2-no                           
   RPACOR =    1.500    partial core radius                                     
   POMASS =   26.981; ZVAL   =    3.000    mass and valenz                      
   RCORE  =    1.900    outmost cutoff radius                                   
   RWIGS  =    2.650; RWIGS  =    1.402    wigner-seitz radius (au A)           
   ENMAX  =  240.300; ENMIN  =  180.225 eV                                      
   ICORE  =        2    local potential                                         
   LCOR   =        T    correct aug charges                                     
   LPAW   =        T    paw PP                                                  
   EAUG   =  291.052                                                            
   DEXC   =    0.000                                                            
   RMAX   =    1.939    core radius for proj-oper                               
   RAUG   =    1.300    factor for augmentation sphere                          
   RDEP   =    1.966    radius for radial grids                                 
   RDEPT  =    1.856    core radius for aug-charge                              
                                                                                
   Atomic configuration                                                         
    6 entries                                                                   
     n  l   j            E        occ.                                          
     1  0  0.50     -1511.1048   2.0000                                         
     2  0  0.50      -108.1629   2.0000                                         
     2  1  1.50       -69.6402   6.0000                                         
     3  0  0.50        -7.7528   2.0000                                         
     3  1  1.50        -2.7121   1.0000                                         
     3  2  2.50        -2.7212   0.0000                                         
   Description                                                                  
     l       E           TYP  RCUT    TYP  RCUT                                 
     0     -7.7528455     23  1.900                                             
     0     -3.3096929     23  1.900                                             
     1     -2.7120682     23  1.900                                             
     1     13.6058260     23  1.900                                             
     2     -2.7211652      7  1.900                                             
  local pseudopotential read in
  partial core-charges read in
  partial kinetic energy density read in
  atomic valenz-charges read in
  non local Contribution for L=           0  read in
    real space projection operators read in
  non local Contribution for L=           0  read in
    real space projection operators read in
  non local Contribution for L=           1  read in
    real space projection operators read in
  non local Contribution for L=           1  read in
    real space projection operators read in
    PAW grid and wavefunctions read in
 
   number of l-projection  operators is LMAX  =           4
   number of lm-projection operators is LMMAX =           8
 
 POTCAR:    PAW_PBE Se 06Sep2000                  
   VRHFIN =Se: s2p4                                                             
   LEXCH  = PE                                                                  
   EATOM  =   257.1286 eV,   18.8984 Ry                                         
                                                                                
   TITEL  = PAW_PBE Se 06Sep2000                                                
   LULTRA =        F    use ultrasoft PP ?                                      
   IUNSCR =        1    unscreen: 0-lin 1-nonlin 2-no                           
   RPACOR =    1.900    partial core radius                                     
   POMASS =   78.960; ZVAL   =    6.000    mass and valenz                      
   RCORE  =    2.100    outmost cutoff radius                                   
   RWIGS  =    2.200; RWIGS  =    1.164    wigner-seitz radius (au A)           
   ENMAX  =  211.555; ENMIN  =  158.666 eV                                      
   ICORE  =        3    local potential                                         
   LCOR   =        T    correct aug charges                                     
   LPAW   =        T    paw PP                                                  
   EAUG   =  446.842                                                            
   DEXC   =    0.000                                                            
   RMAX   =    2.147    core radius for proj-oper                               
   RAUG   =    1.300    factor for augmentation sphere                          
   RDEP   =    2.177    radius for radial grids                                 
   RDEPT  =    1.928    core radius for aug-charge                              
                                                                                
   Atomic configuration                                                         
   10 entries                                                                   
     n  l   j            E        occ.                                          
     1  0  0.50    -12503.4787   2.0000                                         
     2  0  0.50     -1606.9547   2.0000                                         
     2  1  1.50     -1413.3140   6.0000                                         
     3  0  0.50      -213.4885   2.0000                                         
     3  1  1.50      -152.9538   6.0000                                         
     3  2  2.50       -53.1221  10.0000                                         
     4  0  0.50       -17.2865   2.0000                                         
     4  1  0.50        -6.5110   4.0000                                         
     4  2  2.50        -6.8029   0.0000                                         
     4  3  2.50        -6.8029   0.0000                                         
   Description                                                                  
     l       E           TYP  RCUT    TYP  RCUT                                 
     0    -17.2865377     23  2.100                                             
     0    -15.3094411     23  2.100                                             
     1     -6.5110275     23  2.100                                             
     1     -0.0695192     23  2.100                                             
     2     -6.8029130     23  2.100                                             
     3     -1.3605826      7  2.100                                             
  local pseudopotential read in
  partial core-charges read in
  partial kinetic energy density read in
  atomic valenz-charges read in
  non local Contribution for L=           0  read in
    real space projection operators read in
  non local Contribution for L=           0  read in
    real space projection operators read in
  non local Contribution for L=           1  read in
    real space projection operators read in
  non local Contribution for L=           1  read in
    real space projection operators read in
  non local Contribution for L=           2  read in
    real space projection operators read in
    PAW grid and wavefunctions read in
 
   number of l-projection  operators is LMAX  =           5
   number of lm-projection operators is LMMAX =          13
 

 ----------------------------------------------------------------------------- 
|                                                                             |
|  ADVICE TO THIS USER RUNNING 'VASP/VAMP'   (HEAR YOUR MASTER'S VOICE ...):  |
|                                                                             |
|      You enforced a specific xc-type in the INCAR file,                     |
|      a different type was found on the POTCAR file                          |
|          I HOPE YOU KNOW, WHAT YOU ARE  DOING                               |
|                                                                             |
 ----------------------------------------------------------------------------- 

  PAW_PBE Mg 13Apr2007                  :
 energy of atom  1       EATOM=  -23.0369
 kinetic energy error for atom=    0.0007 (will be added to EATOM!!)
  PAW_PBE Al 04Jan2001                  :
 energy of atom  2       EATOM=  -53.5387
 kinetic energy error for atom=    0.0029 (will be added to EATOM!!)
  PAW_PBE Se 06Sep2000                  :
 energy of atom  3       EATOM= -257.1286
 kinetic energy error for atom=    0.0076 (will be added to EATOM!!)
 
 
 POSCAR: Mg1 Al2 Se4                             
  positions in direct lattice
  No initial velocities read in
 exchange correlation table for  LEXCH =       14
   RHO(1)=    0.500       N(1)  =     2000
   RHO(2)=  100.500       N(2)  =     4000
 


--------------------------------------------------------------------------------------------------------


 ion  position               nearest neighbor table
   1  0.500  0.500  0.500-   4 2.65   4 2.65   5 2.65   5 2.65   4 2.65   5 2.65
   2  0.737  0.737  0.737-   5 2.30   7 2.48   7 2.48   7 2.48
   3  0.263  0.263  0.263-   4 2.30   6 2.48   6 2.48   6 2.48
   4  0.203  0.203  0.203-   3 2.30   1 2.65   1 2.65   1 2.65
   5  0.797  0.797  0.797-   2 2.30   1 2.65   1 2.65   1 2.65
   6  0.624  0.624  0.624-   3 2.48   3 2.48   3 2.48
   7  0.376  0.376  0.376-   2 2.48   2 2.48   2 2.48
 
  LATTYP: Found a trigonal (rhomboedric) cell.
 ALAT       =    13.1203813473
 COS(alpha) =     0.9565101170
  
  Lattice vectors:
  
 A1 = (   1.9347530000,   1.1170300000,  12.9287810000)
 A2 = (  -1.9347530000,   1.1170300000,  12.9287810000)
 A3 = (   0.0000000000,  -2.2340610000,  12.9287810000)


Analysis of symmetry for initial positions (statically):
=====================================================================
 Subroutine PRICEL returns:
 Original cell was already a primitive cell.
 

 Routine SETGRP: Setting up the symmetry group for a 
 trigonal (rhombohedral) supercell.


 Subroutine GETGRP returns: Found 12 space group operations
 (whereof 12 operations were pure point group operations)
 out of a pool of 12 trial point group operations.


The static configuration has the point symmetry D_3d.


Analysis of symmetry for dynamics (positions and initial velocities):
=====================================================================
 Subroutine PRICEL returns:
 Original cell was already a primitive cell.
 

 Routine SETGRP: Setting up the symmetry group for a 
 trigonal (rhombohedral) supercell.


 Subroutine GETGRP returns: Found 12 space group operations
 (whereof 12 operations were pure point group operations)
 out of a pool of 12 trial point group operations.


The dynamic configuration has the point symmetry D_3d.


 Subroutine INISYM returns: Found 12 space group operations
 (whereof 12 operations are pure point group operations),
 and found     1 'primitive' translations

 
 
 KPOINTS: Generated by Obadb. Formula: Mg(AlSe2)2 
  k-points in reciprocal lattice
Space group operators:
 irot       det(A)        alpha          n_x          n_y          n_z        tau_x        tau_y        tau_z
    1     1.000000     0.000001     1.000000     0.000000     0.000000     0.000000     0.000000     0.000000
    2    -1.000000     0.000001     1.000000     0.000000     0.000000     0.000000     0.000000     0.000000
    3     1.000000   180.000000    -0.500000     0.866025     0.000000     0.000000     0.000000     0.000000
    4    -1.000000   180.000000    -0.500000     0.866025     0.000000     0.000000     0.000000     0.000000
    5     1.000000   120.000000    -0.000000     0.000000    -1.000000     0.000000     0.000000     0.000000
    6    -1.000000   120.000000    -0.000000     0.000000    -1.000000     0.000000     0.000000     0.000000
    7     1.000000   180.000000     1.000000     0.000000     0.000000     0.000000     0.000000     0.000000
    8    -1.000000   180.000000     1.000000     0.000000     0.000000     0.000000     0.000000     0.000000
    9     1.000000   120.000000    -0.000000    -0.000000     1.000000     0.000000     0.000000     0.000000
   10    -1.000000   120.000000    -0.000000    -0.000000     1.000000     0.000000     0.000000     0.000000
   11     1.000000   180.000000     0.500000     0.866025     0.000000     0.000000     0.000000     0.000000
   12    -1.000000   180.000000     0.500000     0.866025     0.000000     0.000000     0.000000     0.000000

 ----------------------------------------------------------------------------- 
|                                                                             |
|           W    W    AA    RRRRR   N    N  II  N    N   GGGG   !!!           |
|           W    W   A  A   R    R  NN   N  II  NN   N  G    G  !!!           |
|           W    W  A    A  R    R  N N  N  II  N N  N  G       !!!           |
|           W WW W  AAAAAA  RRRRR   N  N N  II  N  N N  G  GGG   !            |
|           WW  WW  A    A  R   R   N   NN  II  N   NN  G    G                |
|           W    W  A    A  R    R  N    N  II  N    N   GGGG   !!!           |
|                                                                             |
|      The number of bands has been changed from the values supplied          |
|      in the INCAR file. This is a result of running the parallel version.   |
|      The orbitals not found in the WAVECAR file will be initialized with    |
|      random numbers, which is usually adequate. For correlated              |
|      calculations, however, you should redo the groundstate calculation.    |
|      I found NBANDS    =       44  now  NBANDS  =      45                   |
|                                                                             |
 ----------------------------------------------------------------------------- 



--------------------------------------------------------------------------------------------------------




 Dimension of arrays:
   k-points           NKPTS =    204   k-points in BZ     NKDIM =    204   number of bands    NBANDS=     45
   number of dos      NEDOS =    301   number of ions     NIONS =      7
   non local maximal  LDIM  =      5   non local SUM 2l+1 LMDIM =     13
   total plane-waves  NPLWV = 125000
   max r-space proj   IRMAX =      1   max aug-charges    IRDMAX=  32712
   dimension x,y,z NGX =    50 NGY =   50 NGZ =   50
   dimension x,y,z NGXF=   100 NGYF=  100 NGZF=  100
   support grid    NGXF=   100 NGYF=  100 NGZF=  100
   ions per type =               1   2   4
   NGX,Y,Z   is equivalent  to a cutoff of   6.34,  6.34,  6.34 a.u.
   NGXF,Y,Z  is equivalent  to a cutoff of  12.67, 12.67, 12.67 a.u.

 SYSTEM =  unknown system                          
 POSCAR =  Mg1 Al2 Se4                             

 Startparameter for this run:
   NWRITE =      2    write-flag & timer
   PREC   = n         normal or accurate (medium, high low for compatibility)
   ISTART =      0    job   : 0-new  1-cont  2-samecut
   ICHARG =      2    charge: 1-file 2-atom 10-const
   ISPIN  =      1    spin polarized calculation?
   LNONCOLLINEAR =      F non collinear calculations
   LSORBIT =      F    spin-orbit coupling
   INIWAV =      1    electr: 0-lowe 1-rand  2-diag
   LASPH  =      T    aspherical Exc in radial PAW
   METAGGA=      F    non-selfconsistent MetaGGA calc.

 Electronic Relaxation 1
   ENCUT  =  240.3 eV  17.66 Ry    4.20 a.u.  16.58 16.58 16.58*2*pi/ulx,y,z
   ENINI  =  240.3     initial cutoff
   ENAUG  =  454.7 eV  augmentation charge cutoff
   NELM   =    100;   NELMIN=  2; NELMDL= -5     # of ELM steps 
   EDIFF  = 0.1E-05   stopping-criterion for ELM
   LREAL  =      F    real-space projection
   NLSPLINE    = F    spline interpolate recip. space projectors
   LCOMPAT=      F    compatible to vasp.4.4
   GGA_COMPAT  = T    GGA compatible to vasp.4.4-vasp.4.6
   LMAXPAW     = -100 max onsite density
   LMAXMIX     =    2 max onsite mixed and CHGCAR
   VOSKOWN=      0    Vosko Wilk Nusair interpolation
   ROPT   =    0.00000   0.00000   0.00000
 Ionic relaxation
   EDIFFG = -.3E-02   stopping-criterion for IOM
   NSW    =      1    number of steps for IOM
   NBLOCK =      1;   KBLOCK =      1    inner block; outer block 
   IBRION =      2    ionic relax: 0-MD 1-quasi-New 2-CG
   NFREE  =      1    steps in history (QN), initial steepest desc. (CG)
   ISIF   =      0    stress and relaxation
   IWAVPR =     11    prediction:  0-non 1-charg 2-wave 3-comb
   ISYM   =      2    0-nonsym 1-usesym 2-fastsym
   LCORR  =      T    Harris-Foulkes like correction to forces

   POTIM  = 0.5000    time-step for ionic-motion
   TEIN   =    0.0    initial temperature
   TEBEG  =    0.0;   TEEND  =   0.0 temperature during run
   SMASS  =  -3.00    Nose mass-parameter (am)
   estimated Nose-frequenzy (Omega)   =  0.10E-29 period in steps =****** mass=  -0.393E-26a.u.
   SCALEE = 1.0000    scale energy and forces
   NPACO  =    256;   APACO  = 16.0  distance and # of slots for P.C.
   PSTRESS=    0.0 pullay stress

  Mass of Ions in am
   POMASS =  24.30 26.98 78.96
  Ionic Valenz
   ZVAL   =   2.00  3.00  6.00
  Atomic Wigner-Seitz radii
   RWIGS  =  -1.00 -1.00 -1.00
  virtual crystal weights 
   VCA    =   1.00  1.00  1.00
   NELECT =      32.0000    total number of electrons
   NUPDOWN=      -1.0000    fix difference up-down

 DOS related values:
   EMIN   =  10.00;   EMAX   =-10.00  energy-range for DOS
   EFERMI =   0.00
   ISMEAR =     0;   SIGMA  =   0.10  broadening in eV -4-tet -1-fermi 0-gaus

 Electronic relaxation 2 (details)
   IALGO  =     38    algorithm
   LDIAG  =      T    sub-space diagonalisation (order eigenvalues)
   LSUBROT=      F    optimize rotation matrix (better conditioning)
   TURBO    =      0    0=normal 1=particle mesh
   IRESTART =      0    0=no restart 2=restart with 2 vectors
   NREBOOT  =      0    no. of reboots
   NMIN     =      0    reboot dimension
   EREF     =   0.00    reference energy to select bands
   IMIX   =      4    mixing-type and parameters
     AMIX     =   0.40;   BMIX     =  1.00
     AMIX_MAG =   1.60;   BMIX_MAG =  1.00
     AMIN     =   0.10
     WC   =   100.;   INIMIX=   1;  MIXPRE=   1;  MAXMIX= -45

 Intra band minimization:
   WEIMIN = 0.0010     energy-eigenvalue tresh-hold
   EBREAK =  0.56E-08  absolut break condition
   DEPER  =   0.30     relativ break condition  

   TIME   =   0.40     timestep for ELM

  volume/ion in A,a.u.               =      23.95       161.62
  Fermi-wavevector in a.u.,A,eV,Ry     =   0.942595  1.781246 12.088572  0.888485
  Thomas-Fermi vector in A             =   2.070220
 
 Write flags
   LWAVE        =      T    write WAVECAR
   LDOWNSAMPLE  =      F    k-point downsampling of WAVECAR
   LCHARG       =      F    write CHGCAR
   LVTOT        =      F    write LOCPOT, total local potential
   LVHAR        =      F    write LOCPOT, Hartree potential only
   LELF         =      F    write electronic localiz. function (ELF)
   LORBIT       =     12    0 simple, 1 ext, 2 COOP (PROOUT), +10 PAW based schemes


 Dipole corrections
   LMONO  =      F    monopole corrections only (constant potential shift)
   LDIPOL =      F    correct potential (dipole corrections)
   IDIPOL =      0    1-x, 2-y, 3-z, 4-all directions 
   EPSILON=  1.0000000 bulk dielectric constant

 Exchange correlation treatment:
   GGA     =    PS    GGA type
   LEXCH   =    14    internal setting for exchange type
   VOSKOWN=      0    Vosko Wilk Nusair interpolation
   LHFCALC =     F    Hartree Fock is set to
   LHFONE  =     F    Hartree Fock one center treatment
   AEXX    =    0.0000 exact exchange contribution

 Linear response parameters
   LEPSILON=     F    determine dielectric tensor
   LRPA    =     F    only Hartree local field effects (RPA)
   LNABLA  =     F    use nabla operator in PAW spheres
   LVEL    =     F    velocity operator in full k-point grid
   LINTERFAST=   F  fast interpolation
   KINTER  =     0    interpolate to denser k-point grid
   CSHIFT  =0.1000    complex shift for real part using Kramers Kronig
   OMEGAMAX=  -1.0    maximum frequency
   DEG_THRESHOLD= 0.2000000E-02 threshold for treating states as degnerate
   RTIME   =   -0.100 relaxation time in fs
  (WPLASMAI=    0.000 imaginary part of plasma frequency in eV, 0.658/RTIME)
   DFIELD  = 0.0000000 0.0000000 0.0000000 field for delta impulse in time
 
 Orbital magnetization related:
   ORBITALMAG=     F  switch on orbital magnetization
   LCHIMAG   =     F  perturbation theory with respect to B field
   DQ        =  0.001000  dq finite difference perturbation B field
   LLRAUG    =     F  two centre corrections for induced B field



--------------------------------------------------------------------------------------------------------


 conjugate gradient relaxation of ions
 charge density and potential will be updated during run
 non-spin polarized calculation
 Variant of blocked Davidson
 Davidson routine will perform the subspace rotation
 perform sub-space diagonalisation
    after iterative eigenvector-optimisation
 modified Broyden-mixing scheme, WC =      100.0
 initial mixing is a Kerker type mixing with AMIX =  0.4000 and BMIX =      1.0000
 Hartree-type preconditioning will be used
 using additional bands           29
 reciprocal scheme for non local part
 use partial core corrections
 calculate Harris-corrections to forces 
   (improved forces if not selfconsistent)
 use gradient corrections 
 use of overlap-Matrix (Vanderbilt PP)
 Gauss-broadening in eV      SIGMA  =   0.10


--------------------------------------------------------------------------------------------------------


  energy-cutoff  :      240.30
  volume of cell :      167.65
      direct lattice vectors                 reciprocal lattice vectors
     1.934753000  1.117030000 12.928781000     0.258430921  0.149205139  0.025782275
    -1.934753000  1.117030000 12.928781000    -0.258430921  0.149205139  0.025782275
     0.000000000 -2.234061000 12.928781000     0.000000000 -0.298410279  0.025782263

  length of vectors
    13.120381219 13.120381219 13.120381347     0.299522020  0.299522020  0.299521985


 
 k-points in units of 2pi/SCALE and weight: Generated by Obadb. Formula: Mg(AlSe2)2 
   0.00000000  0.00000000  0.00000000       0.005
   0.04307182  0.02486752  0.00429705       0.028
   0.08614364  0.04973505  0.00859409       0.028
   0.12921546  0.07460257  0.01289114       0.014
   0.00000000  0.04973505  0.00859409       0.028
   0.04307182  0.07460257  0.01289114       0.056
   0.08614364  0.09947009  0.01718818       0.056
  -0.12921546 -0.02486752 -0.00429705       0.056
  -0.08614364  0.00000000  0.00000000       0.028
   0.00000000  0.09947009  0.01718818       0.028
   0.04307182  0.12433762  0.02148523       0.056
  -0.17228728  0.00000000  0.00000000       0.028
   0.00000000  0.14920514  0.02578227       0.014
   0.00000000  0.00000000  0.01289114       0.009
   0.04307182  0.02486752  0.01718818       0.028
   0.08614364  0.04973505  0.02148523       0.028
  -0.12921546 -0.07460257 -0.00000000       0.028
  -0.08614364 -0.04973505  0.00429704       0.028
   0.00000000  0.04973505  0.02148523       0.028
   0.04307182  0.07460257  0.02578227       0.056
  -0.17228728 -0.04973505  0.00429704       0.056
  -0.12921546 -0.02486752  0.00859409       0.056
   0.00000000  0.09947009  0.03007932       0.028
  -0.21535910 -0.02486752  0.00859409       0.056
  -0.17228728  0.00000000  0.01289114       0.028
   0.00000000 -0.14920514 -0.01289114       0.028
   0.00000000  0.00000000  0.02578227       0.009
   0.04307182  0.02486752  0.03007932       0.028
  -0.17228728 -0.09947009  0.00859409       0.028
   0.00000000  0.04973505  0.03437636       0.028
  -0.21535910 -0.07460257  0.01289113       0.028
   0.00000000  0.00000000  0.03867341       0.005
   0.00000000  0.00000000  0.00000000       0.000
   0.00000000  0.00000000  0.00552477       0.000
   0.00000000  0.00000000  0.01104954       0.000
   0.00000000  0.00000000  0.01657432       0.000
   0.00000000  0.00000000  0.02209909       0.000
   0.00000000  0.00000000  0.02762386       0.000
   0.00000000  0.00000000  0.03314863       0.000
   0.00000000  0.00000000  0.03867341       0.000
   0.00499162  0.00000000  0.03867341       0.000
   0.00998324  0.00000000  0.03867341       0.000
   0.01497486 -0.00000000  0.03867341       0.000
   0.01996648  0.00000000  0.03867341       0.000
   0.02495811  0.00000000  0.03867341       0.000
   0.02994973  0.00000000  0.03867341       0.000
   0.03494135 -0.00000000  0.03867341       0.000
   0.03993297  0.00000000  0.03867341       0.000
   0.04492459  0.00000000  0.03867341       0.000
   0.04991621  0.00000000  0.03867341       0.000
   0.05490783  0.00000000  0.03867341       0.000
   0.05989945  0.00000000  0.03867341       0.000
   0.06489108  0.00000000  0.03867341       0.000
   0.06988270  0.00000000  0.03867341       0.000
   0.07487432 -0.00000000  0.03867341       0.000
   0.07986594  0.00000000  0.03867341       0.000
   0.08485756  0.00000000  0.03867341       0.000
   0.08984918  0.00000000  0.03867341       0.000
   0.09484080  0.00000000  0.03867341       0.000
   0.09983242  0.00000000  0.03867341       0.000
   0.10482405  0.00000000  0.03867341       0.000
   0.10981567  0.00000000  0.03867341       0.000
   0.11480729 -0.00000000  0.03867341       0.000
   0.11979891  0.00000000  0.03867341       0.000
   0.12479053  0.00000000  0.03867341       0.000
   0.12978215  0.00000000  0.03867341       0.000
   0.13477377  0.00000000  0.03867341       0.000
   0.13976539  0.00000000  0.03867341       0.000
   0.14475701  0.00000000  0.03867341       0.000
   0.14974864  0.00000000  0.03867341       0.000
   0.15474026  0.00000000  0.03867341       0.000
   0.15973188  0.00000000  0.03867341       0.000
   0.16472350  0.00000000  0.03867341       0.000
   0.16971512  0.00000000  0.03867341       0.000
   0.17357336 -0.00222756  0.01289114       0.000
   0.17096407  0.00229186  0.01289114       0.000
   0.16835478  0.00681128  0.01289114       0.000
   0.16574550  0.01133070  0.01289114       0.000
   0.16313621  0.01585012  0.01289114       0.000
   0.16052692  0.02036954  0.01289114       0.000
   0.15791763  0.02488896  0.01289114       0.000
   0.15530834  0.02940838  0.01289114       0.000
   0.15269905  0.03392780  0.01289114       0.000
   0.15008977  0.03844722  0.01289114       0.000
   0.14748048  0.04296664  0.01289114       0.000
   0.14487119  0.04748605  0.01289114       0.000
   0.14226190  0.05200547  0.01289114       0.000
   0.13965261  0.05652489  0.01289114       0.000
   0.13704333  0.06104431  0.01289114       0.000
   0.13443404  0.06556373  0.01289114       0.000
   0.13182475  0.07008315  0.01289114       0.000
   0.12921546  0.07460257  0.01289114       0.000
   0.12490828  0.07211582  0.01246143       0.000
   0.12060110  0.06962907  0.01203173       0.000
   0.11629391  0.06714231  0.01160202       0.000
   0.11198673  0.06465556  0.01117232       0.000
   0.10767955  0.06216881  0.01074261       0.000
   0.10337237  0.05968206  0.01031291       0.000
   0.09906519  0.05719530  0.00988321       0.000
   0.09475800  0.05470855  0.00945350       0.000
   0.09045082  0.05222180  0.00902380       0.000
   0.08614364  0.04973505  0.00859409       0.000
   0.08183646  0.04724829  0.00816439       0.000
   0.07752928  0.04476154  0.00773468       0.000
   0.07322209  0.04227479  0.00730498       0.000
   0.06891491  0.03978804  0.00687527       0.000
   0.06460773  0.03730128  0.00644557       0.000
   0.06030055  0.03481453  0.00601586       0.000
   0.05599337  0.03232778  0.00558616       0.000
   0.05168618  0.02984103  0.00515645       0.000
   0.04737900  0.02735428  0.00472675       0.000
   0.04307182  0.02486752  0.00429705       0.000
   0.03876464  0.02238077  0.00386734       0.000
   0.03445746  0.01989402  0.00343764       0.000
   0.03015027  0.01740727  0.00300793       0.000
   0.02584309  0.01492051  0.00257823       0.000
   0.02153591  0.01243376  0.00214852       0.000
   0.01722873  0.00994701  0.00171882       0.000
   0.01292155  0.00746026  0.00128911       0.000
   0.00861436  0.00497350  0.00085941       0.000
   0.00430718  0.00248675  0.00042970       0.000
   0.00000000  0.00000000  0.00000000       0.000
   0.00495924  0.00000000  0.00000000       0.000
   0.00991848  0.00000000  0.00000000       0.000
   0.01487772  0.00000000  0.00000000       0.000
   0.01983696  0.00000000  0.00000000       0.000
   0.02479619  0.00000000  0.00000000       0.000
   0.02975543  0.00000000  0.00000000       0.000
   0.03471467  0.00000000  0.00000000       0.000
   0.03967391  0.00000000  0.00000000       0.000
   0.04463315  0.00000000  0.00000000       0.000
   0.04959239  0.00000000  0.00000000       0.000
   0.05455163  0.00000000  0.00000000       0.000
   0.05951087  0.00000000  0.00000000       0.000
   0.06447011  0.00000000  0.00000000       0.000
   0.06942934  0.00000000  0.00000000       0.000
   0.07438858  0.00000000  0.00000000       0.000
   0.07934782  0.00000000  0.00000000       0.000
   0.08430706  0.00000000  0.00000000       0.000
   0.08926630  0.00000000  0.00000000       0.000
   0.09422554  0.00000000  0.00000000       0.000
   0.09918478  0.00000000  0.00000000       0.000
   0.10414402  0.00000000  0.00000000       0.000
   0.10910326  0.00000000  0.00000000       0.000
   0.11406249  0.00000000  0.00000000       0.000
   0.11902173  0.00000000  0.00000000       0.000
   0.12398097  0.00000000  0.00000000       0.000
   0.12894021  0.00000000  0.00000000       0.000
   0.13389945  0.00000000  0.00000000       0.000
   0.13885869  0.00000000  0.00000000       0.000
   0.14381793  0.00000000  0.00000000       0.000
   0.14877717  0.00000000  0.00000000       0.000
   0.15373641  0.00000000  0.00000000       0.000
   0.15869564  0.00000000  0.00000000       0.000
   0.16365488  0.00000000  0.00000000       0.000
   0.16861412  0.00000000  0.00000000       0.000
   0.17357336  0.00000000  0.00000000       0.000
   0.17164424 -0.00111378  0.02578227       0.000
   0.16899244 -0.00570683  0.02578227       0.000
   0.16634064 -0.01029988  0.02578227       0.000
   0.16368884 -0.01489293  0.02578227       0.000
   0.16103705 -0.01948598  0.02578227       0.000
   0.15838525 -0.02407903  0.02578227       0.000
   0.15573345 -0.02867207  0.02578227       0.000
   0.15308165 -0.03326512  0.02578227       0.000
   0.15042985 -0.03785817  0.02578227       0.000
   0.14777805 -0.04245122  0.02578227       0.000
   0.14512625 -0.04704427  0.02578227       0.000
   0.14247445 -0.05163732  0.02578227       0.000
   0.13982266 -0.05623037  0.02578227       0.000
   0.13717086 -0.06082342  0.02578227       0.000
   0.13451906 -0.06541647  0.02578227       0.000
   0.13186726 -0.07000952  0.02578227       0.000
   0.12921546 -0.07460257  0.02578227       0.000
   0.12490828 -0.07211582  0.02492286       0.000
   0.12060110 -0.06962907  0.02406345       0.000
   0.11629391 -0.06714231  0.02320404       0.000
   0.11198673 -0.06465556  0.02234463       0.000
   0.10767955 -0.06216881  0.02148522       0.000
   0.10337237 -0.05968206  0.02062582       0.000
   0.09906519 -0.05719530  0.01976641       0.000
   0.09475800 -0.05470855  0.01890700       0.000
   0.09045082 -0.05222180  0.01804759       0.000
   0.08614364 -0.04973505  0.01718818       0.000
   0.08183646 -0.04724829  0.01632877       0.000
   0.07752928 -0.04476154  0.01546936       0.000
   0.07322209 -0.04227479  0.01460995       0.000
   0.06891491 -0.03978804  0.01375054       0.000
   0.06460773 -0.03730128  0.01289113       0.000
   0.06030055 -0.03481453  0.01203173       0.000
   0.05599337 -0.03232778  0.01117232       0.000
   0.05168618 -0.02984103  0.01031291       0.000
   0.04737900 -0.02735428  0.00945350       0.000
   0.04307182 -0.02486752  0.00859409       0.000
   0.03876464 -0.02238077  0.00773468       0.000
   0.03445746 -0.01989402  0.00687527       0.000
   0.03015027 -0.01740727  0.00601586       0.000
   0.02584309 -0.01492051  0.00515645       0.000
   0.02153591 -0.01243376  0.00429704       0.000
   0.01722873 -0.00994701  0.00343764       0.000
   0.01292155 -0.00746026  0.00257823       0.000
   0.00861436 -0.00497350  0.00171882       0.000
   0.00430718 -0.00248675  0.00085941       0.000
   0.00000000  0.00000000  0.00000000       0.000
 
 k-points in reciprocal lattice and weights: Generated by Obadb. Formula: Mg(AlSe2)2 
   0.00000000  0.00000000  0.00000000       0.005
   0.16666667  0.00000000  0.00000000       0.028
   0.33333333  0.00000000  0.00000000       0.028
   0.50000000  0.00000000  0.00000000       0.014
   0.16666667  0.16666667  0.00000000       0.028
   0.33333333  0.16666667  0.00000000       0.056
   0.50000000  0.16666667  0.00000000       0.056
  -0.33333333  0.16666667  0.00000000       0.056
  -0.16666667  0.16666667  0.00000000       0.028
   0.33333333  0.33333333  0.00000000       0.028
   0.50000000  0.33333333  0.00000000       0.056
  -0.33333333  0.33333333  0.00000000       0.028
   0.50000000  0.50000000  0.00000000       0.014
   0.16666667  0.16666667  0.16666667       0.009
   0.33333333  0.16666667  0.16666667       0.028
   0.50000000  0.16666667  0.16666667       0.028
  -0.33333333  0.16666667  0.16666667       0.028
  -0.16666667  0.16666667  0.16666667       0.028
   0.33333333  0.33333333  0.16666667       0.028
   0.50000000  0.33333333  0.16666667       0.056
  -0.33333333  0.33333333  0.16666667       0.056
  -0.16666667  0.33333333  0.16666667       0.056
   0.50000000  0.50000000  0.16666667       0.028
  -0.33333333  0.50000000  0.16666667       0.056
  -0.16666667  0.50000000  0.16666667       0.028
  -0.33333333 -0.33333333  0.16666667       0.028
   0.33333333  0.33333333  0.33333333       0.009
   0.50000000  0.33333333  0.33333333       0.028
  -0.33333333  0.33333333  0.33333333       0.028
   0.50000000  0.50000000  0.33333333       0.028
  -0.33333333  0.50000000  0.33333333       0.028
   0.50000000  0.50000000  0.50000000       0.005
   0.00000000  0.00000000  0.00000000       0.000
   0.07142857  0.07142857  0.07142857       0.000
   0.14285714  0.14285714  0.14285714       0.000
   0.21428571  0.21428571  0.21428571       0.000
   0.28571429  0.28571429  0.28571429       0.000
   0.35714286  0.35714286  0.35714286       0.000
   0.42857143  0.42857143  0.42857143       0.000
   0.50000000  0.50000000  0.50000000       0.000
   0.50965755  0.49034245  0.50000000       0.000
   0.51931511  0.48068489  0.50000000       0.000
   0.52897266  0.47102734  0.50000000       0.000
   0.53863022  0.46136978  0.50000000       0.000
   0.54828777  0.45171223  0.50000000       0.000
   0.55794532  0.44205468  0.50000000       0.000
   0.56760288  0.43239712  0.50000000       0.000
   0.57726043  0.42273957  0.50000000       0.000
   0.58691799  0.41308201  0.50000000       0.000
   0.59657554  0.40342446  0.50000000       0.000
   0.60623309  0.39376691  0.50000000       0.000
   0.61589065  0.38410935  0.50000000       0.000
   0.62554820  0.37445180  0.50000000       0.000
   0.63520576  0.36479424  0.50000000       0.000
   0.64486331  0.35513669  0.50000000       0.000
   0.65452087  0.34547913  0.50000000       0.000
   0.66417842  0.33582158  0.50000000       0.000
   0.67383597  0.32616403  0.50000000       0.000
   0.68349353  0.31650647  0.50000000       0.000
   0.69315108  0.30684892  0.50000000       0.000
   0.70280864  0.29719136  0.50000000       0.000
   0.71246619  0.28753381  0.50000000       0.000
   0.72212374  0.27787626  0.50000000       0.000
   0.73178130  0.26821870  0.50000000       0.000
   0.74143885  0.25856115  0.50000000       0.000
   0.75109641  0.24890359  0.50000000       0.000
   0.76075396  0.23924604  0.50000000       0.000
   0.77041151  0.22958849  0.50000000       0.000
   0.78006907  0.21993093  0.50000000       0.000
   0.78972662  0.21027338  0.50000000       0.000
   0.79938418  0.20061582  0.50000000       0.000
   0.80904173  0.19095827  0.50000000       0.000
   0.81869928  0.18130072  0.50000000       0.000
   0.82835684  0.17164316  0.50000000       0.000
   0.50000000 -0.17164316  0.17164316       0.000
   0.50000000 -0.16154650  0.16154650       0.000
   0.50000000 -0.15144985  0.15144985       0.000
   0.50000000 -0.14135319  0.14135319       0.000
   0.50000000 -0.13125654  0.13125654       0.000
   0.50000000 -0.12115988  0.12115988       0.000
   0.50000000 -0.11106322  0.11106322       0.000
   0.50000000 -0.10096657  0.10096657       0.000
   0.50000000 -0.09086991  0.09086991       0.000
   0.50000000 -0.08077325  0.08077325       0.000
   0.50000000 -0.07067660  0.07067660       0.000
   0.50000000 -0.06057994  0.06057994       0.000
   0.50000000 -0.05048328  0.05048328       0.000
   0.50000000 -0.04038663  0.04038663       0.000
   0.50000000 -0.03028997  0.03028997       0.000
   0.50000000 -0.02019331  0.02019331       0.000
   0.50000000 -0.01009666  0.01009666       0.000
   0.50000000  0.00000000  0.00000000       0.000
   0.48333333  0.00000000  0.00000000       0.000
   0.46666667  0.00000000  0.00000000       0.000
   0.45000000  0.00000000  0.00000000       0.000
   0.43333333  0.00000000  0.00000000       0.000
   0.41666667  0.00000000  0.00000000       0.000
   0.40000000  0.00000000  0.00000000       0.000
   0.38333333  0.00000000  0.00000000       0.000
   0.36666667  0.00000000  0.00000000       0.000
   0.35000000  0.00000000  0.00000000       0.000
   0.33333333  0.00000000  0.00000000       0.000
   0.31666667  0.00000000  0.00000000       0.000
   0.30000000  0.00000000  0.00000000       0.000
   0.28333333  0.00000000  0.00000000       0.000
   0.26666667  0.00000000  0.00000000       0.000
   0.25000000  0.00000000  0.00000000       0.000
   0.23333333  0.00000000  0.00000000       0.000
   0.21666667  0.00000000  0.00000000       0.000
   0.20000000  0.00000000  0.00000000       0.000
   0.18333333  0.00000000  0.00000000       0.000
   0.16666667  0.00000000  0.00000000       0.000
   0.15000000  0.00000000  0.00000000       0.000
   0.13333333  0.00000000  0.00000000       0.000
   0.11666667  0.00000000  0.00000000       0.000
   0.10000000  0.00000000  0.00000000       0.000
   0.08333333  0.00000000  0.00000000       0.000
   0.06666667  0.00000000  0.00000000       0.000
   0.05000000  0.00000000  0.00000000       0.000
   0.03333333  0.00000000  0.00000000       0.000
   0.01666667  0.00000000  0.00000000       0.000
   0.00000000  0.00000000  0.00000000       0.000
   0.00959490 -0.00959490  0.00000000       0.000
   0.01918980 -0.01918980  0.00000000       0.000
   0.02878471 -0.02878471  0.00000000       0.000
   0.03837961 -0.03837961  0.00000000       0.000
   0.04797451 -0.04797451  0.00000000       0.000
   0.05756941 -0.05756941  0.00000000       0.000
   0.06716432 -0.06716432  0.00000000       0.000
   0.07675922 -0.07675922  0.00000000       0.000
   0.08635412 -0.08635412  0.00000000       0.000
   0.09594902 -0.09594902  0.00000000       0.000
   0.10554393 -0.10554393  0.00000000       0.000
   0.11513883 -0.11513883  0.00000000       0.000
   0.12473373 -0.12473373  0.00000000       0.000
   0.13432863 -0.13432863  0.00000000       0.000
   0.14392353 -0.14392353  0.00000000       0.000
   0.15351844 -0.15351844  0.00000000       0.000
   0.16311334 -0.16311334  0.00000000       0.000
   0.17270824 -0.17270824  0.00000000       0.000
   0.18230314 -0.18230314  0.00000000       0.000
   0.19189805 -0.19189805  0.00000000       0.000
   0.20149295 -0.20149295  0.00000000       0.000
   0.21108785 -0.21108785  0.00000000       0.000
   0.22068275 -0.22068275  0.00000000       0.000
   0.23027766 -0.23027766  0.00000000       0.000
   0.23987256 -0.23987256  0.00000000       0.000
   0.24946746 -0.24946746  0.00000000       0.000
   0.25906236 -0.25906236  0.00000000       0.000
   0.26865726 -0.26865726  0.00000000       0.000
   0.27825217 -0.27825217  0.00000000       0.000
   0.28784707 -0.28784707  0.00000000       0.000
   0.29744197 -0.29744197  0.00000000       0.000
   0.30703687 -0.30703687  0.00000000       0.000
   0.31663178 -0.31663178  0.00000000       0.000
   0.32622668 -0.32622668  0.00000000       0.000
   0.33582158 -0.33582158  0.00000000       0.000
   0.66417842  0.00000000  0.33582158       0.000
   0.65391727  0.00000000  0.34608273       0.000
   0.64365612  0.00000000  0.35634388       0.000
   0.63339497  0.00000000  0.36660503       0.000
   0.62313381  0.00000000  0.37686619       0.000
   0.61287266  0.00000000  0.38712734       0.000
   0.60261151  0.00000000  0.39738849       0.000
   0.59235036  0.00000000  0.40764964       0.000
   0.58208921  0.00000000  0.41791079       0.000
   0.57182806  0.00000000  0.42817194       0.000
   0.56156691  0.00000000  0.43843309       0.000
   0.55130576  0.00000000  0.44869424       0.000
   0.54104460  0.00000000  0.45895540       0.000
   0.53078345  0.00000000  0.46921655       0.000
   0.52052230  0.00000000  0.47947770       0.000
   0.51026115  0.00000000  0.48973885       0.000
   0.50000000  0.00000000  0.50000000       0.000
   0.48333333  0.00000000  0.48333333       0.000
   0.46666667  0.00000000  0.46666667       0.000
   0.45000000  0.00000000  0.45000000       0.000
   0.43333333  0.00000000  0.43333333       0.000
   0.41666667  0.00000000  0.41666667       0.000
   0.40000000  0.00000000  0.40000000       0.000
   0.38333333  0.00000000  0.38333333       0.000
   0.36666667  0.00000000  0.36666667       0.000
   0.35000000  0.00000000  0.35000000       0.000
   0.33333333  0.00000000  0.33333333       0.000
   0.31666667  0.00000000  0.31666667       0.000
   0.30000000  0.00000000  0.30000000       0.000
   0.28333333  0.00000000  0.28333333       0.000
   0.26666667  0.00000000  0.26666667       0.000
   0.25000000  0.00000000  0.25000000       0.000
   0.23333333  0.00000000  0.23333333       0.000
   0.21666667  0.00000000  0.21666667       0.000
   0.20000000  0.00000000  0.20000000       0.000
   0.18333333  0.00000000  0.18333333       0.000
   0.16666667  0.00000000  0.16666667       0.000
   0.15000000  0.00000000  0.15000000       0.000
   0.13333333  0.00000000  0.13333333       0.000
   0.11666667  0.00000000  0.11666667       0.000
   0.10000000  0.00000000  0.10000000       0.000
   0.08333333  0.00000000  0.08333333       0.000
   0.06666667  0.00000000  0.06666667       0.000
   0.05000000  0.00000000  0.05000000       0.000
   0.03333333  0.00000000  0.03333333       0.000
   0.01666667  0.00000000  0.01666667       0.000
   0.00000000  0.00000000  0.00000000       0.000
 
 position of ions in fractional coordinates (direct lattice) 
   0.50000000  0.50000000  0.50000000
   0.73746000  0.73746000  0.73746000
   0.26254000  0.26254000  0.26254000
   0.20333100  0.20333100  0.20333100
   0.79666900  0.79666900  0.79666900
   0.62361300  0.62361300  0.62361300
   0.37638700  0.37638700  0.37638700
 
 position of ions in cartesian coordinates  (Angst):
   0.00000000 -0.00000050 19.39317150
   0.00000000 -0.00000074 28.60337651
   0.00000000 -0.00000026 10.18296649
   0.00000000 -0.00000020  7.88646591
   0.00000000 -0.00000080 30.89987709
   0.00000000 -0.00000062 24.18766772
   0.00000000 -0.00000038 14.59867528
 


--------------------------------------------------------------------------------------------------------


 k-point  1 :   0.0000 0.0000 0.0000  plane waves:    1407
 k-point  2 :   0.1667 0.0000 0.0000  plane waves:    1409
 k-point  3 :   0.3333 0.0000 0.0000  plane waves:    1410
 k-point  4 :   0.5000 0.0000 0.0000  plane waves:    1430
 k-point  5 :   0.1667 0.1667 0.0000  plane waves:    1413
 k-point  6 :   0.3333 0.1667 0.0000  plane waves:    1407
 k-point  7 :   0.5000 0.1667 0.0000  plane waves:    1427
 k-point  8 :  -0.3333 0.1667 0.0000  plane waves:    1425
 k-point  9 :  -0.1667 0.1667 0.0000  plane waves:    1409
 k-point 10 :   0.3333 0.3333 0.0000  plane waves:    1423
 k-point 11 :   0.5000 0.3333 0.0000  plane waves:    1435
 k-point 12 :  -0.3333 0.3333 0.0000  plane waves:    1437
 k-point 13 :   0.5000 0.5000 0.0000  plane waves:    1410
 k-point 14 :   0.1667 0.1667 0.1667  plane waves:    1407
 k-point 15 :   0.3333 0.1667 0.1667  plane waves:    1407
 k-point 16 :   0.5000 0.1667 0.1667  plane waves:    1416
 k-point 17 :  -0.3333 0.1667 0.1667  plane waves:    1427
 k-point 18 :  -0.1667 0.1667 0.1667  plane waves:    1424
 k-point 19 :   0.3333 0.3333 0.1667  plane waves:    1410
 k-point 20 :   0.5000 0.3333 0.1667  plane waves:    1408
 k-point 21 :  -0.3333 0.3333 0.1667  plane waves:    1425
 k-point 22 :  -0.1667 0.3333 0.1667  plane waves:    1431
 k-point 23 :   0.5000 0.5000 0.1667  plane waves:    1404
 k-point 24 :  -0.3333 0.5000 0.1667  plane waves:    1428
 k-point 25 :  -0.1667 0.5000 0.1667  plane waves:    1444
 k-point 26 :  -0.3333-0.3333 0.1667  plane waves:    1417
 k-point 27 :   0.3333 0.3333 0.3333  plane waves:    1404
 k-point 28 :   0.5000 0.3333 0.3333  plane waves:    1403
 k-point 29 :  -0.3333 0.3333 0.3333  plane waves:    1410
 k-point 30 :   0.5000 0.5000 0.3333  plane waves:    1414
 k-point 31 :  -0.3333 0.5000 0.3333  plane waves:    1404
 k-point 32 :   0.5000 0.5000 0.5000  plane waves:    1400
 k-point 33 :   0.0000 0.0000 0.0000  plane waves:    1407
 k-point 34 :   0.0714 0.0714 0.0714  plane waves:    1404
 k-point 35 :   0.1429 0.1429 0.1429  plane waves:    1407
 k-point 36 :   0.2143 0.2143 0.2143  plane waves:    1404
 k-point 37 :   0.2857 0.2857 0.2857  plane waves:    1401
 k-point 38 :   0.3571 0.3571 0.3571  plane waves:    1403
 k-point 39 :   0.4286 0.4286 0.4286  plane waves:    1391
 k-point 40 :   0.5000 0.5000 0.5000  plane waves:    1400
 k-point 41 :   0.5097 0.4903 0.5000  plane waves:    1396
 k-point 42 :   0.5193 0.4807 0.5000  plane waves:    1398
 k-point 43 :   0.5290 0.4710 0.5000  plane waves:    1406
 k-point 44 :   0.5386 0.4614 0.5000  plane waves:    1404
 k-point 45 :   0.5483 0.4517 0.5000  plane waves:    1406
 k-point 46 :   0.5579 0.4421 0.5000  plane waves:    1406
 k-point 47 :   0.5676 0.4324 0.5000  plane waves:    1404
 k-point 48 :   0.5773 0.4227 0.5000  plane waves:    1406
 k-point 49 :   0.5869 0.4131 0.5000  plane waves:    1410
 k-point 50 :   0.5966 0.4034 0.5000  plane waves:    1410
 k-point 51 :   0.6062 0.3938 0.5000  plane waves:    1410
 k-point 52 :   0.6159 0.3841 0.5000  plane waves:    1410
 k-point 53 :   0.6255 0.3745 0.5000  plane waves:    1412
 k-point 54 :   0.6352 0.3648 0.5000  plane waves:    1418
 k-point 55 :   0.6449 0.3551 0.5000  plane waves:    1414
 k-point 56 :   0.6545 0.3455 0.5000  plane waves:    1412
 k-point 57 :   0.6642 0.3358 0.5000  plane waves:    1404
 k-point 58 :   0.6738 0.3262 0.5000  plane waves:    1396
 k-point 59 :   0.6835 0.3165 0.5000  plane waves:    1398
 k-point 60 :   0.6932 0.3068 0.5000  plane waves:    1404
 k-point 61 :   0.7028 0.2972 0.5000  plane waves:    1408
 k-point 62 :   0.7125 0.2875 0.5000  plane waves:    1410
 k-point 63 :   0.7221 0.2779 0.5000  plane waves:    1414
 k-point 64 :   0.7318 0.2682 0.5000  plane waves:    1416
 k-point 65 :   0.7414 0.2586 0.5000  plane waves:    1418
 k-point 66 :   0.7511 0.2489 0.5000  plane waves:    1422
 k-point 67 :   0.7608 0.2392 0.5000  plane waves:    1424
 k-point 68 :   0.7704 0.2296 0.5000  plane waves:    1424
 k-point 69 :   0.7801 0.2199 0.5000  plane waves:    1432
 k-point 70 :   0.7897 0.2103 0.5000  plane waves:    1440
 k-point 71 :   0.7994 0.2006 0.5000  plane waves:    1442
 k-point 72 :   0.8090 0.1910 0.5000  plane waves:    1436
 k-point 73 :   0.8187 0.1813 0.5000  plane waves:    1444
 k-point 74 :   0.8284 0.1716 0.5000  plane waves:    1448
 k-point 75 :   0.5000-0.1716 0.1716  plane waves:    1448
 k-point 76 :   0.5000-0.1615 0.1615  plane waves:    1442
 k-point 77 :   0.5000-0.1514 0.1514  plane waves:    1442
 k-point 78 :   0.5000-0.1414 0.1414  plane waves:    1442
 k-point 79 :   0.5000-0.1313 0.1313  plane waves:    1440
 k-point 80 :   0.5000-0.1212 0.1212  plane waves:    1434
 k-point 81 :   0.5000-0.1111 0.1111  plane waves:    1432
 k-point 82 :   0.5000-0.1010 0.1010  plane waves:    1430
 k-point 83 :   0.5000-0.0909 0.0909  plane waves:    1426
 k-point 84 :   0.5000-0.0808 0.0808  plane waves:    1428
 k-point 85 :   0.5000-0.0707 0.0707  plane waves:    1426
 k-point 86 :   0.5000-0.0606 0.0606  plane waves:    1430
 k-point 87 :   0.5000-0.0505 0.0505  plane waves:    1428
 k-point 88 :   0.5000-0.0404 0.0404  plane waves:    1426
 k-point 89 :   0.5000-0.0303 0.0303  plane waves:    1426
 k-point 90 :   0.5000-0.0202 0.0202  plane waves:    1428
 k-point 91 :   0.5000-0.0101 0.0101  plane waves:    1430
 k-point 92 :   0.5000 0.0000 0.0000  plane waves:    1430
 k-point 93 :   0.4833 0.0000 0.0000  plane waves:    1426
 k-point 94 :   0.4667 0.0000 0.0000  plane waves:    1418
 k-point 95 :   0.4500 0.0000 0.0000  plane waves:    1422
 k-point 96 :   0.4333 0.0000 0.0000  plane waves:    1420
 k-point 97 :   0.4167 0.0000 0.0000  plane waves:    1422
 k-point 98 :   0.4000 0.0000 0.0000  plane waves:    1420
 k-point 99 :   0.3833 0.0000 0.0000  plane waves:    1427
 k-point ** :   0.3667 0.0000 0.0000  plane waves:    1425
 k-point ** :   0.3500 0.0000 0.0000  plane waves:    1415
 k-point ** :   0.3333 0.0000 0.0000  plane waves:    1410
 k-point ** :   0.3167 0.0000 0.0000  plane waves:    1413
 k-point ** :   0.3000 0.0000 0.0000  plane waves:    1411
 k-point ** :   0.2833 0.0000 0.0000  plane waves:    1413
 k-point ** :   0.2667 0.0000 0.0000  plane waves:    1412
 k-point ** :   0.2500 0.0000 0.0000  plane waves:    1410
 k-point ** :   0.2333 0.0000 0.0000  plane waves:    1417
 k-point ** :   0.2167 0.0000 0.0000  plane waves:    1417
 k-point ** :   0.2000 0.0000 0.0000  plane waves:    1413
 k-point ** :   0.1833 0.0000 0.0000  plane waves:    1414
 k-point ** :   0.1667 0.0000 0.0000  plane waves:    1409
 k-point ** :   0.1500 0.0000 0.0000  plane waves:    1403
 k-point ** :   0.1333 0.0000 0.0000  plane waves:    1393
 k-point ** :   0.1167 0.0000 0.0000  plane waves:    1397
 k-point ** :   0.1000 0.0000 0.0000  plane waves:    1399
 k-point ** :   0.0833 0.0000 0.0000  plane waves:    1402
 k-point ** :   0.0667 0.0000 0.0000  plane waves:    1401
 k-point ** :   0.0500 0.0000 0.0000  plane waves:    1404
 k-point ** :   0.0333 0.0000 0.0000  plane waves:    1409
 k-point ** :   0.0167 0.0000 0.0000  plane waves:    1406
 k-point ** :   0.0000 0.0000 0.0000  plane waves:    1407
 k-point ** :   0.0096-0.0096 0.0000  plane waves:    1407
 k-point ** :   0.0192-0.0192 0.0000  plane waves:    1409
 k-point ** :   0.0288-0.0288 0.0000  plane waves:    1403
 k-point ** :   0.0384-0.0384 0.0000  plane waves:    1405
 k-point ** :   0.0480-0.0480 0.0000  plane waves:    1401
 k-point ** :   0.0576-0.0576 0.0000  plane waves:    1397
 k-point ** :   0.0672-0.0672 0.0000  plane waves:    1405
 k-point ** :   0.0768-0.0768 0.0000  plane waves:    1409
 k-point ** :   0.0864-0.0864 0.0000  plane waves:    1407
 k-point ** :   0.0959-0.0959 0.0000  plane waves:    1407
 k-point ** :   0.1055-0.1055 0.0000  plane waves:    1409
 k-point ** :   0.1151-0.1151 0.0000  plane waves:    1405
 k-point ** :   0.1247-0.1247 0.0000  plane waves:    1409
 k-point ** :   0.1343-0.1343 0.0000  plane waves:    1405
 k-point ** :   0.1439-0.1439 0.0000  plane waves:    1409
 k-point ** :   0.1535-0.1535 0.0000  plane waves:    1409
 k-point ** :   0.1631-0.1631 0.0000  plane waves:    1409
 k-point ** :   0.1727-0.1727 0.0000  plane waves:    1411
 k-point ** :   0.1823-0.1823 0.0000  plane waves:    1415
 k-point ** :   0.1919-0.1919 0.0000  plane waves:    1419
 k-point ** :   0.2015-0.2015 0.0000  plane waves:    1421
 k-point ** :   0.2111-0.2111 0.0000  plane waves:    1419
 k-point ** :   0.2207-0.2207 0.0000  plane waves:    1423
 k-point ** :   0.2303-0.2303 0.0000  plane waves:    1423
 k-point ** :   0.2399-0.2399 0.0000  plane waves:    1427
 k-point ** :   0.2495-0.2495 0.0000  plane waves:    1425
 k-point ** :   0.2591-0.2591 0.0000  plane waves:    1429
 k-point ** :   0.2687-0.2687 0.0000  plane waves:    1425
 k-point ** :   0.2783-0.2783 0.0000  plane waves:    1429
 k-point ** :   0.2878-0.2878 0.0000  plane waves:    1433
 k-point ** :   0.2974-0.2974 0.0000  plane waves:    1433
 k-point ** :   0.3070-0.3070 0.0000  plane waves:    1441
 k-point ** :   0.3166-0.3166 0.0000  plane waves:    1441
 k-point ** :   0.3262-0.3262 0.0000  plane waves:    1441
 k-point ** :   0.3358-0.3358 0.0000  plane waves:    1441
 k-point ** :   0.6642 0.0000 0.3358  plane waves:    1441
 k-point ** :   0.6539 0.0000 0.3461  plane waves:    1447
 k-point ** :   0.6437 0.0000 0.3563  plane waves:    1439
 k-point ** :   0.6334 0.0000 0.3666  plane waves:    1441
 k-point ** :   0.6231 0.0000 0.3769  plane waves:    1429
 k-point ** :   0.6129 0.0000 0.3871  plane waves:    1437
 k-point ** :   0.6026 0.0000 0.3974  plane waves:    1439
 k-point ** :   0.5924 0.0000 0.4076  plane waves:    1437
 k-point ** :   0.5821 0.0000 0.4179  plane waves:    1437
 k-point ** :   0.5718 0.0000 0.4282  plane waves:    1433
 k-point ** :   0.5616 0.0000 0.4384  plane waves:    1429
 k-point ** :   0.5513 0.0000 0.4487  plane waves:    1426
 k-point ** :   0.5410 0.0000 0.4590  plane waves:    1418
 k-point ** :   0.5308 0.0000 0.4692  plane waves:    1422
 k-point ** :   0.5205 0.0000 0.4795  plane waves:    1412
 k-point ** :   0.5103 0.0000 0.4897  plane waves:    1412
 k-point ** :   0.5000 0.0000 0.5000  plane waves:    1410
 k-point ** :   0.4833 0.0000 0.4833  plane waves:    1408
 k-point ** :   0.4667 0.0000 0.4667  plane waves:    1413
 k-point ** :   0.4500 0.0000 0.4500  plane waves:    1417
 k-point ** :   0.4333 0.0000 0.4333  plane waves:    1417
 k-point ** :   0.4167 0.0000 0.4167  plane waves:    1418
 k-point ** :   0.4000 0.0000 0.4000  plane waves:    1426
 k-point ** :   0.3833 0.0000 0.3833  plane waves:    1423
 k-point ** :   0.3667 0.0000 0.3667  plane waves:    1423
 k-point ** :   0.3500 0.0000 0.3500  plane waves:    1419
 k-point ** :   0.3333 0.0000 0.3333  plane waves:    1423
 k-point ** :   0.3167 0.0000 0.3167  plane waves:    1421
 k-point ** :   0.3000 0.0000 0.3000  plane waves:    1418
 k-point ** :   0.2833 0.0000 0.2833  plane waves:    1426
 k-point ** :   0.2667 0.0000 0.2667  plane waves:    1424
 k-point ** :   0.2500 0.0000 0.2500  plane waves:    1426
 k-point ** :   0.2333 0.0000 0.2333  plane waves:    1419
 k-point ** :   0.2167 0.0000 0.2167  plane waves:    1417
 k-point ** :   0.2000 0.0000 0.2000  plane waves:    1413
 k-point ** :   0.1833 0.0000 0.1833  plane waves:    1410
 k-point ** :   0.1667 0.0000 0.1667  plane waves:    1413
 k-point ** :   0.1500 0.0000 0.1500  plane waves:    1406
 k-point ** :   0.1333 0.0000 0.1333  plane waves:    1404
 k-point ** :   0.1167 0.0000 0.1167  plane waves:    1405
 k-point ** :   0.1000 0.0000 0.1000  plane waves:    1400
 k-point ** :   0.0833 0.0000 0.0833  plane waves:    1403
 k-point ** :   0.0667 0.0000 0.0667  plane waves:    1405
 k-point ** :   0.0500 0.0000 0.0500  plane waves:    1408
 k-point ** :   0.0333 0.0000 0.0333  plane waves:    1406
 k-point ** :   0.0167 0.0000 0.0167  plane waves:    1404
 k-point ** :   0.0000 0.0000 0.0000  plane waves:    1407

 maximum and minimum number of plane-waves per node :      1448     1391

 maximum number of plane-waves:      1448
 maximum index in each direction: 
   IXMAX=   16   IYMAX=   16   IZMAX=   16
   IXMIN=  -17   IYMIN=  -17   IZMIN=  -17


 serial   3D FFT for wavefunctions
 parallel 3D FFT for charge:
    minimum data exchange during FFTs selected (reduces bandwidth)


 total amount of memory used by VASP MPI-rank0   164790. kBytes
=======================================================================

   base      :      30000. kBytes
   nonl-proj :      92388. kBytes
   fftplans  :       4542. kBytes
   grid      :      12835. kBytes
   one-center:         56. kBytes
   wavefun   :      24969. kBytes
 
     INWAV:  cpu time    0.0000: real time    0.0002
 Broyden mixing: mesh for mixing (old mesh)
   NGX = 33   NGY = 33   NGZ = 33
  (NGX  =100   NGY  =100   NGZ  =100)
  gives a total of  35937 points

 initial charge density was supplied:
 charge density of overlapping atoms calculated
 number of electron      32.0000000 magnetization 
 keeping initial charge density in first step


--------------------------------------------------------------------------------------------------------


 Maximum index for augmentation-charges         3920 (set IRDMAX)


--------------------------------------------------------------------------------------------------------


 First call to EWALD:  gamma=   0.321
 Maximum number of real-space cells 4x 4x 4
 Maximum number of reciprocal cells 6x 6x 6

    FEWALD:  cpu time    0.0040: real time    0.0043


--------------------------------------- Iteration      1(   1)  ---------------------------------------


    POTLOK:  cpu time    0.0600: real time    0.0617
    SETDIJ:  cpu time    0.1040: real time    0.1025
     EDDAV:  cpu time    4.0840: real time    4.0891
       DOS:  cpu time    0.0000: real time    0.0022
    --------------------------------------------
      LOOP:  cpu time    4.2480: real time    4.2556

 eigenvalue-minimisations  : 18360
 total energy-change (2. order) : 0.7163377E+02  (-0.6998520E+03)
 number of electron      32.0000000 magnetization 
 augmentation part       32.0000000 magnetization 

 Free energy of the ion-electron system (eV)
  ---------------------------------------------------
  alpha Z        PSCENC =        48.24239677
  Ewald energy   TEWEN  =     -1077.08035916
  -Hartree energ DENC   =      -137.76588804
  -exchange      EXHF   =         0.00000000
  -V(xc)+E(xc)   XCENC  =       -99.47671059
  PAW double counting   =      1034.12950107     -865.48689718
  entropy T*S    EENTRO =        -0.00522167
  eigenvalues    EBANDS =        12.53267350
  atomic energy  EATOM  =      1156.54427203
  Solvation  Ediel_sol  =         0.00000000
  ---------------------------------------------------
  free energy    TOTEN  =        71.63376672 eV

  energy without entropy =       71.63898840  energy(sigma->0) =       71.63637756


--------------------------------------------------------------------------------------------------------




--------------------------------------- Iteration      1(   2)  ---------------------------------------


     EDDAV:  cpu time    4.8560: real time    4.8656
       DOS:  cpu time    0.0000: real time    0.0018
    --------------------------------------------
      LOOP:  cpu time    4.8560: real time    4.8674

 eigenvalue-minimisations  : 23310
 total energy-change (2. order) :-0.9882615E+02  (-0.9394001E+02)
 number of electron      32.0000000 magnetization 
 augmentation part       32.0000000 magnetization 

 Free energy of the ion-electron system (eV)
  ---------------------------------------------------
  alpha Z        PSCENC =        48.24239677
  Ewald energy   TEWEN  =     -1077.08035916
  -Hartree energ DENC   =      -137.76588804
  -exchange      EXHF   =         0.00000000
  -V(xc)+E(xc)   XCENC  =       -99.47671059
  PAW double counting   =      1034.12950107     -865.48689718
  entropy T*S    EENTRO =        -0.00000000
  eigenvalues    EBANDS =       -86.29870124
  atomic energy  EATOM  =      1156.54427203
  Solvation  Ediel_sol  =         0.00000000
  ---------------------------------------------------
  free energy    TOTEN  =       -27.19238634 eV

  energy without entropy =      -27.19238634  energy(sigma->0) =      -27.19238634


--------------------------------------------------------------------------------------------------------




--------------------------------------- Iteration      1(   3)  ---------------------------------------


     EDDAV:  cpu time    4.7320: real time    4.7386
       DOS:  cpu time    0.0040: real time    0.0018
    --------------------------------------------
      LOOP:  cpu time    4.7360: real time    4.7404

 eigenvalue-minimisations  : 22842
 total energy-change (2. order) :-0.5567848E+01  (-0.5527443E+01)
 number of electron      32.0000000 magnetization 
 augmentation part       32.0000000 magnetization 

 Free energy of the ion-electron system (eV)
  ---------------------------------------------------
  alpha Z        PSCENC =        48.24239677
  Ewald energy   TEWEN  =     -1077.08035916
  -Hartree energ DENC   =      -137.76588804
  -exchange      EXHF   =         0.00000000
  -V(xc)+E(xc)   XCENC  =       -99.47671059
  PAW double counting   =      1034.12950107     -865.48689718
  entropy T*S    EENTRO =        -0.00000000
  eigenvalues    EBANDS =       -91.86654921
  atomic energy  EATOM  =      1156.54427203
  Solvation  Ediel_sol  =         0.00000000
  ---------------------------------------------------
  free energy    TOTEN  =       -32.76023431 eV

  energy without entropy =      -32.76023431  energy(sigma->0) =      -32.76023431


--------------------------------------------------------------------------------------------------------




--------------------------------------- Iteration      1(   4)  ---------------------------------------


     EDDAV:  cpu time    4.5800: real time    4.5875
       DOS:  cpu time    0.0000: real time    0.0017
    --------------------------------------------
      LOOP:  cpu time    4.5800: real time    4.5892

 eigenvalue-minimisations  : 21816
 total energy-change (2. order) :-0.3796373E-01  (-0.3795968E-01)
 number of electron      32.0000000 magnetization 
 augmentation part       32.0000000 magnetization 

 Free energy of the ion-electron system (eV)
  ---------------------------------------------------
  alpha Z        PSCENC =        48.24239677
  Ewald energy   TEWEN  =     -1077.08035916
  -Hartree energ DENC   =      -137.76588804
  -exchange      EXHF   =         0.00000000
  -V(xc)+E(xc)   XCENC  =       -99.47671059
  PAW double counting   =      1034.12950107     -865.48689718
  entropy T*S    EENTRO =        -0.00000000
  eigenvalues    EBANDS =       -91.90451294
  atomic energy  EATOM  =      1156.54427203
  Solvation  Ediel_sol  =         0.00000000
  ---------------------------------------------------
  free energy    TOTEN  =       -32.79819805 eV

  energy without entropy =      -32.79819805  energy(sigma->0) =      -32.79819805


--------------------------------------------------------------------------------------------------------




--------------------------------------- Iteration      1(   5)  ---------------------------------------


     EDDAV:  cpu time    4.7720: real time    4.7751
       DOS:  cpu time    0.0000: real time    0.0019
    CHARGE:  cpu time    0.0600: real time    0.0605
    MIXING:  cpu time    0.0040: real time    0.0036
    --------------------------------------------
      LOOP:  cpu time    4.8360: real time    4.8410

 eigenvalue-minimisations  : 22932
 total energy-change (2. order) :-0.3853018E-03  (-0.3852989E-03)
 number of electron      31.9999937 magnetization 
 augmentation part       -4.6996605 magnetization 

 Broyden mixing:
  rms(total) = 0.70291E+00    rms(broyden)= 0.70287E+00
  rms(prec ) = 0.81257E+00
  weight for this iteration     100.00

 Free energy of the ion-electron system (eV)
  ---------------------------------------------------
  alpha Z        PSCENC =        48.24239677
  Ewald energy   TEWEN  =     -1077.08035916
  -Hartree energ DENC   =      -137.76588804
  -exchange      EXHF   =         0.00000000
  -V(xc)+E(xc)   XCENC  =       -99.47671059
  PAW double counting   =      1034.12950107     -865.48689718
  entropy T*S    EENTRO =        -0.00000000
  eigenvalues    EBANDS =       -91.90489824
  atomic energy  EATOM  =      1156.54427203
  Solvation  Ediel_sol  =         0.00000000
  ---------------------------------------------------
  free energy    TOTEN  =       -32.79858335 eV

  energy without entropy =      -32.79858335  energy(sigma->0) =      -32.79858335


--------------------------------------------------------------------------------------------------------




--------------------------------------- Iteration      1(   6)  ---------------------------------------


    POTLOK:  cpu time    0.0640: real time    0.0625
    SETDIJ:  cpu time    0.1080: real time    0.1084
     EDDAV:  cpu time    4.6120: real time    4.6207
       DOS:  cpu time    0.0000: real time    0.0018
    CHARGE:  cpu time    0.0600: real time    0.0592
    MIXING:  cpu time    0.0040: real time    0.0039
    --------------------------------------------
      LOOP:  cpu time    4.8480: real time    4.8564

 eigenvalue-minimisations  : 21843
 total energy-change (2. order) : 0.8396036E+00  (-0.4104626E-01)
 number of electron      31.9999939 magnetization 
 augmentation part       -4.6030618 magnetization 

 Broyden mixing:
  rms(total) = 0.43512E+00    rms(broyden)= 0.43511E+00
  rms(prec ) = 0.47850E+00
  weight for this iteration     100.00

 eigenvalues of (default mixing * dielectric matrix)
  average eigenvalue GAMMA=   2.2780
  2.2780

 Free energy of the ion-electron system (eV)
  ---------------------------------------------------
  alpha Z        PSCENC =        48.24239677
  Ewald energy   TEWEN  =     -1077.08035916
  -Hartree energ DENC   =      -147.48562569
  -exchange      EXHF   =         0.00000000
  -V(xc)+E(xc)   XCENC  =       -98.52771351
  PAW double counting   =      1359.52578913    -1191.32600094
  entropy T*S    EENTRO =        -0.00000000
  eigenvalues    EBANDS =       -81.85173842
  atomic energy  EATOM  =      1156.54427203
  Solvation  Ediel_sol  =         0.00000000
  ---------------------------------------------------
  free energy    TOTEN  =       -31.95897979 eV

  energy without entropy =      -31.95897979  energy(sigma->0) =      -31.95897979


--------------------------------------------------------------------------------------------------------




--------------------------------------- Iteration      1(   7)  ---------------------------------------


    POTLOK:  cpu time    0.0600: real time    0.0655
    SETDIJ:  cpu time    0.1080: real time    0.1071
     EDDAV:  cpu time    4.6960: real time    4.7003
       DOS:  cpu time    0.0040: real time    0.0017
    CHARGE:  cpu time    0.0560: real time    0.0590
    MIXING:  cpu time    0.0040: real time    0.0040
    --------------------------------------------
      LOOP:  cpu time    4.9280: real time    4.9376

 eigenvalue-minimisations  : 22482
 total energy-change (2. order) : 0.1548522E+00  (-0.6366661E-01)
 number of electron      31.9999940 magnetization 
 augmentation part       -4.5106790 magnetization 

 Broyden mixing:
  rms(total) = 0.13439E+00    rms(broyden)= 0.13438E+00
  rms(prec ) = 0.14637E+00
  weight for this iteration     100.00

 eigenvalues of (default mixing * dielectric matrix)
  average eigenvalue GAMMA=   2.0003
  1.8246  2.1760

 Free energy of the ion-electron system (eV)
  ---------------------------------------------------
  alpha Z        PSCENC =        48.24239677
  Ewald energy   TEWEN  =     -1077.08035916
  -Hartree energ DENC   =      -156.45617170
  -exchange      EXHF   =         0.00000000
  -V(xc)+E(xc)   XCENC  =       -97.44578427
  PAW double counting   =      1873.46728489    -1705.71284902
  entropy T*S    EENTRO =        -0.00000000
  eigenvalues    EBANDS =       -73.36291711
  atomic energy  EATOM  =      1156.54427203
  Solvation  Ediel_sol  =         0.00000000
  ---------------------------------------------------
  free energy    TOTEN  =       -31.80412758 eV

  energy without entropy =      -31.80412758  energy(sigma->0) =      -31.80412758


--------------------------------------------------------------------------------------------------------




--------------------------------------- Iteration      1(   8)  ---------------------------------------


    POTLOK:  cpu time    0.0600: real time    0.0617
    SETDIJ:  cpu time    0.1160: real time    0.1142
     EDDAV:  cpu time    4.4040: real time    4.4118
       DOS:  cpu time    0.0000: real time    0.0016
    CHARGE:  cpu time    0.0600: real time    0.0584
    MIXING:  cpu time    0.0040: real time    0.0039
    --------------------------------------------
      LOOP:  cpu time    4.6440: real time    4.6516

 eigenvalue-minimisations  : 20655
 total energy-change (2. order) : 0.9702805E-02  (-0.1204321E-01)
 number of electron      31.9999940 magnetization 
 augmentation part       -4.5333418 magnetization 

 Broyden mixing:
  rms(total) = 0.39566E-01    rms(broyden)= 0.39560E-01
  rms(prec ) = 0.45900E-01
  weight for this iteration     100.00

 eigenvalues of (default mixing * dielectric matrix)
  average eigenvalue GAMMA=   1.7542
  2.6037  1.3295  1.3295

 Free energy of the ion-electron system (eV)
  ---------------------------------------------------
  alpha Z        PSCENC =        48.24239677
  Ewald energy   TEWEN  =     -1077.08035916
  -Hartree energ DENC   =      -154.67846465
  -exchange      EXHF   =         0.00000000
  -V(xc)+E(xc)   XCENC  =       -97.42152408
  PAW double counting   =      1964.32027245    -1796.51962051
  entropy T*S    EENTRO =        -0.00000000
  eigenvalues    EBANDS =       -75.20139762
  atomic energy  EATOM  =      1156.54427203
  Solvation  Ediel_sol  =         0.00000000
  ---------------------------------------------------
  free energy    TOTEN  =       -31.79442477 eV

  energy without entropy =      -31.79442477  energy(sigma->0) =      -31.79442477


--------------------------------------------------------------------------------------------------------




--------------------------------------- Iteration      1(   9)  ---------------------------------------


    POTLOK:  cpu time    0.0600: real time    0.0645
    SETDIJ:  cpu time    0.1080: real time    0.1071
     EDDAV:  cpu time    4.7360: real time    4.7394
       DOS:  cpu time    0.0000: real time    0.0017
    CHARGE:  cpu time    0.0600: real time    0.0584
    MIXING:  cpu time    0.0040: real time    0.0042
    --------------------------------------------
      LOOP:  cpu time    4.9680: real time    4.9752

 eigenvalue-minimisations  : 22617
 total energy-change (2. order) : 0.1291116E-02  (-0.5370169E-03)
 number of electron      31.9999940 magnetization 
 augmentation part       -4.5317191 magnetization 

 Broyden mixing:
  rms(total) = 0.16966E-01    rms(broyden)= 0.16966E-01
  rms(prec ) = 0.18240E-01
  weight for this iteration     100.00

 eigenvalues of (default mixing * dielectric matrix)
  average eigenvalue GAMMA=   1.6555
  2.3614  1.6697  1.6697  0.9210

 Free energy of the ion-electron system (eV)
  ---------------------------------------------------
  alpha Z        PSCENC =        48.24239677
  Ewald energy   TEWEN  =     -1077.08035916
  -Hartree energ DENC   =      -155.43718072
  -exchange      EXHF   =         0.00000000
  -V(xc)+E(xc)   XCENC  =       -97.32112474
  PAW double counting   =      2007.82819394    -1840.05375348
  entropy T*S    EENTRO =        -0.00000000
  eigenvalues    EBANDS =       -74.51557829
  atomic energy  EATOM  =      1156.54427203
  Solvation  Ediel_sol  =         0.00000000
  ---------------------------------------------------
  free energy    TOTEN  =       -31.79313366 eV

  energy without entropy =      -31.79313366  energy(sigma->0) =      -31.79313366


[...]
      8       0.5356      2.00000
      9       0.5795      2.00000
     10       0.9390      2.00000
     11       1.0524      2.00000
     12       1.9077      2.00000
     13       2.2767      2.00000
     14       2.6086      2.00000
     15       2.7713      2.00000
     16       3.1623      2.00000
     17       4.9077      0.00000
     18       5.4319      0.00000
     19       7.0889      0.00000
     20       7.1733      0.00000
     21       7.4162      0.00000
     22       7.7120      0.00000
     23       7.8169      0.00000
     24       8.1379      0.00000
     25       8.7295      0.00000
     26       9.2994      0.00000
     27      10.1012      0.00000
     28      10.2286      0.00000
     29      10.5233      0.00000
     30      10.6940      0.00000
     31      10.8482      0.00000
     32      11.5409      0.00000
     33      11.8327      0.00000
     34      11.9704      0.00000
     35      12.2411      0.00000
     36      12.6975      0.00000
     37      13.2891      0.00000
     38      13.3713      0.00000
     39      13.6053      0.00000
     40      13.7776      0.00000
     41      14.5687      0.00000
     42      14.7548      0.00000
     43      15.0640      0.00000
     44      15.2394      0.00000
     45      16.4055      0.00000

 k-point   199 :       0.0833    0.0000    0.0833
  band No.  band energies     occupation 
      1     -10.8480      2.00000
      2     -10.6696      2.00000
      3      -9.6699      2.00000
      4      -8.9277      2.00000
      5      -2.6380      2.00000
      6      -1.3426      2.00000
      7      -0.1805      2.00000
      8       0.6913      2.00000
      9       0.7187      2.00000
     10       0.9777      2.00000
     11       1.0876      2.00000
     12       1.9360      2.00000
     13       2.4046      2.00000
     14       2.6458      2.00000
     15       2.8751      2.00000
     16       3.1706      2.00000
     17       4.7520      0.00000
     18       5.2965      0.00000
     19       7.1334      0.00000
     20       7.1755      0.00000
     21       7.4027      0.00000
     22       7.6368      0.00000
     23       7.7390      0.00000
     24       8.0100      0.00000
     25       8.7669      0.00000
     26       9.2917      0.00000
     27      10.2445      0.00000
     28      10.2909      0.00000
     29      10.5666      0.00000
     30      10.6596      0.00000
     31      10.8178      0.00000
     32      11.5158      0.00000
     33      11.8650      0.00000
     34      12.0957      0.00000
     35      12.3195      0.00000
     36      12.6918      0.00000
     37      13.1375      0.00000
     38      13.2274      0.00000
     39      13.5206      0.00000
     40      13.6276      0.00000
     41      14.4214      0.00000
     42      14.5952      0.00000
     43      14.9084      0.00000
     44      15.1434      0.00000
     45      16.2132      0.00000

 k-point   200 :       0.0667    0.0000    0.0667
  band No.  band energies     occupation 
      1     -10.8658      2.00000
      2     -10.6860      2.00000
      3      -9.6853      2.00000
      4      -8.9361      2.00000
      5      -2.6572      2.00000
      6      -1.3264      2.00000
      7      -0.1902      2.00000
      8       0.8199      2.00000
      9       0.8607      2.00000
     10       1.0107      2.00000
     11       1.1174      2.00000
     12       1.9569      2.00000
     13       2.5185      2.00000
     14       2.6780      2.00000
     15       2.9712      2.00000
     16       3.1765      2.00000
     17       4.6017      0.00000
     18       5.1670      0.00000
     19       7.0602      0.00000
     20       7.2615      0.00000
     21       7.4335      0.00000
     22       7.5730      0.00000
     23       7.6731      0.00000
     24       7.8913      0.00000
     25       8.7976      0.00000
     26       9.2751      0.00000
     27      10.3513      0.00000
     28      10.3825      0.00000
     29      10.6073      0.00000
     30      10.6217      0.00000
     31      10.7981      0.00000
     32      11.5185      0.00000
     33      11.9064      0.00000
     34      12.1962      0.00000
     35      12.4049      0.00000
     36      12.6936      0.00000
     37      12.9746      0.00000
     38      13.1370      0.00000
     39      13.4420      0.00000
     40      13.4922      0.00000
     41      14.2945      0.00000
     42      14.4537      0.00000
     43      14.6852      0.00000
     44      15.1083      0.00000
     45      15.9863      0.00000

 k-point   201 :       0.0500    0.0000    0.0500
  band No.  band energies     occupation 
      1     -10.8797      2.00000
      2     -10.6989      2.00000
      3      -9.6974      2.00000
      4      -8.9427      2.00000
      5      -2.6724      2.00000
      6      -1.3144      2.00000
      7      -0.1993      2.00000
      8       0.9248      2.00000
      9       0.9879      2.00000
     10       1.0373      2.00000
     11       1.1412      2.00000
     12       1.9724      2.00000
     13       2.6125      2.00000
     14       2.7043      2.00000
     15       3.0555      2.00000
     16       3.1803      2.00000
     17       4.4667      0.00000
     18       5.0539      0.00000
     19       6.9862      0.00000
     20       7.3392      0.00000
     21       7.4749      0.00000
     22       7.5222      0.00000
     23       7.6203      0.00000
     24       7.7904      0.00000
     25       8.8203      0.00000
     26       9.2554      0.00000
     27      10.4227      0.00000
     28      10.4707      0.00000
     29      10.5875      0.00000
     30      10.6497      0.00000
     31      10.7841      0.00000
     32      11.5626      0.00000
     33      11.9519      0.00000
     34      12.2332      0.00000
     35      12.5042      0.00000
     36      12.6982      0.00000
     37      12.8371      0.00000
     38      13.0716      0.00000
     39      13.3738      0.00000
     40      13.3882      0.00000
     41      14.1945      0.00000
     42      14.3346      0.00000
     43      14.4804      0.00000
     44      15.0644      0.00000
     45      15.7950      0.00000

 k-point   202 :       0.0333    0.0000    0.0333
  band No.  band energies     occupation 
      1     -10.8897      2.00000
      2     -10.7081      2.00000
      3      -9.7060      2.00000
      4      -8.9474      2.00000
      5      -2.6835      2.00000
      6      -1.3062      2.00000
      7      -0.2065      2.00000
      8       1.0049      2.00000
      9       1.0568      2.00000
     10       1.0873      2.00000
     11       1.1586      2.00000
     12       1.9835      2.00000
     13       2.6825      2.00000
     14       2.7238      2.00000
     15       3.1233      2.00000
     16       3.1826      2.00000
     17       4.3577      0.00000
     18       4.9659      0.00000
     19       6.9265      0.00000
     20       7.4014      0.00000
     21       7.4852      0.00000
     22       7.5122      0.00000
     23       7.5817      0.00000
     24       7.7127      0.00000
     25       8.8355      0.00000
     26       9.2378      0.00000
     27      10.4788      0.00000
     28      10.5112      0.00000
     29      10.5615      0.00000
     30      10.7027      0.00000
     31      10.7740      0.00000
     32      11.6484      0.00000
     33      11.9951      0.00000
     34      12.1943      0.00000
     35      12.6010      0.00000
     36      12.7015      0.00000
     37      12.7382      0.00000
     38      13.0322      0.00000
     39      13.3217      0.00000
     40      13.3229      0.00000
     41      14.1217      0.00000
     42      14.2440      0.00000
     43      14.3135      0.00000
     44      15.0193      0.00000
     45      15.6485      0.00000

 k-point   203 :       0.0167    0.0000    0.0167
  band No.  band energies     occupation 
      1     -10.8957      2.00000
      2     -10.7136      2.00000
      3      -9.7113      2.00000
      4      -8.9503      2.00000
      5      -2.6902      2.00000
      6      -1.3015      2.00000
      7      -0.2111      2.00000
      8       1.0555      2.00000
      9       1.0688      2.00000
     10       1.1509      2.00000
     11       1.1692      2.00000
     12       1.9901      2.00000
     13       2.7255      2.00000
     14       2.7359      2.00000
     15       3.1682      2.00000
     16       3.1838      2.00000
     17       4.2857      0.00000
     18       4.9100      0.00000
     19       6.8881      0.00000
     20       7.4415      0.00000
     21       7.4628      0.00000
     22       7.5393      0.00000
     23       7.5582      0.00000
     24       7.6621      0.00000
     25       8.8439      0.00000
     26       9.2258      0.00000
     27      10.5060      0.00000
     28      10.5295      0.00000
     29      10.5453      0.00000
     30      10.7481      0.00000
     31      10.7676      0.00000
     32      11.7588      0.00000
     33      12.0266      0.00000
     34      12.1045      0.00000
     35      12.6551      0.00000
     36      12.6917      0.00000
     37      12.7021      0.00000
     38      13.0199      0.00000
     39      13.2903      0.00000
     40      13.2920      0.00000
     41      14.0738      0.00000
     42      14.1866      0.00000
     43      14.2040      0.00000
     44      14.9861      0.00000
     45      15.5558      0.00000

 k-point   204 :       0.0000    0.0000    0.0000
  band No.  band energies     occupation 
      1     -10.8977      2.00000
      2     -10.7155      2.00000
      3      -9.7130      2.00000
      4      -8.9513      2.00000
      5      -2.6925      2.00000
      6      -1.2999      2.00000
      7      -0.2127      2.00000
      8       1.0728      2.00000
      9       1.0728      2.00000
     10       1.1728      2.00000
     11       1.1728      2.00000
     12       1.9922      2.00000
     13       2.7399      2.00000
     14       2.7399      2.00000
     15       3.1841      2.00000
     16       3.1841      2.00000
     17       4.2604      0.00000
     18       4.8908      0.00000
     19       6.8749      0.00000
     20       7.4552      0.00000
     21       7.4552      0.00000
     22       7.5503      0.00000
     23       7.5503      0.00000
     24       7.6434      0.00000
     25       8.8465      0.00000
     26       9.2216      0.00000
     27      10.5088      0.00000
     28      10.5397      0.00000
     29      10.5397      0.00000
     30      10.7654      0.00000
     31      10.7654      0.00000
     32      11.8301      0.00000
     33      12.0374      0.00000
     34      12.0374      0.00000
     35      12.6478      0.00000
     36      12.7018      0.00000
     37      12.7018      0.00000
     38      13.0199      0.00000
     39      13.2817      0.00000
     40      13.2817      0.00000
     41      14.0552      0.00000
     42      14.1668      0.00000
     43      14.1668      0.00000
     44      14.9740      0.00000
     45      15.5239      0.00000


--------------------------------------------------------------------------------------------------------


 soft charge-density along one line, spin component           1
         0         1         2         3         4         5         6         7         8         9
 total charge-density along one line
 
 pseudopotential strength for first ion, spin component:           1
  3.001   9.569   0.000  -0.000   0.000   0.000  -0.000   0.000
  9.569  30.333   0.000  -0.000   0.000   0.000  -0.000   0.000
  0.000   0.000   7.198   0.000   0.000  10.535   0.000   0.000
 -0.000  -0.000   0.000   7.195  -0.000   0.000  10.531  -0.000
  0.000   0.000   0.000  -0.000   7.198   0.000  -0.000  10.535
  0.000   0.000  10.535   0.000   0.000  14.590   0.000   0.000
 -0.000  -0.000   0.000  10.531  -0.000   0.000  14.584  -0.000
  0.000   0.000   0.000  -0.000  10.535   0.000  -0.000  14.590
  0.000   0.000   0.000   0.000   0.000   0.000   0.000   0.000
  0.000   0.000  -0.000   0.000   0.000  -0.000   0.000   0.000
 -0.001  -0.003  -0.000  -0.000  -0.000  -0.000  -0.000  -0.000
 -0.000  -0.000   0.000   0.000  -0.000   0.000   0.000  -0.000
  0.000   0.000  -0.000   0.000   0.000  -0.000   0.000   0.000
 total augmentation occupancy for first ion, spin component:           1
  0.991  -0.035   0.000   0.000   0.000   0.000   0.000   0.000   0.000   0.000  -0.002  -0.000  -0.000
 -0.035   0.001   0.000   0.000   0.000   0.000   0.000   0.000   0.000  -0.000   0.000   0.000   0.000
  0.000   0.000   0.099  -0.000   0.000  -0.011   0.000   0.000   0.000   0.000   0.000   0.000   0.000
  0.000   0.000  -0.000   0.094   0.000   0.000  -0.010   0.000   0.000   0.000   0.000   0.000   0.000
  0.000   0.000   0.000  -0.000   0.099   0.000   0.000  -0.011   0.000   0.000   0.000   0.000   0.000
  0.000   0.000  -0.011   0.000   0.000   0.001  -0.000   0.000   0.000   0.000   0.000   0.000   0.000
  0.000   0.000   0.000  -0.010   0.000  -0.000   0.001   0.000   0.000   0.000   0.000   0.000   0.000
  0.000   0.000   0.000   0.000  -0.011   0.000   0.000   0.001   0.000   0.000   0.000   0.000   0.000
  0.000   0.000   0.000   0.000   0.000   0.000   0.000   0.000   0.013   0.000   0.000   0.011   0.000
  0.000  -0.000   0.000   0.000   0.000   0.000   0.000   0.000   0.000   0.021   0.000   0.000   0.011
 -0.002   0.000   0.000   0.000   0.000   0.000   0.000   0.000   0.000   0.000   0.004   0.000   0.000
 -0.000   0.000   0.000   0.000   0.000   0.000   0.000   0.000   0.011   0.000   0.000   0.021   0.000
 -0.000   0.000   0.000   0.000   0.000   0.000   0.000   0.000   0.000   0.011   0.000   0.000   0.013


------------------------ aborting loop because EDIFF is reached ----------------------------------------


 


 total charge     
 
# of ion       s       p       d       tot
------------------------------------------
    1        0.152   0.144   0.039   0.335
    2        0.393   0.349   0.000   0.742
    3        0.393   0.349   0.000   0.742
    4        1.438   2.510   0.019   3.968
    5        1.438   2.510   0.019   3.968
    6        1.453   2.417   0.024   3.894
    7        1.453   2.417   0.024   3.894
--------------------------------------------------
tot          6.720  10.696   0.126  17.542
 
    CHARGE:  cpu time    0.0560: real time    0.0565
    FORLOC:  cpu time    0.0040: real time    0.0058
    FORNL :  cpu time    0.2120: real time    0.2119
    FORCOR:  cpu time    0.1680: real time    0.1657
    FORHAR:  cpu time    0.0160: real time    0.0191
    MIXING:  cpu time    0.0040: real time    0.0045
    OFIELD:  cpu time    0.0000: real time    0.0000

 VOLUME and BASIS-vectors are now :
 -----------------------------------------------------------------------------
  energy-cutoff  :      240.30
  volume of cell :      167.65
      direct lattice vectors                 reciprocal lattice vectors
     1.934753000  1.117030000 12.928781000     0.258430921  0.149205139  0.025782275
    -1.934753000  1.117030000 12.928781000    -0.258430921  0.149205139  0.025782275
     0.000000000 -2.234061000 12.928781000     0.000000000 -0.298410279  0.025782263

  length of vectors
    13.120381219 13.120381219 13.120381347     0.299522020  0.299522020  0.299521985


 FORCES acting on ions
    electron-ion (+dipol)            ewald-force                    non-local-force                 convergence-correction
 -----------------------------------------------------------------------------------------------
   0.374E-12 0.256E-12 0.102E-12   -.234E-15 -.282E-15 -.533E-13   0.000E+00 -.775E-25 0.310E-24   -.642E-16 -.728E-16 -.652E-13
   -.964E-12 0.479E-05 0.197E+02   -.203E-14 -.707E-05 -.166E+02   -.694E-17 0.792E-07 -.307E+01   0.464E-15 0.749E-10 -.640E-04
   0.632E-12 -.479E-05 -.197E+02   0.316E-14 0.707E-05 0.166E+02   0.694E-17 -.792E-07 0.307E+01   0.440E-15 -.749E-10 0.640E-04
   0.882E-12 -.105E-05 -.146E+02   -.248E-14 0.409E-05 0.133E+02   -.260E-17 -.345E-07 0.134E+01   -.101E-13 -.290E-10 -.709E-03
   0.312E-13 0.105E-05 0.146E+02   0.186E-14 -.409E-05 -.133E+02   0.147E-16 0.345E-07 -.134E+01   0.120E-13 0.290E-10 0.709E-03
   -.110E-11 0.424E-05 -.564E+02   -.886E-15 -.892E-05 0.591E+02   0.694E-17 0.715E-07 -.277E+01   -.716E-14 0.121E-09 -.104E-03
   0.148E-11 -.424E-05 0.564E+02   0.358E-15 0.892E-05 -.591E+02   -.867E-17 -.715E-07 0.277E+01   0.635E-14 -.121E-09 0.104E-03
 -----------------------------------------------------------------------------------------------
   0.134E-11 0.334E-12 0.205E-11   -.257E-15 0.284E-14 0.142E-13   0.104E-16 0.520E-16 0.000E+00   0.192E-14 0.248E-14 -.320E-13
 
 
 POSITION                                       TOTAL-FORCE (eV/Angst)
 -----------------------------------------------------------------------------------
      0.00000     -0.00000     19.39317        -0.000000      0.000000      0.000000
      0.00000     -0.00000     28.60338         0.000000     -0.000000      0.000439
      0.00000     -0.00000     10.18297         0.000000      0.000000     -0.000439
      0.00000     -0.00000      7.88647         0.000000      0.000000     -0.001899
      0.00000     -0.00000     30.89988         0.000000     -0.000000      0.001899
      0.00000     -0.00000     24.18767         0.000000     -0.000000      0.000480
      0.00000     -0.00000     14.59868         0.000000      0.000000     -0.000480
 -----------------------------------------------------------------------------------
    total drift:                                0.000000      0.000000      0.000000


--------------------------------------------------------------------------------------------------------



  FREE ENERGIE OF THE ION-ELECTRON SYSTEM (eV)
  ---------------------------------------------------
  free  energy   TOTEN  =       -31.79319670 eV

  energy  without entropy=      -31.79319670  energy(sigma->0) =      -31.79319670
 


--------------------------------------------------------------------------------------------------------


    POTLOK:  cpu time    0.1760: real time    0.1744


--------------------------------------------------------------------------------------------------------




--------------------------------------------------------------------------------------------------------


  
 reached required accuracy - stopping structural energy minimisation
 writing wavefunctions
     LOOP+:  cpu time   72.6120: real time   73.7521
    4ORBIT:  cpu time    0.0000: real time    0.0000
 


 total charge     
 
# of ion       s       p       d       tot
------------------------------------------
    1        0.152   0.144   0.039   0.335
    2        0.393   0.349   0.000   0.742
    3        0.393   0.349   0.000   0.742
    4        1.438   2.510   0.019   3.968
    5        1.438   2.510   0.019   3.968
    6        1.453   2.417   0.024   3.894
    7        1.453   2.417   0.024   3.894
--------------------------------------------------
tot          6.720  10.696   0.126  17.542
 

 total amount of memory used by VASP MPI-rank0   164790. kBytes
=======================================================================

   base      :      30000. kBytes
   nonl-proj :      92388. kBytes
   fftplans  :       4542. kBytes
   grid      :      12835. kBytes
   one-center:         56. kBytes
   wavefun   :      24969. kBytes
 
  
  
 General timing and accounting informations for this job:
 ========================================================
  
                  Total CPU time used (sec):       75.740
                            User time (sec):       72.912
                          System time (sec):        2.828
                         Elapsed time (sec):       77.293
  
                   Maximum memory used (kb):      209576.
                   Average memory used (kb):           0.
  
                          Minor page faults:      1134039
                          Major page faults:           10
                 Voluntary context switches:         2303
