   2   2   1   0
  0.9582957E+01  0.3003873E-09  0.3003873E-09  0.3003873E-09  0.5000000E-15
  1.000000000000000E-004
  CAR 
 unknown system                          
     23.36880178    -15.92238153  301      3.21569901      1.00000000
    -15.922  0.0000E+00  0.0000E+00
    -15.791  0.0000E+00  0.0000E+00
    -15.660  0.0000E+00  0.0000E+00
    -15.529  0.0000E+00  0.0000E+00
    -15.398  0.0000E+00  0.0000E+00
    -15.268  0.0000E+00  0.0000E+00
    -15.137  0.0000E+00  0.0000E+00
    -15.006  0.0000E+00  0.0000E+00
    -14.875  0.0000E+00  0.0000E+00
    -14.744  0.0000E+00  0.0000E+00
    -14.613  0.0000E+00  0.0000E+00
    -14.482  0.0000E+00  0.0000E+00
    -14.351  0.1004E-11  0.1315E-12
    -14.220  0.1372E-04  0.1797E-05
    -14.089  0.1358E-02  0.1796E-03
    -13.958  0.1091E-01  0.1608E-02
    -13.827  0.1023E-01  0.2948E-02
    -13.696  0.1650E-01  0.5109E-02
    -13.565  0.4155E-01  0.1055E-01
    -13.434  0.1057E-01  0.1194E-01
    -13.303  0.4290E-01  0.1755E-01
    -13.172  0.5642E-01  0.2494E-01
    -13.041  0.5888E-01  0.3265E-01
    -12.910  0.1164E+00  0.4790E-01
    -12.779  0.1471E+00  0.6716E-01
    -12.648  0.2027E+00  0.9370E-01
    -12.517  0.4805E-01  0.1000E+00
    -12.386  0.2537E-04  0.1000E+00
    -12.255  0.2647E-12  0.1000E+00
    -12.124  0.0000E+00  0.1000E+00
    -11.993  0.0000E+00  0.1000E+00
    -11.862  0.0000E+00  0.1000E+00
    -11.731  0.0000E+00  0.1000E+00
    -11.600  0.0000E+00  0.1000E+00
    -11.469  0.0000E+00  0.1000E+00
    -11.338  0.0000E+00  0.1000E+00
    -11.207  0.0000E+00  0.1000E+00
    -11.076  0.0000E+00  0.1000E+00
    -10.945  0.0000E+00  0.1000E+00
    -10.815  0.0000E+00  0.1000E+00
    -10.684  0.0000E+00  0.1000E+00
    -10.553  0.0000E+00  0.1000E+00
    -10.422  0.0000E+00  0.1000E+00
    -10.291  0.0000E+00  0.1000E+00
    -10.160  0.0000E+00  0.1000E+00
    -10.029  0.0000E+00  0.1000E+00
     -9.898  0.0000E+00  0.1000E+00
     -9.767  0.0000E+00  0.1000E+00
     -9.636  0.0000E+00  0.1000E+00
     -9.505  0.0000E+00  0.1000E+00
     -9.374  0.0000E+00  0.1000E+00
     -9.243  0.0000E+00  0.1000E+00
     -9.112  0.0000E+00  0.1000E+00
     -8.981  0.0000E+00  0.1000E+00
     -8.850  0.0000E+00  0.1000E+00
     -8.719  0.0000E+00  0.1000E+00
     -8.588  0.0000E+00  0.1000E+00
     -8.457  0.0000E+00  0.1000E+00
     -8.326  0.0000E+00  0.1000E+00
     -8.195  0.0000E+00  0.1000E+00
     -8.064  0.0000E+00  0.1000E+00
     -7.933  0.0000E+00  0.1000E+00
     -7.802  0.0000E+00  0.1000E+00
     -7.671  0.0000E+00  0.1000E+00
     -7.540  0.0000E+00  0.1000E+00
     -7.409  0.0000E+00  0.1000E+00
     -7.278  0.0000E+00  0.1000E+00
     -7.147  0.0000E+00  0.1000E+00
     -7.016  0.0000E+00  0.1000E+00
     -6.885  0.0000E+00  0.1000E+00
     -6.754  0.0000E+00  0.1000E+00
     -6.623  0.0000E+00  0.1000E+00
     -6.492  0.0000E+00  0.1000E+00
     -6.362  0.0000E+00  0.1000E+00
     -6.231  0.0000E+00  0.1000E+00
     -6.100  0.0000E+00  0.1000E+00
     -5.969  0.0000E+00  0.1000E+00
     -5.838  0.0000E+00  0.1000E+00
     -5.707  0.0000E+00  0.1000E+00
     -5.576  0.0000E+00  0.1000E+00
     -5.445  0.0000E+00  0.1000E+00
     -5.314  0.0000E+00  0.1000E+00
     -5.183  0.0000E+00  0.1000E+00
     -5.052  0.0000E+00  0.1000E+00
     -4.921  0.0000E+00  0.1000E+00
     -4.790  0.0000E+00  0.1000E+00
     -4.659  0.0000E+00  0.1000E+00
     -4.528  0.0000E+00  0.1000E+00
     -4.397  0.0000E+00  0.1000E+00
     -4.266  0.0000E+00  0.1000E+00
     -4.135  0.0000E+00  0.1000E+00
     -4.004  0.0000E+00  0.1000E+00
     -3.873  0.0000E+00  0.1000E+00
     -3.742  0.0000E+00  0.1000E+00
     -3.611  0.0000E+00  0.1000E+00
     -3.480  0.0000E+00  0.1000E+00
     -3.349  0.0000E+00  0.1000E+00
     -3.218  0.0000E+00  0.1000E+00
     -3.087  0.0000E+00  0.1000E+00
     -2.956  0.0000E+00  0.1000E+00
     -2.825  0.0000E+00  0.1000E+00
     -2.694  0.0000E+00  0.1000E+00
     -2.563  0.0000E+00  0.1000E+00
     -2.432  0.0000E+00  0.1000E+00
     -2.301  0.0000E+00  0.1000E+00
     -2.170  0.0000E+00  0.1000E+00
     -2.039  0.0000E+00  0.1000E+00
     -1.909  0.0000E+00  0.1000E+00
     -1.778  0.6623E-16  0.1000E+00
     -1.647  0.2503E-06  0.1000E+00
     -1.516  0.2443E-02  0.1003E+00
     -1.385  0.3522E-02  0.1008E+00
     -1.254  0.1521E-01  0.1028E+00
     -1.123  0.2495E-01  0.1060E+00
     -0.992  0.3727E-01  0.1109E+00
     -0.861  0.4271E-01  0.1165E+00
     -0.730  0.5612E-01  0.1239E+00
     -0.599  0.1390E+00  0.1421E+00
     -0.468  0.9105E-01  0.1540E+00
     -0.337  0.1122E+00  0.1687E+00
     -0.206  0.6155E-01  0.1768E+00
     -0.075  0.3147E-01  0.1809E+00
      0.056  0.2831E-01  0.1846E+00
      0.187  0.2911E-01  0.1884E+00
      0.318  0.4970E-02  0.1890E+00
      0.449  0.6742E-01  0.1979E+00
      0.580  0.3839E-01  0.2029E+00
      0.711  0.6470E-01  0.2114E+00
      0.842  0.4206E-01  0.2169E+00
      0.973  0.9547E-03  0.2170E+00
      1.104  0.3655E-01  0.2218E+00
      1.235  0.9000E-01  0.2336E+00
      1.366  0.1266E+00  0.2502E+00
      1.497  0.3732E-01  0.2550E+00
      1.628  0.1760E-01  0.2574E+00
      1.759  0.8636E-01  0.2687E+00
      1.890  0.2155E+00  0.2969E+00
      2.021  0.1058E+00  0.3107E+00
      2.152  0.1725E+00  0.3333E+00
      2.283  0.1194E+00  0.3490E+00
      2.414  0.1320E+00  0.3663E+00
      2.544  0.1089E+00  0.3805E+00
      2.675  0.7282E-01  0.3901E+00
      2.806  0.3192E-01  0.3943E+00
      2.937  0.3621E-01  0.3990E+00
      3.068  0.7551E-02  0.4000E+00
      3.199  0.1031E-03  0.4000E+00
      3.330  0.2697E-10  0.4000E+00
      3.461  0.0000E+00  0.4000E+00
      3.592  0.0000E+00  0.4000E+00
      3.723  0.0000E+00  0.4000E+00
      3.854  0.0000E+00  0.4000E+00
      3.985  0.0000E+00  0.4000E+00
      4.116  0.0000E+00  0.4000E+00
      4.247  0.0000E+00  0.4000E+00
      4.378  0.0000E+00  0.4000E+00
      4.509  0.0000E+00  0.4000E+00
      4.640  0.0000E+00  0.4000E+00
      4.771  0.0000E+00  0.4000E+00
      4.902  0.0000E+00  0.4000E+00
      5.033  0.0000E+00  0.4000E+00
      5.164  0.0000E+00  0.4000E+00
      5.295  0.0000E+00  0.4000E+00
      5.426  0.0000E+00  0.4000E+00
      5.557  0.0000E+00  0.4000E+00
      5.688  0.0000E+00  0.4000E+00
      5.819  0.0000E+00  0.4000E+00
      5.950  0.0000E+00  0.4000E+00
      6.081  0.0000E+00  0.4000E+00
      6.212  0.0000E+00  0.4000E+00
      6.343  0.0000E+00  0.4000E+00
      6.474  0.0000E+00  0.4000E+00
      6.605  0.0000E+00  0.4000E+00
      6.736  0.0000E+00  0.4000E+00
      6.867  0.0000E+00  0.4000E+00
      6.997  0.0000E+00  0.4000E+00
      7.128  0.0000E+00  0.4000E+00
      7.259  0.3955E-12  0.4000E+00
      7.390  0.9120E-05  0.4000E+00
      7.521  0.1310E-02  0.4002E+00
      7.652  0.1719E-03  0.4002E+00
      7.783  0.7023E-09  0.4002E+00
      7.914  0.0000E+00  0.4002E+00
      8.045  0.0000E+00  0.4002E+00
      8.176  0.2771E-11  0.4002E+00
      8.307  0.6877E-04  0.4002E+00
      8.438  0.1044E-01  0.4016E+00
      8.569  0.1426E-02  0.4018E+00
      8.700  0.5326E-02  0.4025E+00
      8.831  0.3619E-02  0.4029E+00
      8.962  0.3554E-06  0.4029E+00
      9.093  0.0000E+00  0.4029E+00
      9.224  0.1693E-13  0.4029E+00
      9.355  0.7556E-05  0.4029E+00
      9.486  0.1150E-01  0.4044E+00
      9.617  0.6387E-02  0.4053E+00
      9.748  0.1696E-04  0.4053E+00
      9.879  0.9121E-02  0.4065E+00
     10.010  0.2992E-01  0.4104E+00
     10.141  0.8664E-02  0.4115E+00
     10.272  0.1901E-06  0.4115E+00
     10.403  0.1456E-10  0.4115E+00
     10.534  0.1417E-03  0.4115E+00
     10.665  0.1106E-01  0.4130E+00
     10.796  0.2070E-01  0.4157E+00
     10.927  0.3070E-01  0.4197E+00
     11.058  0.9631E-02  0.4210E+00
     11.189  0.2936E-01  0.4248E+00
     11.320  0.3370E-01  0.4292E+00
     11.450  0.6588E-01  0.4379E+00
     11.581  0.4620E-02  0.4385E+00
     11.712  0.1054E-07  0.4385E+00
     11.843  0.7779E-03  0.4386E+00
     11.974  0.3337E-01  0.4429E+00
     12.105  0.4799E-02  0.4436E+00
     12.236  0.1871E-01  0.4460E+00
     12.367  0.7294E-01  0.4556E+00
     12.498  0.5189E-01  0.4624E+00
     12.629  0.7134E-01  0.4717E+00
     12.760  0.2483E-01  0.4750E+00
     12.891  0.2036E-01  0.4776E+00
     13.022  0.5705E-01  0.4851E+00
     13.153  0.1751E-01  0.4874E+00
     13.284  0.3835E-01  0.4924E+00
     13.415  0.4645E-01  0.4985E+00
     13.546  0.8716E-01  0.5099E+00
     13.677  0.5391E-01  0.5170E+00
     13.808  0.5091E-04  0.5170E+00
     13.939  0.3839E-07  0.5170E+00
     14.070  0.2039E-02  0.5173E+00
     14.201  0.6895E-02  0.5182E+00
     14.332  0.1415E-01  0.5200E+00
     14.463  0.1301E+00  0.5371E+00
     14.594  0.1411E+00  0.5555E+00
     14.725  0.2974E-01  0.5594E+00
     14.856  0.3160E-01  0.5636E+00
     14.987  0.1023E+00  0.5770E+00
     15.118  0.6387E-01  0.5853E+00
     15.249  0.9137E-01  0.5973E+00
     15.380  0.7404E-01  0.6070E+00
     15.511  0.4983E-01  0.6135E+00
     15.642  0.9405E-02  0.6148E+00
     15.773  0.4462E-01  0.6206E+00
     15.903  0.6243E-01  0.6288E+00
     16.034  0.4138E-01  0.6342E+00
     16.165  0.2626E-01  0.6376E+00
     16.296  0.3416E-01  0.6421E+00
     16.427  0.6576E-03  0.6422E+00
     16.558  0.9195E-02  0.6434E+00
     16.689  0.6968E-01  0.6525E+00
     16.820  0.2308E-01  0.6556E+00
     16.951  0.3423E-01  0.6600E+00
     17.082  0.9809E-02  0.6613E+00
     17.213  0.2575E-04  0.6613E+00
     17.344  0.3251E-12  0.6613E+00
     17.475  0.2184E-05  0.6613E+00
     17.606  0.1603E-01  0.6634E+00
     17.737  0.5133E-01  0.6702E+00
     17.868  0.3946E-01  0.6753E+00
     17.999  0.5561E-03  0.6754E+00
     18.130  0.2241E-01  0.6783E+00
     18.261  0.3243E-01  0.6826E+00
     18.392  0.3381E-01  0.6870E+00
     18.523  0.8128E-03  0.6871E+00
     18.654  0.2305E-02  0.6874E+00
     18.785  0.2168E-02  0.6877E+00
     18.916  0.3293E-02  0.6881E+00
     19.047  0.4375E-01  0.6939E+00
     19.178  0.6001E-01  0.7017E+00
     19.309  0.9924E-01  0.7147E+00
     19.440  0.6986E-01  0.7239E+00
     19.571  0.7875E-01  0.7342E+00
     19.702  0.9824E-01  0.7470E+00
     19.833  0.4374E-01  0.7528E+00
     19.964  0.5106E-01  0.7595E+00
     20.095  0.4518E-01  0.7654E+00
     20.226  0.9392E-01  0.7777E+00
     20.356  0.6064E-01  0.7856E+00
     20.487  0.2243E-01  0.7886E+00
     20.618  0.2025E-01  0.7912E+00
     20.749  0.5395E-02  0.7919E+00
     20.880  0.1249E-01  0.7936E+00
     21.011  0.1305E-04  0.7936E+00
     21.142  0.3288E-02  0.7940E+00
     21.273  0.4069E-01  0.7993E+00
     21.404  0.7606E-03  0.7994E+00
     21.535  0.3981E-03  0.7995E+00
     21.666  0.4035E-02  0.8000E+00
     21.797  0.4117E-04  0.8000E+00
     21.928  0.3012E-11  0.8000E+00
     22.059  0.0000E+00  0.8000E+00
     22.190  0.0000E+00  0.8000E+00
     22.321  0.0000E+00  0.8000E+00
     22.452  0.0000E+00  0.8000E+00
     22.583  0.0000E+00  0.8000E+00
     22.714  0.0000E+00  0.8000E+00
     22.845  0.0000E+00  0.8000E+00
     22.976  0.0000E+00  0.8000E+00
     23.107  0.0000E+00  0.8000E+00
     23.238  0.0000E+00  0.8000E+00
     23.369  0.0000E+00  0.8000E+00
     23.36880178    -15.92238153  301      3.21569901      1.00000000
    -15.922  0.0000E+00  0.0000E+00  0.0000E+00  0.0000E+00  0.0000E+00  0.0000E+00  0.0000E+00  0.0000E+00  0.0000E+00
    -15.791  0.0000E+00  0.0000E+00  0.0000E+00  0.0000E+00  0.0000E+00  0.0000E+00  0.0000E+00  0.0000E+00  0.0000E+00
    -15.660  0.0000E+00  0.0000E+00  0.0000E+00  0.0000E+00  0.0000E+00  0.0000E+00  0.0000E+00  0.0000E+00  0.0000E+00
    -15.529  0.0000E+00  0.0000E+00  0.0000E+00  0.0000E+00  0.0000E+00  0.0000E+00  0.0000E+00  0.0000E+00  0.0000E+00
    -15.398  0.0000E+00  0.0000E+00  0.0000E+00  0.0000E+00  0.0000E+00  0.0000E+00  0.0000E+00  0.0000E+00  0.0000E+00
    -15.268  0.0000E+00  0.0000E+00  0.0000E+00  0.0000E+00  0.0000E+00  0.0000E+00  0.0000E+00  0.0000E+00  0.0000E+00
    -15.137  0.0000E+00  0.0000E+00  0.0000E+00  0.0000E+00  0.0000E+00  0.0000E+00  0.0000E+00  0.0000E+00  0.0000E+00
    -15.006  0.0000E+00  0.0000E+00  0.0000E+00  0.0000E+00  0.0000E+00  0.0000E+00  0.0000E+00  0.0000E+00  0.0000E+00
    -14.875  0.0000E+00  0.0000E+00  0.0000E+00  0.0000E+00  0.0000E+00  0.0000E+00  0.0000E+00  0.0000E+00  0.0000E+00
    -14.744  0.0000E+00  0.0000E+00  0.0000E+00  0.0000E+00  0.0000E+00  0.0000E+00  0.0000E+00  0.0000E+00  0.0000E+00
    -14.613  0.0000E+00  0.0000E+00  0.0000E+00  0.0000E+00  0.0000E+00  0.0000E+00  0.0000E+00  0.0000E+00  0.0000E+00
    -14.482  0.0000E+00  0.0000E+00  0.0000E+00  0.0000E+00  0.0000E+00  0.0000E+00  0.0000E+00  0.0000E+00  0.0000E+00
    -14.351  0.8294E-12  0.4176E-30  0.9130E-30  0.9374E-31  0.2241E-25  0.2109E-25  0.1431E-28  0.2283E-25  0.5433E-29
    -14.220  0.1134E-04  0.1204E-14  0.1204E-14  0.1204E-14  0.7564E-18  0.7385E-18  0.3693E-20  0.7621E-18  0.7427E-22
    -14.089  0.1121E-02  0.2021E-06  0.2040E-06  0.2021E-06  0.7555E-10  0.7557E-10  0.8014E-10  0.7555E-10  0.8019E-20
    -13.958  0.7928E-02  0.1367E-03  0.2461E-03  0.1367E-03  0.5109E-07  0.5110E-07  0.4629E-05  0.5109E-07  0.4344E-17
    -13.827  0.7264E-02  0.5717E-04  0.4346E-03  0.5717E-04  0.2949E-07  0.1808E-07  0.1673E-04  0.1807E-07  0.1389E-16
    -13.696  0.9622E-02  0.9011E-03  0.3919E-04  0.9011E-03  0.1160E-05  0.1245E-07  0.4323E-04  0.1245E-07  0.1204E-16
    -13.565  0.2107E-01  0.1017E-02  0.3712E-02  0.1017E-02  0.5452E-06  0.1411E-05  0.2926E-03  0.1412E-05  0.1301E-14
    -13.434  0.4932E-02  0.3010E-03  0.9524E-03  0.3010E-03  0.2265E-06  0.3093E-06  0.1270E-03  0.3092E-06  0.1148E-08
    -13.303  0.1420E-01  0.3215E-02  0.2640E-02  0.2574E-02  0.4733E-05  0.1953E-05  0.7162E-03  0.3106E-06  0.2430E-04
    -13.172  0.1589E-01  0.3663E-02  0.6018E-02  0.2304E-02  0.2047E-05  0.5453E-05  0.1071E-02  0.1971E-05  0.5153E-04
    -13.041  0.1272E-01  0.2613E-02  0.6826E-02  0.2608E-02  0.9120E-06  0.2914E-05  0.2262E-02  0.2902E-05  0.5079E-06
    -12.910  0.1052E-01  0.1223E-01  0.9583E-02  0.8040E-02  0.8374E-05  0.8668E-05  0.3974E-02  0.8913E-06  0.4138E-03
    -12.779  0.9178E-02  0.1218E-01  0.1188E-01  0.7706E-02  0.3054E-05  0.7963E-05  0.8931E-02  0.1905E-05  0.4900E-03
    -12.648  0.5867E-02  0.1717E-01  0.4678E-02  0.9138E-02  0.8825E-05  0.2967E-05  0.1935E-01  0.6358E-06  0.1382E-02
    -12.517  0.1197E-02  0.3926E-02  0.4294E-03  0.9356E-03  0.6818E-06  0.4586E-06  0.5550E-02  0.2561E-07  0.4341E-03
    -12.386  0.2146E-06  0.2663E-05  0.1012E-07  0.8141E-07  0.5009E-10  0.1163E-10  0.2612E-05  0.4275E-12  0.6395E-06
    -12.255  0.2130E-15  0.3065E-13  0.8151E-27  0.2901E-16  0.1717E-19  0.4972E-27  0.2514E-13  0.5745E-29  0.8173E-14
    -12.124  0.0000E+00  0.0000E+00  0.0000E+00  0.0000E+00  0.0000E+00  0.0000E+00  0.0000E+00  0.0000E+00  0.0000E+00
    -11.993  0.0000E+00  0.0000E+00  0.0000E+00  0.0000E+00  0.0000E+00  0.0000E+00  0.0000E+00  0.0000E+00  0.0000E+00
    -11.862  0.0000E+00  0.0000E+00  0.0000E+00  0.0000E+00  0.0000E+00  0.0000E+00  0.0000E+00  0.0000E+00  0.0000E+00
    -11.731  0.0000E+00  0.0000E+00  0.0000E+00  0.0000E+00  0.0000E+00  0.0000E+00  0.0000E+00  0.0000E+00  0.0000E+00
    -11.600  0.0000E+00  0.0000E+00  0.0000E+00  0.0000E+00  0.0000E+00  0.0000E+00  0.0000E+00  0.0000E+00  0.0000E+00
    -11.469  0.0000E+00  0.0000E+00  0.0000E+00  0.0000E+00  0.0000E+00  0.0000E+00  0.0000E+00  0.0000E+00  0.0000E+00
    -11.338  0.0000E+00  0.0000E+00  0.0000E+00  0.0000E+00  0.0000E+00  0.0000E+00  0.0000E+00  0.0000E+00  0.0000E+00
    -11.207  0.0000E+00  0.0000E+00  0.0000E+00  0.0000E+00  0.0000E+00  0.0000E+00  0.0000E+00  0.0000E+00  0.0000E+00
    -11.076  0.0000E+00  0.0000E+00  0.0000E+00  0.0000E+00  0.0000E+00  0.0000E+00  0.0000E+00  0.0000E+00  0.0000E+00
    -10.945  0.0000E+00  0.0000E+00  0.0000E+00  0.0000E+00  0.0000E+00  0.0000E+00  0.0000E+00  0.0000E+00  0.0000E+00
    -10.815  0.0000E+00  0.0000E+00  0.0000E+00  0.0000E+00  0.0000E+00  0.0000E+00  0.0000E+00  0.0000E+00  0.0000E+00
    -10.684  0.0000E+00  0.0000E+00  0.0000E+00  0.0000E+00  0.0000E+00  0.0000E+00  0.0000E+00  0.0000E+00  0.0000E+00
    -10.553  0.0000E+00  0.0000E+00  0.0000E+00  0.0000E+00  0.0000E+00  0.0000E+00  0.0000E+00  0.0000E+00  0.0000E+00
    -10.422  0.0000E+00  0.0000E+00  0.0000E+00  0.0000E+00  0.0000E+00  0.0000E+00  0.0000E+00  0.0000E+00  0.0000E+00
    -10.291  0.0000E+00  0.0000E+00  0.0000E+00  0.0000E+00  0.0000E+00  0.0000E+00  0.0000E+00  0.0000E+00  0.0000E+00
    -10.160  0.0000E+00  0.0000E+00  0.0000E+00  0.0000E+00  0.0000E+00  0.0000E+00  0.0000E+00  0.0000E+00  0.0000E+00
    -10.029  0.0000E+00  0.0000E+00  0.0000E+00  0.0000E+00  0.0000E+00  0.0000E+00  0.0000E+00  0.0000E+00  0.0000E+00
     -9.898  0.0000E+00  0.0000E+00  0.0000E+00  0.0000E+00  0.0000E+00  0.0000E+00  0.0000E+00  0.0000E+00  0.0000E+00
     -9.767  0.0000E+00  0.0000E+00  0.0000E+00  0.0000E+00  0.0000E+00  0.0000E+00  0.0000E+00  0.0000E+00  0.0000E+00
     -9.636  0.0000E+00  0.0000E+00  0.0000E+00  0.0000E+00  0.0000E+00  0.0000E+00  0.0000E+00  0.0000E+00  0.0000E+00
     -9.505  0.0000E+00  0.0000E+00  0.0000E+00  0.0000E+00  0.0000E+00  0.0000E+00  0.0000E+00  0.0000E+00  0.0000E+00
     -9.374  0.0000E+00  0.0000E+00  0.0000E+00  0.0000E+00  0.0000E+00  0.0000E+00  0.0000E+00  0.0000E+00  0.0000E+00
     -9.243  0.0000E+00  0.0000E+00  0.0000E+00  0.0000E+00  0.0000E+00  0.0000E+00  0.0000E+00  0.0000E+00  0.0000E+00
     -9.112  0.0000E+00  0.0000E+00  0.0000E+00  0.0000E+00  0.0000E+00  0.0000E+00  0.0000E+00  0.0000E+00  0.0000E+00
     -8.981  0.0000E+00  0.0000E+00  0.0000E+00  0.0000E+00  0.0000E+00  0.0000E+00  0.0000E+00  0.0000E+00  0.0000E+00
     -8.850  0.0000E+00  0.0000E+00  0.0000E+00  0.0000E+00  0.0000E+00  0.0000E+00  0.0000E+00  0.0000E+00  0.0000E+00
     -8.719  0.0000E+00  0.0000E+00  0.0000E+00  0.0000E+00  0.0000E+00  0.0000E+00  0.0000E+00  0.0000E+00  0.0000E+00
     -8.588  0.0000E+00  0.0000E+00  0.0000E+00  0.0000E+00  0.0000E+00  0.0000E+00  0.0000E+00  0.0000E+00  0.0000E+00
     -8.457  0.0000E+00  0.0000E+00  0.0000E+00  0.0000E+00  0.0000E+00  0.0000E+00  0.0000E+00  0.0000E+00  0.0000E+00
     -8.326  0.0000E+00  0.0000E+00  0.0000E+00  0.0000E+00  0.0000E+00  0.0000E+00  0.0000E+00  0.0000E+00  0.0000E+00
     -8.195  0.0000E+00  0.0000E+00  0.0000E+00  0.0000E+00  0.0000E+00  0.0000E+00  0.0000E+00  0.0000E+00  0.0000E+00
     -8.064  0.0000E+00  0.0000E+00  0.0000E+00  0.0000E+00  0.0000E+00  0.0000E+00  0.0000E+00  0.0000E+00  0.0000E+00
     -7.933  0.0000E+00  0.0000E+00  0.0000E+00  0.0000E+00  0.0000E+00  0.0000E+00  0.0000E+00  0.0000E+00  0.0000E+00
     -7.802  0.0000E+00  0.0000E+00  0.0000E+00  0.0000E+00  0.0000E+00  0.0000E+00  0.0000E+00  0.0000E+00  0.0000E+00
     -7.671  0.0000E+00  0.0000E+00  0.0000E+00  0.0000E+00  0.0000E+00  0.0000E+00  0.0000E+00  0.0000E+00  0.0000E+00
     -7.540  0.0000E+00  0.0000E+00  0.0000E+00  0.0000E+00  0.0000E+00  0.0000E+00  0.0000E+00  0.0000E+00  0.0000E+00
     -7.409  0.0000E+00  0.0000E+00  0.0000E+00  0.0000E+00  0.0000E+00  0.0000E+00  0.0000E+00  0.0000E+00  0.0000E+00
     -7.278  0.0000E+00  0.0000E+00  0.0000E+00  0.0000E+00  0.0000E+00  0.0000E+00  0.0000E+00  0.0000E+00  0.0000E+00
     -7.147  0.0000E+00  0.0000E+00  0.0000E+00  0.0000E+00  0.0000E+00  0.0000E+00  0.0000E+00  0.0000E+00  0.0000E+00
     -7.016  0.0000E+00  0.0000E+00  0.0000E+00  0.0000E+00  0.0000E+00  0.0000E+00  0.0000E+00  0.0000E+00  0.0000E+00
     -6.885  0.0000E+00  0.0000E+00  0.0000E+00  0.0000E+00  0.0000E+00  0.0000E+00  0.0000E+00  0.0000E+00  0.0000E+00
     -6.754  0.0000E+00  0.0000E+00  0.0000E+00  0.0000E+00  0.0000E+00  0.0000E+00  0.0000E+00  0.0000E+00  0.0000E+00
     -6.623  0.0000E+00  0.0000E+00  0.0000E+00  0.0000E+00  0.0000E+00  0.0000E+00  0.0000E+00  0.0000E+00  0.0000E+00
     -6.492  0.0000E+00  0.0000E+00  0.0000E+00  0.0000E+00  0.0000E+00  0.0000E+00  0.0000E+00  0.0000E+00  0.0000E+00
     -6.362  0.0000E+00  0.0000E+00  0.0000E+00  0.0000E+00  0.0000E+00  0.0000E+00  0.0000E+00  0.0000E+00  0.0000E+00
     -6.231  0.0000E+00  0.0000E+00  0.0000E+00  0.0000E+00  0.0000E+00  0.0000E+00  0.0000E+00  0.0000E+00  0.0000E+00
     -6.100  0.0000E+00  0.0000E+00  0.0000E+00  0.0000E+00  0.0000E+00  0.0000E+00  0.0000E+00  0.0000E+00  0.0000E+00
     -5.969  0.0000E+00  0.0000E+00  0.0000E+00  0.0000E+00  0.0000E+00  0.0000E+00  0.0000E+00  0.0000E+00  0.0000E+00
     -5.838  0.0000E+00  0.0000E+00  0.0000E+00  0.0000E+00  0.0000E+00  0.0000E+00  0.0000E+00  0.0000E+00  0.0000E+00
     -5.707  0.0000E+00  0.0000E+00  0.0000E+00  0.0000E+00  0.0000E+00  0.0000E+00  0.0000E+00  0.0000E+00  0.0000E+00
     -5.576  0.0000E+00  0.0000E+00  0.0000E+00  0.0000E+00  0.0000E+00  0.0000E+00  0.0000E+00  0.0000E+00  0.0000E+00
     -5.445  0.0000E+00  0.0000E+00  0.0000E+00  0.0000E+00  0.0000E+00  0.0000E+00  0.0000E+00  0.0000E+00  0.0000E+00
     -5.314  0.0000E+00  0.0000E+00  0.0000E+00  0.0000E+00  0.0000E+00  0.0000E+00  0.0000E+00  0.0000E+00  0.0000E+00
     -5.183  0.0000E+00  0.0000E+00  0.0000E+00  0.0000E+00  0.0000E+00  0.0000E+00  0.0000E+00  0.0000E+00  0.0000E+00
     -5.052  0.0000E+00  0.0000E+00  0.0000E+00  0.0000E+00  0.0000E+00  0.0000E+00  0.0000E+00  0.0000E+00  0.0000E+00
     -4.921  0.0000E+00  0.0000E+00  0.0000E+00  0.0000E+00  0.0000E+00  0.0000E+00  0.0000E+00  0.0000E+00  0.0000E+00
     -4.790  0.0000E+00  0.0000E+00  0.0000E+00  0.0000E+00  0.0000E+00  0.0000E+00  0.0000E+00  0.0000E+00  0.0000E+00
     -4.659  0.0000E+00  0.0000E+00  0.0000E+00  0.0000E+00  0.0000E+00  0.0000E+00  0.0000E+00  0.0000E+00  0.0000E+00
     -4.528  0.0000E+00  0.0000E+00  0.0000E+00  0.0000E+00  0.0000E+00  0.0000E+00  0.0000E+00  0.0000E+00  0.0000E+00
     -4.397  0.0000E+00  0.0000E+00  0.0000E+00  0.0000E+00  0.0000E+00  0.0000E+00  0.0000E+00  0.0000E+00  0.0000E+00
     -4.266  0.0000E+00  0.0000E+00  0.0000E+00  0.0000E+00  0.0000E+00  0.0000E+00  0.0000E+00  0.0000E+00  0.0000E+00
     -4.135  0.0000E+00  0.0000E+00  0.0000E+00  0.0000E+00  0.0000E+00  0.0000E+00  0.0000E+00  0.0000E+00  0.0000E+00
     -4.004  0.0000E+00  0.0000E+00  0.0000E+00  0.0000E+00  0.0000E+00  0.0000E+00  0.0000E+00  0.0000E+00  0.0000E+00
     -3.873  0.0000E+00  0.0000E+00  0.0000E+00  0.0000E+00  0.0000E+00  0.0000E+00  0.0000E+00  0.0000E+00  0.0000E+00
     -3.742  0.0000E+00  0.0000E+00  0.0000E+00  0.0000E+00  0.0000E+00  0.0000E+00  0.0000E+00  0.0000E+00  0.0000E+00
     -3.611  0.0000E+00  0.0000E+00  0.0000E+00  0.0000E+00  0.0000E+00  0.0000E+00  0.0000E+00  0.0000E+00  0.0000E+00
     -3.480  0.0000E+00  0.0000E+00  0.0000E+00  0.0000E+00  0.0000E+00  0.0000E+00  0.0000E+00  0.0000E+00  0.0000E+00
     -3.349  0.0000E+00  0.0000E+00  0.0000E+00  0.0000E+00  0.0000E+00  0.0000E+00  0.0000E+00  0.0000E+00  0.0000E+00
     -3.218  0.0000E+00  0.0000E+00  0.0000E+00  0.0000E+00  0.0000E+00  0.0000E+00  0.0000E+00  0.0000E+00  0.0000E+00
     -3.087  0.0000E+00  0.0000E+00  0.0000E+00  0.0000E+00  0.0000E+00  0.0000E+00  0.0000E+00  0.0000E+00  0.0000E+00
     -2.956  0.0000E+00  0.0000E+00  0.0000E+00  0.0000E+00  0.0000E+00  0.0000E+00  0.0000E+00  0.0000E+00  0.0000E+00
     -2.825  0.0000E+00  0.0000E+00  0.0000E+00  0.0000E+00  0.0000E+00  0.0000E+00  0.0000E+00  0.0000E+00  0.0000E+00
     -2.694  0.0000E+00  0.0000E+00  0.0000E+00  0.0000E+00  0.0000E+00  0.0000E+00  0.0000E+00  0.0000E+00  0.0000E+00
     -2.563  0.0000E+00  0.0000E+00  0.0000E+00  0.0000E+00  0.0000E+00  0.0000E+00  0.0000E+00  0.0000E+00  0.0000E+00
     -2.432  0.0000E+00  0.0000E+00  0.0000E+00  0.0000E+00  0.0000E+00  0.0000E+00  0.0000E+00  0.0000E+00  0.0000E+00
     -2.301  0.0000E+00  0.0000E+00  0.0000E+00  0.0000E+00  0.0000E+00  0.0000E+00  0.0000E+00  0.0000E+00  0.0000E+00
     -2.170  0.0000E+00  0.0000E+00  0.0000E+00  0.0000E+00  0.0000E+00  0.0000E+00  0.0000E+00  0.0000E+00  0.0000E+00
     -2.039  0.0000E+00  0.0000E+00  0.0000E+00  0.0000E+00  0.0000E+00  0.0000E+00  0.0000E+00  0.0000E+00  0.0000E+00
     -1.909  0.0000E+00  0.0000E+00  0.0000E+00  0.0000E+00  0.0000E+00  0.0000E+00  0.0000E+00  0.0000E+00  0.0000E+00
     -1.778  0.1361E-15  0.6000E-33  0.1998E-32  0.5016E-33  0.4613E-17  0.4613E-17  0.3366E-29  0.4613E-17  0.9611E-29
     -1.647  0.5142E-06  0.2267E-23  0.7550E-23  0.1896E-23  0.1743E-07  0.1743E-07  0.1272E-19  0.1743E-07  0.3632E-19
     -1.516  0.5019E-02  0.1641E-16  0.4640E-16  0.1640E-16  0.1702E-03  0.1702E-03  0.1248E-15  0.1702E-03  0.3546E-15
     -1.385  0.7235E-02  0.5392E-07  0.1525E-06  0.5392E-07  0.2453E-03  0.2453E-03  0.1950E-08  0.2453E-03  0.5110E-15
     -1.254  0.2781E-01  0.4644E-03  0.1313E-02  0.4644E-03  0.9439E-03  0.9536E-03  0.1679E-04  0.9536E-03  0.8235E-15
     -1.123  0.4557E-01  0.6642E-03  0.2186E-02  0.6642E-03  0.1618E-02  0.1512E-02  0.8080E-04  0.1512E-02  0.1969E-13
     -0.992  0.6481E-01  0.2922E-03  0.5854E-02  0.3361E-03  0.2700E-02  0.1847E-02  0.4152E-03  0.1842E-02  0.4259E-06
     -0.861  0.6112E-01  0.7495E-04  0.1157E-01  0.6375E-02  0.2407E-02  0.2407E-02  0.3838E-04  0.1723E-02  0.6111E-04
     -0.730  0.2987E-01  0.1047E-02  0.5968E-01  0.1878E-02  0.7657E-03  0.1382E-02  0.1442E-02  0.1213E-02  0.9902E-05
     -0.599  0.1514E+00  0.4114E-02  0.7359E-01  0.7353E-02  0.4279E-02  0.7062E-02  0.5177E-02  0.3066E-02  0.1221E-02
     -0.468  0.1055E+00  0.2369E-02  0.4056E-01  0.3311E-02  0.1801E-02  0.4945E-02  0.4881E-02  0.2221E-02  0.6454E-03
     -0.337  0.7425E-01  0.1318E-02  0.9272E-01  0.7883E-02  0.3271E-02  0.5140E-02  0.3728E-02  0.1612E-02  0.4181E-03
     -0.206  0.6285E-01  0.7412E-03  0.1593E-01  0.1607E-01  0.3259E-02  0.5906E-03  0.7077E-02  0.5505E-03  0.3065E-04
     -0.075  0.5016E-01  0.1807E-04  0.1572E-02  0.7936E-04  0.2423E-02  0.6530E-03  0.1783E-02  0.6520E-03  0.4714E-06
      0.056  0.3877E-01  0.6940E-03  0.3167E-02  0.3440E-03  0.3632E-03  0.1577E-02  0.3157E-02  0.9123E-04  0.5083E-03
      0.187  0.1678E-01  0.3655E-03  0.1241E-01  0.1103E-01  0.8037E-03  0.1576E-02  0.1538E-02  0.4769E-09  0.2685E-03
      0.318  0.2567E-02  0.5786E-03  0.2635E-02  0.9941E-03  0.2607E-03  0.2088E-03  0.1450E-03  0.7064E-04  0.1593E-07
      0.449  0.3870E-01  0.4363E-02  0.4271E-01  0.4368E-02  0.1991E-02  0.3529E-02  0.2932E-02  0.1530E-02  0.2050E-11
      0.580  0.1120E-01  0.7919E-03  0.9119E-02  0.2543E-01  0.3137E-02  0.2682E-03  0.2599E-02  0.9891E-04  0.9926E-08
      0.711  0.1457E-01  0.2011E-02  0.3084E-01  0.2699E-01  0.4109E-02  0.1104E-02  0.5732E-02  0.9753E-03  0.1006E-07
      0.842  0.4322E-01  0.1569E-02  0.7482E-02  0.1574E-02  0.5163E-03  0.1111E-02  0.4901E-02  0.1110E-02  0.2195E-11
      0.973  0.1024E-02  0.2891E-04  0.1447E-03  0.2913E-04  0.5198E-05  0.3190E-04  0.9342E-04  0.3188E-04  0.3060E-07
      1.104  0.2762E-02  0.1137E-02  0.2277E-01  0.7378E-02  0.1070E-02  0.1792E-02  0.3174E-02  0.1326E-02  0.6337E-03
      1.235  0.2637E-01  0.5856E-02  0.2259E-01  0.3274E-01  0.5141E-02  0.1130E-02  0.1101E-01  0.1651E-03  0.1585E-02
      1.366  0.1759E-01  0.1210E-01  0.6366E-02  0.8108E-01  0.7598E-02  0.6086E-03  0.6968E-02  0.2909E-02  0.3434E-02
      1.497  0.8854E-02  0.7101E-02  0.7672E-03  0.1914E-01  0.1589E-02  0.7387E-04  0.1252E-02  0.6448E-03  0.1668E-02
      1.628  0.7489E-02  0.3450E-02  0.6464E-03  0.3047E-02  0.2821E-04  0.1075E-04  0.7233E-03  0.4425E-04  0.3226E-02
      1.759  0.2421E-01  0.1624E-01  0.4374E-02  0.2160E-01  0.1809E-03  0.2021E-03  0.3646E-02  0.2910E-03  0.1437E-01
      1.890  0.1754E-01  0.3985E-01  0.2495E-01  0.5395E-01  0.4227E-02  0.2197E-02  0.2424E-01  0.3420E-02  0.1795E-01
      2.021  0.1110E-01  0.1140E-01  0.1233E-01  0.2434E-01  0.1940E-02  0.1195E-02  0.1138E-01  0.2363E-02  0.1199E-01
      2.152  0.1343E-01  0.2030E-01  0.2209E-01  0.2309E-01  0.9002E-03  0.2776E-02  0.1533E-01  0.3329E-02  0.3034E-01
      2.283  0.3308E-02  0.1174E-01  0.7749E-02  0.1102E-01  0.1321E-02  0.1315E-02  0.1984E-01  0.1481E-02  0.2479E-01
      2.414  0.3467E-03  0.1339E-01  0.1214E-02  0.9433E-02  0.2494E-03  0.2611E-02  0.8133E-02  0.2253E-02  0.4304E-01
      2.544  0.2778E-03  0.1191E-01  0.9462E-02  0.9108E-02  0.9341E-03  0.2396E-02  0.1294E-01  0.2142E-02  0.1293E-01
      2.675  0.1698E-04  0.5600E-02  0.1260E-02  0.5600E-02  0.4212E-03  0.8900E-03  0.3994E-02  0.8900E-03  0.1858E-01
      2.806  0.9192E-09  0.3928E-02  0.5977E-03  0.3928E-02  0.1290E-03  0.4197E-03  0.1539E-02  0.4197E-03  0.3391E-02
      2.937  0.3650E-13  0.3230E-02  0.1923E-02  0.3230E-02  0.7943E-04  0.1391E-03  0.8651E-03  0.1391E-03  0.4472E-02
      3.068  0.4595E-14  0.7752E-03  0.7745E-03  0.7753E-03  0.1309E-04  0.1309E-04  0.1426E-03  0.1309E-04  0.1464E-03
      3.199  0.2849E-19  0.1139E-04  0.1139E-04  0.1139E-04  0.8114E-10  0.8118E-10  0.8837E-09  0.8114E-10  0.8840E-09
      3.330  0.4086E-32  0.2978E-11  0.2978E-11  0.2978E-11  0.2981E-30  0.8394E-31  0.2324E-31  0.5684E-30  0.1073E-30
      3.461  0.0000E+00  0.0000E+00  0.0000E+00  0.0000E+00  0.0000E+00  0.0000E+00  0.0000E+00  0.0000E+00  0.0000E+00
      3.592  0.0000E+00  0.0000E+00  0.0000E+00  0.0000E+00  0.0000E+00  0.0000E+00  0.0000E+00  0.0000E+00  0.0000E+00
      3.723  0.0000E+00  0.0000E+00  0.0000E+00  0.0000E+00  0.0000E+00  0.0000E+00  0.0000E+00  0.0000E+00  0.0000E+00
      3.854  0.0000E+00  0.0000E+00  0.0000E+00  0.0000E+00  0.0000E+00  0.0000E+00  0.0000E+00  0.0000E+00  0.0000E+00
      3.985  0.0000E+00  0.0000E+00  0.0000E+00  0.0000E+00  0.0000E+00  0.0000E+00  0.0000E+00  0.0000E+00  0.0000E+00
      4.116  0.0000E+00  0.0000E+00  0.0000E+00  0.0000E+00  0.0000E+00  0.0000E+00  0.0000E+00  0.0000E+00  0.0000E+00
      4.247  0.0000E+00  0.0000E+00  0.0000E+00  0.0000E+00  0.0000E+00  0.0000E+00  0.0000E+00  0.0000E+00  0.0000E+00
      4.378  0.0000E+00  0.0000E+00  0.0000E+00  0.0000E+00  0.0000E+00  0.0000E+00  0.0000E+00  0.0000E+00  0.0000E+00
      4.509  0.0000E+00  0.0000E+00  0.0000E+00  0.0000E+00  0.0000E+00  0.0000E+00  0.0000E+00  0.0000E+00  0.0000E+00