       N       E                     dE             d eps       ncg     rms          rms(c)
DAV:   1     0.111863002450E+02    0.11186E+02   -0.50737E+03   544   0.904E+02
DAV:   2    -0.131488052325E+02   -0.24335E+02   -0.21994E+02   584   0.134E+02
DAV:   3    -0.134680328527E+02   -0.31923E+00   -0.31923E+00   592   0.174E+01
DAV:   4    -0.134685949153E+02   -0.56206E-03   -0.56206E-03   616   0.666E-01
DAV:   5    -0.134685954735E+02   -0.55827E-06   -0.55827E-06   592   0.164E-02    0.720E+00
DAV:   6    -0.119326563417E+02    0.15359E+01   -0.10276E+01   464   0.224E+01    0.231E+00
DAV:   7    -0.119169659830E+02    0.15690E-01   -0.52612E-02   480   0.271E+00    0.132E+00
DAV:   8    -0.119112908231E+02    0.56752E-02   -0.25844E-02   480   0.243E+00    0.163E-01
DAV:   9    -0.119111812667E+02    0.10956E-03   -0.44687E-04   648   0.189E-01    0.748E-02
DAV:  10    -0.119112919507E+02   -0.11068E-03   -0.13733E-04   472   0.125E-01    0.539E-03
DAV:  11    -0.119112921230E+02   -0.17223E-06   -0.99391E-07   632   0.908E-03    0.308E-03
DAV:  12    -0.119112920126E+02    0.11035E-06   -0.46725E-07   488   0.600E-03    0.292E-04
DAV:  13    -0.119112919941E+02    0.18548E-07   -0.41709E-09   280   0.806E-04
   1 F= -.11911292E+02 E0= -.11911292E+02  d E =-.119113E+02
