PROCAR lm decomposed + phase
# of k-points:   29         # of bands:    8         # of ions:    2

 k-point     1 :    0.00000000 0.00000000 0.00000000     weight = 0.00195312

band     1 # energy  -14.13641865 # occ.  2.00000000
 
ion      s     py     pz     px    dxy    dyz    dz2    dxz  x2-y2    tot
    1  0.041  0.000  0.000  0.000  0.000  0.000  0.000  0.000  0.000  0.041
    2  0.672  0.000  0.000  0.000  0.000  0.000  0.000  0.000  0.000  0.672
tot    0.713  0.000  0.000  0.000  0.000  0.000  0.000  0.000  0.000  0.713
ion          s             py             pz             px             dxy            dyz            dz2            dxz          dx2-y2  
    1 -0.190 -0.032  -0.000  0.000   0.000 -0.000   0.000 -0.000   0.000  0.000   0.000  0.000  -0.000 -0.000   0.000  0.000   0.000  0.000   0.037
    2 -0.797 -0.134   0.000 -0.000  -0.000  0.000  -0.000  0.000   0.000  0.000   0.000  0.000   0.000  0.000   0.000  0.000   0.000  0.000   0.653
charge 0.690          0.000          0.000          0.000          0.000          0.000          0.000          0.000          0.000          0.690       
 
band     2 # energy    2.99783848 # occ.  2.00000000
 
ion      s     py     pz     px    dxy    dyz    dz2    dxz  x2-y2    tot
    1  0.000  0.004  0.011  0.002  0.000  0.000  0.000  0.000  0.000  0.017
    2  0.000  0.185  0.490  0.073  0.000  0.000  0.000  0.000  0.000  0.747
tot    0.000  0.189  0.500  0.074  0.000  0.000  0.000  0.000  0.000  0.764
ion          s             py             pz             px             dxy            dyz            dz2            dxz          dx2-y2  
    1 -0.000 -0.000   0.061 -0.017  -0.099  0.027   0.038 -0.011   0.000 -0.000  -0.000 -0.000   0.000  0.000   0.000  0.000  -0.000  0.000   0.016
    2 -0.000 -0.000  -0.405  0.112   0.660 -0.183  -0.255  0.070   0.000  0.000   0.000  0.000   0.000  0.000   0.000  0.000   0.000  0.000   0.716
charge 0.000          0.181          0.480          0.071          0.000          0.000          0.000          0.000          0.000          0.732       
 
band     3 # energy    2.99783848 # occ.  2.00000000
 
ion      s     py     pz     px    dxy    dyz    dz2    dxz  x2-y2    tot
    1  0.000  0.007  0.000  0.009  0.000  0.000  0.000  0.000  0.000  0.017
    2  0.000  0.313  0.009  0.425  0.000  0.000  0.000  0.000  0.000  0.747
tot    0.000  0.320  0.009  0.435  0.000  0.000  0.000  0.000  0.000  0.764
ion          s             py             pz             px             dxy            dyz            dz2            dxz          dx2-y2  
    1 -0.000  0.000  -0.004 -0.082  -0.001 -0.014   0.004  0.096   0.000 -0.000   0.000  0.000   0.000  0.000   0.000 -0.000  -0.000 -0.000   0.016
    2 -0.000  0.000   0.024  0.547   0.004  0.090  -0.028 -0.638   0.000  0.000   0.000  0.000   0.000  0.000   0.000  0.000   0.000  0.000   0.716
charge 0.000          0.307          0.008          0.416          0.000          0.000          0.000          0.000          0.000          0.732       
 
band     4 # energy    2.99784476 # occ.  2.00000000
 
ion      s     py     pz     px    dxy    dyz    dz2    dxz  x2-y2    tot
    1  0.000  0.006  0.006  0.006  0.000  0.000  0.000  0.000  0.000  0.017
    2  0.000  0.249  0.249  0.249  0.000  0.000  0.000  0.000  0.000  0.747
tot    0.000  0.255  0.254  0.255  0.000  0.000  0.000  0.000  0.000  0.764
ion          s             py             pz             px             dxy            dyz            dz2            dxz          dx2-y2  
    1 -0.000  0.000   0.022  0.070   0.022  0.070   0.022  0.070   0.000 -0.000  -0.000  0.000  -0.000  0.000   0.000  0.000   0.000 -0.000   0.016
    2 -0.000  0.000  -0.150 -0.465  -0.150 -0.465  -0.150 -0.465   0.000  0.000   0.000  0.000   0.000  0.000   0.000  0.000   0.000  0.000   0.716
charge 0.000          0.244          0.244          0.244          0.000          0.000          0.000          0.000          0.000          0.732       
 
band     5 # energy    7.47896716 # occ.  0.00000000
 
ion      s     py     pz     px    dxy    dyz    dz2    dxz  x2-y2    tot
    1  0.238  0.000  0.000  0.000  0.000  0.000  0.000  0.000  0.000  0.238
    2  0.253  0.000  0.000  0.000  0.000  0.000  0.000  0.000  0.000  0.253
tot    0.491  0.000  0.000  0.000  0.000  0.000  0.000  0.000  0.000  0.491
ion          s             py             pz             px             dxy            dyz            dz2            dxz          dx2-y2  
    1  0.474 -0.025  -0.000  0.000   0.000 -0.000  -0.000 -0.000  -0.000  0.000  -0.000  0.000   0.000 -0.000  -0.000  0.000  -0.000  0.000   0.225
    2 -0.497  0.026   0.000 -0.000  -0.000  0.000  -0.000  0.000   0.000  0.000   0.000  0.000   0.000  0.000   0.000  0.000   0.000  0.000   0.248
charge 0.473          0.000          0.000          0.000          0.000          0.000          0.000          0.000          0.000          0.473       
 
band     6 # energy   18.65250878 # occ.  0.00000000
 
ion      s     py     pz     px    dxy    dyz    dz2    dxz  x2-y2    tot
    1  0.000  0.000  0.000  0.000  0.000  0.148  0.000  0.148  0.000  0.296
    2  0.000  0.000  0.000  0.000  0.000  0.000  0.000  0.000  0.000  0.000
tot    0.000  0.000  0.000  0.000  0.000  0.148  0.000  0.148  0.000  0.296
ion          s             py             pz             px             dxy            dyz            dz2            dxz          dx2-y2  
    1  0.000  0.000  -0.000  0.000   0.000 -0.000  -0.000 -0.000   0.000 -0.000  -0.382  0.044   0.000 -0.000   0.382 -0.044  -0.000  0.000   0.296
    2 -0.000 -0.000  -0.000  0.000   0.000 -0.000  -0.000 -0.000   0.000  0.000   0.000  0.000   0.000  0.000   0.000  0.000   0.000  0.000   0.000
charge 0.000          0.000          0.000          0.000          0.000          0.148          0.000          0.148          0.000          0.296       
 
band     7 # energy   18.65250888 # occ.  0.00000000
 
ion      s     py     pz     px    dxy    dyz    dz2    dxz  x2-y2    tot
    1  0.000  0.000  0.000  0.000  0.051  0.122  0.000  0.123  0.000  0.296
    2  0.000  0.000  0.000  0.000  0.000  0.000  0.000  0.000  0.000  0.000
tot    0.000  0.000  0.000  0.000  0.051  0.122  0.000  0.123  0.000  0.296
ion          s             py             pz             px             dxy            dyz            dz2            dxz          dx2-y2  
    1 -0.000 -0.000   0.000 -0.000  -0.000  0.000   0.000  0.000   0.222  0.039  -0.344 -0.060   0.000  0.000  -0.345 -0.060  -0.000 -0.000   0.296
    2 -0.000 -0.000   0.000 -0.000  -0.000  0.000   0.000  0.000   0.000  0.000   0.000  0.000   0.000  0.000   0.000  0.000   0.000  0.000   0.000
charge 0.000          0.000          0.000          0.000          0.051          0.122          0.000          0.123          0.000          0.296       
 
band     8 # energy   18.65250918 # occ.  0.00000000
 
ion      s     py     pz     px    dxy    dyz    dz2    dxz  x2-y2    tot
    1  0.000  0.000  0.000  0.000  0.245  0.025  0.000  0.025  0.000  0.296
    2  0.000  0.000  0.000  0.000  0.000  0.000  0.000  0.000  0.000  0.000
tot    0.000  0.000  0.000  0.000  0.245  0.025  0.000  0.025  0.000  0.296
ion          s             py             pz             px             dxy            dyz            dz2            dxz          dx2-y2  
    1  0.000 -0.000  -0.000  0.000   0.000 -0.000   0.000 -0.000   0.494 -0.018   0.159 -0.006   0.000  0.000   0.160 -0.006   0.000 -0.000   0.296
    2  0.000 -0.000  -0.000  0.000   0.000 -0.000  -0.000 -0.000   0.000  0.000   0.000  0.000   0.000  0.000   0.000  0.000   0.000  0.000   0.000
charge 0.000          0.000          0.000          0.000          0.245          0.025          0.000          0.025          0.000          0.296       
 

 k-point     2 :    0.12500000 0.00000000 0.00000000     weight = 0.01562500

band     1 # energy  -13.98045615 # occ.  2.00000000
 
ion      s     py     pz     px    dxy    dyz    dz2    dxz  x2-y2    tot
    1  0.037  0.001  0.001  0.001  0.000  0.000  0.000  0.000  0.000  0.039
    2  0.681  0.000  0.000  0.000  0.000  0.000  0.000  0.000  0.000  0.682
tot    0.718  0.001  0.001  0.001  0.000  0.000  0.000  0.000  0.000  0.720
ion          s             py             pz             px             dxy            dyz            dz2            dxz          dx2-y2  
    1  0.181  0.014  -0.002  0.027  -0.002  0.027   0.002 -0.027   0.001  0.000  -0.001 -0.000  -0.000 -0.000   0.001  0.000   0.000  0.000   0.035
    2  0.811  0.063  -0.001  0.011  -0.001  0.011   0.001 -0.011   0.000  0.000   0.000  0.000   0.000  0.000   0.000  0.000   0.000  0.000   0.663
charge 0.695          0.001          0.001          0.001          0.000          0.000          0.000          0.000          0.000          0.698       
 
band     2 # energy    2.05259794 # occ.  2.00000000
 
ion      s     py     pz     px    dxy    dyz    dz2    dxz  x2-y2    tot
    1  0.038  0.003  0.003  0.003  0.001  0.001  0.000  0.001  0.000  0.050
    2  0.031  0.206  0.206  0.206  0.000  0.000  0.000  0.000  0.000  0.649
tot    0.068  0.209  0.209  0.209  0.001  0.001  0.000  0.001  0.000  0.699
ion          s             py             pz             px             dxy            dyz            dz2            dxz          dx2-y2  
    1 -0.188  0.007   0.002  0.058   0.002  0.058  -0.002 -0.058  -0.027  0.001   0.027 -0.001   0.000 -0.000  -0.027  0.001  -0.000  0.000   0.047
    2  0.174 -0.006  -0.016 -0.443  -0.016 -0.443   0.016  0.443   0.000  0.000   0.000  0.000   0.000  0.000   0.000  0.000   0.000  0.000   0.619
charge 0.066          0.200          0.200          0.200          0.001          0.001          0.000          0.001          0.000          0.667       
 
band     3 # energy    2.89933200 # occ.  2.00000000
 
ion      s     py     pz     px    dxy    dyz    dz2    dxz  x2-y2    tot
    1  0.000  0.007  0.007  0.000  0.000  0.000  0.003  0.000  0.001  0.019
    2  0.000  0.370  0.370  0.000  0.000  0.000  0.000  0.000  0.000  0.739
tot    0.000  0.377  0.377  0.000  0.000  0.000  0.003  0.000  0.001  0.758
ion          s             py             pz             px             dxy            dyz            dz2            dxz          dx2-y2  
    1 -0.000 -0.000  -0.018  0.081   0.018 -0.081  -0.000  0.000  -0.017 -0.004   0.000  0.000   0.055  0.012   0.017  0.004   0.032  0.007   0.018
    2  0.000  0.000   0.130 -0.581  -0.129  0.581   0.000 -0.000   0.000  0.000   0.000  0.000   0.000  0.000   0.000  0.000   0.000  0.000   0.708
charge 0.000          0.361          0.361          0.000          0.000          0.000          0.003          0.000          0.001          0.726       
 
band     4 # energy    2.89933701 # occ.  2.00000000
 
ion      s     py     pz     px    dxy    dyz    dz2    dxz  x2-y2    tot
    1  0.000  0.002  0.002  0.009  0.000  0.000  0.001  0.000  0.003  0.019
    2  0.000  0.123  0.123  0.493  0.000  0.000  0.000  0.000  0.000  0.739
tot    0.000  0.125  0.126  0.502  0.000  0.000  0.001  0.000  0.003  0.758
ion          s             py             pz             px             dxy            dyz            dz2            dxz          dx2-y2  
    1 -0.000 -0.000  -0.003  0.048  -0.003  0.048  -0.006  0.095   0.010  0.001   0.020  0.001  -0.032 -0.002   0.010  0.001   0.056  0.004   0.018
    2  0.000  0.000   0.023 -0.343   0.023 -0.343   0.047 -0.685   0.000  0.000   0.000  0.000   0.000  0.000   0.000  0.000   0.000  0.000   0.708
charge 0.000          0.120          0.120          0.481          0.000          0.000          0.001          0.000          0.003          0.726       
 
band     5 # energy    8.39649805 # occ.  0.00000000
 
ion      s     py     pz     px    dxy    dyz    dz2    dxz  x2-y2    tot
    1  0.195  0.006  0.006  0.006  0.000  0.000  0.000  0.000  0.000  0.213
    2  0.207  0.037  0.037  0.037  0.000  0.000  0.000  0.000  0.000  0.318
tot    0.402  0.043  0.043  0.043  0.000  0.000  0.000  0.000  0.000  0.531
ion          s             py             pz             px             dxy            dyz            dz2            dxz          dx2-y2  
    1  0.428  0.029  -0.005  0.076  -0.005  0.076   0.005 -0.076  -0.012 -0.001   0.012  0.001  -0.000 -0.000  -0.012 -0.001   0.000  0.000   0.202
    2 -0.448 -0.031   0.013 -0.190   0.013 -0.190  -0.013  0.190   0.000  0.000   0.000  0.000   0.000  0.000   0.000  0.000   0.000  0.000   0.311
charge 0.386          0.042          0.042          0.042          0.000          0.000          0.000          0.000          0.000          0.513       
 
band     6 # energy   16.98130599 # occ.  0.00000000
 
ion      s     py     pz     px    dxy    dyz    dz2    dxz  x2-y2    tot
    1  0.003  0.009  0.009  0.009  0.061  0.061  0.000  0.061  0.000  0.213
    2  0.000  0.012  0.012  0.012  0.000  0.000  0.000  0.000  0.000  0.037
tot    0.003  0.021  0.021  0.021  0.061  0.061  0.000  0.061  0.000  0.250
ion          s             py             pz             px             dxy            dyz            dz2            dxz          dx2-y2  
    1 -0.052 -0.006  -0.011  0.093  -0.011  0.093   0.011 -0.093  -0.246 -0.028   0.246  0.028  -0.000 -0.000  -0.246 -0.028   0.000  0.000   0.213
    2 -0.003 -0.000  -0.012  0.110  -0.012  0.110   0.012 -0.110   0.000  0.000   0.000  0.000   0.000  0.000   0.000  0.000   0.000  0.000   0.037
charge 0.003          0.021          0.021          0.021          0.061          0.061          0.000          0.061          0.000          0.249       
 
band     7 # energy   18.99582335 # occ.  0.00000000
 
ion      s     py     pz     px    dxy    dyz    dz2    dxz  x2-y2    tot
    1  0.000  0.011  0.010  0.000  0.132  0.000  0.001  0.142  0.000  0.296
    2  0.000  0.005  0.005  0.000  0.000  0.000  0.000  0.000  0.000  0.010
tot    0.000  0.016  0.015  0.000  0.132  0.000  0.001  0.142  0.000  0.306
ion          s             py             pz             px             dxy            dyz            dz2            dxz          dx2-y2  
    1 -0.000 -0.000   0.037 -0.095  -0.036  0.092   0.001 -0.003   0.338  0.133  -0.012 -0.005   0.027  0.011  -0.350 -0.138   0.017  0.007   0.296
    2 -0.000 -0.000   0.026 -0.066  -0.025  0.064   0.001 -0.002   0.000  0.000   0.000  0.000   0.000  0.000   0.000  0.000   0.000  0.000   0.010
charge 0.000          0.016          0.014          0.000          0.132          0.000          0.001          0.142          0.000          0.305       
 
band     8 # energy   18.99582578 # occ.  0.00000000
 
ion      s     py     pz     px    dxy    dyz    dz2    dxz  x2-y2    tot
    1  0.000  0.003  0.004  0.014  0.051  0.183  0.000  0.041  0.001  0.296
    2  0.000  0.001  0.002  0.007  0.000  0.000  0.000  0.000  0.000  0.010
tot    0.000  0.005  0.006  0.020  0.051  0.183  0.000  0.041  0.001  0.306
ion          s             py             pz             px             dxy            dyz            dz2            dxz          dx2-y2  
    1 -0.000 -0.000   0.004 -0.055   0.004 -0.061   0.008 -0.116  -0.224 -0.015  -0.426 -0.029  -0.018 -0.001  -0.202 -0.014   0.029  0.002   0.296
    2 -0.000 -0.000   0.003 -0.038   0.003 -0.042   0.005 -0.081   0.000  0.000   0.000  0.000   0.000  0.000   0.000  0.000   0.000  0.000   0.010
charge 0.000          0.004          0.006          0.020          0.051          0.183          0.000          0.041          0.001          0.305       
 

 k-point     3 :    0.25000000 0.00000000 0.00000000     weight = 0.01562500

band     1 # energy  -13.57587264 # occ.  2.00000000
 
ion      s     py     pz     px    dxy    dyz    dz2    dxz  x2-y2    tot
    1  0.024  0.003  0.003  0.003  0.000  0.000  0.000  0.000  0.000  0.032
    2  0.708  0.000  0.000  0.000  0.000  0.000  0.000  0.000  0.000  0.709
tot    0.732  0.003  0.003  0.003  0.000  0.000  0.000  0.000  0.000  0.741
ion          s             py             pz             px             dxy            dyz            dz2            dxz          dx2-y2  
    1 -0.105 -0.101   0.036 -0.037   0.036 -0.037  -0.036  0.037  -0.001 -0.001   0.001  0.001  -0.000 -0.000  -0.001 -0.001   0.000  0.000   0.029
    2 -0.600 -0.574   0.012 -0.012   0.012 -0.012  -0.012  0.012   0.000  0.000   0.000  0.000   0.000  0.000   0.000  0.000   0.000  0.000   0.690
charge 0.711          0.003          0.003          0.003          0.000          0.000          0.000          0.000          0.000          0.720       
 
band     2 # energy    0.38680718 # occ.  2.00000000
 
ion      s     py     pz     px    dxy    dyz    dz2    dxz  x2-y2    tot
    1  0.073  0.002  0.002  0.002  0.002  0.002  0.000  0.002  0.000  0.084
    2  0.037  0.167  0.167  0.167  0.000  0.000  0.000  0.000  0.000  0.538
tot    0.110  0.169  0.169  0.169  0.002  0.002  0.000  0.002  0.000  0.621
ion          s             py             pz             px             dxy            dyz            dz2            dxz          dx2-y2  
    1  0.185  0.183   0.027 -0.028   0.027 -0.028  -0.027  0.028   0.032  0.032  -0.032 -0.032  -0.000 -0.000   0.032  0.032   0.000  0.000   0.078
    2 -0.136 -0.135  -0.279  0.282  -0.279  0.282   0.279 -0.282   0.000  0.000   0.000  0.000   0.000  0.000   0.000  0.000   0.000  0.000   0.509
charge 0.104          0.159          0.159          0.159          0.002          0.002          0.000          0.002          0.000          0.587       
 
band     3 # energy    2.67210386 # occ.  2.00000000
 
ion      s     py     pz     px    dxy    dyz    dz2    dxz  x2-y2    tot
    1  0.000  0.004  0.004  0.000  0.001  0.000  0.010  0.001  0.003  0.024
    2  0.000  0.362  0.361  0.000  0.000  0.000  0.000  0.000  0.000  0.723
tot    0.000  0.366  0.365  0.000  0.001  0.000  0.010  0.001  0.003  0.746
ion          s             py             pz             px             dxy            dyz            dz2            dxz          dx2-y2  
    1  0.000 -0.000  -0.062 -0.005   0.062  0.005  -0.000 -0.000   0.002 -0.029  -0.000  0.000  -0.008  0.102  -0.002  0.029  -0.005  0.059   0.023
    2 -0.000  0.000   0.586  0.048  -0.585 -0.048   0.001  0.000   0.000  0.000   0.000  0.000   0.000  0.000   0.000  0.000   0.000  0.000   0.691
charge 0.000          0.350          0.349          0.000          0.001          0.000          0.010          0.001          0.003          0.714       
 
band     4 # energy    2.67210783 # occ.  2.00000000
 
ion      s     py     pz     px    dxy    dyz    dz2    dxz  x2-y2    tot
    1  0.000  0.001  0.001  0.005  0.000  0.001  0.003  0.000  0.010  0.024
    2  0.000  0.120  0.121  0.482  0.000  0.000  0.000  0.000  0.000  0.723
tot    0.000  0.121  0.122  0.487  0.000  0.001  0.003  0.000  0.010  0.746
ion          s             py             pz             px             dxy            dyz            dz2            dxz          dx2-y2  
    1  0.000  0.000   0.025 -0.026   0.025 -0.026   0.050 -0.052  -0.012 -0.012  -0.025 -0.024   0.042  0.041  -0.012 -0.012  -0.073 -0.071   0.023
    2 -0.000 -0.000  -0.236  0.243  -0.237  0.244  -0.472  0.488   0.000  0.000   0.000  0.000   0.000  0.000   0.000  0.000   0.000  0.000   0.691
charge 0.000          0.116          0.117          0.466          0.000          0.001          0.003          0.000          0.010          0.714       
 
band     5 # energy    9.85363693 # occ.  0.00000000
 
ion      s     py     pz     px    dxy    dyz    dz2    dxz  x2-y2    tot
    1  0.128  0.023  0.023  0.023  0.001  0.001  0.000  0.001  0.000  0.199
    2  0.159  0.048  0.048  0.048  0.000  0.000  0.000  0.000  0.000  0.304
tot    0.287  0.071  0.071  0.071  0.001  0.001  0.000  0.001  0.000  0.503
ion          s             py             pz             px             dxy            dyz            dz2            dxz          dx2-y2  
    1 -0.257 -0.235   0.101 -0.110   0.101 -0.110  -0.101  0.110   0.023  0.021  -0.023 -0.021   0.000  0.000   0.023  0.021  -0.000 -0.000   0.191
    2  0.289  0.264  -0.148  0.162  -0.148  0.162   0.148 -0.162   0.000  0.000   0.000  0.000   0.000  0.000   0.000  0.000   0.000  0.000   0.297
charge 0.275          0.070          0.070          0.070          0.001          0.001          0.000          0.001          0.000          0.488       
 
band     6 # energy   15.40922201 # occ.  0.00000000
 
ion      s     py     pz     px    dxy    dyz    dz2    dxz  x2-y2    tot
    1  0.033  0.013  0.013  0.013  0.034  0.034  0.000  0.034  0.000  0.176
    2  0.000  0.054  0.054  0.054  0.000  0.000  0.000  0.000  0.000  0.162
tot    0.033  0.067  0.067  0.067  0.034  0.034  0.000  0.034  0.000  0.338
ion          s             py             pz             px             dxy            dyz            dz2            dxz          dx2-y2  
    1  0.130  0.123   0.079 -0.083   0.079 -0.083  -0.079  0.083   0.134  0.127  -0.134 -0.127  -0.000 -0.000   0.134  0.127   0.000  0.000   0.174
    2 -0.009 -0.008   0.160 -0.169   0.160 -0.169  -0.160  0.169   0.000  0.000   0.000  0.000   0.000  0.000   0.000  0.000   0.000  0.000   0.162
charge 0.032          0.067          0.067          0.067          0.034          0.034          0.000          0.034          0.000          0.337       
 
band     7 # energy   19.43812202 # occ.  0.00000000
 
ion      s     py     pz     px    dxy    dyz    dz2    dxz  x2-y2    tot
    1  0.000  0.079  0.078  0.000  0.073  0.000  0.011  0.074  0.004  0.317
    2  0.000  0.008  0.008  0.000  0.000  0.000  0.000  0.000  0.000  0.016
tot    0.000  0.087  0.086  0.000  0.073  0.000  0.011  0.074  0.004  0.334
ion          s             py             pz             px             dxy            dyz            dz2            dxz          dx2-y2  
    1 -0.000  0.000   0.240  0.143  -0.238 -0.142   0.002  0.001  -0.138  0.232   0.001 -0.002  -0.053  0.089   0.139 -0.233  -0.031  0.052   0.315
    2  0.000 -0.000   0.078  0.046  -0.077 -0.046   0.001  0.000   0.000  0.000   0.000  0.000   0.000  0.000   0.000  0.000   0.000  0.000   0.016
charge 0.000          0.086          0.085          0.000          0.073          0.000          0.011          0.074          0.004          0.332       
 
band     8 # energy   19.43812882 # occ.  0.00000000
 
ion      s     py     pz     px    dxy    dyz    dz2    dxz  x2-y2    tot
    1  0.000  0.025  0.027  0.104  0.025  0.098  0.004  0.024  0.011  0.317
    2  0.000  0.003  0.003  0.011  0.000  0.000  0.000  0.000  0.000  0.016
tot    0.000  0.028  0.029  0.115  0.025  0.098  0.004  0.024  0.011  0.334
ion          s             py             pz             px             dxy            dyz            dz2            dxz          dx2-y2  
    1 -0.000 -0.000   0.110 -0.114   0.113 -0.117   0.223 -0.231  -0.113 -0.110  -0.225 -0.217  -0.044 -0.042  -0.111 -0.107   0.075  0.072   0.315
    2 -0.000 -0.000   0.036 -0.037   0.037 -0.038   0.072 -0.075   0.000  0.000   0.000  0.000   0.000  0.000   0.000  0.000   0.000  0.000   0.016
charge 0.000          0.028          0.029          0.114          0.025          0.098          0.004          0.024          0.011          0.332       
 

 k-point     4 :    0.37500000 0.00000000 0.00000000     weight = 0.01562500

band     1 # energy  -13.12213435 # occ.  2.00000000
 
ion      s     py     pz     px    dxy    dyz    dz2    dxz  x2-y2    tot
    1  0.008  0.005  0.005  0.005  0.000  0.000  0.000  0.000  0.000  0.023
    2  0.743  0.000  0.000  0.000  0.000  0.000  0.000  0.000  0.000  0.744
tot    0.751  0.005  0.005  0.005  0.000  0.000  0.000  0.000  0.000  0.767
ion          s             py             pz             px             dxy            dyz            dz2            dxz          dx2-y2  
    1 -0.060 -0.058   0.048 -0.050   0.048 -0.050  -0.048  0.050  -0.001 -0.001   0.001  0.001  -0.000 -0.000  -0.001 -0.001   0.000  0.000   0.022
    2 -0.614 -0.590   0.009 -0.010   0.009 -0.010  -0.009  0.010   0.000  0.000   0.000  0.000   0.000  0.000   0.000  0.000   0.000  0.000   0.726
charge 0.732          0.005          0.005          0.005          0.000          0.000          0.000          0.000          0.000          0.747       
 
band     2 # energy   -0.97737917 # occ.  2.00000000
 
ion      s     py     pz     px    dxy    dyz    dz2    dxz  x2-y2    tot
    1  0.094  0.000  0.000  0.000  0.003  0.003  0.000  0.003  0.000  0.105
    2  0.015  0.148  0.148  0.148  0.000  0.000  0.000  0.000  0.000  0.459
tot    0.109  0.148  0.148  0.148  0.003  0.003  0.000  0.003  0.000  0.564
ion          s             py             pz             px             dxy            dyz            dz2            dxz          dx2-y2  
    1 -0.211 -0.207  -0.015  0.015  -0.015  0.015   0.015 -0.015  -0.040 -0.039   0.040  0.039  -0.000 -0.000  -0.040 -0.039   0.000  0.000   0.098
    2  0.087  0.085   0.260 -0.265   0.260 -0.265  -0.260  0.265   0.000  0.000   0.000  0.000   0.000  0.000   0.000  0.000   0.000  0.000   0.429
charge 0.102          0.139          0.139          0.139          0.003          0.003          0.000          0.003          0.000          0.527       
 
band     3 # energy    2.45805595 # occ.  2.00000000
 
ion      s     py     pz     px    dxy    dyz    dz2    dxz  x2-y2    tot
    1  0.000  0.001  0.001  0.000  0.001  0.000  0.017  0.001  0.006  0.028
    2  0.000  0.355  0.353  0.000  0.000  0.000  0.000  0.000  0.000  0.708
tot    0.000  0.356  0.354  0.000  0.001  0.000  0.017  0.001  0.006  0.736
ion          s             py             pz             px             dxy            dyz            dz2            dxz          dx2-y2  
    1 -0.000 -0.000  -0.023  0.024   0.023 -0.024  -0.000  0.000  -0.026 -0.025   0.000  0.000   0.094  0.091   0.026  0.025   0.055  0.053   0.028
    2  0.000  0.000   0.406 -0.418  -0.405  0.416   0.001 -0.001   0.000  0.000   0.000  0.000   0.000  0.000   0.000  0.000   0.000  0.000   0.676
charge 0.000          0.340          0.338          0.000          0.001          0.000          0.017          0.001          0.006          0.704       
 
band     4 # energy    2.45805893 # occ.  2.00000000
 
ion      s     py     pz     px    dxy    dyz    dz2    dxz  x2-y2    tot
    1  0.000  0.000  0.000  0.002  0.000  0.002  0.006  0.000  0.017  0.028
    2  0.000  0.117  0.119  0.472  0.000  0.000  0.000  0.000  0.000  0.708
tot    0.000  0.117  0.120  0.474  0.000  0.002  0.006  0.000  0.017  0.736
ion          s             py             pz             px             dxy            dyz            dz2            dxz          dx2-y2  
    1  0.000  0.000   0.013 -0.014   0.014 -0.014   0.027 -0.027  -0.015 -0.015  -0.030 -0.029   0.054  0.053  -0.015 -0.015  -0.093 -0.092   0.028
    2 -0.000 -0.000  -0.234  0.238  -0.237  0.240  -0.471  0.479   0.000  0.000   0.000  0.000   0.000  0.000   0.000  0.000   0.000  0.000   0.676
charge 0.000          0.112          0.114          0.452          0.000          0.002          0.006          0.000          0.017          0.704       
 
band     5 # energy   10.61361886 # occ.  0.00000000
 
ion      s     py     pz     px    dxy    dyz    dz2    dxz  x2-y2    tot
    1  0.039  0.049  0.049  0.049  0.001  0.001  0.000  0.001  0.000  0.189
    2  0.124  0.016  0.016  0.016  0.000  0.000  0.000  0.000  0.000  0.173
tot    0.164  0.065  0.065  0.065  0.001  0.001  0.000  0.001  0.000  0.362
ion          s             py             pz             px             dxy            dyz            dz2            dxz          dx2-y2  
    1 -0.138 -0.136   0.153 -0.156   0.153 -0.156  -0.153  0.156   0.024  0.024  -0.024 -0.024   0.000  0.000   0.024  0.024  -0.000 -0.000   0.184
    2  0.246  0.242  -0.089  0.091  -0.089  0.091   0.089 -0.091   0.000  0.000   0.000  0.000   0.000  0.000   0.000  0.000   0.000  0.000   0.168
charge 0.157          0.064          0.064          0.064          0.001          0.001          0.000          0.001          0.000          0.352       
 
band     6 # energy   15.13057897 # occ.  0.00000000
 
ion      s     py     pz     px    dxy    dyz    dz2    dxz  x2-y2    tot
    1  0.109  0.005  0.005  0.005  0.017  0.017  0.000  0.017  0.000  0.176
    2  0.001  0.125  0.125  0.125  0.000  0.000  0.000  0.000  0.000  0.377
tot    0.110  0.130  0.130  0.130  0.017  0.017  0.000  0.017  0.000  0.553
ion          s             py             pz             px             dxy            dyz            dz2            dxz          dx2-y2  
    1  0.231  0.228   0.049 -0.049   0.049 -0.049  -0.049  0.049   0.094  0.092  -0.094 -0.092  -0.000 -0.000   0.094  0.092   0.000  0.000   0.172
    2 -0.023 -0.023   0.248 -0.252   0.248 -0.252  -0.248  0.252   0.000  0.000   0.000  0.000   0.000  0.000   0.000  0.000   0.000  0.000   0.377
charge 0.106          0.130          0.130          0.130          0.017          0.017          0.000          0.017          0.000          0.548       
 
band     7 # energy   19.22334103 # occ.  0.00000000
 
ion      s     py     pz     px    dxy    dyz    dz2    dxz  x2-y2    tot
    1  0.000  0.156  0.155  0.000  0.013  0.000  0.007  0.013  0.002  0.347
    2  0.000  0.002  0.002  0.000  0.000  0.000  0.000  0.000  0.000  0.004
tot    0.000  0.158  0.157  0.000  0.013  0.000  0.007  0.013  0.002  0.351
ion          s             py             pz             px             dxy            dyz            dz2            dxz          dx2-y2  
    1 -0.000 -0.000  -0.240  0.311   0.239 -0.310  -0.000  0.000  -0.091 -0.070   0.000  0.000  -0.068 -0.052   0.091  0.070  -0.039 -0.030   0.343
    2  0.000  0.000  -0.028  0.036   0.028 -0.036  -0.000  0.000   0.000  0.000   0.000  0.000   0.000  0.000   0.000  0.000   0.000  0.000   0.004
charge 0.000          0.156          0.156          0.000          0.013          0.000          0.007          0.013          0.002          0.348       
 
band     8 # energy   19.22334799 # occ.  0.00000000
 
ion      s     py     pz     px    dxy    dyz    dz2    dxz  x2-y2    tot