 vasp.5.4.1 05Feb16 (build Apr 11 2016 10:12:08) gamma-only                     
  
 executed on           IFC91_ompi date 2017.09.26  16:20:13
 running on   16 total cores
 distrk:  each k-point on    4 cores,    4 groups
 distr:  one band on NCORES_PER_BAND=   1 cores,    4 groups


--------------------------------------------------------------------------------------------------------


 INCAR:
 POTCAR:    PAW_PBE O 08Apr2002                   

 ----------------------------------------------------------------------------- 
|                                                                             |
|           W    W    AA    RRRRR   N    N  II  N    N   GGGG   !!!           |
|           W    W   A  A   R    R  NN   N  II  NN   N  G    G  !!!           |
|           W    W  A    A  R    R  N N  N  II  N N  N  G       !!!           |
|           W WW W  AAAAAA  RRRRR   N  N N  II  N  N N  G  GGG   !            |
|           WW  WW  A    A  R   R   N   NN  II  N   NN  G    G                |
|           W    W  A    A  R    R  N    N  II  N    N   GGGG   !!!           |
|                                                                             |
|      For optimal performance we recommend to set                            |
|        NCORE= 4 - approx SQRT( number of cores)                             |
|      NCORE specifies how many cores store one orbital (NPAR=cpu/NCORE).     |
|      This setting can  greatly improve the performance of VASP for DFT.     |
|      The default, NPAR=number of cores might be grossly inefficient         |
|      on modern multi-core architectures or massively parallel machines.     |
|      Do your own testing !!!!                                               |
|      Unfortunately you need to use the default for GW and RPA calculations. |
|      (for HF NCORE is supported but not extensively tested yet)             |
|                                                                             |
 ----------------------------------------------------------------------------- 


 ----------------------------------------------------------------------------- 
|                                                                             |
|           W    W    AA    RRRRR   N    N  II  N    N   GGGG   !!!           |
|           W    W   A  A   R    R  NN   N  II  NN   N  G    G  !!!           |
|           W    W  A    A  R    R  N N  N  II  N N  N  G       !!!           |
|           W WW W  AAAAAA  RRRRR   N  N N  II  N  N N  G  GGG   !            |
|           WW  WW  A    A  R   R   N   NN  II  N   NN  G    G                |
|           W    W  A    A  R    R  N    N  II  N    N   GGGG   !!!           |
|                                                                             |
|      You have enabled k-point parallelism (KPAR>1).                         |
|      This developmental code was originally  written by Paul Kent at ORNL,  |
|      and carefully double checked in Vienna.                                |
|      GW as well as linear response parallelism added by Martijn Marsman     |
|      and Georg Kresse.                                                      |
|      Carefully verify results versus KPAR=1.                                |
|      Report problems to Paul Kent and Vienna.                               |
|                                                                             |
 ----------------------------------------------------------------------------- 

 POTCAR:    PAW_PBE O 08Apr2002                   
   VRHFIN =O: s2p4                                                              
   LEXCH  = PE                                                                  
   EATOM  =   432.3788 eV,   31.7789 Ry                                         
                                                                                
   TITEL  = PAW_PBE O 08Apr2002                                                 
   LULTRA =        F    use ultrasoft PP ?                                      
   IUNSCR =        1    unscreen: 0-lin 1-nonlin 2-no                           
   RPACOR =    1.200    partial core radius                                     
   POMASS =   16.000; ZVAL   =    6.000    mass and valenz                      
   RCORE  =    1.520    outmost cutoff radius                                   
   RWIGS  =    1.550; RWIGS  =    0.820    wigner-seitz radius (au A)           
   ENMAX  =  400.000; ENMIN  =  300.000 eV                                      
   ICORE  =        2    local potential                                         
   LCOR   =        T    correct aug charges                                     
   LPAW   =        T    paw PP                                                  
   EAUG   =  605.392                                                            
   DEXC   =    0.000                                                            
   RMAX   =    1.553    core radius for proj-oper                               
   RAUG   =    1.300    factor for augmentation sphere                          
   RDEP   =    1.550    radius for radial grids                                 
   RDEPT  =    1.329    core radius for aug-charge                              
                                                                                
   Atomic configuration                                                         
    4 entries                                                                   
     n  l   j            E        occ.                                          
     1  0  0.50      -514.6923   2.0000                                         
     2  0  0.50       -23.9615   2.0000                                         
     2  1  0.50        -9.0305   4.0000                                         
     3  2  1.50        -9.5241   0.0000                                         
   Description                                                                  
     l       E           TYP  RCUT    TYP  RCUT                                 
     0    -23.9615318     23  1.200                                             
     0     -9.5240782     23  1.200                                             
     1     -9.0304911     23  1.520                                             
     1      8.1634956     23  1.520                                             
     2     -9.5240782      7  1.500                                             
  local pseudopotential read in
  partial core-charges read in
  partial kinetic energy density read in
  kinetic energy density of atom read in
  atomic valenz-charges read in
  non local Contribution for L=           0  read in
    real space projection operators read in
  non local Contribution for L=           0  read in
    real space projection operators read in
  non local Contribution for L=           1  read in
    real space projection operators read in
  non local Contribution for L=           1  read in
    real space projection operators read in
    PAW grid and wavefunctions read in
 
   number of l-projection  operators is LMAX  =           4
   number of lm-projection operators is LMMAX =           8
 

 ----------------------------------------------------------------------------- 
|                                                                             |
|  ADVICE TO THIS USER RUNNING 'VASP/VAMP'   (HEAR YOUR MASTER'S VOICE ...):  |
|                                                                             |
|      You have a (more or less) 'small supercell' and for smaller cells      |
|      it is recommended  to use the reciprocal-space projection scheme!      |
|      The real space optimization is not  efficient for small cells and it   |
|      is also less accurate ...                                              |
|      Therefore set LREAL=.FALSE. in the  INCAR file                         |
|                                                                             |
 ----------------------------------------------------------------------------- 

 Optimization of the real space projectors (new method)

 maximal supplied QI-value         = 24.76
 optimisation between [QCUT,QGAM] = [ 10.15, 20.30] = [ 28.85,115.39] Ry 
 Optimized for a Real-space Cutoff    1.38 Angstroem

   l    n(q)    QCUT    max X(q) W(low)/X(q) W(high)/X(q)  e(spline) 
   0      8    10.150    20.381    0.22E-03    0.32E-03    0.29E-06
   0      8    10.150    15.268    0.23E-03    0.35E-03    0.30E-06
   1      8    10.150     5.964    0.46E-03    0.53E-03    0.21E-06
   1      8    10.150     5.382    0.38E-03    0.45E-03    0.19E-06

 ----------------------------------------------------------------------------- 
|                                                                             |
|  ADVICE TO THIS USER RUNNING 'VASP/VAMP'   (HEAR YOUR MASTER'S VOICE ...):  |
|                                                                             |
|      You enforced a specific xc-type in the INCAR file,                     |
|      a different type was found on the POTCAR file                          |
|          I HOPE YOU KNOW, WHAT YOU ARE  DOING                               |
|                                                                             |
 ----------------------------------------------------------------------------- 

  PAW_PBE O 08Apr2002                   :
 energy of atom  1       EATOM= -432.3788
 kinetic energy error for atom=    0.1156 (will be added to EATOM!!)
 
 
 POSCAR: O2                                      
  positions in direct lattice
  No initial velocities read in
 exchange correlation table for  LEXCH =       14
   RHO(1)=    0.500       N(1)  =     2000
   RHO(2)=  100.500       N(2)  =     4000
 


--------------------------------------------------------------------------------------------------------


 ion  position               nearest neighbor table
   1  0.060  0.000  0.000-   2 1.20
   2  0.940  0.000  0.000-   1 1.20
 
  LATTYP: Found a simple orthorhombic cell.
 ALAT       =    10.0000000000
 B/A-ratio  =     1.0100000000
 C/A-ratio  =     1.0200000000
  
  Lattice vectors:
  
 A1 = (  10.0000000000,   0.0000000000,   0.0000000000)
 A2 = (   0.0000000000,  10.1000000000,   0.0000000000)
 A3 = (   0.0000000000,   0.0000000000,  10.2000000000)


Analysis of symmetry for initial positions (statically):
=====================================================================
 Subroutine PRICEL returns:
 Original cell was already a primitive cell.
 

 Routine SETGRP: Setting up the symmetry group for a 
 simple orthorhombic supercell.


 Subroutine GETGRP returns: Found  8 space group operations
 (whereof  8 operations were pure point group operations)
 out of a pool of  8 trial point group operations.


The static configuration has the point symmetry D_2h.


Analysis of symmetry for dynamics (positions and initial velocities):
=====================================================================
 Subroutine PRICEL returns:
 Original cell was already a primitive cell.
 

 Routine SETGRP: Setting up the symmetry group for a 
 simple orthorhombic supercell.


 Subroutine GETGRP returns: Found  8 space group operations
 (whereof  8 operations were pure point group operations)
 out of a pool of  8 trial point group operations.


The dynamic configuration has the point symmetry D_2h.


Analysis of structural, dynamic, and magnetic symmetry:
=====================================================================
 Subroutine PRICEL returns:
 Original cell was already a primitive cell.
 

 Routine SETGRP: Setting up the symmetry group for a 
 simple orthorhombic supercell.


 Subroutine GETGRP returns: Found  8 space group operations
 (whereof  8 operations were pure point group operations)
 out of a pool of  8 trial point group operations.


The magnetic configuration has the point symmetry D_2h.


 Subroutine INISYM returns: Found  8 space group operations
 (whereof  8 operations are pure point group operations),
 and found     1 'primitive' translations

 
 
 KPOINTS: k-point mesh generated by kpt_generator.

Automatic generation of k-mesh.
Space group operators:
 irot       det(A)        alpha          n_x          n_y          n_z        tau_x        tau_y        tau_z
    1     1.000000     0.000001     1.000000     0.000000     0.000000     0.000000     0.000000     0.000000
    2    -1.000000     0.000001     1.000000     0.000000     0.000000     0.000000     0.000000     0.000000
    3     1.000000   180.000000     0.000000     0.000000     1.000000     0.000000     0.000000     0.000000
    4    -1.000000   180.000000     0.000000     0.000000     1.000000     0.000000     0.000000     0.000000
    5     1.000000   180.000000     0.000000     1.000000     0.000000     0.000000     0.000000     0.000000
    6    -1.000000   180.000000     0.000000     1.000000     0.000000     0.000000     0.000000     0.000000
    7     1.000000   180.000000     1.000000     0.000000     0.000000     0.000000     0.000000     0.000000
    8    -1.000000   180.000000     1.000000     0.000000     0.000000     0.000000     0.000000     0.000000
 
 Subroutine IBZKPT returns following result:
 ===========================================
 
 Found      1 irreducible k-points:
 
 Following reciprocal coordinates:
            Coordinates               Weight
  0.000000  0.000000  0.000000      1.000000
 
 Following cartesian coordinates:
            Coordinates               Weight
  0.000000  0.000000  0.000000      1.000000
 


--------------------------------------------------------------------------------------------------------




 Dimension of arrays:
   k-points           NKPTS =      1   k-points in BZ     NKDIM =      1   number of bands    NBANDS=     12
   number of dos      NEDOS =    301   number of ions     NIONS =      2
   non local maximal  LDIM  =      4   non local SUM 2l+1 LMDIM =      8
   total plane-waves  NPLWV = 125000
   max r-space proj   IRMAX =   1387   max aug-charges    IRDMAX=   1774
   dimension x,y,z NGX =    50 NGY =   50 NGZ =   50
   dimension x,y,z NGXF=   100 NGYF=  100 NGZF=  100
   support grid    NGXF=   100 NGYF=  100 NGZF=  100
   ions per type =               2
 NGX,Y,Z   is equivalent  to a cutoff of   8.31,  8.23,  8.15 a.u.
 NGXF,Y,Z  is equivalent  to a cutoff of  16.62, 16.46, 16.30 a.u.


 I would recommend the setting:
   dimension x,y,z NGX =    49 NGY =   49 NGZ =   50
 SYSTEM =  unknown system                          
 POSCAR =  O2                                      

 Startparameter for this run:
   NWRITE =      2    write-flag & timer
   PREC   = n         normal or accurate (medium, high low for compatibility)
   ISTART =      0    job   : 0-new  1-cont  2-samecut
   ICHARG =      2    charge: 1-file 2-atom 10-const
   ISPIN  =      2    spin polarized calculation?
   LNONCOLLINEAR =      F non collinear calculations
   LSORBIT =      F    spin-orbit coupling
   INIWAV =      1    electr: 0-lowe 1-rand  2-diag
   LASPH  =      T    aspherical Exc in radial PAW
   METAGGA=      F    non-selfconsistent MetaGGA calc.

 Electronic Relaxation 1
   ENCUT  =  400.0 eV  29.40 Ry    5.42 a.u.  16.31 16.47 16.63*2*pi/ulx,y,z
   ENINI  =  400.0     initial cutoff
   ENAUG  =  605.4 eV  augmentation charge cutoff
   NELM   =    100;   NELMIN=  4; NELMDL= -5     # of ELM steps 
   EDIFF  = 0.1E-05   stopping-criterion for ELM
   LREAL  =      T    real-space projection
   NLSPLINE    = F    spline interpolate recip. space projectors
   LCOMPAT=      F    compatible to vasp.4.4
   GGA_COMPAT  = T    GGA compatible to vasp.4.4-vasp.4.6
   LMAXPAW     = -100 max onsite density
   LMAXMIX     =    2 max onsite mixed and CHGCAR
   VOSKOWN=      0    Vosko Wilk Nusair interpolation
   ROPT   =   -0.00050
 Ionic relaxation
   EDIFFG = -.2E-01   stopping-criterion for IOM
   NSW    =     20    number of steps for IOM
   NBLOCK =      1;   KBLOCK =     20    inner block; outer block 
   IBRION =      2    ionic relax: 0-MD 1-quasi-New 2-CG
   NFREE  =      1    steps in history (QN), initial steepest desc. (CG)
   ISIF   =      2    stress and relaxation
   IWAVPR =     11    prediction:  0-non 1-charg 2-wave 3-comb
   ISYM   =      2    0-nonsym 1-usesym 2-fastsym
   LCORR  =      T    Harris-Foulkes like correction to forces

   POTIM  = 0.5000    time-step for ionic-motion
   TEIN   =    0.0    initial temperature
   TEBEG  =    0.0;   TEEND  =   0.0 temperature during run
   SMASS  =  -3.00    Nose mass-parameter (am)
   estimated Nose-frequenzy (Omega)   =  0.10E-29 period in steps =****** mass=  -0.229E-26a.u.
   SCALEE = 1.0000    scale energy and forces
   NPACO  =    256;   APACO  = 16.0  distance and # of slots for P.C.
   PSTRESS=    0.0 pullay stress

  Mass of Ions in am
   POMASS =  16.00
  Ionic Valenz
   ZVAL   =   6.00
  Atomic Wigner-Seitz radii
   RWIGS  =  -1.00
  virtual crystal weights 
   VCA    =   1.00
   NELECT =      12.0000    total number of electrons
   NUPDOWN=       2.0000    fix difference up-down

 DOS related values:
   EMIN   =  10.00;   EMAX   =-10.00  energy-range for DOS
   EFERMI =   0.00
   ISMEAR =     0;   SIGMA  =   0.20  broadening in eV -4-tet -1-fermi 0-gaus

 Electronic relaxation 2 (details)
   IALGO  =     38    algorithm
   LDIAG  =      T    sub-space diagonalisation (order eigenvalues)
   LSUBROT=      F    optimize rotation matrix (better conditioning)
   TURBO    =      0    0=normal 1=particle mesh
   IRESTART =      0    0=no restart 2=restart with 2 vectors
   NREBOOT  =      0    no. of reboots
   NMIN     =      0    reboot dimension
   EREF     =   0.00    reference energy to select bands
   IMIX   =      4    mixing-type and parameters
     AMIX     =   0.40;   BMIX     =  1.00
     AMIX_MAG =   1.60;   BMIX_MAG =  1.00
     AMIN     =   0.10
     WC   =   100.;   INIMIX=   1;  MIXPRE=   1;  MAXMIX= -45

 Intra band minimization:
   WEIMIN = 0.0010     energy-eigenvalue tresh-hold
   EBREAK =  0.21E-07  absolut break condition
   DEPER  =   0.30     relativ break condition  

   TIME   =   0.40     timestep for ELM

  volume/ion in A,a.u.               =     515.10      3476.07
  Fermi-wavevector in a.u.,A,eV,Ry     =   0.371103  0.701283  1.873762  0.137718
  Thomas-Fermi vector in A             =   1.298976
 
 Write flags
   LWAVE  =      T    write WAVECAR
   LCHARG =      F    write CHGCAR
   LVTOT  =      F    write LOCPOT, total local potential
   LVHAR  =      F    write LOCPOT, Hartree potential only
   LELF   =      F    write electronic localiz. function (ELF)
   LORBIT =      0    0 simple, 1 ext, 2 COOP (PROOUT)


 Dipole corrections
   LMONO  =      F    monopole corrections only (constant potential shift)
   LDIPOL =      F    correct potential (dipole corrections)
   IDIPOL =      0    1-x, 2-y, 3-z, 4-all directions 
   EPSILON=  1.0000000 bulk dielectric constant

 Exchange correlation treatment:
   GGA     =    PS    GGA type
   LEXCH   =    14    internal setting for exchange type
   VOSKOWN=      0    Vosko Wilk Nusair interpolation
   LHFCALC =     F    Hartree Fock is set to
   LHFONE  =     F    Hartree Fock one center treatment
   AEXX    =    0.0000 exact exchange contribution

 Linear response parameters
   LEPSILON=     F    determine dielectric tensor
   LRPA    =     F    only Hartree local field effects (RPA)
   LNABLA  =     F    use nabla operator in PAW spheres
   LVEL    =     F    velocity operator in full k-point grid
   LINTERFAST=   F  fast interpolation
   KINTER  =     0    interpolate to denser k-point grid
   CSHIFT  =0.1000    complex shift for real part using Kramers Kronig
   OMEGAMAX=  -1.0    maximum frequency
   DEG_THRESHOLD= 0.2000000E-02 threshold for treating states as degnerate
   RTIME   =    0.100 relaxation time in fs

 Orbital magnetization related:
   ORBITALMAG=     F  switch on orbital magnetization
   LCHIMAG   =     F  perturbation theory with respect to B field
   DQ        =  0.001000  dq finite difference perturbation B field



--------------------------------------------------------------------------------------------------------


 conjugate gradient relaxation of ions
 charge density and potential will be updated during run
 spin polarized calculation
 Variant of blocked Davidson
 Davidson routine will perform the subspace rotation
 perform sub-space diagonalisation
    after iterative eigenvector-optimisation
 modified Broyden-mixing scheme, WC =      100.0
 initial mixing is a Kerker type mixing with AMIX =  0.4000 and BMIX =      1.0000
 Hartree-type preconditioning will be used
 using additional bands            6
 real space projection scheme for non local part
 use partial core corrections
 calculate Harris-corrections to forces 
   (improved forces if not selfconsistent)
 use gradient corrections 
 use of overlap-Matrix (Vanderbilt PP)
 Gauss-broadening in eV      SIGMA  =   0.20


--------------------------------------------------------------------------------------------------------


  energy-cutoff  :      400.00
  volume of cell :     1030.20
      direct lattice vectors                 reciprocal lattice vectors
    10.000000000  0.000000000  0.000000000     0.100000000  0.000000000  0.000000000
     0.000000000 10.100000000  0.000000000     0.000000000  0.099009901  0.000000000
     0.000000000  0.000000000 10.200000000     0.000000000  0.000000000  0.098039216

  length of vectors
    10.000000000 10.100000000 10.200000000     0.100000000  0.099009901  0.098039216


 
 k-points in units of 2pi/SCALE and weight: k-point mesh generated by kpt_generator.
   0.00000000  0.00000000  0.00000000       1.000
 
 k-points in reciprocal lattice and weights: k-point mesh generated by kpt_generator.
   0.00000000  0.00000000  0.00000000       1.000
 
 position of ions in fractional coordinates (direct lattice) 
   0.06000000  0.00000000  0.00000000
   0.94000000  0.00000000  0.00000000
 
 position of ions in cartesian coordinates  (Angst):
   0.60000000  0.00000000  0.00000000
   9.40000000  0.00000000  0.00000000
 


--------------------------------------------------------------------------------------------------------


 use seriel FFT for wavefunctions x direction half grid
 k-point  1 :   0.0000 0.0000 0.0000  plane waves:    9381

 maximum and minimum number of plane-waves per node :      9381     9381

 maximum number of plane-waves:      9381
 maximum index in each direction: 
   IXMAX=   16   IYMAX=   16   IZMAX=   16
   IXMIN=    0   IYMIN=  -16   IZMIN=  -16

 WARNING: aliasing errors must be expected set NGX to  66 to avoid them
 WARNING: aliasing errors must be expected set NGY to  66 to avoid them
 WARNING: aliasing errors must be expected set NGZ to  66 to avoid them
 aliasing errors are usually negligible using standard VASP settings
 and one can safely disregard these warnings

 serial   3D FFT for wavefunctions
 parallel 3D FFT for charge:
    minimum data exchange during FFTs selected (reduces bandwidth)


 total amount of memory used by VASP on root node    68538. kBytes
========================================================================

   base      :      30000. kBytes
   nonlr-proj:        186. kBytes
   fftplans  :       9085. kBytes
   grid      :      28360. kBytes
   one-center:          6. kBytes
   wavefun   :        901. kBytes
 
     INWAV:  cpu time    0.0000: real time    0.0003
 Broyden mixing: mesh for mixing (old mesh)
   NGX = 33   NGY = 33   NGZ = 33
  (NGX  =100   NGY  =100   NGZ  =100)
  gives a total of  35937 points

 initial charge density was supplied:
 charge density of overlapping atoms calculated
 number of electron      12.0000000 magnetization       2.0000000
 keeping initial charge density in first step


--------------------------------------------------------------------------------------------------------


 Maximum index for non-local projection operator         1325
 Maximum index for augmentation-charges          380 (set IRDMAX)


--------------------------------------------------------------------------------------------------------


 First call to EWALD:  gamma=   0.175
 Maximum number of real-space cells 3x 3x 3
 Maximum number of reciprocal cells 3x 3x 3

 FEWALD executed in parallel
    FEWALD:  cpu time    0.0040: real time    0.0015


----------------------------------------- Iteration    1(   1)  ---------------------------------------


    POTLOK:  cpu time    0.5760: real time    0.5777
    SETDIJ:  cpu time    0.2960: real time    0.2970
     EDDAV:  cpu time    0.1320: real time    0.1302
       DOS:  cpu time    0.0000: real time    0.0006
    --------------------------------------------
      LOOP:  cpu time    1.0040: real time    1.0089

 eigenvalue-minimisations  :    48
 total energy-change (2. order) : 0.1294127E+03  (-0.2360304E+03)
 number of electron      12.0000000 magnetization       2.0000000
 augmentation part       12.0000000 magnetization       2.0000000

 Free energy of the ion-electron system (eV)
  ---------------------------------------------------
  alpha Z        PSCENC =         0.53952419
  Ewald energy   TEWEN  =       142.37761604
  -Hartree energ DENC   =      -867.92617666
  -exchange      EXHF   =         0.00000000
  -V(xc)+E(xc)   XCENC  =        55.35461963
  PAW double counting   =       692.29218979     -694.92182955
  entropy T*S    EENTRO =        -0.04881492
  eigenvalues    EBANDS =       -59.33440120
  atomic energy  EATOM  =       861.07997078
  Solvation  Ediel_sol  =         0.00000000
  ---------------------------------------------------
  free energy    TOTEN  =       129.41269810 eV

  energy without entropy =      129.46151302  energy(sigma->0) =      129.43710556


--------------------------------------------------------------------------------------------------------




----------------------------------------- Iteration    1(   2)  ---------------------------------------


     EDDAV:  cpu time    0.2040: real time    0.2043
       DOS:  cpu time    0.0000: real time    0.0002
    --------------------------------------------
      LOOP:  cpu time    0.2040: real time    0.2085

 eigenvalue-minimisations  :    88
 total energy-change (2. order) :-0.9006631E+02  (-0.8872349E+02)
 number of electron      12.0000000 magnetization       2.0000000
 augmentation part       12.0000000 magnetization       2.0000000

 Free energy of the ion-electron system (eV)
  ---------------------------------------------------
  alpha Z        PSCENC =         0.53952419
  Ewald energy   TEWEN  =       142.37761604
  -Hartree energ DENC   =      -867.92617666
  -exchange      EXHF   =         0.00000000
  -V(xc)+E(xc)   XCENC  =        55.35461963
  PAW double counting   =       692.29218979     -694.92182955
  entropy T*S    EENTRO =        -0.00000000
  eigenvalues    EBANDS =      -149.44952290
  atomic energy  EATOM  =       861.07997078
  Solvation  Ediel_sol  =         0.00000000
  ---------------------------------------------------
  free energy    TOTEN  =        39.34639132 eV

  energy without entropy =       39.34639132  energy(sigma->0) =       39.34639132


--------------------------------------------------------------------------------------------------------




----------------------------------------- Iteration    1(   3)  ---------------------------------------


     EDDAV:  cpu time    0.1480: real time    0.1481
       DOS:  cpu time    0.0000: real time    0.0002
    --------------------------------------------
      LOOP:  cpu time    0.1480: real time    0.1520

 eigenvalue-minimisations  :    60
 total energy-change (2. order) :-0.4543225E+02  (-0.4533728E+02)
 number of electron      12.0000000 magnetization       2.0000000
 augmentation part       12.0000000 magnetization       2.0000000

 Free energy of the ion-electron system (eV)
  ---------------------------------------------------
  alpha Z        PSCENC =         0.53952419
  Ewald energy   TEWEN  =       142.37761604
  -Hartree energ DENC   =      -867.92617666
  -exchange      EXHF   =         0.00000000
  -V(xc)+E(xc)   XCENC  =        55.35461963
  PAW double counting   =       692.29218979     -694.92182955
  entropy T*S    EENTRO =        -0.00000000
  eigenvalues    EBANDS =      -194.88177762
  atomic energy  EATOM  =       861.07997078
  Solvation  Ediel_sol  =         0.00000000
  ---------------------------------------------------
  free energy    TOTEN  =        -6.08586340 eV

  energy without entropy =       -6.08586340  energy(sigma->0) =       -6.08586340


--------------------------------------------------------------------------------------------------------




----------------------------------------- Iteration    1(   4)  ---------------------------------------


     EDDAV:  cpu time    0.1560: real time    0.1554
       DOS:  cpu time    0.0000: real time    0.0002
    --------------------------------------------
      LOOP:  cpu time    0.1560: real time    0.1594

 eigenvalue-minimisations  :    64
 total energy-change (2. order) :-0.4076553E+01  (-0.4072175E+01)
 number of electron      12.0000000 magnetization       2.0000000
 augmentation part       12.0000000 magnetization       2.0000000

 Free energy of the ion-electron system (eV)
  ---------------------------------------------------
  alpha Z        PSCENC =         0.53952419
  Ewald energy   TEWEN  =       142.37761604
  -Hartree energ DENC   =      -867.92617666
  -exchange      EXHF   =         0.00000000
  -V(xc)+E(xc)   XCENC  =        55.35461963
  PAW double counting   =       692.29218979     -694.92182955
  entropy T*S    EENTRO =        -0.00000000
  eigenvalues    EBANDS =      -198.95833061
  atomic energy  EATOM  =       861.07997078
  Solvation  Ediel_sol  =         0.00000000
  ---------------------------------------------------
  free energy    TOTEN  =       -10.16241639 eV

  energy without entropy =      -10.16241639  energy(sigma->0) =      -10.16241639


--------------------------------------------------------------------------------------------------------




----------------------------------------- Iteration    1(   5)  ---------------------------------------


     EDDAV:  cpu time    0.1400: real time    0.1414
       DOS:  cpu time    0.0000: real time    0.0002
    CHARGE:  cpu time    0.0840: real time    0.0833
    MIXING:  cpu time    0.0160: real time    0.0170
    --------------------------------------------
      LOOP:  cpu time    0.2440: real time    0.2460

 eigenvalue-minimisations  :    56
 total energy-change (2. order) :-0.4983618E-01  (-0.4983600E-01)
 number of electron      12.0000152 magnetization       2.0000024
 augmentation part        1.1836694 magnetization       0.4856238

 Broyden mixing:
  rms(total) = 0.64563E+00    rms(broyden)= 0.63715E+00
  rms(prec ) = 0.67825E+00
  weight for this iteration     100.00

 Free energy of the ion-electron system (eV)
  ---------------------------------------------------
  alpha Z        PSCENC =         0.53952419
  Ewald energy   TEWEN  =       142.37761604
  -Hartree energ DENC   =      -867.92617666
  -exchange      EXHF   =         0.00000000
  -V(xc)+E(xc)   XCENC  =        55.35461963
  PAW double counting   =       692.29218979     -694.92182955
  entropy T*S    EENTRO =        -0.00000000
  eigenvalues    EBANDS =      -199.00816679
  atomic energy  EATOM  =       861.07997078
  Solvation  Ediel_sol  =         0.00000000
  ---------------------------------------------------
  free energy    TOTEN  =       -10.21225257 eV

  energy without entropy =      -10.21225257  energy(sigma->0) =      -10.21225257


--------------------------------------------------------------------------------------------------------




----------------------------------------- Iteration    1(   6)  ---------------------------------------


    POTLOK:  cpu time    0.5760: real time    0.5766
    SETDIJ:  cpu time    0.2920: real time    0.2920
     EDDAV:  cpu time    0.1360: real time    0.1372
       DOS:  cpu time    0.0040: real time    0.0012
    CHARGE:  cpu time    0.0880: real time    0.0889
    MIXING:  cpu time    0.0160: real time    0.0150
    --------------------------------------------
      LOOP:  cpu time    1.1120: real time    1.1157

 eigenvalue-minimisations  :    52
 total energy-change (2. order) : 0.2945994E+00  (-0.9652507E-01)
 number of electron      12.0000150 magnetization       2.0000036
 augmentation part        1.1706528 magnetization       0.5002550

 Broyden mixing:
  rms(total) = 0.30669E+00    rms(broyden)= 0.30527E+00
  rms(prec ) = 0.32611E+00
  weight for this iteration     100.00

 eigenvalues of (default mixing * dielectric matrix)
  average eigenvalue GAMMA=   0.7508
  0.7508

 Free energy of the ion-electron system (eV)
  ---------------------------------------------------
  alpha Z        PSCENC =         0.53952419
  Ewald energy   TEWEN  =       142.37761604
  -Hartree energ DENC   =      -871.04444889
  -exchange      EXHF   =         0.00000000
  -V(xc)+E(xc)   XCENC  =        56.10089287
  PAW double counting   =       781.88623729     -784.46193487
  entropy T*S    EENTRO =        -0.00000000
  eigenvalues    EBANDS =      -196.39551058
  atomic energy  EATOM  =       861.07997078
  Solvation  Ediel_sol  =         0.00000000
  ---------------------------------------------------
  free energy    TOTEN  =        -9.91765318 eV

  energy without entropy =       -9.91765318  energy(sigma->0) =       -9.91765318


--------------------------------------------------------------------------------------------------------




----------------------------------------- Iteration    1(   7)  ---------------------------------------


    POTLOK:  cpu time    0.5840: real time    0.5848
    SETDIJ:  cpu time    0.2920: real time    0.2919
     EDDAV:  cpu time    0.1280: real time    0.1302
       DOS:  cpu time    0.0000: real time    0.0009
    CHARGE:  cpu time    0.0920: real time    0.0886
    MIXING:  cpu time    0.0160: real time    0.0161
    --------------------------------------------
      LOOP:  cpu time    1.1120: real time    1.1186

 eigenvalue-minimisations  :    48
 total energy-change (2. order) :-0.3172606E+00  (-0.1878203E-01)
 number of electron      12.0000149 magnetization       2.0000051
 augmentation part        1.1625304 magnetization       0.4910576

 Broyden mixing:
  rms(total) = 0.15021E+00    rms(broyden)= 0.15016E+00
  rms(prec ) = 0.16199E+00
  weight for this iteration     100.00

 eigenvalues of (default mixing * dielectric matrix)
  average eigenvalue GAMMA=   1.2055
  1.7064  0.7046

 Free energy of the ion-electron system (eV)
  ---------------------------------------------------
  alpha Z        PSCENC =         0.53952419
  Ewald energy   TEWEN  =       142.37761604
  -Hartree energ DENC   =      -872.60067982
  -exchange      EXHF   =         0.00000000
  -V(xc)+E(xc)   XCENC  =        55.89742302
  PAW double counting   =       832.31958392     -834.99420816
  entropy T*S    EENTRO =        -0.00000000
  eigenvalues    EBANDS =      -194.85414377
  atomic energy  EATOM  =       861.07997078
  Solvation  Ediel_sol  =         0.00000000
  ---------------------------------------------------
  free energy    TOTEN  =       -10.23491381 eV

  energy without entropy =      -10.23491381  energy(sigma->0) =      -10.23491381


--------------------------------------------------------------------------------------------------------




----------------------------------------- Iteration    1(   8)  ---------------------------------------


    POTLOK:  cpu time    0.5880: real time    0.5895
    SETDIJ:  cpu time    0.2920: real time    0.2917
     EDDAV:  cpu time    0.1360: real time    0.1345
       DOS:  cpu time    0.0000: real time    0.0014
    CHARGE:  cpu time    0.0880: real time    0.0885
    MIXING:  cpu time    0.0200: real time    0.0171
    --------------------------------------------
      LOOP:  cpu time    1.1240: real time    1.1283

 eigenvalue-minimisations  :    52
 total energy-change (2. order) :-0.1014633E-02  (-0.7025302E-02)
 number of electron      12.0000148 magnetization       2.0000053
 augmentation part        1.1566836 magnetization       0.4924908

 Broyden mixing:
  rms(total) = 0.42891E-01    rms(broyden)= 0.42825E-01
  rms(prec ) = 0.44763E-01
  weight for this iteration     100.00

 eigenvalues of (default mixing * dielectric matrix)
  average eigenvalue GAMMA=   1.1594
  2.0634  0.7582  0.6565

 Free energy of the ion-electron system (eV)
  ---------------------------------------------------
  alpha Z        PSCENC =         0.53952419
  Ewald energy   TEWEN  =       142.37761604
  -Hartree energ DENC   =      -874.12451876
  -exchange      EXHF   =         0.00000000
  -V(xc)+E(xc)   XCENC  =        56.03641847
  PAW double counting   =       901.52686567     -904.17276020
  entropy T*S    EENTRO =        -0.00000000
  eigenvalues    EBANDS =      -193.49904462
  atomic energy  EATOM  =       861.07997078
  Solvation  Ediel_sol  =         0.00000000
  ---------------------------------------------------
  free energy    TOTEN  =       -10.23592844 eV

  energy without entropy =      -10.23592844  energy(sigma->0) =      -10.23592844


--------------------------------------------------------------------------------------------------------




----------------------------------------- Iteration    1(   9)  ---------------------------------------


    POTLOK:  cpu time    0.5840: real time    0.5836
    SETDIJ:  cpu time    0.2880: real time    0.2904
     EDDAV:  cpu time    0.1440: real time    0.1419
       DOS:  cpu time    0.0000: real time    0.0003
    CHARGE:  cpu time    0.0880: real time    0.0883
    MIXING:  cpu time    0.0200: real time    0.0179
    --------------------------------------------
      LOOP:  cpu time    1.1240: real time    1.1282

 eigenvalue-minimisations  :    56
 total energy-change (2. order) :-0.6932829E-02  (-0.4751984E-03)
 number of electron      12.0000148 magnetization       2.0000054
 augmentation part        1.1567570 magnetization       0.4916640

 Broyden mixing:
  rms(total) = 0.19779E-01    rms(broyden)= 0.19774E-01
  rms(prec ) = 0.21571E-01
  weight for this iteration     100.00

 eigenvalues of (default mixing * dielectric matrix)
  average eigenvalue GAMMA=   1.2620
  2.1910  1.4784  0.7324  0.6462

 Free energy of the ion-electron system (eV)
  ---------------------------------------------------
  alpha Z        PSCENC =         0.53952419
  Ewald energy   TEWEN  =       142.37761604
  -Hartree energ DENC   =      -874.25448131
  -exchange      EXHF   =         0.00000000
  -V(xc)+E(xc)   XCENC  =        56.04255321
  PAW double counting   =       913.59980015     -916.24571327
  entropy T*S    EENTRO =        -0.00000000
  eigenvalues    EBANDS =      -193.38213105
  atomic energy  EATOM  =       861.07997078
  Solvation  Ediel_sol  =         0.00000000
  ---------------------------------------------------
  free energy    TOTEN  =       -10.24286127 eV

  energy without entropy =      -10.24286127  energy(sigma->0) =      -10.24286127


--------------------------------------------------------------------------------------------------------




----------------------------------------- Iteration    1(  10)  ---------------------------------------


    POTLOK:  cpu time    0.5720: real time    0.5736
    SETDIJ:  cpu time    0.2960: real time    0.2971
     EDDAV:  cpu time    0.1480: real time    0.1461
       DOS:  cpu time    0.0000: real time    0.0003
    CHARGE:  cpu time    0.0880: real time    0.0872
    MIXING:  cpu time    0.0160: real time    0.0187
    --------------------------------------------
      LOOP:  cpu time    1.1200: real time    1.1285

 eigenvalue-minimisations  :    56
 total energy-change (2. order) :-0.1345779E-02  (-0.6465446E-04)
 number of electron      12.0000148 magnetization       2.0000054
 augmentation part        1.1576139 magnetization       0.4919800

 Broyden mixing:
  rms(total) = 0.44494E-02    rms(broyden)= 0.44459E-02
  rms(prec ) = 0.54998E-02
  weight for this iteration     100.00

 eigenvalues of (default mixing * dielectric matrix)
  average eigenvalue GAMMA=   1.2613
  2.3729  1.7763  0.7965  0.6804  0.6804

 Free energy of the ion-electron system (eV)
  ---------------------------------------------------
  alpha Z        PSCENC =         0.53952419
  Ewald energy   TEWEN  =       142.37761604
  -Hartree energ DENC   =      -874.32764048
  -exchange      EXHF   =         0.00000000
  -V(xc)+E(xc)   XCENC  =        56.03908130
  PAW double counting   =       923.96213037     -926.58945543
  entropy T*S    EENTRO =        -0.00000000
  eigenvalues    EBANDS =      -193.32543382
  atomic energy  EATOM  =       861.07997078
  Solvation  Ediel_sol  =         0.00000000
  ---------------------------------------------------
  free energy    TOTEN  =       -10.24420705 eV

  energy without entropy =      -10.24420705  energy(sigma->0) =      -10.24420705


--------------------------------------------------------------------------------------------------------




----------------------------------------- Iteration    1(  11)  ---------------------------------------


    POTLOK:  cpu time    0.5760: real time    0.5785
    SETDIJ:  cpu time    0.2880: real time    0.2869
     EDDAV:  cpu time    0.1240: real time    0.1265
       DOS:  cpu time    0.0040: real time    0.0003
    CHARGE:  cpu time    0.0840: real time    0.0859
    MIXING:  cpu time    0.0200: real time    0.0194
    --------------------------------------------
      LOOP:  cpu time    1.1000: real time    1.1031

 eigenvalue-minimisations  :    48
 total energy-change (2. order) :-0.1171357E-03  (-0.6252140E-05)
 number of electron      12.0000148 magnetization       2.0000054
 augmentation part        1.1575666 magnetization       0.4918899

 Broyden mixing:
  rms(total) = 0.16038E-02    rms(broyden)= 0.16034E-02
  rms(prec ) = 0.28757E-02
  weight for this iteration     100.00

 eigenvalues of (default mixing * dielectric matrix)
  average eigenvalue GAMMA=   1.2217
  2.4518  1.8130  0.9998  0.7582  0.6758  0.6317

 Free energy of the ion-electron system (eV)
  ---------------------------------------------------
  alpha Z        PSCENC =         0.53952419
  Ewald energy   TEWEN  =       142.37761604
  -Hartree energ DENC   =      -874.42074766
  -exchange      EXHF   =         0.00000000
  -V(xc)+E(xc)   XCENC  =        56.04241547
  PAW double counting   =       925.60951259     -928.23657918
  entropy T*S    EENTRO =        -0.00000000
  eigenvalues    EBANDS =      -193.23603641
  atomic energy  EATOM  =       861.07997078
  Solvation  Ediel_sol  =         0.00000000
  ---------------------------------------------------
  free energy    TOTEN  =       -10.24432418 eV

  energy without entropy =      -10.24432418  energy(sigma->0) =      -10.24432418


--------------------------------------------------------------------------------------------------------




----------------------------------------- Iteration    1(  12)  ---------------------------------------


    POTLOK:  cpu time    0.5840: real time    0.5832
    SETDIJ:  cpu time    0.2920: real time    0.2915
     EDDAV:  cpu time    0.1400: real time    0.1408
       DOS:  cpu time    0.0000: real time    0.0003
    CHARGE:  cpu time    0.0880: real time    0.0872
    MIXING:  cpu time    0.0200: real time    0.0203
    --------------------------------------------
      LOOP:  cpu time    1.1240: real time    1.1291

 eigenvalue-minimisations  :    56
 total energy-change (2. order) :-0.1270486E-03  (-0.1450334E-05)
 number of electron      12.0000148 magnetization       2.0000054
 augmentation part        1.1574705 magnetization       0.4918531

 Broyden mixing:
  rms(total) = 0.80230E-03    rms(broyden)= 0.80185E-03
  rms(prec ) = 0.19692E-02
  weight for this iteration     100.00

 eigenvalues of (default mixing * dielectric matrix)
  average eigenvalue GAMMA=   1.2291
  2.4845  1.8781  1.3011  0.9067  0.7314  0.6793  0.6227

 Free energy of the ion-electron system (eV)
  ---------------------------------------------------
  alpha Z        PSCENC =         0.53952419
  Ewald energy   TEWEN  =       142.37761604
  -Hartree energ DENC   =      -874.50402330
  -exchange      EXHF   =         0.00000000
  -V(xc)+E(xc)   XCENC  =        56.04565100
  PAW double counting   =       926.02297408     -928.64988982
  entropy T*S    EENTRO =        -0.00000000
  eigenvalues    EBANDS =      -193.15627420
  atomic energy  EATOM  =       861.07997078
  Solvation  Ediel_sol  =         0.00000000
  ---------------------------------------------------
  free energy    TOTEN  =       -10.24445123 eV

  energy without entropy =      -10.24445123  energy(sigma->0) =      -10.24445123


--------------------------------------------------------------------------------------------------------




----------------------------------------- Iteration    1(  13)  ---------------------------------------


    POTLOK:  cpu time    0.5920: real time    0.5917
    SETDIJ:  cpu time    0.2840: real time    0.2846
     EDDAV:  cpu time    0.1240: real time    0.1266
       DOS:  cpu time    0.0000: real time    0.0002
    CHARGE:  cpu time    0.0880: real time    0.0882
    MIXING:  cpu time    0.0240: real time    0.0214
    --------------------------------------------
      LOOP:  cpu time    1.1160: real time    1.1183

 eigenvalue-minimisations  :    48
 total energy-change (2. order) :-0.1287659E-03  (-0.7165496E-06)
 number of electron      12.0000148 magnetization       2.0000054
 augmentation part        1.1574209 magnetization       0.4918271

 Broyden mixing:
  rms(total) = 0.49736E-03    rms(broyden)= 0.49695E-03
  rms(prec ) = 0.14042E-02
  weight for this iteration     100.00

 eigenvalues of (default mixing * dielectric matrix)
  average eigenvalue GAMMA=   1.2465
  2.5062  2.0673  1.5283  1.0599  0.8005  0.7202  0.6666  0.6232

 Free energy of the ion-electron system (eV)
  ---------------------------------------------------
  alpha Z        PSCENC =         0.53952419
  Ewald energy   TEWEN  =       142.37761604
  -Hartree energ DENC   =      -874.56184416
  -exchange      EXHF   =         0.00000000
  -V(xc)+E(xc)   XCENC  =        56.04723078
  PAW double counting   =       925.92596933     -928.55322123
  entropy T*S    EENTRO =        -0.00000000
  eigenvalues    EBANDS =      -193.09982573
  atomic energy  EATOM  =       861.07997078
  Solvation  Ediel_sol  =         0.00000000
  ---------------------------------------------------
  free energy    TOTEN  =       -10.24458000 eV

  energy without entropy =      -10.24458000  energy(sigma->0) =      -10.24458000


--------------------------------------------------------------------------------------------------------




----------------------------------------- Iteration    1(  14)  ---------------------------------------


    POTLOK:  cpu time    0.5880: real time    0.5894
    SETDIJ:  cpu time    0.2880: real time    0.2856
     EDDAV:  cpu time    0.1560: real time    0.1558
       DOS:  cpu time    0.0000: real time    0.0002
    CHARGE:  cpu time    0.0840: real time    0.0860
    MIXING:  cpu time    0.0200: real time    0.0211
    --------------------------------------------
      LOOP:  cpu time    1.1400: real time    1.1441

 eigenvalue-minimisations  :    64
 total energy-change (2. order) :-0.1411516E-03  (-0.7788301E-06)
 number of electron      12.0000148 magnetization       2.0000054
 augmentation part        1.1574144 magnetization       0.4918231

 Broyden mixing:
  rms(total) = 0.35215E-03    rms(broyden)= 0.35212E-03
  rms(prec ) = 0.83511E-03
  weight for this iteration     100.00

 eigenvalues of (default mixing * dielectric matrix)
  average eigenvalue GAMMA=   1.3969
  3.1297  2.4835  1.7845  1.4479  0.9805  0.7633  0.7068  0.6522  0.6235

 Free energy of the ion-electron system (eV)
  ---------------------------------------------------
  alpha Z        PSCENC =         0.53952419
  Ewald energy   TEWEN  =       142.37761604
  -Hartree energ DENC   =      -874.61350681
  -exchange      EXHF   =         0.00000000
  -V(xc)+E(xc)   XCENC  =        56.04796391
  PAW double counting   =       925.68653814     -928.31397462
  entropy T*S    EENTRO =        -0.00000000
  eigenvalues    EBANDS =      -193.04885277
  atomic energy  EATOM  =       861.07997078
  Solvation  Ediel_sol  =         0.00000000
  ---------------------------------------------------
  free energy    TOTEN  =       -10.24472115 eV

  energy without entropy =      -10.24472115  energy(sigma->0) =      -10.24472115


--------------------------------------------------------------------------------------------------------




----------------------------------------- Iteration    1(  15)  ---------------------------------------


    POTLOK:  cpu time    0.5840: real time    0.5863
    SETDIJ:  cpu time    0.2880: real time    0.2873
     EDDAV:  cpu time    0.1520: real time    0.1492
       DOS:  cpu time    0.0000: real time    0.0002
    CHARGE:  cpu time    0.0840: real time    0.0856
    MIXING:  cpu time    0.0240: real time    0.0217
    --------------------------------------------
      LOOP:  cpu time    1.1320: real time    1.1365

 eigenvalue-minimisations  :    60
 total energy-change (2. order) :-0.1072438E-03  (-0.4378240E-06)
 number of electron      12.0000148 magnetization       2.0000054
 augmentation part        1.1573960 magnetization       0.4918252

 Broyden mixing:
  rms(total) = 0.21632E-03    rms(broyden)= 0.21629E-03
  rms(prec ) = 0.53730E-03
  weight for this iteration     100.00

 eigenvalues of (default mixing * dielectric matrix)
  average eigenvalue GAMMA=   1.4072
  3.5397  2.4919  1.8487  1.5378  1.0375  0.8797  0.7553  0.7053  0.6559  0.6203

 Free energy of the ion-electron system (eV)
  ---------------------------------------------------
  alpha Z        PSCENC =         0.53952419
  Ewald energy   TEWEN  =       142.37761604
  -Hartree energ DENC   =      -874.64243465
  -exchange      EXHF   =         0.00000000
  -V(xc)+E(xc)   XCENC  =        56.04846004
  PAW double counting   =       925.62683350     -928.25414628
  entropy T*S    EENTRO =        -0.00000000
  eigenvalues    EBANDS =      -193.02065201
  atomic energy  EATOM  =       861.07997078
  Solvation  Ediel_sol  =         0.00000000
  ---------------------------------------------------
  free energy    TOTEN  =       -10.24482839 eV

  energy without entropy =      -10.24482839  energy(sigma->0) =      -10.24482839


--------------------------------------------------------------------------------------------------------




----------------------------------------- Iteration    1(  16)  ---------------------------------------


    POTLOK:  cpu time    0.5880: real time    0.5904
    SETDIJ:  cpu time    0.2880: real time    0.2860
     EDDAV:  cpu time    0.1240: real time    0.1268
       DOS:  cpu time    0.0000: real time    0.0002
    CHARGE:  cpu time    0.0880: real time    0.0875
    MIXING:  cpu time    0.0280: real time    0.0253
    --------------------------------------------
      LOOP:  cpu time    1.1160: real time    1.1223

 eigenvalue-minimisations  :    48
 total energy-change (2. order) :-0.1143961E-03  (-0.5099346E-06)
 number of electron      12.0000148 magnetization       2.0000054
 augmentation part        1.1573896 magnetization       0.4918265

 Broyden mixing:
  rms(total) = 0.13684E-03    rms(broyden)= 0.13680E-03
  rms(prec ) = 0.28233E-03
  weight for this iteration     100.00

 eigenvalues of (default mixing * dielectric matrix)
  average eigenvalue GAMMA=   1.5519
  4.5543  2.5880  2.3138  1.7909  1.3165  1.0358  0.7709  0.7379  0.6897  0.6200
  0.6536

 Free energy of the ion-electron system (eV)
  ---------------------------------------------------
  alpha Z        PSCENC =         0.53952419
  Ewald energy   TEWEN  =       142.37761604
  -Hartree energ DENC   =      -874.65551226
  -exchange      EXHF   =         0.00000000
  -V(xc)+E(xc)   XCENC  =        56.04839578
  PAW double counting   =       925.66714587     -928.29433763
  entropy T*S    EENTRO =        -0.00000000
  eigenvalues    EBANDS =      -193.00774555
  atomic energy  EATOM  =       861.07997078
  Solvation  Ediel_sol  =         0.00000000
  ---------------------------------------------------
  free energy    TOTEN  =       -10.24494279 eV

  energy without entropy =      -10.24494279  energy(sigma->0) =      -10.24494279


--------------------------------------------------------------------------------------------------------




----------------------------------------- Iteration    1(  17)  ---------------------------------------


    POTLOK:  cpu time    0.5720: real time    0.5728
    SETDIJ:  cpu time    0.2880: real time    0.2898
     EDDAV:  cpu time    0.1480: real time    0.1485
       DOS:  cpu time    0.0040: real time    0.0003
    CHARGE:  cpu time    0.0840: real time    0.0879
    MIXING:  cpu time    0.0240: real time    0.0265
    --------------------------------------------
      LOOP:  cpu time    1.1240: real time    1.1316

 eigenvalue-minimisations  :    60
 total energy-change (2. order) :-0.3705174E-04  (-0.1225404E-06)
 number of electron      12.0000148 magnetization       2.0000054
 augmentation part        1.1573879 magnetization       0.4918249

 Broyden mixing:
  rms(total) = 0.72668E-04    rms(broyden)= 0.72625E-04
  rms(prec ) = 0.16773E-03
  weight for this iteration     100.00

 eigenvalues of (default mixing * dielectric matrix)
  average eigenvalue GAMMA=   1.6406
  5.7544  2.8376  2.4524  1.8214  1.3968  1.0299  0.9463  0.7776  0.7234  0.6785
  0.6207  0.6475

 Free energy of the ion-electron system (eV)
  ---------------------------------------------------
  alpha Z        PSCENC =         0.53952419
  Ewald energy   TEWEN  =       142.37761604
  -Hartree energ DENC   =      -874.65860487
  -exchange      EXHF   =         0.00000000
  -V(xc)+E(xc)   XCENC  =        56.04823555
  PAW double counting   =       925.67740873     -928.30445184
  entropy T*S    EENTRO =        -0.00000000
  eigenvalues    EBANDS =      -193.00467842
  atomic energy  EATOM  =       861.07997078
  Solvation  Ediel_sol  =         0.00000000
  ---------------------------------------------------
  free energy    TOTEN  =       -10.24497984 eV

  energy without entropy =      -10.24497984  energy(sigma->0) =      -10.24497984


--------------------------------------------------------------------------------------------------------




----------------------------------------- Iteration    1(  18)  ---------------------------------------


    POTLOK:  cpu time    0.5680: real time    0.5720
    SETDIJ:  cpu time    0.2880: real time    0.2896
     EDDAV:  cpu time    0.1280: real time    0.1267
       DOS:  cpu time    0.0000: real time    0.0002
    CHARGE:  cpu time    0.0880: real time    0.0882
    MIXING:  cpu time    0.0280: real time    0.0291
    --------------------------------------------
      LOOP:  cpu time    1.1040: real time    1.1113

 eigenvalue-minimisations  :    48
 total energy-change (2. order) :-0.2192929E-04  (-0.5916916E-07)
 number of electron      12.0000148 magnetization       2.0000054
 augmentation part        1.1573858 magnetization       0.4918223

 Broyden mixing:
  rms(total) = 0.48787E-04    rms(broyden)= 0.48763E-04
  rms(prec ) = 0.10284E-03
  weight for this iteration     100.00

 eigenvalues of (default mixing * dielectric matrix)
  average eigenvalue GAMMA=   1.7046
  6.5388  3.0440  2.4782  1.8745  1.6311  1.3177  1.0452  0.8171  0.7625  0.7200
  0.6208  0.6667  0.6433

 Free energy of the ion-electron system (eV)
  ---------------------------------------------------
  alpha Z        PSCENC =         0.53952419
  Ewald energy   TEWEN  =       142.37761604
  -Hartree energ DENC   =      -874.65714466
  -exchange      EXHF   =         0.00000000
  -V(xc)+E(xc)   XCENC  =        56.04813267
  PAW double counting   =       925.68995545     -928.31707759
  entropy T*S    EENTRO =        -0.00000000
  eigenvalues    EBANDS =      -193.00597865
  atomic energy  EATOM  =       861.07997078
  Solvation  Ediel_sol  =         0.00000000
  ---------------------------------------------------
  free energy    TOTEN  =       -10.24500177 eV

  energy without entropy =      -10.24500177  energy(sigma->0) =      -10.24500177


--------------------------------------------------------------------------------------------------------




----------------------------------------- Iteration    1(  19)  ---------------------------------------


    POTLOK:  cpu time    0.5720: real time    0.5747
    SETDIJ:  cpu time    0.2920: real time    0.2896
     EDDAV:  cpu time    0.1560: real time    0.1558
       DOS:  cpu time    0.0000: real time    0.0002
    CHARGE:  cpu time    0.0880: real time    0.0874
    MIXING:  cpu time    0.0280: real time    0.0314
    --------------------------------------------
      LOOP:  cpu time    1.1400: real time    1.1440

 eigenvalue-minimisations  :    64
 total energy-change (2. order) :-0.2062971E-04  (-0.4268353E-07)
 number of electron      12.0000148 magnetization       2.0000054
 augmentation part        1.1573865 magnetization       0.4918246

 Broyden mixing:
  rms(total) = 0.24109E-04    rms(broyden)= 0.24090E-04
  rms(prec ) = 0.47367E-04
  weight for this iteration     100.00

 eigenvalues of (default mixing * dielectric matrix)
  average eigenvalue GAMMA=   1.8212
  7.5560  3.6544  2.5605  2.3847  1.8106  1.3776  1.0707  0.9255  0.8034  0.7297
  0.7035  0.6618  0.6215  0.6370

 Free energy of the ion-electron system (eV)
  ---------------------------------------------------
  alpha Z        PSCENC =         0.53952419
  Ewald energy   TEWEN  =       142.37761604
  -Hartree energ DENC   =      -874.65458149
  -exchange      EXHF   =         0.00000000
  -V(xc)+E(xc)   XCENC  =        56.04802893
  PAW double counting   =       925.68826862     -928.31539213
  entropy T*S    EENTRO =        -0.00000000
  eigenvalues    EBANDS =      -193.00845734
  atomic energy  EATOM  =       861.07997078
  Solvation  Ediel_sol  =         0.00000000
  ---------------------------------------------------
  free energy    TOTEN  =       -10.24502240 eV

  energy without entropy =      -10.24502240  energy(sigma->0) =      -10.24502240


--------------------------------------------------------------------------------------------------------




----------------------------------------- Iteration    1(  20)  ---------------------------------------


    POTLOK:  cpu time    0.5720: real time    0.5726
    SETDIJ:  cpu time    0.2880: real time    0.2895
     EDDAV:  cpu time    0.1560: real time    0.1557
       DOS:  cpu time    0.0000: real time    0.0002
    CHARGE:  cpu time    0.0880: real time    0.0879
    MIXING:  cpu time    0.0360: real time    0.0351
    --------------------------------------------
      LOOP:  cpu time    1.1440: real time    1.1464

 eigenvalue-minimisations  :    64
 total energy-change (2. order) :-0.4911044E-05  (-0.7177190E-08)
 number of electron      12.0000148 magnetization       2.0000054
 augmentation part        1.1573856 magnetization       0.4918235

 Broyden mixing:
  rms(total) = 0.15596E-04    rms(broyden)= 0.15585E-04
  rms(prec ) = 0.29357E-04
  weight for this iteration     100.00

 eigenvalues of (default mixing * dielectric matrix)
  average eigenvalue GAMMA=   1.8371
  7.9764  4.0002  2.6633  2.4618  1.8105  1.4051  1.1372  1.1372  0.8325  0.8049
  0.7217  0.6907  0.6590  0.6220  0.6343

 Free energy of the ion-electron system (eV)
  ---------------------------------------------------
  alpha Z        PSCENC =         0.53952419
  Ewald energy   TEWEN  =       142.37761604
  -Hartree energ DENC   =      -874.65385008
  -exchange      EXHF   =         0.00000000
  -V(xc)+E(xc)   XCENC  =        56.04801134
  PAW double counting   =       925.68377677     -928.31092228
  entropy T*S    EENTRO =        -0.00000000
  eigenvalues    EBANDS =      -193.00915407
  atomic energy  EATOM  =       861.07997078
  Solvation  Ediel_sol  =         0.00000000
  ---------------------------------------------------
  free energy    TOTEN  =       -10.24502731 eV

  energy without entropy =      -10.24502731  energy(sigma->0) =      -10.24502731


--------------------------------------------------------------------------------------------------------




----------------------------------------- Iteration    1(  21)  ---------------------------------------


    POTLOK:  cpu time    0.5760: real time    0.5774
    SETDIJ:  cpu time    0.2880: real time    0.2894
     EDDAV:  cpu time    0.1560: real time    0.1558
       DOS:  cpu time    0.0000: real time    0.0002
    CHARGE:  cpu time    0.0880: real time    0.0875
    MIXING:  cpu time    0.0400: real time    0.0386
    --------------------------------------------
      LOOP:  cpu time    1.1520: real time    1.1549

 eigenvalue-minimisations  :    64
 total energy-change (2. order) :-0.3036532E-05  (-0.3517328E-08)
 number of electron      12.0000148 magnetization       2.0000054
 augmentation part        1.1573858 magnetization       0.4918232

 Broyden mixing:
  rms(total) = 0.91039E-05    rms(broyden)= 0.90991E-05
  rms(prec ) = 0.14476E-04
  weight for this iteration     100.00

 eigenvalues of (default mixing * dielectric matrix)
  average eigenvalue GAMMA=   1.9305
  8.4260  4.6384  2.9327  2.4930  2.2813  1.8111  1.3901  1.0530  0.9945  0.8080
  0.7611  0.7152  0.6839  0.6487  0.6209  0.6302

 Free energy of the ion-electron system (eV)
  ---------------------------------------------------
  alpha Z        PSCENC =         0.53952419
  Ewald energy   TEWEN  =       142.37761604
  -Hartree energ DENC   =      -874.65349283
  -exchange      EXHF   =         0.00000000
  -V(xc)+E(xc)   XCENC  =        56.04799916
  PAW double counting   =       925.67953071     -928.30666171
  entropy T*S    EENTRO =        -0.00000000
  eigenvalues    EBANDS =      -193.00951670
  atomic energy  EATOM  =       861.07997078
  Solvation  Ediel_sol  =         0.00000000
  ---------------------------------------------------
  free energy    TOTEN  =       -10.24503035 eV

  energy without entropy =      -10.24503035  energy(sigma->0) =      -10.24503035


--------------------------------------------------------------------------------------------------------




----------------------------------------- Iteration    1(  22)  ---------------------------------------


    POTLOK:  cpu time    0.5800: real time    0.5800
    SETDIJ:  cpu time    0.2920: real time    0.2907
     EDDAV:  cpu time    0.1560: real time    0.1561
       DOS:  cpu time    0.0000: real time    0.0002
    CHARGE:  cpu time    0.0840: real time    0.0844
    MIXING:  cpu time    0.0440: real time    0.0423
    --------------------------------------------
      LOOP:  cpu time    1.1560: real time    1.1595

 eigenvalue-minimisations  :    64
 total energy-change (2. order) :-0.1453442E-05  (-0.9740999E-09)
 number of electron      12.0000148 magnetization       2.0000054
 augmentation part        1.1573859 magnetization       0.4918231

 Broyden mixing:
  rms(total) = 0.34377E-05    rms(broyden)= 0.34349E-05
  rms(prec ) = 0.59684E-05
  weight for this iteration     100.00

 eigenvalues of (default mixing * dielectric matrix)
  average eigenvalue GAMMA=   1.9329
  8.6631  5.0445  3.1637  2.5346  2.4323  1.8077  1.4017  1.0612  1.0612  0.8337
  0.8337  0.7386  0.7044  0.6853  0.6190  0.6410  0.6334

 Free energy of the ion-electron system (eV)
  ---------------------------------------------------
  alpha Z        PSCENC =         0.53952419
  Ewald energy   TEWEN  =       142.37761604
  -Hartree energ DENC   =      -874.65356678
  -exchange      EXHF   =         0.00000000
  -V(xc)+E(xc)   XCENC  =        56.04800374
  PAW double counting   =       925.68073992     -928.30786265
  entropy T*S    EENTRO =        -0.00000000
  eigenvalues    EBANDS =      -193.00945704
  atomic energy  EATOM  =       861.07997078
  Solvation  Ediel_sol  =         0.00000000
  ---------------------------------------------------
  free energy    TOTEN  =       -10.24503180 eV

  energy without entropy =      -10.24503180  energy(sigma->0) =      -10.24503180


--------------------------------------------------------------------------------------------------------




----------------------------------------- Iteration    1(  23)  ---------------------------------------


    POTLOK:  cpu time    0.5920: real time    0.5915
    SETDIJ:  cpu time    0.2840: real time    0.2874
     EDDAV:  cpu time    0.1280: real time    0.1266
       DOS:  cpu time    0.0000: real time    0.0002
    --------------------------------------------
      LOOP:  cpu time    1.0040: real time    1.0112

 eigenvalue-minimisations  :    48
 total energy-change (2. order) :-0.3951444E-06  (-0.1687672E-09)
 number of electron      12.0000148 magnetization       2.0000054
 augmentation part        1.1573859 magnetization       0.4918231

 Free energy of the ion-electron system (eV)
  ---------------------------------------------------
  alpha Z        PSCENC =         0.53952419
  Ewald energy   TEWEN  =       142.37761604
  -Hartree energ DENC   =      -874.65362899
  -exchange      EXHF   =         0.00000000
  -V(xc)+E(xc)   XCENC  =        56.04800769
  PAW double counting   =       925.68132000     -928.30844357
  entropy T*S    EENTRO =        -0.00000000
  eigenvalues    EBANDS =      -193.00939833
  atomic energy  EATOM  =       861.07997078
  Solvation  Ediel_sol  =         0.00000000
  ---------------------------------------------------
  free energy    TOTEN  =       -10.24503220 eV

  energy without entropy =      -10.24503220  energy(sigma->0) =      -10.24503220


--------------------------------------------------------------------------------------------------------




 average (electrostatic) potential at core
  the test charge radii are     0.7215
  (the norm of the test charge is              1.0000)
       1 -83.6384       2 -83.6384
 
 
 
 E-fermi : -10.6873     XC(G=0):  -0.5592     alpha+bet : -0.1454


 spin component 1

 k-point     1 :       0.0000    0.0000    0.0000
  band No.  band energies     occupation 
      1     -33.1430      1.00000
      2     -20.1730      1.00000
      3     -13.5198      1.00000
      4     -13.5189      1.00000
      5     -13.4355      1.00000
      6      -6.5763      1.00000
      7      -6.5746      1.00000
      8      -0.2837      0.00000
      9       0.9802      0.00000
     10       1.0913      0.00000
     11       1.1167      0.00000
     12       1.1618      0.00000

 spin component 2

 k-point     1 :       0.0000    0.0000    0.0000
  band No.  band energies     occupation 
      1     -31.9011      1.00000
      2     -18.3942      1.00000
      3     -12.3980      1.00000
      4     -11.6878      1.00000
      5     -11.6873      1.00000
      6      -4.3206      0.00000
      7      -4.3197      0.00000
      8      -0.1666      0.00000
      9       1.1887      0.00000
     10       1.2189      0.00000
     11       1.2443      0.00000
     12       1.2659      0.00000


--------------------------------------------------------------------------------------------------------


 soft charge-density along one line, spin component           1
         0         1         2         3         4         5         6         7         8         9
 total charge-density along one line
 
 soft charge-density along one line, spin component           2
         0         1         2         3         4         5         6         7         8         9
 total charge-density along one line
 
 pseudopotential strength for first ion, spin component:           1
 14.551 -17.895  -0.000  -0.000   0.126   0.000   0.000  -0.154
-17.895  22.043   0.000   0.000  -0.160  -0.000  -0.000   0.196
 -0.000   0.000 -11.470  -0.000   0.000  14.386   0.000  -0.000
 -0.000   0.000  -0.000 -11.470   0.000   0.000  14.387  -0.000
  0.126  -0.160   0.000   0.000 -11.470  -0.000  -0.000  14.365
  0.000  -0.000  14.386   0.000  -0.000 -18.007  -0.000   0.000
  0.000  -0.000   0.000  14.387  -0.000  -0.000 -18.007   0.000
 -0.154   0.196  -0.000  -0.000  14.365   0.000   0.000 -17.950
 pseudopotential strength for first ion, spin component:           2
 14.013 -17.200  -0.000  -0.000   0.131   0.000   0.000  -0.162
-17.200  21.146   0.000   0.000  -0.167  -0.000  -0.000   0.207
 -0.000   0.000 -10.831  -0.000   0.000  13.482   0.000  -0.000
 -0.000   0.000  -0.000 -10.831   0.000   0.000  13.482  -0.000
  0.131  -0.167   0.000   0.000 -11.246  -0.000  -0.000  14.055
  0.000  -0.000  13.482   0.000  -0.000 -16.723  -0.000   0.000
  0.000  -0.000   0.000  13.482  -0.000  -0.000 -16.723   0.000
 -0.162   0.207  -0.000  -0.000  14.055   0.000   0.000 -17.518
 total augmentation occupancy for first ion, spin component:           1
  2.823   0.498   0.000   0.000  -0.598   0.000   0.000  -0.290
  0.498   0.220   0.000   0.000  -0.592   0.000   0.000  -0.189
  0.000   0.000   1.785   0.000   0.000   0.125   0.000   0.000
  0.000   0.000   0.000   1.784   0.000   0.000   0.125  -0.000
 -0.598  -0.592   0.000   0.000   2.597  -0.000   0.000   0.607
  0.000   0.000   0.125   0.000  -0.000   0.036   0.000   0.000
 -0.000   0.000   0.000   0.125   0.000   0.000   0.036   0.000
 -0.290  -0.189   0.000  -0.000   0.607   0.000   0.000   0.176
 total augmentation occupancy for first ion, spin component:           2
 -0.112  -0.064   0.000   0.000   0.013   0.000  -0.000   0.013
 -0.064  -0.013  -0.000   0.000   0.006   0.000  -0.000   0.006
  0.000  -0.000   0.345   0.000   0.000  -0.091   0.000   0.000
  0.000   0.000   0.000   0.344  -0.000   0.000  -0.091  -0.000
  0.013   0.006   0.000  -0.000  -0.035   0.000   0.000  -0.018
  0.000  -0.000  -0.091   0.000   0.000   0.003   0.000   0.000
 -0.000   0.000   0.000  -0.091   0.000   0.000   0.004  -0.000
  0.013   0.006   0.000  -0.000  -0.018   0.000  -0.000  -0.006


------------------------ aborting loop because EDIFF is reached ----------------------------------------


    CHARGE:  cpu time    0.0840: real time    0.0864
    FORLOC:  cpu time    0.0080: real time    0.0067
    FORNL :  cpu time    0.0760: real time    0.0742
    STRESS:  cpu time    0.2520: real time    0.2530
    FORCOR:  cpu time    0.5680: real time    0.5670
    FORHAR:  cpu time    0.0560: real time    0.0578
    MIXING:  cpu time    0.0480: real time    0.0466
    OFIELD:  cpu time    0.0000: real time    0.0001

  FORCE on cell =-STRESS in cart. coord.  units (eV):
  Direction    XX          YY          ZZ          XY          YZ          ZX
  --------------------------------------------------------------------------------------
  Alpha Z     0.53952     0.53952     0.53952
  Ewald     340.86364   -97.80025  -100.68588     0.00000     0.00000     0.00000
  Hartree   426.38918   225.54612   222.71826    -0.00000    -0.00000    -0.00000
  E(xc)     -57.36040   -57.92884   -57.92851     0.00000    -0.00000     0.00000
  Local    -903.98278  -312.44715  -306.72175     0.00000     0.00000    -0.00000
  n-local   -49.07821   -44.68405   -44.67359    -0.00000     0.00000     0.00000
  augment    10.46796    13.20201    13.20403     0.00000    -0.00000     0.00000
  Kinetic   233.77108   272.01964   272.03250     0.00000     0.00000     0.00000
  Fock        0.00000     0.00000     0.00000     0.00000     0.00000     0.00000
  -------------------------------------------------------------------------------------
  Total       1.60999    -1.55300    -1.51541     0.00000     0.00000     0.00000
  in kB       2.50386    -2.41525    -2.35679     0.00000     0.00000     0.00000
  external pressure =       -0.76 kB  Pullay stress =        0.00 kB


 VOLUME and BASIS-vectors are now :
 -----------------------------------------------------------------------------
  energy-cutoff  :      400.00
  volume of cell :     1030.20
      direct lattice vectors                 reciprocal lattice vectors
    10.000000000  0.000000000  0.000000000     0.100000000  0.000000000  0.000000000
     0.000000000 10.100000000  0.000000000     0.000000000  0.099009901  0.000000000
     0.000000000  0.000000000 10.200000000     0.000000000  0.000000000  0.098039216

  length of vectors
    10.000000000 10.100000000 10.200000000     0.100000000  0.099009901  0.098039216


 FORCES acting on ions
    electron-ion (+dipol)            ewald-force                    non-local-force                 convergence-correction
 -----------------------------------------------------------------------------------------------
   -.299E+03 -.734E-15 -.275E-11   0.357E+03 -.695E-17 -.329E-16   -.554E+02 0.000E+00 -.323E-26   -.778E-05 0.201E-13 0.178E-13
   0.299E+03 -.322E-14 0.208E-11   -.357E+03 0.222E-16 0.110E-16   0.554E+02 0.000E+00 0.646E-26   0.778E-05 0.288E-13 -.228E-14
 -----------------------------------------------------------------------------------------------
   0.418E-13 -.395E-14 -.668E-12   0.000E+00 0.153E-16 -.219E-16   0.000E+00 0.000E+00 0.323E-26   -.297E-13 0.489E-13 0.155E-13
 
 
 POSITION                                       TOTAL-FORCE (eV/Angst)
 -----------------------------------------------------------------------------------
      0.60000      0.00000      0.00000         2.379265      0.000000      0.000000
      9.40000      0.00000      0.00000        -2.379265     -0.000000      0.000000
 -----------------------------------------------------------------------------------
    total drift:                                0.000000      0.000000     -0.000000


--------------------------------------------------------------------------------------------------------



  FREE ENERGIE OF THE ION-ELECTRON SYSTEM (eV)
  ---------------------------------------------------
  free  energy   TOTEN  =       -10.24503220 eV

  energy  without entropy=      -10.24503220  energy(sigma->0) =      -10.24503220
 


--------------------------------------------------------------------------------------------------------


    POTLOK:  cpu time    0.8920: real time    0.8922


--------------------------------------------------------------------------------------------------------




--------------------------------------------------------------------------------------------------------


    WAVPRE:  cpu time    0.0480: real time    0.0465
 FEWALD executed in parallel
    FEWALD:  cpu time    0.0000: real time    0.0003
    ORTHCH:  cpu time    0.0160: real time    0.0163
     LOOP+:  cpu time   24.2440: real time   24.3669


----------------------------------------- Iteration    2(   1)  ---------------------------------------


    POTLOK:  cpu time    0.6000: real time    0.6014
    SETDIJ:  cpu time    0.2880: real time    0.2893
     EDDAV:  cpu time    0.1560: real time    0.1564
       DOS:  cpu time    0.0000: real time    0.0002
    CHARGE:  cpu time    0.0880: real time    0.0872
    MIXING:  cpu time    0.0160: real time    0.0152
    --------------------------------------------
      LOOP:  cpu time    1.1480: real time    1.1525

 eigenvalue-minimisations  :    64
 total energy-change (2. order) : 0.1058976E+01  (-0.1578689E+02)
 number of electron      12.0000109 magnetization       2.0000053
 augmentation part        1.0111416 magnetization       0.4726765

 Broyden mixing:
  rms(total) = 0.47970E+00    rms(broyden)= 0.46775E+00
  rms(prec ) = 0.50353E+00
  weight for this iteration     100.00

 Free energy of the ion-electron system (eV)
  ---------------------------------------------------
  alpha Z        PSCENC =         0.53952419
  Ewald energy   TEWEN  =        73.70459109
  -Hartree energ DENC   =      -822.07028542
  -exchange      EXHF   =         0.00000000
  -V(xc)+E(xc)   XCENC  =        55.24279780
  PAW double counting   =       925.68144043     -928.30856629
  entropy T*S    EENTRO =        -0.00000000
  eigenvalues    EBANDS =      -175.05552801
  atomic energy  EATOM  =       861.07997078
  Solvation  Ediel_sol  =         0.00000000
  ---------------------------------------------------
  free energy    TOTEN  =        -9.18605543 eV

  energy without entropy =       -9.18605543  energy(sigma->0) =       -9.18605543


--------------------------------------------------------------------------------------------------------




----------------------------------------- Iteration    2(   2)  ---------------------------------------


    POTLOK:  cpu time    0.5760: real time    0.5762
    SETDIJ:  cpu time    0.2880: real time    0.2899
     EDDAV:  cpu time    0.1520: real time    0.1500
       DOS:  cpu time    0.0000: real time    0.0002
    CHARGE:  cpu time    0.0840: real time    0.0853
    MIXING:  cpu time    0.0200: real time    0.0174
    --------------------------------------------
      LOOP:  cpu time    1.1200: real time    1.1259

 eigenvalue-minimisations  :    60
 total energy-change (2. order) :-0.2385708E-01  (-0.1984383E+00)
 number of electron      12.0000112 magnetization       2.0000054
 augmentation part        1.0354440 magnetization       0.4892008

 Broyden mixing:
  rms(total) = 0.17247E+00    rms(broyden)= 0.17035E+00
  rms(prec ) = 0.17918E+00
  weight for this iteration     100.00

 eigenvalues of (default mixing * dielectric matrix)
  average eigenvalue GAMMA=   0.7681
  0.7681

 Free energy of the ion-electron system (eV)
  ---------------------------------------------------
  alpha Z        PSCENC =         0.53952419
  Ewald energy   TEWEN  =        73.70459109
  -Hartree energ DENC   =      -814.93296186
  -exchange      EXHF   =         0.00000000
  -V(xc)+E(xc)   XCENC  =        54.82306337
  PAW double counting   =       868.72598627     -871.20831779
  entropy T*S    EENTRO =        -0.00000000
  eigenvalues    EBANDS =      -181.94176856
  atomic energy  EATOM  =       861.07997078
  Solvation  Ediel_sol  =         0.00000000
  ---------------------------------------------------
  free energy    TOTEN  =        -9.20991251 eV

  energy without entropy =       -9.20991251  energy(sigma->0) =       -9.20991251


--------------------------------------------------------------------------------------------------------




----------------------------------------- Iteration    2(   3)  ---------------------------------------


    POTLOK:  cpu time    0.5720: real time    0.5727
    SETDIJ:  cpu time    0.2920: real time    0.2901
     EDDAV:  cpu time    0.1800: real time    0.1807
       DOS:  cpu time    0.0000: real time    0.0002
    CHARGE:  cpu time    0.0880: real time    0.0885
    MIXING:  cpu time    0.0160: real time    0.0166
    --------------------------------------------
      LOOP:  cpu time    1.1480: real time    1.1551

 eigenvalue-minimisations  :    76
 total energy-change (2. order) :-0.7247588E-01  (-0.7316486E-02)
 number of electron      12.0000113 magnetization       2.0000054
 augmentation part        1.0424737 magnetization       0.4895905

 Broyden mixing:
  rms(total) = 0.74038E-01    rms(broyden)= 0.73805E-01
  rms(prec ) = 0.78775E-01
  weight for this iteration     100.00

 eigenvalues of (default mixing * dielectric matrix)
  average eigenvalue GAMMA=   1.0064
  1.3032  0.7096

 Free energy of the ion-electron system (eV)
  ---------------------------------------------------
  alpha Z        PSCENC =         0.53952419
  Ewald energy   TEWEN  =        73.70459109
  -Hartree energ DENC   =      -813.55154577
  -exchange      EXHF   =         0.00000000
  -V(xc)+E(xc)   XCENC  =        54.66977868
  PAW double counting   =       841.57977024     -844.01053582
  entropy T*S    EENTRO =        -0.00000000
  eigenvalues    EBANDS =      -183.29394178
  atomic energy  EATOM  =       861.07997078
  Solvation  Ediel_sol  =         0.00000000
[...]
  in kB      -1.90348    -2.41685    -2.35852    -0.00000     0.00000     0.00000
  external pressure =       -2.23 kB  Pullay stress =        0.00 kB


 VOLUME and BASIS-vectors are now :
 -----------------------------------------------------------------------------
  energy-cutoff  :      400.00
  volume of cell :     1030.20
      direct lattice vectors                 reciprocal lattice vectors
    10.000000000  0.000000000  0.000000000     0.100000000  0.000000000  0.000000000
     0.000000000 10.100000000  0.000000000     0.000000000  0.099009901  0.000000000
     0.000000000  0.000000000 10.200000000     0.000000000  0.000000000  0.098039216

  length of vectors
    10.000000000 10.100000000 10.200000000     0.100000000  0.099009901  0.098039216


 FORCES acting on ions
    electron-ion (+dipol)            ewald-force                    non-local-force                 convergence-correction
 -----------------------------------------------------------------------------------------------
   -.288E+03 0.510E-14 0.155E-04   0.341E+03 0.253E-16 -.924E-17   -.528E+02 -.199E-26 0.000E+00   -.199E-03 0.221E-13 -.813E-12
   0.288E+03 -.153E-14 -.155E-04   -.341E+03 -.100E-16 -.127E-16   0.528E+02 0.000E+00 -.858E-27   0.199E-03 0.308E-13 -.118E-11
 -----------------------------------------------------------------------------------------------
   -.143E-11 0.358E-14 0.311E-10   0.000E+00 0.153E-16 -.219E-16   -.711E-14 -.199E-26 -.858E-27   -.130E-13 0.529E-13 -.199E-11
 
 
 POSITION                                       TOTAL-FORCE (eV/Angst)
 -----------------------------------------------------------------------------------
      0.61435      0.00000      0.00000        -0.021262      0.000000      0.000000
      9.38565     -0.00000      0.00000         0.021262      0.000000      0.000000
 -----------------------------------------------------------------------------------
    total drift:                               -0.000000      0.000000      0.000000


--------------------------------------------------------------------------------------------------------



  FREE ENERGIE OF THE ION-ELECTRON SYSTEM (eV)
  ---------------------------------------------------
  free  energy   TOTEN  =       -10.27765918 eV

  energy  without entropy=      -10.27765918  energy(sigma->0) =      -10.27765918
 
 d Force = 0.2959595E-03[ 0.541E-04, 0.538E-03]  d Energy = 0.2937917E-03 0.217E-05
 d Force =-0.8655035E+00[-0.867E+00,-0.864E+00]  d Ewald  =-0.8655016E+00-0.188E-05


--------------------------------------------------------------------------------------------------------


    POTLOK:  cpu time    0.8800: real time    0.8819


--------------------------------------------------------------------------------------------------------




--------------------------------------------------------------------------------------------------------


    WAVPRE:  cpu time    0.0440: real time    0.0456
 FEWALD executed in parallel
    FEWALD:  cpu time    0.0000: real time    0.0001
    ORTHCH:  cpu time    0.0160: real time    0.0155
     LOOP+:  cpu time    8.9400: real time    9.0070


----------------------------------------- Iteration    5(   1)  ---------------------------------------


    POTLOK:  cpu time    0.5880: real time    0.5918
    SETDIJ:  cpu time    0.2840: real time    0.2849
     EDDAV:  cpu time    0.1440: real time    0.1415
       DOS:  cpu time    0.0000: real time    0.0002
    CHARGE:  cpu time    0.0800: real time    0.0810
    MIXING:  cpu time    0.0120: real time    0.0134
    --------------------------------------------
      LOOP:  cpu time    1.1080: real time    1.1219

 eigenvalue-minimisations  :    56
 total energy-change (2. order) :-0.2470209E-05  (-0.2476332E-04)
 number of electron      12.0000124 magnetization       2.0000055
 augmentation part        1.1384057 magnetization       0.4923960

 Broyden mixing:
  rms(total) = 0.59936E-03    rms(broyden)= 0.58676E-03
  rms(prec ) = 0.62782E-03
  weight for this iteration     100.00

 Free energy of the ion-electron system (eV)
  ---------------------------------------------------
  alpha Z        PSCENC =         0.53952419
  Ewald energy   TEWEN  =       132.46439663
  -Hartree energ DENC   =      -866.06808886
  -exchange      EXHF   =         0.00000000
  -V(xc)+E(xc)   XCENC  =        55.82945813
  PAW double counting   =       902.39471554     -904.97659062
  entropy T*S    EENTRO =        -0.00000000
  eigenvalues    EBANDS =      -191.54104782
  atomic energy  EATOM  =       861.07997078
  Solvation  Ediel_sol  =         0.00000000
  ---------------------------------------------------
  free energy    TOTEN  =       -10.27766203 eV

  energy without entropy =      -10.27766203  energy(sigma->0) =      -10.27766203


--------------------------------------------------------------------------------------------------------




----------------------------------------- Iteration    5(   2)  ---------------------------------------


    POTLOK:  cpu time    0.5920: real time    0.5949
    SETDIJ:  cpu time    0.2880: real time    0.2871
     EDDAV:  cpu time    0.1560: real time    0.1569
       DOS:  cpu time    0.0000: real time    0.0002
    CHARGE:  cpu time    0.0880: real time    0.0875
    MIXING:  cpu time    0.0160: real time    0.0158
    --------------------------------------------
      LOOP:  cpu time    1.1440: real time    1.1474

 eigenvalue-minimisations  :    64
 total energy-change (2. order) : 0.2774233E-06  (-0.3113755E-06)
 number of electron      12.0000124 magnetization       2.0000055
 augmentation part        1.1384088 magnetization       0.4923849

 Broyden mixing:
  rms(total) = 0.26886E-03    rms(broyden)= 0.26748E-03
  rms(prec ) = 0.29317E-03
  weight for this iteration     100.00

 eigenvalues of (default mixing * dielectric matrix)
  average eigenvalue GAMMA=   0.7474
  0.7474

 Free energy of the ion-electron system (eV)
  ---------------------------------------------------
  alpha Z        PSCENC =         0.53952419
  Ewald energy   TEWEN  =       132.46439663
  -Hartree energ DENC   =      -866.07628220
  -exchange      EXHF   =         0.00000000
  -V(xc)+E(xc)   XCENC  =        55.82998686
  PAW double counting   =       902.48714178     -905.06920045
  entropy T*S    EENTRO =        -0.00000000
  eigenvalues    EBANDS =      -191.53319934
  atomic energy  EATOM  =       861.07997078
  Solvation  Ediel_sol  =         0.00000000
  ---------------------------------------------------
  free energy    TOTEN  =       -10.27766175 eV

  energy without entropy =      -10.27766175  energy(sigma->0) =      -10.27766175


--------------------------------------------------------------------------------------------------------




----------------------------------------- Iteration    5(   3)  ---------------------------------------


    POTLOK:  cpu time    0.5800: real time    0.5806
    SETDIJ:  cpu time    0.2880: real time    0.2907
     EDDAV:  cpu time    0.1280: real time    0.1273
       DOS:  cpu time    0.0000: real time    0.0002
    CHARGE:  cpu time    0.0840: real time    0.0870
    MIXING:  cpu time    0.0160: real time    0.0157
    --------------------------------------------
      LOOP:  cpu time    1.0960: real time    1.1075

 eigenvalue-minimisations  :    48
 total energy-change (2. order) :-0.5555410E-07  (-0.1787824E-07)
 number of electron      12.0000124 magnetization       2.0000055
 augmentation part        1.1383937 magnetization       0.4923794

 Broyden mixing:
  rms(total) = 0.11471E-03    rms(broyden)= 0.11451E-03
  rms(prec ) = 0.12959E-03
  weight for this iteration     100.00

 eigenvalues of (default mixing * dielectric matrix)
  average eigenvalue GAMMA=   1.1034
  1.5004  0.7064

 Free energy of the ion-electron system (eV)
  ---------------------------------------------------
  alpha Z        PSCENC =         0.53952419
  Ewald energy   TEWEN  =       132.46439663
  -Hartree energ DENC   =      -866.07990485
  -exchange      EXHF   =         0.00000000
  -V(xc)+E(xc)   XCENC  =        55.83021121
  PAW double counting   =       902.53084582     -905.11302296
  entropy T*S    EENTRO =        -0.00000000
  eigenvalues    EBANDS =      -191.52968263
  atomic energy  EATOM  =       861.07997078
  Solvation  Ediel_sol  =         0.00000000
  ---------------------------------------------------
  free energy    TOTEN  =       -10.27766181 eV

  energy without entropy =      -10.27766181  energy(sigma->0) =      -10.27766181


--------------------------------------------------------------------------------------------------------




----------------------------------------- Iteration    5(   4)  ---------------------------------------


    POTLOK:  cpu time    0.5760: real time    0.5766
    SETDIJ:  cpu time    0.2880: real time    0.2904
     EDDAV:  cpu time    0.1600: real time    0.1575
       DOS:  cpu time    0.0000: real time    0.0002
    --------------------------------------------
      LOOP:  cpu time    1.0280: real time    1.0307

 eigenvalue-minimisations  :    64
 total energy-change (2. order) :-0.4198251E-06  (-0.7485043E-08)
 number of electron      12.0000124 magnetization       2.0000055
 augmentation part        1.1383937 magnetization       0.4923794

 Free energy of the ion-electron system (eV)
  ---------------------------------------------------
  alpha Z        PSCENC =         0.53952419
  Ewald energy   TEWEN  =       132.46439663
  -Hartree energ DENC   =      -866.08251726
  -exchange      EXHF   =         0.00000000
  -V(xc)+E(xc)   XCENC  =        55.83036843
  PAW double counting   =       902.58172110     -905.16399539
  entropy T*S    EENTRO =        -0.00000000
  eigenvalues    EBANDS =      -191.52713071
  atomic energy  EATOM  =       861.07997078
  Solvation  Ediel_sol  =         0.00000000
  ---------------------------------------------------
  free energy    TOTEN  =       -10.27766223 eV

  energy without entropy =      -10.27766223  energy(sigma->0) =      -10.27766223


--------------------------------------------------------------------------------------------------------




 average (electrostatic) potential at core
  the test charge radii are     0.7215
  (the norm of the test charge is              1.0000)
       1 -83.5978       2 -83.5978
 
 
 
 E-fermi : -10.4645     XC(G=0):  -0.5649     alpha+bet : -0.1454


 spin component 1

 k-point     1 :       0.0000    0.0000    0.0000
  band No.  band energies     occupation 
      1     -32.5271      1.00000
      2     -20.4083      1.00000
      3     -13.3703      1.00000
      4     -13.2609      1.00000
      5     -13.2601      1.00000
      6      -6.8034      1.00000
      7      -6.8016      1.00000
      8      -0.2850      0.00000
      9       0.9080      0.00000
     10       1.0997      0.00000
     11       1.1255      0.00000
     12       1.1588      0.00000

 spin component 2

 k-point     1 :       0.0000    0.0000    0.0000
  band No.  band energies     occupation 
      1     -31.2672      1.00000
      2     -18.6255      1.00000
      3     -12.3496      1.00000
      4     -11.4268      1.00000
      5     -11.4264      1.00000
      6      -4.5508      0.00000
      7      -4.5499      0.00000
      8      -0.1755      0.00000
      9       1.1427      0.00000
     10       1.2196      0.00000
     11       1.2456      0.00000
     12       1.2645      0.00000


--------------------------------------------------------------------------------------------------------


 soft charge-density along one line, spin component           1
         0         1         2         3         4         5         6         7         8         9
 total charge-density along one line
 
 soft charge-density along one line, spin component           2
         0         1         2         3         4         5         6         7         8         9
 total charge-density along one line
 
 pseudopotential strength for first ion, spin component:           1
 14.546 -17.889   0.000   0.000   0.115  -0.000  -0.000  -0.140
-17.889  22.036  -0.000  -0.000  -0.145   0.000   0.000   0.178
  0.000  -0.000 -11.471   0.000  -0.000  14.389  -0.000   0.000
  0.000  -0.000   0.000 -11.472   0.000  -0.000  14.390  -0.000
  0.115  -0.145  -0.000   0.000 -11.456   0.000  -0.000  14.349
 -0.000   0.000  14.389  -0.000   0.000 -18.012   0.000  -0.000
 -0.000   0.000  -0.000  14.390  -0.000   0.000 -18.013   0.000
 -0.140   0.178   0.000  -0.000  14.349  -0.000   0.000 -17.929
 pseudopotential strength for first ion, spin component:           2
 14.006 -17.193   0.000   0.000   0.119  -0.000  -0.000  -0.147
-17.193  21.137  -0.000  -0.000  -0.151   0.000   0.000   0.187
  0.000  -0.000 -10.832  -0.000  -0.000  13.485   0.000   0.000
  0.000  -0.000  -0.000 -10.832   0.000   0.000  13.485  -0.000
  0.119  -0.151  -0.000   0.000 -11.231   0.000  -0.000  14.037
 -0.000   0.000  13.485   0.000   0.000 -16.728  -0.000  -0.000
 -0.000   0.000   0.000  13.485  -0.000  -0.000 -16.728   0.000
 -0.147   0.187   0.000  -0.000  14.037  -0.000   0.000 -17.494
 total augmentation occupancy for first ion, spin component:           1
  2.746   0.450   0.000   0.000  -0.525   0.000  -0.000  -0.257
  0.450   0.197   0.000  -0.000  -0.546   0.000  -0.000  -0.170
  0.000   0.000   1.761   0.000   0.000   0.116   0.000   0.000
  0.000   0.000   0.000   1.761   0.000   0.000   0.115   0.000
 -0.525  -0.546   0.000   0.000   2.479   0.000   0.000   0.564
  0.000   0.000   0.116   0.000  -0.000   0.032   0.000   0.000
 -0.000  -0.000   0.000   0.115   0.000   0.000   0.032   0.000
 -0.257  -0.170   0.000   0.000   0.564   0.000   0.000   0.160
 total augmentation occupancy for first ion, spin component:           2
 -0.110  -0.063  -0.000   0.000   0.011  -0.000   0.000   0.012
 -0.063  -0.012   0.000   0.000   0.006  -0.000   0.000   0.005
 -0.000   0.000   0.358   0.000   0.000  -0.087  -0.000   0.000
  0.000   0.000   0.000   0.357  -0.000   0.000  -0.087   0.000
  0.011   0.006   0.000  -0.000  -0.035   0.000   0.000  -0.018
 -0.000  -0.000  -0.087   0.000   0.000   0.002   0.000   0.000
  0.000   0.000  -0.000  -0.087   0.000   0.000   0.003   0.000
  0.012   0.005   0.000   0.000  -0.018   0.000   0.000  -0.006


------------------------ aborting loop because EDIFF is reached ----------------------------------------


    CHARGE:  cpu time    0.0880: real time    0.0862
    FORLOC:  cpu time    0.0040: real time    0.0066
    FORNL :  cpu time    0.0760: real time    0.0744
    STRESS:  cpu time    0.2520: real time    0.2540
    FORCOR:  cpu time    0.5680: real time    0.5656
    FORHAR:  cpu time    0.0560: real time    0.0572
    MIXING:  cpu time    0.0120: real time    0.0143
    OFIELD:  cpu time    0.0000: real time    0.0001

  FORCE on cell =-STRESS in cart. coord.  units (eV):
  Direction    XX          YY          ZZ          XY          YZ          ZX
  --------------------------------------------------------------------------------------
  Alpha Z     0.53952     0.53952     0.53952
  Ewald     331.01403   -97.83289  -100.71685    -0.00000     0.00000     0.00000
  Hartree   423.85699   222.52516   219.69874    -0.00000    -0.00000    -0.00000
  E(xc)     -57.14692   -57.71234   -57.71201    -0.00000    -0.00000    -0.00000
  Local    -894.01156  -308.84593  -303.12367     0.00000    -0.00000     0.00000
  n-local   -48.10000   -44.52606   -44.51670    -0.00000     0.00000    -0.00000
  augment    10.38691    13.06125    13.06346     0.00000     0.00000     0.00000
  Kinetic   232.26210   271.23609   271.24978     0.00000    -0.00000     0.00000
  Fock        0.00000     0.00000     0.00000     0.00000     0.00000     0.00000
  -------------------------------------------------------------------------------------
  Total      -1.19893    -1.55519    -1.51772    -0.00000     0.00000     0.00000
  in kB      -1.86458    -2.41865    -2.36038    -0.00000     0.00000     0.00000
  external pressure =       -2.21 kB  Pullay stress =        0.00 kB


 VOLUME and BASIS-vectors are now :
 -----------------------------------------------------------------------------
  energy-cutoff  :      400.00
  volume of cell :     1030.20
      direct lattice vectors                 reciprocal lattice vectors
    10.000000000  0.000000000  0.000000000     0.100000000  0.000000000  0.000000000
     0.000000000 10.100000000  0.000000000     0.000000000  0.099009901  0.000000000
     0.000000000  0.000000000 10.200000000     0.000000000  0.000000000  0.098039216

  length of vectors
    10.000000000 10.100000000 10.200000000     0.100000000  0.099009901  0.098039216


 FORCES acting on ions
    electron-ion (+dipol)            ewald-force                    non-local-force                 convergence-correction
 -----------------------------------------------------------------------------------------------
   -.288E+03 0.402E-15 0.154E-04   0.341E+03 0.671E-17 -.228E-17   -.528E+02 0.000E+00 0.000E+00   -.674E-03 0.418E-13 0.258E-11
   0.288E+03 -.455E-14 -.154E-04   -.341E+03 0.857E-17 -.196E-16   0.528E+02 0.000E+00 0.000E+00   0.674E-03 0.312E-13 0.545E-11
 -----------------------------------------------------------------------------------------------
   0.903E-12 -.415E-14 -.176E-10   0.000E+00 0.153E-16 -.219E-16   -.711E-14 0.000E+00 0.000E+00   -.351E-12 0.730E-13 0.803E-11
 
 
 POSITION                                       TOTAL-FORCE (eV/Angst)
 -----------------------------------------------------------------------------------
      0.61421      0.00000      0.00000         0.000098      0.000000      0.000000
      9.38579     -0.00000      0.00000        -0.000098      0.000000      0.000000
 -----------------------------------------------------------------------------------
    total drift:                                0.000000      0.000000     -0.000000


--------------------------------------------------------------------------------------------------------



  FREE ENERGIE OF THE ION-ELECTRON SYSTEM (eV)
  ---------------------------------------------------
  free  energy   TOTEN  =       -10.27766223 eV

  energy  without entropy=      -10.27766223  energy(sigma->0) =      -10.27766223
 
 d Force = 0.2990633E-05[-0.278E-07, 0.601E-05]  d Energy = 0.3044499E-05-0.539E-07
 d Force =-0.9627197E-01[-0.963E-01,-0.962E-01]  d Ewald  =-0.9627196E-01-0.251E-08


--------------------------------------------------------------------------------------------------------


    POTLOK:  cpu time    0.8800: real time    0.8827


--------------------------------------------------------------------------------------------------------




--------------------------------------------------------------------------------------------------------


  
 reached required accuracy - stopping structural energy minimisation
 writing wavefunctions
     LOOP+:  cpu time    6.6160: real time    6.8505
    4ORBIT:  cpu time    0.0000: real time    0.0000

 total amount of memory used by VASP on root node    68538. kBytes
========================================================================

   base      :      30000. kBytes
   nonlr-proj:        186. kBytes
   fftplans  :       9085. kBytes
   grid      :      28360. kBytes
   one-center:          6. kBytes
   wavefun   :        901. kBytes
 
  
  
 General timing and accounting informations for this job:
 ========================================================
  
                  Total CPU time used (sec):       88.440
                            User time (sec):       87.440
                          System time (sec):        1.000
                         Elapsed time (sec):       89.318
  
                   Maximum memory used (kb):      130664.
                   Average memory used (kb):           0.
  
                          Minor page faults:       294543
                          Major page faults:            9
                 Voluntary context switches:         2000
