 vasp.5.4.1 05Feb16 (build Apr 11 2016 10:12:08) gamma-only                     
  
 executed on           IFC91_ompi date 2017.09.26  16:21:42
 running on   16 total cores
 distrk:  each k-point on    4 cores,    4 groups
 distr:  one band on NCORES_PER_BAND=   1 cores,    4 groups


--------------------------------------------------------------------------------------------------------


 INCAR:
 POTCAR:    PAW_PBE O 08Apr2002                   

 ----------------------------------------------------------------------------- 
|                                                                             |
|           W    W    AA    RRRRR   N    N  II  N    N   GGGG   !!!           |
|           W    W   A  A   R    R  NN   N  II  NN   N  G    G  !!!           |
|           W    W  A    A  R    R  N N  N  II  N N  N  G       !!!           |
|           W WW W  AAAAAA  RRRRR   N  N N  II  N  N N  G  GGG   !            |
|           WW  WW  A    A  R   R   N   NN  II  N   NN  G    G                |
|           W    W  A    A  R    R  N    N  II  N    N   GGGG   !!!           |
|                                                                             |
|      For optimal performance we recommend to set                            |
|        NCORE= 4 - approx SQRT( number of cores)                             |
|      NCORE specifies how many cores store one orbital (NPAR=cpu/NCORE).     |
|      This setting can  greatly improve the performance of VASP for DFT.     |
|      The default, NPAR=number of cores might be grossly inefficient         |
|      on modern multi-core architectures or massively parallel machines.     |
|      Do your own testing !!!!                                               |
|      Unfortunately you need to use the default for GW and RPA calculations. |
|      (for HF NCORE is supported but not extensively tested yet)             |
|                                                                             |
 ----------------------------------------------------------------------------- 


 ----------------------------------------------------------------------------- 
|                                                                             |
|           W    W    AA    RRRRR   N    N  II  N    N   GGGG   !!!           |
|           W    W   A  A   R    R  NN   N  II  NN   N  G    G  !!!           |
|           W    W  A    A  R    R  N N  N  II  N N  N  G       !!!           |
|           W WW W  AAAAAA  RRRRR   N  N N  II  N  N N  G  GGG   !            |
|           WW  WW  A    A  R   R   N   NN  II  N   NN  G    G                |
|           W    W  A    A  R    R  N    N  II  N    N   GGGG   !!!           |
|                                                                             |
|      You have enabled k-point parallelism (KPAR>1).                         |
|      This developmental code was originally  written by Paul Kent at ORNL,  |
|      and carefully double checked in Vienna.                                |
|      GW as well as linear response parallelism added by Martijn Marsman     |
|      and Georg Kresse.                                                      |
|      Carefully verify results versus KPAR=1.                                |
|      Report problems to Paul Kent and Vienna.                               |
|                                                                             |
 ----------------------------------------------------------------------------- 

 POTCAR:    PAW_PBE O 08Apr2002                   
   VRHFIN =O: s2p4                                                              
   LEXCH  = PE                                                                  
   EATOM  =   432.3788 eV,   31.7789 Ry                                         
                                                                                
   TITEL  = PAW_PBE O 08Apr2002                                                 
   LULTRA =        F    use ultrasoft PP ?                                      
   IUNSCR =        1    unscreen: 0-lin 1-nonlin 2-no                           
   RPACOR =    1.200    partial core radius                                     
   POMASS =   16.000; ZVAL   =    6.000    mass and valenz                      
   RCORE  =    1.520    outmost cutoff radius                                   
   RWIGS  =    1.550; RWIGS  =    0.820    wigner-seitz radius (au A)           
   ENMAX  =  400.000; ENMIN  =  300.000 eV                                      
   ICORE  =        2    local potential                                         
   LCOR   =        T    correct aug charges                                     
   LPAW   =        T    paw PP                                                  
   EAUG   =  605.392                                                            
   DEXC   =    0.000                                                            
   RMAX   =    1.553    core radius for proj-oper                               
   RAUG   =    1.300    factor for augmentation sphere                          
   RDEP   =    1.550    radius for radial grids                                 
   RDEPT  =    1.329    core radius for aug-charge                              
                                                                                
   Atomic configuration                                                         
    4 entries                                                                   
     n  l   j            E        occ.                                          
     1  0  0.50      -514.6923   2.0000                                         
     2  0  0.50       -23.9615   2.0000                                         
     2  1  0.50        -9.0305   4.0000                                         
     3  2  1.50        -9.5241   0.0000                                         
   Description                                                                  
     l       E           TYP  RCUT    TYP  RCUT                                 
     0    -23.9615318     23  1.200                                             
     0     -9.5240782     23  1.200                                             
     1     -9.0304911     23  1.520                                             
     1      8.1634956     23  1.520                                             
     2     -9.5240782      7  1.500                                             
  local pseudopotential read in
  partial core-charges read in
  partial kinetic energy density read in
  kinetic energy density of atom read in
  atomic valenz-charges read in
  non local Contribution for L=           0  read in
    real space projection operators read in
  non local Contribution for L=           0  read in
    real space projection operators read in
  non local Contribution for L=           1  read in
    real space projection operators read in
  non local Contribution for L=           1  read in
    real space projection operators read in
    PAW grid and wavefunctions read in
 
   number of l-projection  operators is LMAX  =           4
   number of lm-projection operators is LMMAX =           8
 

 ----------------------------------------------------------------------------- 
|                                                                             |
|  ADVICE TO THIS USER RUNNING 'VASP/VAMP'   (HEAR YOUR MASTER'S VOICE ...):  |
|                                                                             |
|      You have a (more or less) 'small supercell' and for smaller cells      |
|      it is recommended  to use the reciprocal-space projection scheme!      |
|      The real space optimization is not  efficient for small cells and it   |
|      is also less accurate ...                                              |
|      Therefore set LREAL=.FALSE. in the  INCAR file                         |
|                                                                             |
 ----------------------------------------------------------------------------- 

 Optimization of the real space projectors (new method)

 maximal supplied QI-value         = 24.76
 optimisation between [QCUT,QGAM] = [ 10.15, 20.30] = [ 28.85,115.39] Ry 
 Optimized for a Real-space Cutoff    1.38 Angstroem

   l    n(q)    QCUT    max X(q) W(low)/X(q) W(high)/X(q)  e(spline) 
   0      8    10.150    20.381    0.22E-03    0.32E-03    0.29E-06
   0      8    10.150    15.268    0.23E-03    0.35E-03    0.30E-06
   1      8    10.150     5.964    0.46E-03    0.53E-03    0.21E-06
   1      8    10.150     5.382    0.38E-03    0.45E-03    0.19E-06

 ----------------------------------------------------------------------------- 
|                                                                             |
|  ADVICE TO THIS USER RUNNING 'VASP/VAMP'   (HEAR YOUR MASTER'S VOICE ...):  |
|                                                                             |
|      You enforced a specific xc-type in the INCAR file,                     |
|      a different type was found on the POTCAR file                          |
|          I HOPE YOU KNOW, WHAT YOU ARE  DOING                               |
|                                                                             |
 ----------------------------------------------------------------------------- 

  PAW_PBE O 08Apr2002                   :
 energy of atom  1       EATOM= -432.3788
 kinetic energy error for atom=    0.1156 (will be added to EATOM!!)
 
 
 POSCAR: O2                                      
  positions in direct lattice
  velocities in cartesian coordinates
 exchange correlation table for  LEXCH =       14
   RHO(1)=    0.500       N(1)  =     2000
   RHO(2)=  100.500       N(2)  =     4000
 


--------------------------------------------------------------------------------------------------------


 ion  position               nearest neighbor table
   1  0.061  0.000  0.000-   2 1.23
   2  0.939  0.000  0.000-   1 1.23
 
  LATTYP: Found a simple orthorhombic cell.
 ALAT       =    10.0000000000
 B/A-ratio  =     1.0100000000
 C/A-ratio  =     1.0200000000
  
  Lattice vectors:
  
 A1 = (  10.0000000000,   0.0000000000,   0.0000000000)
 A2 = (   0.0000000000,  10.1000000000,   0.0000000000)
 A3 = (   0.0000000000,   0.0000000000,  10.2000000000)


Analysis of symmetry for initial positions (statically):
=====================================================================
 Subroutine PRICEL returns:
 Original cell was already a primitive cell.
 

 Routine SETGRP: Setting up the symmetry group for a 
 simple orthorhombic supercell.


 Subroutine GETGRP returns: Found  8 space group operations
 (whereof  8 operations were pure point group operations)
 out of a pool of  8 trial point group operations.


The static configuration has the point symmetry D_2h.


Analysis of symmetry for dynamics (positions and initial velocities):
=====================================================================
 Subroutine PRICEL returns:
 Original cell was already a primitive cell.
 

 Routine SETGRP: Setting up the symmetry group for a 
 simple orthorhombic supercell.


 Subroutine GETGRP returns: Found  8 space group operations
 (whereof  8 operations were pure point group operations)
 out of a pool of  8 trial point group operations.


The dynamic configuration has the point symmetry D_2h.


Analysis of structural, dynamic, and magnetic symmetry:
=====================================================================
 Subroutine PRICEL returns:
 Original cell was already a primitive cell.
 

 Routine SETGRP: Setting up the symmetry group for a 
 simple orthorhombic supercell.


 Subroutine GETGRP returns: Found  8 space group operations
 (whereof  8 operations were pure point group operations)
 out of a pool of  8 trial point group operations.


The magnetic configuration has the point symmetry D_2h.


 Subroutine INISYM returns: Found  8 space group operations
 (whereof  8 operations are pure point group operations),
 and found     1 'primitive' translations

 
 
 KPOINTS: k-point mesh generated by kpt_generator.

Automatic generation of k-mesh.
Space group operators:
 irot       det(A)        alpha          n_x          n_y          n_z        tau_x        tau_y        tau_z
    1     1.000000     0.000001     1.000000     0.000000     0.000000     0.000000     0.000000     0.000000
    2    -1.000000     0.000001     1.000000     0.000000     0.000000     0.000000     0.000000     0.000000
    3     1.000000   180.000000     0.000000     0.000000     1.000000     0.000000     0.000000     0.000000
    4    -1.000000   180.000000     0.000000     0.000000     1.000000     0.000000     0.000000     0.000000
    5     1.000000   180.000000     0.000000     1.000000     0.000000     0.000000     0.000000     0.000000
    6    -1.000000   180.000000     0.000000     1.000000     0.000000     0.000000     0.000000     0.000000
    7     1.000000   180.000000     1.000000     0.000000     0.000000     0.000000     0.000000     0.000000
    8    -1.000000   180.000000     1.000000     0.000000     0.000000     0.000000     0.000000     0.000000
 
 Subroutine IBZKPT returns following result:
 ===========================================
 
 Found      1 irreducible k-points:
 
 Following reciprocal coordinates:
            Coordinates               Weight
  0.000000  0.000000  0.000000      1.000000
 
 Following cartesian coordinates:
            Coordinates               Weight
  0.000000  0.000000  0.000000      1.000000
 


--------------------------------------------------------------------------------------------------------




 Dimension of arrays:
   k-points           NKPTS =      1   k-points in BZ     NKDIM =      1   number of bands    NBANDS=     12
   number of dos      NEDOS =    301   number of ions     NIONS =      2
   non local maximal  LDIM  =      4   non local SUM 2l+1 LMDIM =      8
   total plane-waves  NPLWV = 125000
   max r-space proj   IRMAX =   1387   max aug-charges    IRDMAX=   1774
   dimension x,y,z NGX =    50 NGY =   50 NGZ =   50
   dimension x,y,z NGXF=   100 NGYF=  100 NGZF=  100
   support grid    NGXF=   100 NGYF=  100 NGZF=  100
   ions per type =               2
 NGX,Y,Z   is equivalent  to a cutoff of   8.31,  8.23,  8.15 a.u.
 NGXF,Y,Z  is equivalent  to a cutoff of  16.62, 16.46, 16.30 a.u.


 I would recommend the setting:
   dimension x,y,z NGX =    49 NGY =   49 NGZ =   50
 SYSTEM =  unknown system                          
 POSCAR =  O2                                      

 Startparameter for this run:
   NWRITE =      2    write-flag & timer
   PREC   = n         normal or accurate (medium, high low for compatibility)
   ISTART =      1    job   : 0-new  1-cont  2-samecut
   ICHARG =      0    charge: 1-file 2-atom 10-const
   ISPIN  =      2    spin polarized calculation?
   LNONCOLLINEAR =      F non collinear calculations
   LSORBIT =      F    spin-orbit coupling
   INIWAV =      1    electr: 0-lowe 1-rand  2-diag
   LASPH  =      T    aspherical Exc in radial PAW
   METAGGA=      F    non-selfconsistent MetaGGA calc.

 Electronic Relaxation 1
   ENCUT  =  400.0 eV  29.40 Ry    5.42 a.u.  16.31 16.47 16.63*2*pi/ulx,y,z
   ENINI  =  400.0     initial cutoff
   ENAUG  =  605.4 eV  augmentation charge cutoff
   NELM   =    100;   NELMIN=  4; NELMDL=  0     # of ELM steps 
   EDIFF  = 0.1E-05   stopping-criterion for ELM
   LREAL  =      T    real-space projection
   NLSPLINE    = F    spline interpolate recip. space projectors
   LCOMPAT=      F    compatible to vasp.4.4
   GGA_COMPAT  = T    GGA compatible to vasp.4.4-vasp.4.6
   LMAXPAW     = -100 max onsite density
   LMAXMIX     =    2 max onsite mixed and CHGCAR
   VOSKOWN=      0    Vosko Wilk Nusair interpolation
   ROPT   =   -0.00050
 Ionic relaxation
   EDIFFG = -.2E-01   stopping-criterion for IOM
   NSW    =     20    number of steps for IOM
   NBLOCK =      1;   KBLOCK =     20    inner block; outer block 
   IBRION =      2    ionic relax: 0-MD 1-quasi-New 2-CG
   NFREE  =      1    steps in history (QN), initial steepest desc. (CG)
   ISIF   =      2    stress and relaxation
   IWAVPR =     11    prediction:  0-non 1-charg 2-wave 3-comb
   ISYM   =      2    0-nonsym 1-usesym 2-fastsym
   LCORR  =      T    Harris-Foulkes like correction to forces

   POTIM  = 0.5000    time-step for ionic-motion
   TEIN   =    0.0    initial temperature
   TEBEG  =    0.0;   TEEND  =   0.0 temperature during run
   SMASS  =  -3.00    Nose mass-parameter (am)
   estimated Nose-frequenzy (Omega)   =  0.10E-29 period in steps =****** mass=  -0.229E-26a.u.
   SCALEE = 1.0000    scale energy and forces
   NPACO  =    256;   APACO  = 16.0  distance and # of slots for P.C.
   PSTRESS=    0.0 pullay stress

  Mass of Ions in am
   POMASS =  16.00
  Ionic Valenz
   ZVAL   =   6.00
  Atomic Wigner-Seitz radii
   RWIGS  =  -1.00
  virtual crystal weights 
   VCA    =   1.00
   NELECT =      12.0000    total number of electrons
   NUPDOWN=       2.0000    fix difference up-down

 DOS related values:
   EMIN   =  10.00;   EMAX   =-10.00  energy-range for DOS
   EFERMI =   0.00
   ISMEAR =     0;   SIGMA  =   0.20  broadening in eV -4-tet -1-fermi 0-gaus

 Electronic relaxation 2 (details)
   IALGO  =     38    algorithm
   LDIAG  =      T    sub-space diagonalisation (order eigenvalues)
   LSUBROT=      F    optimize rotation matrix (better conditioning)
   TURBO    =      0    0=normal 1=particle mesh
   IRESTART =      0    0=no restart 2=restart with 2 vectors
   NREBOOT  =      0    no. of reboots
   NMIN     =      0    reboot dimension
   EREF     =   0.00    reference energy to select bands
   IMIX   =      4    mixing-type and parameters
     AMIX     =   0.40;   BMIX     =  1.00
     AMIX_MAG =   1.60;   BMIX_MAG =  1.00
     AMIN     =   0.10
     WC   =   100.;   INIMIX=   1;  MIXPRE=   1;  MAXMIX= -45

 Intra band minimization:
   WEIMIN = 0.0010     energy-eigenvalue tresh-hold
   EBREAK =  0.21E-07  absolut break condition
   DEPER  =   0.30     relativ break condition  

   TIME   =   0.40     timestep for ELM

  volume/ion in A,a.u.               =     515.10      3476.07
  Fermi-wavevector in a.u.,A,eV,Ry     =   0.371103  0.701283  1.873762  0.137718
  Thomas-Fermi vector in A             =   1.298976
 
 Write flags
   LWAVE  =      T    write WAVECAR
   LCHARG =      F    write CHGCAR
   LVTOT  =      F    write LOCPOT, total local potential
   LVHAR  =      F    write LOCPOT, Hartree potential only
   LELF   =      F    write electronic localiz. function (ELF)
   LORBIT =      0    0 simple, 1 ext, 2 COOP (PROOUT)


 Dipole corrections
   LMONO  =      F    monopole corrections only (constant potential shift)
   LDIPOL =      F    correct potential (dipole corrections)
   IDIPOL =      0    1-x, 2-y, 3-z, 4-all directions 
   EPSILON=  1.0000000 bulk dielectric constant

 Exchange correlation treatment:
   GGA     =    PS    GGA type
   LEXCH   =    14    internal setting for exchange type
   VOSKOWN=      0    Vosko Wilk Nusair interpolation
   LHFCALC =     F    Hartree Fock is set to
   LHFONE  =     F    Hartree Fock one center treatment
   AEXX    =    0.0000 exact exchange contribution

 Linear response parameters
   LEPSILON=     F    determine dielectric tensor
   LRPA    =     F    only Hartree local field effects (RPA)
   LNABLA  =     F    use nabla operator in PAW spheres
   LVEL    =     F    velocity operator in full k-point grid
   LINTERFAST=   F  fast interpolation
   KINTER  =     0    interpolate to denser k-point grid
   CSHIFT  =0.1000    complex shift for real part using Kramers Kronig
   OMEGAMAX=  -1.0    maximum frequency
   DEG_THRESHOLD= 0.2000000E-02 threshold for treating states as degnerate
   RTIME   =    0.100 relaxation time in fs

 Orbital magnetization related:
   ORBITALMAG=     F  switch on orbital magnetization
   LCHIMAG   =     F  perturbation theory with respect to B field
   DQ        =  0.001000  dq finite difference perturbation B field



--------------------------------------------------------------------------------------------------------


 conjugate gradient relaxation of ions
 charge density and potential will be updated during run
 spin polarized calculation
 Variant of blocked Davidson
 Davidson routine will perform the subspace rotation
 perform sub-space diagonalisation
    after iterative eigenvector-optimisation
 modified Broyden-mixing scheme, WC =      100.0
 initial mixing is a Kerker type mixing with AMIX =  0.4000 and BMIX =      1.0000
 Hartree-type preconditioning will be used
 using additional bands            6
 real space projection scheme for non local part
 use partial core corrections
 calculate Harris-corrections to forces 
   (improved forces if not selfconsistent)
 use gradient corrections 
 use of overlap-Matrix (Vanderbilt PP)
 Gauss-broadening in eV      SIGMA  =   0.20


--------------------------------------------------------------------------------------------------------


  energy-cutoff  :      400.00
  volume of cell :     1030.20
      direct lattice vectors                 reciprocal lattice vectors
    10.000000000  0.000000000  0.000000000     0.100000000  0.000000000  0.000000000
     0.000000000 10.100000000  0.000000000     0.000000000  0.099009901  0.000000000
     0.000000000  0.000000000 10.200000000     0.000000000  0.000000000  0.098039216

  length of vectors
    10.000000000 10.100000000 10.200000000     0.100000000  0.099009901  0.098039216


 
 old parameters found on file WAVECAR:
  energy-cutoff  :      400.00
  volume of cell :     1030.20
      direct lattice vectors                 reciprocal lattice vectors
    10.000000000  0.000000000  0.000000000     0.100000000  0.000000000  0.000000000
     0.000000000 10.100000000  0.000000000     0.000000000  0.099009901  0.000000000
     0.000000000  0.000000000 10.200000000     0.000000000  0.000000000  0.098039216

  length of vectors

 
 k-points in units of 2pi/SCALE and weight: k-point mesh generated by kpt_generator.
   0.00000000  0.00000000  0.00000000       1.000
 
 k-points in reciprocal lattice and weights: k-point mesh generated by kpt_generator.
   0.00000000  0.00000000  0.00000000       1.000
 
 position of ions in fractional coordinates (direct lattice) 
   0.06142072  0.00000000  0.00000000
   0.93857928  0.00000000  0.00000000
 
 position of ions in cartesian coordinates  (Angst):
   0.61420719  0.00000000  0.00000000
   9.38579281  0.00000000  0.00000000
 


--------------------------------------------------------------------------------------------------------


 use seriel FFT for wavefunctions x direction half grid
 k-point  1 :   0.0000 0.0000 0.0000  plane waves:    9381

 maximum and minimum number of plane-waves per node :      9381     9381

 maximum number of plane-waves:      9381
 maximum index in each direction: 
   IXMAX=   16   IYMAX=   16   IZMAX=   16
   IXMIN=    0   IYMIN=  -16   IZMIN=  -16

 WARNING: aliasing errors must be expected set NGX to  66 to avoid them
 WARNING: aliasing errors must be expected set NGY to  66 to avoid them
 WARNING: aliasing errors must be expected set NGZ to  66 to avoid them
 aliasing errors are usually negligible using standard VASP settings
 and one can safely disregard these warnings

 serial   3D FFT for wavefunctions
 parallel 3D FFT for charge:
    minimum data exchange during FFTs selected (reduces bandwidth)


 total amount of memory used by VASP on root node    68537. kBytes
========================================================================

   base      :      30000. kBytes
   nonlr-proj:        185. kBytes
   fftplans  :       9085. kBytes
   grid      :      28360. kBytes
   one-center:          6. kBytes
   wavefun   :        901. kBytes
 
     INWAV:  cpu time    0.0160: real time    0.0332
 Broyden mixing: mesh for mixing (old mesh)
   NGX = 33   NGY = 33   NGZ = 33
  (NGX  =100   NGY  =100   NGZ  =100)
  gives a total of  35937 points

 charge density for first step will be calculated from the start-wavefunctions


--------------------------------------------------------------------------------------------------------


 Maximum index for non-local projection operator         1319
 Maximum index for augmentation-charges          392 (set IRDMAX)


--------------------------------------------------------------------------------------------------------


 initial charge from wavefunction
 First call to EWALD:  gamma=   0.175
 Maximum number of real-space cells 3x 3x 3
 Maximum number of reciprocal cells 3x 3x 3

 FEWALD executed in parallel
    FEWALD:  cpu time    0.0000: real time    0.0015


----------------------------------------- Iteration    1(   1)  ---------------------------------------


    POTLOK:  cpu time    0.5800: real time    0.5829
    SETDIJ:  cpu time    0.2840: real time    0.2827
     EDDAV:  cpu time    0.1600: real time    0.1600
       DOS:  cpu time    0.0000: real time    0.0003
    CHARGE:  cpu time    0.0840: real time    0.0863
    MIXING:  cpu time    0.0160: real time    0.0146
    --------------------------------------------
      LOOP:  cpu time    1.1280: real time    1.1390

 eigenvalue-minimisations  :    64
 total energy-change (2. order) :-0.1027766E+02  (-0.7057947E-08)
 number of electron      12.0000124 magnetization       2.0000055
 augmentation part        1.1383872 magnetization       0.4923764

 Broyden mixing:
  rms(total) = 0.15457E-04    rms(broyden)= 0.15421E-04
  rms(prec ) = 0.19106E-04
  weight for this iteration     100.00

 Free energy of the ion-electron system (eV)
  ---------------------------------------------------
  alpha Z        PSCENC =         0.53952419
  Ewald energy   TEWEN  =       132.46439663
  -Hartree energ DENC   =      -866.08088913
  -exchange      EXHF   =         0.00000000
  -V(xc)+E(xc)   XCENC  =        55.83028396
  PAW double counting   =       902.61112539     -905.19340035
  entropy T*S    EENTRO =        -0.00000000
  eigenvalues    EBANDS =      -191.52867527
  atomic energy  EATOM  =       861.07997078
  Solvation  Ediel_sol  =         0.00000000
  ---------------------------------------------------
  free energy    TOTEN  =       -10.27766381 eV

  energy without entropy =      -10.27766381  energy(sigma->0) =      -10.27766381


--------------------------------------------------------------------------------------------------------




----------------------------------------- Iteration    1(   2)  ---------------------------------------


    POTLOK:  cpu time    0.5800: real time    0.5769
    SETDIJ:  cpu time    0.2840: real time    0.2859
     EDDAV:  cpu time    0.1560: real time    0.1569
       DOS:  cpu time    0.0000: real time    0.0003
    CHARGE:  cpu time    0.0880: real time    0.0867
    MIXING:  cpu time    0.0160: real time    0.0151
    --------------------------------------------
      LOOP:  cpu time    1.1240: real time    1.1272

 eigenvalue-minimisations  :    64
 total energy-change (2. order) : 0.1068429E-08  (-0.2638485E-09)
 number of electron      12.0000124 magnetization       2.0000055
 augmentation part        1.1383856 magnetization       0.4923758

 Broyden mixing:
  rms(total) = 0.48848E-05    rms(broyden)= 0.48799E-05
  rms(prec ) = 0.59249E-05
  weight for this iteration     100.00

 eigenvalues of (default mixing * dielectric matrix)
  average eigenvalue GAMMA=   0.8500
  0.8500

 Free energy of the ion-electron system (eV)
  ---------------------------------------------------
  alpha Z        PSCENC =         0.53952419
  Ewald energy   TEWEN  =       132.46439663
  -Hartree energ DENC   =      -866.08139978
  -exchange      EXHF   =         0.00000000
  -V(xc)+E(xc)   XCENC  =        55.83031305
  PAW double counting   =       902.61154879     -905.19382977
  entropy T*S    EENTRO =        -0.00000000
  eigenvalues    EBANDS =      -191.52818770
  atomic energy  EATOM  =       861.07997078
  Solvation  Ediel_sol  =         0.00000000
  ---------------------------------------------------
  free energy    TOTEN  =       -10.27766381 eV

  energy without entropy =      -10.27766381  energy(sigma->0) =      -10.27766381


--------------------------------------------------------------------------------------------------------




----------------------------------------- Iteration    1(   3)  ---------------------------------------


    POTLOK:  cpu time    0.5800: real time    0.5796
    SETDIJ:  cpu time    0.2920: real time    0.2922
     EDDAV:  cpu time    0.1000: real time    0.0989
       DOS:  cpu time    0.0000: real time    0.0003
    CHARGE:  cpu time    0.0880: real time    0.0865
    MIXING:  cpu time    0.0160: real time    0.0157
    --------------------------------------------
      LOOP:  cpu time    1.0760: real time    1.0790

 eigenvalue-minimisations  :    32
 total energy-change (2. order) : 0.1046135E-07  (-0.2765077E-10)
 number of electron      12.0000124 magnetization       2.0000055
 augmentation part        1.1383853 magnetization       0.4923755

 Broyden mixing:
  rms(total) = 0.16553E-05    rms(broyden)= 0.16489E-05
  rms(prec ) = 0.19297E-05
  weight for this iteration     100.00

 eigenvalues of (default mixing * dielectric matrix)
  average eigenvalue GAMMA=   1.0322
  1.3167  0.7477

 Free energy of the ion-electron system (eV)
  ---------------------------------------------------
  alpha Z        PSCENC =         0.53952419
  Ewald energy   TEWEN  =       132.46439663
  -Hartree energ DENC   =      -866.08158005
  -exchange      EXHF   =         0.00000000
  -V(xc)+E(xc)   XCENC  =        55.83032047
  PAW double counting   =       902.61172384     -905.19400716
  entropy T*S    EENTRO =        -0.00000000
  eigenvalues    EBANDS =      -191.52801249
  atomic energy  EATOM  =       861.07997078
  Solvation  Ediel_sol  =         0.00000000
  ---------------------------------------------------
  free energy    TOTEN  =       -10.27766380 eV

  energy without entropy =      -10.27766380  energy(sigma->0) =      -10.27766380


--------------------------------------------------------------------------------------------------------




----------------------------------------- Iteration    1(   4)  ---------------------------------------


    POTLOK:  cpu time    0.5760: real time    0.5774
    SETDIJ:  cpu time    0.2960: real time    0.2938
     EDDAV:  cpu time    0.0800: real time    0.0828
       DOS:  cpu time    0.0000: real time    0.0003
    --------------------------------------------
      LOOP:  cpu time    0.9520: real time    0.9598

 eigenvalue-minimisations  :    24
 total energy-change (2. order) :-0.7117137E-08  (-0.3446132E-12)
 number of electron      12.0000124 magnetization       2.0000055
 augmentation part        1.1383853 magnetization       0.4923755

 Free energy of the ion-electron system (eV)
  ---------------------------------------------------
  alpha Z        PSCENC =         0.53952419
  Ewald energy   TEWEN  =       132.46439663
  -Hartree energ DENC   =      -866.08162610
  -exchange      EXHF   =         0.00000000
  -V(xc)+E(xc)   XCENC  =        55.83032278
  PAW double counting   =       902.61176424     -905.19404726
  entropy T*S    EENTRO =        -0.00000000
  eigenvalues    EBANDS =      -191.52796907
  atomic energy  EATOM  =       861.07997078
  Solvation  Ediel_sol  =         0.00000000
  ---------------------------------------------------
  free energy    TOTEN  =       -10.27766381 eV

  energy without entropy =      -10.27766381  energy(sigma->0) =      -10.27766381


--------------------------------------------------------------------------------------------------------




 average (electrostatic) potential at core
  the test charge radii are     0.7215
  (the norm of the test charge is              1.0000)
       1 -83.5979       2 -83.5979
 
 
 
 E-fermi : -10.4679     XC(G=0):  -0.5671     alpha+bet : -0.1454


 spin component 1

 k-point     1 :       0.0000    0.0000    0.0000
  band No.  band energies     occupation 
      1     -32.5272      1.00000
      2     -20.4083      1.00000
      3     -13.3703      1.00000
      4     -13.2610      1.00000
      5     -13.2602      1.00000
      6      -6.8035      1.00000
      7      -6.8017      1.00000
      8      -0.2849      0.00000
      9       0.9076      0.00000
     10       1.0992      0.00000
     11       1.1249      0.00000
     12       1.1606      0.00000

 spin component 2

 k-point     1 :       0.0000    0.0000    0.0000
  band No.  band energies     occupation 
      1     -31.2673      1.00000
      2     -18.6256      1.00000
      3     -12.3496      1.00000
      4     -11.4269      1.00000
      5     -11.4265      1.00000
      6      -4.5509      0.00000
      7      -4.5500      0.00000
      8      -0.1775      0.00000
      9       1.1416      0.00000
     10       1.2162      0.00000
     11       1.2422      0.00000
     12       1.2591      0.00000


--------------------------------------------------------------------------------------------------------


 soft charge-density along one line, spin component           1
         0         1         2         3         4         5         6         7         8         9
 total charge-density along one line
 
 soft charge-density along one line, spin component           2
         0         1         2         3         4         5         6         7         8         9
 total charge-density along one line
 
 pseudopotential strength for first ion, spin component:           1
 14.546 -17.889  -0.000   0.000   0.115   0.000  -0.000  -0.140
-17.889  22.036   0.000  -0.000  -0.145  -0.000   0.000   0.178
 -0.000   0.000 -11.471  -0.000   0.000  14.389   0.000  -0.000
  0.000  -0.000  -0.000 -11.472  -0.000   0.000  14.390   0.000
  0.115  -0.145   0.000  -0.000 -11.456  -0.000   0.000  14.349
  0.000  -0.000  14.389   0.000  -0.000 -18.013  -0.000   0.000
 -0.000   0.000   0.000  14.390   0.000  -0.000 -18.013  -0.000
 -0.140   0.178  -0.000   0.000  14.349   0.000  -0.000 -17.929
 pseudopotential strength for first ion, spin component:           2
 14.006 -17.193  -0.000   0.000   0.119   0.000  -0.000  -0.147
-17.193  21.137   0.000  -0.000  -0.151  -0.000   0.000   0.187
 -0.000   0.000 -10.832  -0.000   0.000  13.485   0.000  -0.000
  0.000  -0.000  -0.000 -10.832  -0.000   0.000  13.485   0.000
  0.119  -0.151   0.000  -0.000 -11.231  -0.000   0.000  14.037
  0.000  -0.000  13.485   0.000  -0.000 -16.728  -0.000   0.000
 -0.000   0.000   0.000  13.485   0.000  -0.000 -16.728  -0.000
 -0.147   0.187  -0.000   0.000  14.037   0.000  -0.000 -17.494
 total augmentation occupancy for first ion, spin component:           1
  2.746   0.450   0.000   0.000  -0.525   0.000   0.000  -0.257
  0.450   0.197  -0.000   0.000  -0.546   0.000   0.000  -0.170
  0.000   0.000   1.761   0.000   0.000   0.116   0.000   0.000
  0.000   0.000   0.000   1.761   0.000   0.000   0.115   0.000
 -0.525  -0.546   0.000   0.000   2.479   0.000   0.000   0.564
  0.000   0.000   0.116   0.000   0.000   0.032   0.000   0.000
  0.000   0.000   0.000   0.115   0.000   0.000   0.032   0.000
 -0.257  -0.170  -0.000   0.000   0.564   0.000   0.000   0.160
 total augmentation occupancy for first ion, spin component:           2
 -0.110  -0.063   0.000   0.000   0.011  -0.000   0.000   0.012
 -0.063  -0.012   0.000   0.000   0.006   0.000   0.000   0.005
  0.000   0.000   0.358   0.000   0.000  -0.087   0.000  -0.000
  0.000   0.000   0.000   0.357   0.000   0.000  -0.087   0.000
  0.011   0.006   0.000   0.000  -0.035   0.000   0.000  -0.018
 -0.000  -0.000  -0.087   0.000   0.000   0.002   0.000   0.000
  0.000   0.000   0.000  -0.087   0.000   0.000   0.003   0.000
  0.012   0.005  -0.000   0.000  -0.018   0.000   0.000  -0.006


------------------------ aborting loop because EDIFF is reached ----------------------------------------


    CHARGE:  cpu time    0.0840: real time    0.0848
    FORLOC:  cpu time    0.0080: real time    0.0066
    FORNL :  cpu time    0.0720: real time    0.0738
    STRESS:  cpu time    0.2440: real time    0.2450
    FORCOR:  cpu time    0.5600: real time    0.5587
    FORHAR:  cpu time    0.0560: real time    0.0558
    MIXING:  cpu time    0.0120: real time    0.0129
    OFIELD:  cpu time    0.0000: real time    0.0000

  FORCE on cell =-STRESS in cart. coord.  units (eV):
  Direction    XX          YY          ZZ          XY          YZ          ZX
  --------------------------------------------------------------------------------------
  Alpha Z     0.53952     0.53952     0.53952
  Ewald     331.01403   -97.83289  -100.71685     0.00000     0.00000    -0.00000
  Hartree   423.85735   222.52537   219.69897    -0.00000    -0.00000    -0.00000
  E(xc)     -57.14687   -57.71229   -57.71196     0.00000    -0.00000     0.00000
  Local    -894.01175  -308.84598  -303.12375    -0.00000    -0.00000    -0.00000
  n-local   -48.10002   -44.52608   -44.51674    -0.00000    -0.00000     0.00000
  augment    10.38694    13.06129    13.06349     0.00000     0.00000    -0.00000
  Kinetic   232.26239   271.23638   271.25004     0.00000    -0.00000    -0.00000
  Fock        0.00000     0.00000     0.00000     0.00000     0.00000     0.00000
  -------------------------------------------------------------------------------------
  Total      -1.19840    -1.55467    -1.51727    -0.00000     0.00000     0.00000
  in kB      -1.86377    -2.41784    -2.35967    -0.00000     0.00000     0.00000
  external pressure =       -2.21 kB  Pullay stress =        0.00 kB


 VOLUME and BASIS-vectors are now :
 -----------------------------------------------------------------------------
  energy-cutoff  :      400.00
  volume of cell :     1030.20
      direct lattice vectors                 reciprocal lattice vectors
    10.000000000  0.000000000  0.000000000     0.100000000  0.000000000  0.000000000
     0.000000000 10.100000000  0.000000000     0.000000000  0.099009901  0.000000000
     0.000000000  0.000000000 10.200000000     0.000000000  0.000000000  0.098039216

  length of vectors
    10.000000000 10.100000000 10.200000000     0.100000000  0.099009901  0.098039216


 FORCES acting on ions
    electron-ion (+dipol)            ewald-force                    non-local-force                 convergence-correction
 -----------------------------------------------------------------------------------------------
   -.288E+03 0.821E-15 0.154E-04   0.341E+03 -.349E-17 -.225E-17   -.528E+02 0.000E+00 0.000E+00   0.259E-04 0.229E-13 0.932E-14
   0.288E+03 0.613E-14 -.154E-04   -.341E+03 0.188E-16 -.197E-16   0.528E+02 0.000E+00 0.000E+00   -.259E-04 0.974E-14 0.152E-13
 -----------------------------------------------------------------------------------------------
   0.120E-11 0.696E-14 0.138E-10   0.000E+00 0.153E-16 -.219E-16   -.711E-14 0.000E+00 0.000E+00   -.207E-13 0.327E-13 0.245E-13
 
 
 POSITION                                       TOTAL-FORCE (eV/Angst)
 -----------------------------------------------------------------------------------
      0.61421      0.00000      0.00000         0.000095      0.000000      0.000000
      9.38579      0.00000      0.00000        -0.000095      0.000000      0.000000
 -----------------------------------------------------------------------------------
    total drift:                                0.000000      0.000000      0.000000


--------------------------------------------------------------------------------------------------------



  FREE ENERGIE OF THE ION-ELECTRON SYSTEM (eV)
  ---------------------------------------------------
  free  energy   TOTEN  =       -10.27766381 eV

  energy  without entropy=      -10.27766381  energy(sigma->0) =      -10.27766381
 


--------------------------------------------------------------------------------------------------------


    POTLOK:  cpu time    0.8840: real time    0.8852


--------------------------------------------------------------------------------------------------------




--------------------------------------------------------------------------------------------------------


  
 reached required accuracy - stopping structural energy minimisation
 writing wavefunctions
     LOOP+:  cpu time    6.5120: real time    6.5729
    4ORBIT:  cpu time    0.0000: real time    0.0000

 total amount of memory used by VASP on root node    68537. kBytes
========================================================================

   base      :      30000. kBytes
   nonlr-proj:        185. kBytes
   fftplans  :       9085. kBytes
   grid      :      28360. kBytes
   one-center:          6. kBytes
   wavefun   :        901. kBytes
 
  
  
 General timing and accounting informations for this job:
 ========================================================
  
                  Total CPU time used (sec):        7.384
                            User time (sec):        7.144
                          System time (sec):        0.240
                         Elapsed time (sec):        7.629
  
                   Maximum memory used (kb):      119872.
                   Average memory used (kb):           0.
  
                          Minor page faults:        45448
                          Major page faults:            9
                 Voluntary context switches:         1155
