 running on   16 total cores
 distrk:  each k-point on    4 cores,    4 groups
 distr:  one band on    1 cores,    4 groups
 using from now: INCAR     
 vasp.5.4.1 05Feb16 (build Apr 11 2016 10:12:08) gamma-only                     
  
 POSCAR found type information on POSCAR  O 
 POSCAR found :  1 types and       2 ions
 scaLAPACK will be used

 ----------------------------------------------------------------------------- 
|                                                                             |
|           W    W    AA    RRRRR   N    N  II  N    N   GGGG   !!!           |
|           W    W   A  A   R    R  NN   N  II  NN   N  G    G  !!!           |
|           W    W  A    A  R    R  N N  N  II  N N  N  G       !!!           |
|           W WW W  AAAAAA  RRRRR   N  N N  II  N  N N  G  GGG   !            |
|           WW  WW  A    A  R   R   N   NN  II  N   NN  G    G                |
|           W    W  A    A  R    R  N    N  II  N    N   GGGG   !!!           |
|                                                                             |
|      For optimal performance we recommend to set                            |
|        NCORE= 4 - approx SQRT( number of cores)                             |
|      NCORE specifies how many cores store one orbital (NPAR=cpu/NCORE).     |
|      This setting can  greatly improve the performance of VASP for DFT.     |
|      The default, NPAR=number of cores might be grossly inefficient         |
|      on modern multi-core architectures or massively parallel machines.     |
|      Do your own testing !!!!                                               |
|      Unfortunately you need to use the default for GW and RPA calculations. |
|      (for HF NCORE is supported but not extensively tested yet)             |
|                                                                             |
 ----------------------------------------------------------------------------- 


 ----------------------------------------------------------------------------- 
|                                                                             |
|           W    W    AA    RRRRR   N    N  II  N    N   GGGG   !!!           |
|           W    W   A  A   R    R  NN   N  II  NN   N  G    G  !!!           |
|           W    W  A    A  R    R  N N  N  II  N N  N  G       !!!           |
|           W WW W  AAAAAA  RRRRR   N  N N  II  N  N N  G  GGG   !            |
|           WW  WW  A    A  R   R   N   NN  II  N   NN  G    G                |
|           W    W  A    A  R    R  N    N  II  N    N   GGGG   !!!           |
|                                                                             |
|      You have enabled k-point parallelism (KPAR>1).                         |
|      This developmental code was originally  written by Paul Kent at ORNL,  |
|      and carefully double checked in Vienna.                                |
|      GW as well as linear response parallelism added by Martijn Marsman     |
|      and Georg Kresse.                                                      |
|      Carefully verify results versus KPAR=1.                                |
|      Report problems to Paul Kent and Vienna.                               |
|                                                                             |
 ----------------------------------------------------------------------------- 


 ----------------------------------------------------------------------------- 
|                                                                             |
|  ADVICE TO THIS USER RUNNING 'VASP/VAMP'   (HEAR YOUR MASTER'S VOICE ...):  |
|                                                                             |
|      You have a (more or less) 'small supercell' and for smaller cells      |
|      it is recommended  to use the reciprocal-space projection scheme!      |
|      The real space optimization is not  efficient for small cells and it   |
|      is also less accurate ...                                              |
|      Therefore set LREAL=.FALSE. in the  INCAR file                         |
|                                                                             |
 ----------------------------------------------------------------------------- 


 ----------------------------------------------------------------------------- 
|                                                                             |
|  ADVICE TO THIS USER RUNNING 'VASP/VAMP'   (HEAR YOUR MASTER'S VOICE ...):  |
|                                                                             |
|      You enforced a specific xc-type in the INCAR file,                     |
|      a different type was found on the POTCAR file                          |
|          I HOPE YOU KNOW, WHAT YOU ARE  DOING                               |
|                                                                             |
 ----------------------------------------------------------------------------- 

 LDA part: xc-table for Pade appr. of Perdew
 POSCAR, INCAR and KPOINTS ok, starting setup
 WARNING: small aliasing (wrap around) errors must be expected
 FFT: planning ...
 WAVECAR not read
 entering main loop
       N       E                     dE             d eps       ncg     rms          rms(c)
DAV:   1     0.129412698100E+03    0.12941E+03   -0.23603E+03    48   0.483E+02
DAV:   2     0.393463913180E+02   -0.90066E+02   -0.88723E+02    88   0.882E+01
DAV:   3    -0.608586340484E+01   -0.45432E+02   -0.45337E+02    60   0.922E+01
DAV:   4    -0.101624163933E+02   -0.40766E+01   -0.40722E+01    64   0.342E+01
DAV:   5    -0.102122525693E+02   -0.49836E-01   -0.49836E-01    56   0.377E+00    0.646E+00
DAV:   6    -0.991765317731E+01    0.29460E+00   -0.96525E-01    52   0.838E+00    0.307E+00
DAV:   7    -0.102349138074E+02   -0.31726E+00   -0.18782E-01    48   0.385E+00    0.150E+00
DAV:   8    -0.102359284400E+02   -0.10146E-02   -0.70253E-02    52   0.210E+00    0.429E-01
DAV:   9    -0.102428612685E+02   -0.69328E-02   -0.47520E-03    56   0.579E-01    0.198E-01
DAV:  10    -0.102442070480E+02   -0.13458E-02   -0.64654E-04    56   0.239E-01    0.445E-02
DAV:  11    -0.102443241837E+02   -0.11714E-03   -0.62521E-05    48   0.654E-02    0.160E-02
DAV:  12    -0.102444512323E+02   -0.12705E-03   -0.14503E-05    56   0.253E-02    0.802E-03
DAV:  13    -0.102445799982E+02   -0.12877E-03   -0.71655E-06    48   0.158E-02    0.497E-03
DAV:  14    -0.102447211499E+02   -0.14115E-03   -0.77883E-06    64   0.164E-02    0.352E-03
DAV:  15    -0.102448283936E+02   -0.10724E-03   -0.43782E-06    60   0.113E-02    0.216E-03
DAV:  16    -0.102449427898E+02   -0.11440E-03   -0.50993E-06    48   0.109E-02    0.137E-03
DAV:  17    -0.102449798415E+02   -0.37052E-04   -0.12254E-06    60   0.567E-03    0.727E-04
DAV:  18    -0.102450017708E+02   -0.21929E-04   -0.59169E-07    48   0.361E-03    0.488E-04
DAV:  19    -0.102450224005E+02   -0.20630E-04   -0.42684E-07    64   0.323E-03    0.241E-04
DAV:  20    -0.102450273116E+02   -0.49110E-05   -0.71772E-08    64   0.143E-03    0.156E-04
DAV:  21    -0.102450303481E+02   -0.30365E-05   -0.35173E-08    64   0.106E-03    0.910E-05
DAV:  22    -0.102450318015E+02   -0.14534E-05   -0.97410E-09    64   0.625E-04    0.344E-05
DAV:  23    -0.102450321967E+02   -0.39514E-06   -0.16877E-09    48   0.261E-04
   1 F= -.10245032E+02 E0= -.10245032E+02  d E =-.102450E+02  mag=     2.0000
 curvature:   0.00 expect dE= 0.000E+00 dE for cont linesearch  0.000E+00
 trial: gam= 0.00000 g(F)=  0.546E+00 g(S)=  0.000E+00 ort = 0.000E+00 (trialstep = 0.100E+01)
 search vector abs. value=  0.546E+00
 bond charge predicted
       N       E                     dE             d eps       ncg     rms          rms(c)
DAV:   1    -0.918605543313E+01    0.10590E+01   -0.15787E+02    64   0.100E+02    0.480E+00
DAV:   2    -0.920991250994E+01   -0.23857E-01   -0.19844E+00    60   0.120E+01    0.172E+00
DAV:   3    -0.928238839123E+01   -0.72476E-01   -0.73165E-02    76   0.255E+00    0.740E-01
DAV:   4    -0.929545286829E+01   -0.13064E-01   -0.96258E-03    76   0.861E-01    0.307E-01
DAV:   5    -0.930114669509E+01   -0.56938E-02   -0.80721E-04    68   0.264E-01    0.120E-01
DAV:   6    -0.930324897327E+01   -0.21023E-02   -0.27940E-04    88   0.152E-01    0.235E-02
DAV:   7    -0.930353296778E+01   -0.28399E-03   -0.33013E-05    88   0.537E-02    0.119E-02
DAV:   8    -0.930376890140E+01   -0.23593E-03   -0.13543E-05    88   0.270E-02    0.666E-03
DAV:   9    -0.930401573631E+01   -0.24683E-03   -0.16156E-05    72   0.231E-02    0.431E-03
DAV:  10    -0.930419618393E+01   -0.18045E-03   -0.10602E-05    80   0.182E-02    0.322E-03
DAV:  11    -0.930429185114E+01   -0.95667E-04   -0.35094E-06    80   0.110E-02    0.180E-03
DAV:  12    -0.930434993623E+01   -0.58085E-04   -0.15416E-06    72   0.738E-03    0.107E-03
DAV:  13    -0.930437592403E+01   -0.25988E-04   -0.91445E-07    76   0.518E-03    0.569E-04
DAV:  14    -0.930438220704E+01   -0.62830E-05   -0.15137E-07    68   0.230E-03    0.368E-04
DAV:  15    -0.930438883559E+01   -0.66286E-05   -0.17468E-07    80   0.196E-03    0.166E-04
DAV:  16    -0.930439070200E+01   -0.18664E-05   -0.23695E-08    88   0.870E-04    0.108E-04
DAV:  17    -0.930439252485E+01   -0.18228E-05   -0.29509E-08    80   0.901E-04    0.592E-05
DAV:  18    -0.930439373782E+01   -0.12130E-05   -0.12792E-08    72   0.710E-04    0.237E-05
DAV:  19    -0.930439398272E+01   -0.24490E-06   -0.18802E-09    48   0.241E-04
   2 F= -.93043940E+01 E0= -.93043940E+01  d E =0.940638E+00  mag=     2.0000
 trial-energy change:    0.940638  1 .order    0.614100   -0.546194    1.774394
 step:   0.1361(harm=  0.2354)  dis= 0.01562  next Energy=   -10.281378 (dE=-0.363E-01)
 bond charge predicted
       N       E                     dE             d eps       ncg     rms          rms(c)
DAV:   1    -0.100661155211E+02   -0.76172E+00   -0.11601E+02    48   0.878E+01    0.396E+00
DAV:   2    -0.102064418572E+02   -0.14033E+00   -0.21628E+00    64   0.119E+01    0.196E+00
DAV:   3    -0.102674936947E+02   -0.61052E-01   -0.11915E-01    60   0.259E+00    0.822E-01
DAV:   4    -0.102704957692E+02   -0.30021E-02   -0.52127E-02    64   0.167E+00    0.264E-01
DAV:   5    -0.102739934217E+02   -0.34977E-02   -0.22375E-03    56   0.390E-01    0.139E-01
DAV:   6    -0.102759217412E+02   -0.19283E-02   -0.32084E-04    64   0.152E-01    0.532E-02
DAV:   7    -0.102764400301E+02   -0.51829E-03   -0.57333E-05    56   0.737E-02    0.126E-02
DAV:   8    -0.102766721438E+02   -0.23211E-03   -0.11153E-05    56   0.200E-02    0.784E-03
DAV:   9    -0.102769882563E+02   -0.31611E-03   -0.31610E-05    56   0.299E-02    0.446E-03
DAV:  10    -0.102771186292E+02   -0.13037E-03   -0.93575E-06    56   0.164E-02    0.338E-03
DAV:  11    -0.102772512449E+02   -0.13262E-03   -0.88034E-06    60   0.156E-02    0.180E-03
DAV:  12    -0.102773053917E+02   -0.54147E-04   -0.20228E-06    56   0.770E-03    0.133E-03
DAV:  13    -0.102773398017E+02   -0.34410E-04   -0.72343E-07    48   0.491E-03    0.677E-04
DAV:  14    -0.102773514040E+02   -0.11602E-04   -0.21256E-07    64   0.277E-03    0.377E-04
DAV:  15    -0.102773575883E+02   -0.61843E-05   -0.77386E-08    56   0.162E-03    0.267E-04
DAV:  16    -0.102773617358E+02   -0.41475E-05   -0.42274E-08    56   0.120E-03    0.113E-04
DAV:  17    -0.102773636928E+02   -0.19570E-05   -0.12820E-08    56   0.717E-04    0.815E-05
DAV:  18    -0.102773650646E+02   -0.13718E-05   -0.58401E-09    56   0.536E-04    0.453E-05
DAV:  19    -0.102773653927E+02   -0.32814E-06   -0.20871E-09    64   0.281E-04
   3 F= -.10277365E+02 E0= -.10277365E+02  d E =-.323332E-01  mag=     2.0000
 curvature:  -0.12 expect dE=-0.498E-03 dE for cont linesearch -0.498E-03
 ZBRENT: interpolating
 opt :   0.1250  next Energy=   -10.277634 (dE=-0.326E-01)
 bond charge predicted
       N       E                     dE             d eps       ncg     rms          rms(c)
DAV:   1    -0.102776506976E+02   -0.28563E-03   -0.20082E-02    64   0.117E+00    0.540E-02
DAV:   2    -0.102776474463E+02    0.32513E-05   -0.24322E-04    56   0.138E-01    0.241E-02
DAV:   3    -0.102776513748E+02   -0.39286E-05   -0.14218E-05    56   0.333E-02    0.103E-02
DAV:   4    -0.102776567588E+02   -0.53840E-05   -0.55815E-06    56   0.179E-02    0.348E-03
DAV:   5    -0.102776595608E+02   -0.28020E-05   -0.31899E-07    64   0.465E-03    0.186E-03
DAV:   6    -0.102776591844E+02    0.37633E-06   -0.85039E-08    56   0.268E-03
   4 F= -.10277659E+02 E0= -.10277659E+02  d E =-.326270E-01  mag=     2.0000
 curvature:  -0.06 expect dE=-0.273E-05 dE for cont linesearch -0.273E-05
 ZBRENT: interpolating
 opt :   0.1238  next Energy=   -10.277662 (dE=-0.326E-01)
 bond charge predicted
       N       E                     dE             d eps       ncg     rms          rms(c)
DAV:   1    -0.102776620310E+02   -0.24702E-05   -0.24763E-04    56   0.130E-01    0.599E-03
DAV:   2    -0.102776617535E+02    0.27742E-06   -0.31138E-06    64   0.157E-02    0.269E-03
DAV:   3    -0.102776618091E+02   -0.55554E-07   -0.17878E-07    48   0.372E-03    0.115E-03
DAV:   4    -0.102776622289E+02   -0.41983E-06   -0.74850E-08    64   0.207E-03
   5 F= -.10277662E+02 E0= -.10277662E+02  d E =-.326300E-01  mag=     2.0000
 curvature:  -0.07 expect dE=-0.650E-10 dE for cont linesearch -0.650E-10
 trial: gam=-0.00004 g(F)=  0.935E-09 g(S)=  0.000E+00 ort = 0.226E-04 (trialstep = 0.825E+00)
 search vector abs. value=  0.100E-09
 reached required accuracy - stopping structural energy minimisation
 writing wavefunctions
