   16   16   20    1
  0.9574673E+01  0.6006014E-09  0.6006014E-09  0.6006014E-09  0.5000000E-15
  1.000000000000000E-004
  CAR 
 unknown system                          
     64      2     44
 
  0.2500000E+00  0.2500000E+00  0.2500000E+00  0.2500000E+00
    1      -13.983304   1.000000
    2      -13.127330   1.000000
    3      -12.888092   1.000000
    4      -12.888092   1.000000
    5      -12.888092   1.000000
    6      -12.711897   1.000000
    7      -12.711897   1.000000
    8      -12.711897   1.000000
    9       -1.252149   1.000000
   10       -1.252149   1.000000
   11       -1.252149   1.000000
   12       -0.982547   1.000000
   13       -0.787591   1.000000
   14       -0.787591   1.000000
   15       -0.787591   1.000000
   16        1.316574   1.000000
   17        1.316574   1.000000
   18        1.316574   1.000000
   19        1.774765   1.000000
   20        1.774765   1.000000
   21        1.774765   1.000000
   22        1.885056   1.000000
   23        1.885056   1.000000
   24        1.885056   1.000000
   25        2.051993   1.000000
   26        2.259420   1.000000
   27        2.259420   1.000000
   28        2.259420   1.000000
   29        2.451486   1.000000
   30        2.451486   1.000000
   31        2.896047   1.000000
   32        2.896047   1.000000
   33        8.408031   0.000000
   34       10.627216   0.000000
   35       11.419385   0.000000
   36       11.419385   0.000000
   37       11.419385   0.000000
   38       12.530260   0.000000
   39       12.530260   0.000000
   40       12.530260   0.000000
   41       13.203969   0.000000
   42       13.203969   0.000000
   43       13.203969   0.000000
   44       15.153026   0.000000
 
 -0.2500000E+00  0.2500000E+00  0.2500000E+00  0.7500000E+00
    1      -13.618407   1.000000
    2      -13.327147   1.000000
    3      -13.089339   1.000000
    4      -12.933387   1.000000
    5      -12.933387   1.000000
    6      -12.760419   1.000000
    7      -12.675997   1.000000
    8      -12.675997   1.000000
    9       -0.666607   1.000000
   10       -0.625713   1.000000
   11       -0.625713   1.000000
   12       -0.424476   1.000000
   13       -0.424476   1.000000
   14       -0.304163   1.000000
   15       -0.118590   1.000000
   16        0.575757   1.000000
   17        0.575757   1.000000
   18        0.681570   1.000000
   19        0.767440   1.000000
   20        1.317782   1.000000
   21        1.317782   1.000000
   22        1.656717   1.000000
   23        1.656717   1.000000
   24        1.835630   1.000000
   25        2.036639   1.000000
   26        2.067893   1.000000
   27        2.125615   1.000000
   28        2.156087   1.000000
   29        2.156087   1.000000
   30        2.525736   1.000000
   31        2.528727   1.000000
   32        2.594916   1.000000
   33        9.998217   0.000000
   34       10.829713   0.000000
   35       11.934721   0.000000
   36       12.294681   0.000000
   37       12.294681   0.000000
   38       12.773972   0.000000
   39       13.455937   0.000000
   40       13.455937   0.000000
   41       13.586861   0.000000
   42       14.490386   0.000000
   43       14.492961   0.000000
   44       14.498343   0.000000
