 vasp.5.4.1 05Feb16 (build Mar 31 2016 13:39:20) complex                        
  
 executed on           IFC91_ompi date 2018.04.12  14:17:52
 running on   36 total cores
 distrk:  each k-point on   36 cores,    1 groups
 distr:  one band on NCORES_PER_BAND=   9 cores,    4 groups


--------------------------------------------------------------------------------------------------------


 INCAR:
 POTCAR:    PAW_PBE Mg 13Apr2007                  
 POTCAR:    PAW_PBE O 08Apr2002                   
 POTCAR:    PAW_PBE Mg 13Apr2007                  
   VRHFIN =Mg: s2p0                                                             
   LEXCH  = PE                                                                  
   EATOM  =    23.0369 eV,    1.6932 Ry                                         
                                                                                
   TITEL  = PAW_PBE Mg 13Apr2007                                                
   LULTRA =        F    use ultrasoft PP ?                                      
   IUNSCR =        1    unscreen: 0-lin 1-nonlin 2-no                           
   RPACOR =    1.500    partial core radius                                     
   POMASS =   24.305; ZVAL   =    2.000    mass and valenz                      
   RCORE  =    2.000    outmost cutoff radius                                   
   RWIGS  =    2.880; RWIGS  =    1.524    wigner-seitz radius (au A)           
   ENMAX  =  126.143; ENMIN  =   94.607 eV                                      
   RCLOC  =    1.506    cutoff for local pot                                    
   LCOR   =        T    correct aug charges                                     
   LPAW   =        T    paw PP                                                  
   EAUG   =  454.734                                                            
   DEXC   =    0.000                                                            
   RMAX   =    2.045    core radius for proj-oper                               
   RAUG   =    1.300    factor for augmentation sphere                          
   RDEP   =    2.025    radius for radial grids                                 
   RDEPT  =    1.942    core radius for aug-charge                              
                                                                                
   Atomic configuration                                                         
    6 entries                                                                   
     n  l   j            E        occ.                                          
     1  0  0.50     -1259.6230   2.0000                                         
     2  0  0.50       -79.8442   2.0000                                         
     2  1  1.50       -46.6121   6.0000                                         
     3  0  0.50        -4.7055   2.0000                                         
     3  1  0.50        -1.3660   0.0000                                         
     3  2  1.50        -1.3606   0.0000                                         
   Description                                                                  
     l       E           TYP  RCUT    TYP  RCUT                                 
     0     -4.7054661     23  2.000                                             
     0     27.2116520     23  2.000                                             
     1      1.3605826     23  2.000                                             
     1     27.2116520     23  2.000                                             
     2     -1.3605826     23  2.000                                             
  local pseudopotential read in
  partial core-charges read in
  partial kinetic energy density read in
  atomic valenz-charges read in
  non local Contribution for L=           0  read in
    real space projection operators read in
  non local Contribution for L=           0  read in
    real space projection operators read in
  non local Contribution for L=           1  read in
    real space projection operators read in
  non local Contribution for L=           1  read in
    real space projection operators read in
  non local Contribution for L=           2  read in
    real space projection operators read in
    PAW grid and wavefunctions read in
 
   number of l-projection  operators is LMAX  =           5
   number of lm-projection operators is LMMAX =          13
 
 POTCAR:    PAW_PBE O 08Apr2002                   
   VRHFIN =O: s2p4                                                              
   LEXCH  = PE                                                                  
   EATOM  =   432.3788 eV,   31.7789 Ry                                         
                                                                                
   TITEL  = PAW_PBE O 08Apr2002                                                 
   LULTRA =        F    use ultrasoft PP ?                                      
   IUNSCR =        1    unscreen: 0-lin 1-nonlin 2-no                           
   RPACOR =    1.200    partial core radius                                     
   POMASS =   16.000; ZVAL   =    6.000    mass and valenz                      
   RCORE  =    1.520    outmost cutoff radius                                   
   RWIGS  =    1.550; RWIGS  =    0.820    wigner-seitz radius (au A)           
   ENMAX  =  400.000; ENMIN  =  300.000 eV                                      
   ICORE  =        2    local potential                                         
   LCOR   =        T    correct aug charges                                     
   LPAW   =        T    paw PP                                                  
   EAUG   =  605.392                                                            
   DEXC   =    0.000                                                            
   RMAX   =    1.553    core radius for proj-oper                               
   RAUG   =    1.300    factor for augmentation sphere                          
   RDEP   =    1.550    radius for radial grids                                 
   RDEPT  =    1.329    core radius for aug-charge                              
                                                                                
   Atomic configuration                                                         
    4 entries                                                                   
     n  l   j            E        occ.                                          
     1  0  0.50      -514.6923   2.0000                                         
     2  0  0.50       -23.9615   2.0000                                         
     2  1  0.50        -9.0305   4.0000                                         
     3  2  1.50        -9.5241   0.0000                                         
   Description                                                                  
     l       E           TYP  RCUT    TYP  RCUT                                 
     0    -23.9615318     23  1.200                                             
     0     -9.5240782     23  1.200                                             
     1     -9.0304911     23  1.520                                             
     1      8.1634956     23  1.520                                             
     2     -9.5240782      7  1.500                                             
  local pseudopotential read in
  partial core-charges read in
  partial kinetic energy density read in
  kinetic energy density of atom read in
  atomic valenz-charges read in
  non local Contribution for L=           0  read in
    real space projection operators read in
  non local Contribution for L=           0  read in
    real space projection operators read in
  non local Contribution for L=           1  read in
    real space projection operators read in
  non local Contribution for L=           1  read in
    real space projection operators read in
    PAW grid and wavefunctions read in
 
   number of l-projection  operators is LMAX  =           4
   number of lm-projection operators is LMMAX =           8
 
 Optimization of the real space projectors (new method)

 maximal supplied QI-value         = 18.90
 optimisation between [QCUT,QGAM] = [ 10.20, 20.41] = [ 29.16,116.64] Ry 
 Optimized for a Real-space Cutoff    1.30 Angstroem

   l    n(q)    QCUT    max X(q) W(low)/X(q) W(high)/X(q)  e(spline) 
   0      8    10.205    28.265    0.22E-03    0.17E-03    0.53E-07
   0      8    10.205    10.429    0.17E-03    0.15E-03    0.43E-07
   1      7    10.205    13.073    0.71E-04    0.41E-03    0.76E-07
   1      7    10.205     9.625    0.71E-04    0.33E-03    0.63E-07
   2      7    10.205     4.652    0.24E-03    0.41E-03    0.55E-07
 Optimization of the real space projectors (new method)

 maximal supplied QI-value         = 24.76
 optimisation between [QCUT,QGAM] = [ 10.15, 20.30] = [ 28.85,115.39] Ry 
 Optimized for a Real-space Cutoff    1.38 Angstroem

   l    n(q)    QCUT    max X(q) W(low)/X(q) W(high)/X(q)  e(spline) 
   0      8    10.150    20.381    0.22E-03    0.32E-03    0.29E-06
   0      8    10.150    15.268    0.23E-03    0.35E-03    0.30E-06
   1      8    10.150     5.964    0.46E-03    0.53E-03    0.21E-06
   1      8    10.150     5.382    0.38E-03    0.45E-03    0.19E-06
  PAW_PBE Mg 13Apr2007                  :
 energy of atom  1       EATOM=  -23.0369
 kinetic energy error for atom=    0.0001 (will be added to EATOM!!)
  PAW_PBE O 08Apr2002                   :
 energy of atom  2       EATOM= -432.3788
 kinetic energy error for atom=    0.1156 (will be added to EATOM!!)
 
 
 POSCAR: Mg8 O8                                  
  positions in direct lattice
  No initial velocities read in
 exchange correlation table for  LEXCH =        8
   RHO(1)=    0.500       N(1)  =     2000
   RHO(2)=  100.500       N(2)  =     4000
 


--------------------------------------------------------------------------------------------------------


 ion  position               nearest neighbor table
   1  0.000  0.000  0.000-  10 2.12  11 2.12  12 2.12  13 2.12  14 2.12  15 2.12   2 3.00   3 3.00
                             5 3.00   2 3.00   4 3.00   6 3.00   3 3.00   4 3.00   7 3.00   5 3.00
   2  0.000  0.000  0.500-   9 2.12  11 2.12  12 2.12  13 2.12  14 2.12  16 2.12   1 3.00   4 3.00
                             6 3.00   1 3.00   3 3.00   5 3.00   3 3.00   4 3.00   8 3.00   5 3.00
   3  0.000  0.500  0.000-   9 2.12  10 2.12  12 2.12  13 2.12  15 2.12  16 2.12   1 3.00   4 3.00
                             7 3.00   2 3.00   4 3.00   8 3.00   1 3.00   2 3.00   5 3.00   5 3.00
   4  0.000  0.500  0.500-   9 2.12  10 2.12  11 2.12  14 2.12  15 2.12  16 2.12   2 3.00   3 3.00
                             8 3.00   1 3.00   3 3.00   7 3.00   1 3.00   2 3.00   6 3.00   6 3.00
   5  0.500  0.000  0.000-   9 2.12  10 2.12  11 2.12  14 2.12  15 2.12  16 2.12   1 3.00   6 3.00
                             7 3.00   2 3.00   6 3.00   8 3.00   3 3.00   7 3.00   8 3.00   1 3.00
   6  0.500  0.000  0.500-   9 2.12  10 2.12  12 2.12  13 2.12  15 2.12  16 2.12   2 3.00   5 3.00
                             8 3.00   1 3.00   5 3.00   7 3.00   4 3.00   7 3.00   8 3.00   1 3.00
   7  0.500  0.500  0.000-   9 2.12  11 2.12  12 2.12  13 2.12  14 2.12  16 2.12   3 3.00   5 3.00
                             8 3.00   4 3.00   6 3.00   8 3.00   1 3.00   5 3.00   6 3.00   1 3.00
   8  0.500  0.500  0.500-  10 2.12  11 2.12  12 2.12  13 2.12  14 2.12  15 2.12   4 3.00   6 3.00
                             7 3.00   3 3.00   5 3.00   7 3.00   2 3.00   5 3.00   6 3.00   2 3.00
   9  0.250  0.250  0.250-   2 2.12   3 2.12   4 2.12   5 2.12   6 2.12   7 2.12
  10  0.250  0.250  0.750-   1 2.12   3 2.12   4 2.12   5 2.12   6 2.12   8 2.12
  11  0.250  0.750  0.250-   1 2.12   2 2.12   4 2.12   5 2.12   7 2.12   8 2.12
  12  0.250  0.750  0.750-   1 2.12   2 2.12   3 2.12   6 2.12   7 2.12   8 2.12
  13  0.750  0.250  0.250-   1 2.12   2 2.12   3 2.12   6 2.12   7 2.12   8 2.12
  14  0.750  0.250  0.750-   1 2.12   2 2.12   4 2.12   5 2.12   7 2.12   8 2.12
  15  0.750  0.750  0.250-   1 2.12   3 2.12   4 2.12   5 2.12   6 2.12   8 2.12
  16  0.750  0.750  0.750-   2 2.12   3 2.12   4 2.12   5 2.12   6 2.12   7 2.12
 
  LATTYP: Found a face centered cubic cell.
 ALAT       =     8.4937860000
  
  Lattice vectors:
  
 A1 = (   0.0000000000,   4.2468930000,   4.2468930000)
 A2 = (   4.2468930000,   0.0000000000,   4.2468930000)
 A3 = (   4.2468930000,   4.2468930000,   0.0000000000)


Analysis of symmetry for initial positions (statically):
=====================================================================
 Subroutine PRICEL returns following result:
 
  LATTYP: Found a face centered cubic cell.
 ALAT       =     4.2468930000
  
  Lattice vectors:
  
 A1 = (   0.0000000000,   2.1234465000,   2.1234465000)
 A2 = (   2.1234465000,   0.0000000000,   2.1234465000)
 A3 = (   2.1234465000,   2.1234465000,   0.0000000000)
 
   8 primitive cells build up your supercell.
 

 Routine SETGRP: Setting up the symmetry group for a 
 face centered cubic supercell.


 Subroutine GETGRP returns: Found 48 space group operations
 (whereof 48 operations were pure point group operations)
 out of a pool of 48 trial point group operations.


The static configuration has the point symmetry O_h .


Analysis of symmetry for dynamics (positions and initial velocities):
=====================================================================
 Subroutine PRICEL returns following result:
 
  LATTYP: Found a face centered cubic cell.
 ALAT       =     4.2468930000
  
  Lattice vectors:
  
 A1 = (   0.0000000000,   2.1234465000,   2.1234465000)
 A2 = (   2.1234465000,   0.0000000000,   2.1234465000)
 A3 = (   2.1234465000,   2.1234465000,   0.0000000000)
 
   8 primitive cells build up your supercell.
 

 Routine SETGRP: Setting up the symmetry group for a 
 face centered cubic supercell.


 Subroutine GETGRP returns: Found 48 space group operations
 (whereof 48 operations were pure point group operations)
 out of a pool of 48 trial point group operations.


The dynamic configuration has the point symmetry O_h .


 Subroutine INISYM returns: Found 48 space group operations
 (whereof 48 operations are pure point group operations),
 and found     8 'primitive' translations

 
 
 KPOINTS: k-point mesh                            

Automatic generation of k-mesh.
Space group operators:
 irot       det(A)        alpha          n_x          n_y          n_z        tau_x        tau_y        tau_z
    1     1.000000     0.000000     1.000000     0.000000     0.000000     0.000000     0.000000     0.000000
    2    -1.000000     0.000000     1.000000     0.000000     0.000000     0.000000     0.000000     0.000000
    3     1.000000   120.000000    -0.577350    -0.577350    -0.577350     0.000000     0.000000     0.000000
    4    -1.000000   120.000000    -0.577350    -0.577350    -0.577350     0.000000     0.000000     0.000000
    5     1.000000   120.000000     0.577350     0.577350     0.577350     0.000000     0.000000     0.000000
    6    -1.000000   120.000000     0.577350     0.577350     0.577350     0.000000     0.000000     0.000000
    7     1.000000    90.000000     0.000000     0.000000    -1.000000     0.000000     0.000000     0.000000
    8    -1.000000    90.000000     0.000000     0.000000    -1.000000     0.000000     0.000000     0.000000
    9     1.000000   180.000000     0.000000     0.707107     0.707107     0.000000     0.000000     0.000000
   10    -1.000000   180.000000     0.000000     0.707107     0.707107     0.000000     0.000000     0.000000
   11     1.000000    90.000000     0.000000     1.000000     0.000000     0.000000     0.000000     0.000000
   12    -1.000000    90.000000     0.000000     1.000000     0.000000     0.000000     0.000000     0.000000
   13     1.000000   180.000000     0.000000     0.000000     1.000000     0.000000     0.000000     0.000000
   14    -1.000000   180.000000     0.000000     0.000000     1.000000     0.000000     0.000000     0.000000
   15     1.000000   120.000000    -0.577350     0.577350     0.577350     0.000000     0.000000     0.000000
   16    -1.000000   120.000000    -0.577350     0.577350     0.577350     0.000000     0.000000     0.000000
   17     1.000000   120.000000    -0.577350     0.577350    -0.577350     0.000000     0.000000     0.000000
   18    -1.000000   120.000000    -0.577350     0.577350    -0.577350     0.000000     0.000000     0.000000
   19     1.000000    90.000000     0.000000     0.000000     1.000000     0.000000     0.000000     0.000000
   20    -1.000000    90.000000     0.000000     0.000000     1.000000     0.000000     0.000000     0.000000
   21     1.000000    90.000000    -1.000000     0.000000     0.000000     0.000000     0.000000     0.000000
   22    -1.000000    90.000000    -1.000000     0.000000     0.000000     0.000000     0.000000     0.000000
   23     1.000000   180.000000     0.707107     0.000000     0.707107     0.000000     0.000000     0.000000
   24    -1.000000   180.000000     0.707107     0.000000     0.707107     0.000000     0.000000     0.000000
   25     1.000000   120.000000     0.577350    -0.577350     0.577350     0.000000     0.000000     0.000000
   26    -1.000000   120.000000     0.577350    -0.577350     0.577350     0.000000     0.000000     0.000000
   27     1.000000   120.000000    -0.577350    -0.577350     0.577350     0.000000     0.000000     0.000000
   28    -1.000000   120.000000    -0.577350    -0.577350     0.577350     0.000000     0.000000     0.000000
   29     1.000000   180.000000     1.000000     0.000000     0.000000     0.000000     0.000000     0.000000
   30    -1.000000   180.000000     1.000000     0.000000     0.000000     0.000000     0.000000     0.000000
   31     1.000000    90.000000     0.000000    -1.000000     0.000000     0.000000     0.000000     0.000000
   32    -1.000000    90.000000     0.000000    -1.000000     0.000000     0.000000     0.000000     0.000000
   33     1.000000   180.000000     0.707107     0.707107     0.000000     0.000000     0.000000     0.000000
   34    -1.000000   180.000000     0.707107     0.707107     0.000000     0.000000     0.000000     0.000000
   35     1.000000    90.000000     1.000000     0.000000     0.000000     0.000000     0.000000     0.000000
   36    -1.000000    90.000000     1.000000     0.000000     0.000000     0.000000     0.000000     0.000000
   37     1.000000   120.000000     0.577350    -0.577350    -0.577350     0.000000     0.000000     0.000000
   38    -1.000000   120.000000     0.577350    -0.577350    -0.577350     0.000000     0.000000     0.000000
   39     1.000000   180.000000     0.000000     1.000000     0.000000     0.000000     0.000000     0.000000
   40    -1.000000   180.000000     0.000000     1.000000     0.000000     0.000000     0.000000     0.000000
   41     1.000000   120.000000     0.577350     0.577350    -0.577350     0.000000     0.000000     0.000000
   42    -1.000000   120.000000     0.577350     0.577350    -0.577350     0.000000     0.000000     0.000000
   43     1.000000   180.000000     0.000000    -0.707107     0.707107     0.000000     0.000000     0.000000
   44    -1.000000   180.000000     0.000000    -0.707107     0.707107     0.000000     0.000000     0.000000
   45     1.000000   180.000000     0.707107    -0.707107     0.000000     0.000000     0.000000     0.000000
   46    -1.000000   180.000000     0.707107    -0.707107     0.000000     0.000000     0.000000     0.000000
   47     1.000000   180.000000     0.707107     0.000000    -0.707107     0.000000     0.000000     0.000000
   48    -1.000000   180.000000     0.707107     0.000000    -0.707107     0.000000     0.000000     0.000000
 
 Subroutine IBZKPT returns following result:
 ===========================================
 
 Found      2 irreducible k-points:
 
 Following reciprocal coordinates:
            Coordinates               Weight
  0.250000  0.250000  0.250000     96.000000
 -0.250000  0.250000  0.250000    288.000000
 
 Following cartesian coordinates:
            Coordinates               Weight
  0.029433  0.029433  0.029433     96.000000
  0.088300 -0.029433 -0.029433    288.000000
 


--------------------------------------------------------------------------------------------------------




 Dimension of arrays:
   k-points           NKPTS =      2   k-points in BZ     NKDIM =      2   number of bands    NBANDS=     44
   number of dos      NEDOS =    301   number of ions     NIONS =     16
   non local maximal  LDIM  =      5   non local SUM 2l+1 LMDIM =     13
   total plane-waves  NPLWV =  27000
   max r-space proj   IRMAX =   1992   max aug-charges    IRDMAX=   7686
   dimension x,y,z NGX =    30 NGY =   30 NGZ =   30
   dimension x,y,z NGXF=    60 NGYF=   60 NGZF=   60
   support grid    NGXF=    60 NGYF=   60 NGZF=   60
   ions per type =               8   8
 NGX,Y,Z   is equivalent  to a cutoff of   8.30,  8.30,  8.30 a.u.
 NGXF,Y,Z  is equivalent  to a cutoff of  16.61, 16.61, 16.61 a.u.


 I would recommend the setting:
   dimension x,y,z NGX =    29 NGY =   29 NGZ =   29
 SYSTEM =  unknown system                          
 POSCAR =  Mg8 O8                                  

 Startparameter for this run:
   NWRITE =      2    write-flag & timer
   PREC   = n         normal or accurate (medium, high low for compatibility)
   ISTART =      0    job   : 0-new  1-cont  2-samecut
   ICHARG =      2    charge: 1-file 2-atom 10-const
   ISPIN  =      1    spin polarized calculation?
   LNONCOLLINEAR =      F non collinear calculations
   LSORBIT =      F    spin-orbit coupling
   INIWAV =      1    electr: 0-lowe 1-rand  2-diag
   LASPH  =      T    aspherical Exc in radial PAW
   METAGGA=      F    non-selfconsistent MetaGGA calc.

 Electronic Relaxation 1
   ENCUT  =  400.0 eV  29.40 Ry    5.42 a.u.   9.79  9.79  9.79*2*pi/ulx,y,z
   ENINI  =  400.0     initial cutoff
   ENAUG  =  605.4 eV  augmentation charge cutoff
   NELM   =    100;   NELMIN=  4; NELMDL= -5     # of ELM steps 
   EDIFF  = 0.1E-05   stopping-criterion for ELM
   LREAL  =      T    real-space projection
   NLSPLINE    = F    spline interpolate recip. space projectors
   LCOMPAT=      F    compatible to vasp.4.4
   GGA_COMPAT  = T    GGA compatible to vasp.4.4-vasp.4.6
   LMAXPAW     = -100 max onsite density
   LMAXMIX     =    2 max onsite mixed and CHGCAR
   VOSKOWN=      0    Vosko Wilk Nusair interpolation
   ROPT   =   -0.00050  -0.00050
 Ionic relaxation
   EDIFFG = -.5E-01   stopping-criterion for IOM
   NSW    =     20    number of steps for IOM
   NBLOCK =      1;   KBLOCK =     20    inner block; outer block 
   IBRION =      2    ionic relax: 0-MD 1-quasi-New 2-CG
   NFREE  =      1    steps in history (QN), initial steepest desc. (CG)
   ISIF   =      2    stress and relaxation
   IWAVPR =     11    prediction:  0-non 1-charg 2-wave 3-comb
   ISYM   =      2    0-nonsym 1-usesym 2-fastsym
   LCORR  =      T    Harris-Foulkes like correction to forces

   POTIM  = 0.5000    time-step for ionic-motion
   TEIN   =    0.0    initial temperature
   TEBEG  =    0.0;   TEEND  =   0.0 temperature during run
   SMASS  =  -3.00    Nose mass-parameter (am)
   estimated Nose-frequenzy (Omega)   =  0.10E-29 period in steps =****** mass=  -0.824E-27a.u.
   SCALEE = 1.0000    scale energy and forces
   NPACO  =    256;   APACO  = 16.0  distance and # of slots for P.C.
   PSTRESS=    0.0 pullay stress

  Mass of Ions in am
   POMASS =  24.30 16.00
  Ionic Valenz
   ZVAL   =   2.00  6.00
  Atomic Wigner-Seitz radii
   RWIGS  =  -1.00 -1.00
  virtual crystal weights 
   VCA    =   1.00  1.00
   NELECT =      64.0000    total number of electrons
   NUPDOWN=      -1.0000    fix difference up-down

 DOS related values:
   EMIN   =  10.00;   EMAX   =-10.00  energy-range for DOS
   EFERMI =   0.00
   ISMEAR =     0;   SIGMA  =   0.05  broadening in eV -4-tet -1-fermi 0-gaus

 Electronic relaxation 2 (details)
   IALGO  =     38    algorithm
   LDIAG  =      T    sub-space diagonalisation (order eigenvalues)
   LSUBROT=      F    optimize rotation matrix (better conditioning)
   TURBO    =      0    0=normal 1=particle mesh
   IRESTART =      0    0=no restart 2=restart with 2 vectors
   NREBOOT  =      0    no. of reboots
   NMIN     =      0    reboot dimension
   EREF     =   0.00    reference energy to select bands
   IMIX   =      4    mixing-type and parameters
     AMIX     =   0.40;   BMIX     =  1.00
     AMIX_MAG =   1.60;   BMIX_MAG =  1.00
     AMIN     =   0.10
     WC   =   100.;   INIMIX=   1;  MIXPRE=   1;  MAXMIX= -45

 Intra band minimization:
   WEIMIN = 0.0010     energy-eigenvalue tresh-hold
   EBREAK =  0.57E-08  absolut break condition
   DEPER  =   0.30     relativ break condition  

   TIME   =   0.40     timestep for ELM

  volume/ion in A,a.u.               =       9.57        64.61
  Fermi-wavevector in a.u.,A,eV,Ry     =   1.223827  2.312698 20.378173  1.497753
  Thomas-Fermi vector in A             =   2.358924
 
 Write flags
   LWAVE  =      F    write WAVECAR
   LCHARG =      F    write CHGCAR
   LVTOT  =      F    write LOCPOT, total local potential
   LVHAR  =      F    write LOCPOT, Hartree potential only
   LELF   =      F    write electronic localiz. function (ELF)
   LORBIT =     12    0 simple, 1 ext, 2 COOP (PROOUT)


 Dipole corrections
   LMONO  =      F    monopole corrections only (constant potential shift)
   LDIPOL =      F    correct potential (dipole corrections)
   IDIPOL =      0    1-x, 2-y, 3-z, 4-all directions 
   EPSILON=  1.0000000 bulk dielectric constant

 Exchange correlation treatment:
   GGA     =    --    GGA type
   LEXCH   =     8    internal setting for exchange type
   VOSKOWN=      0    Vosko Wilk Nusair interpolation
   LHFCALC =     F    Hartree Fock is set to
   LHFONE  =     F    Hartree Fock one center treatment
   AEXX    =    0.0000 exact exchange contribution

 Linear response parameters
   LEPSILON=     F    determine dielectric tensor
   LRPA    =     F    only Hartree local field effects (RPA)
   LNABLA  =     F    use nabla operator in PAW spheres
   LVEL    =     F    velocity operator in full k-point grid
   LINTERFAST=   F  fast interpolation
   KINTER  =     0    interpolate to denser k-point grid
   CSHIFT  =0.1000    complex shift for real part using Kramers Kronig
   OMEGAMAX=  -1.0    maximum frequency
   DEG_THRESHOLD= 0.2000000E-02 threshold for treating states as degnerate
   RTIME   =    0.100 relaxation time in fs

 Orbital magnetization related:
   ORBITALMAG=     F  switch on orbital magnetization
   LCHIMAG   =     F  perturbation theory with respect to B field
   DQ        =  0.001000  dq finite difference perturbation B field



--------------------------------------------------------------------------------------------------------


 conjugate gradient relaxation of ions
 charge density and potential will be updated during run
 non-spin polarized calculation
 Variant of blocked Davidson
 Davidson routine will perform the subspace rotation
 perform sub-space diagonalisation
    after iterative eigenvector-optimisation
 modified Broyden-mixing scheme, WC =      100.0
 initial mixing is a Kerker type mixing with AMIX =  0.4000 and BMIX =      1.0000
 Hartree-type preconditioning will be used
 using additional bands           12
 real space projection scheme for non local part
 use partial core corrections
 calculate Harris-corrections to forces 
   (improved forces if not selfconsistent)
 use gradient corrections 
 use of overlap-Matrix (Vanderbilt PP)
 Gauss-broadening in eV      SIGMA  =   0.05


--------------------------------------------------------------------------------------------------------


  energy-cutoff  :      400.00
  volume of cell :      153.19
      direct lattice vectors                 reciprocal lattice vectors
     0.000000000  4.246893000  4.246893000    -0.117733129  0.117733129  0.117733129
     4.246893000  0.000000000  4.246893000     0.117733129 -0.117733129  0.117733129
     4.246893000  4.246893000  0.000000000     0.117733129  0.117733129 -0.117733129

  length of vectors
     6.006013679  6.006013679  6.006013679     0.203919761  0.203919761  0.203919761


 
 k-points in units of 2pi/SCALE and weight: k-point mesh                            
   0.02943328  0.02943328  0.02943328       0.250
   0.08829985 -0.02943328 -0.02943328       0.750
 
 k-points in reciprocal lattice and weights: k-point mesh                            
   0.25000000  0.25000000  0.25000000       0.250
  -0.25000000  0.25000000  0.25000000       0.750
 
 position of ions in fractional coordinates (direct lattice) 
   0.00000000  0.00000000  0.00000000
   0.00000000  0.00000000  0.50000000
   0.00000000  0.50000000  0.00000000
   0.00000000  0.50000000  0.50000000
   0.50000000  0.00000000  0.00000000
   0.50000000  0.00000000  0.50000000
   0.50000000  0.50000000  0.00000000
   0.50000000  0.50000000  0.50000000
   0.25000000  0.25000000  0.25000000
   0.25000000  0.25000000  0.75000000
   0.25000000  0.75000000  0.25000000
   0.25000000  0.75000000  0.75000000
   0.75000000  0.25000000  0.25000000
   0.75000000  0.25000000  0.75000000
   0.75000000  0.75000000  0.25000000
   0.75000000  0.75000000  0.75000000
 
 position of ions in cartesian coordinates  (Angst):
   0.00000000  0.00000000  0.00000000
   2.12344650  2.12344650  0.00000000
   2.12344650  0.00000000  2.12344650
   4.24689300  2.12344650  2.12344650
   0.00000000  2.12344650  2.12344650
   2.12344650  4.24689300  2.12344650
   2.12344650  2.12344650  4.24689300
   4.24689300  4.24689300  4.24689300
   2.12344650  2.12344650  2.12344650
   4.24689300  4.24689300  2.12344650
   4.24689300  2.12344650  4.24689300
   6.37033950  4.24689300  4.24689300
   2.12344650  4.24689300  4.24689300
   4.24689300  6.37033950  4.24689300
   4.24689300  4.24689300  6.37033950
   6.37033950  6.37033950  6.37033950
 


--------------------------------------------------------------------------------------------------------


 k-point  1 :   0.2500 0.2500 0.2500  plane waves:    2782
 k-point  2 :  -0.2500 0.2500 0.2500  plane waves:    2788

 maximum and minimum number of plane-waves per node :       314      301

 maximum number of plane-waves:      2788
 maximum index in each direction: 
   IXMAX=   10   IYMAX=    9   IZMAX=    9
   IXMIN=  -10   IYMIN=  -10   IZMIN=  -10

 WARNING: aliasing errors must be expected set NGX to  42 to avoid them
 WARNING: aliasing errors must be expected set NGY to  40 to avoid them
 WARNING: aliasing errors must be expected set NGZ to  40 to avoid them
 aliasing errors are usually negligible using standard VASP settings
 and one can safely disregard these warnings

 real space projection operators:
  total allocation   :       2224.81 KBytes
  max/ min on nodes  :        315.66        207.00


 parallel 3D FFT for wavefunctions:
    minimum data exchange during FFTs selected (reduces bandwidth)
 parallel 3D FFT for charge:
    minimum data exchange during FFTs selected (reduces bandwidth)


 total amount of memory used by VASP on root node    31959. kBytes
========================================================================

   base      :      30000. kBytes
   nonlr-proj:        915. kBytes
   fftplans  :        352. kBytes
   grid      :        558. kBytes
   one-center:         16. kBytes
   wavefun   :        118. kBytes
 
     INWAV:  cpu time    0.0000: real time    0.0001
 Broyden mixing: mesh for mixing (old mesh)
   NGX = 19   NGY = 19   NGZ = 19
  (NGX  = 60   NGY  = 60   NGZ  = 60)
  gives a total of   6859 points

 initial charge density was supplied:
 charge density of overlapping atoms calculated
 number of electron      64.0000000 magnetization 
 keeping initial charge density in first step


--------------------------------------------------------------------------------------------------------


 Maximum index for non-local projection operator          279
 Maximum index for augmentation-charges          421 (set IRDMAX)


--------------------------------------------------------------------------------------------------------


 First call to EWALD:  gamma=   0.331
 Maximum number of real-space cells 3x 3x 3
 Maximum number of reciprocal cells 3x 3x 3

 FEWALD executed in parallel
    FEWALD:  cpu time    0.0000: real time    0.0014


----------------------------------------- Iteration    1(   1)  ---------------------------------------


    POTLOK:  cpu time    0.0040: real time    0.0053
    SETDIJ:  cpu time    0.1240: real time    0.1241
     EDDAV:  cpu time    0.0440: real time    0.0438
       DOS:  cpu time    0.0000: real time    0.0001
    --------------------------------------------
      LOOP:  cpu time    0.1760: real time    0.1761

 eigenvalue-minimisations  :   176
 total energy-change (2. order) : 0.3013520E+03  (-0.2764978E+04)
 number of electron      64.0000000 magnetization 
 augmentation part       64.0000000 magnetization 

 Free energy of the ion-electron system (eV)
  ---------------------------------------------------
  alpha Z        PSCENC =       152.60904737
  Ewald energy   TEWEN  =     -2842.02858273
  -Hartree energ DENC   =      -979.63991372
  -exchange      EXHF   =         0.00000000
  -V(xc)+E(xc)   XCENC  =      -164.05863411
  PAW double counting   =      3294.84937727    -2894.33685034
  entropy T*S    EENTRO =        -0.00000000
  eigenvalues    EBANDS =        91.55775996
  atomic energy  EATOM  =      3642.39975602
  Solvation  Ediel_sol  =         0.00000000
  ---------------------------------------------------
  free energy    TOTEN  =       301.35195971 eV

  energy without entropy =      301.35195971  energy(sigma->0) =      301.35195971


--------------------------------------------------------------------------------------------------------




----------------------------------------- Iteration    1(   2)  ---------------------------------------


     EDDAV:  cpu time    0.0440: real time    0.0451
       DOS:  cpu time    0.0000: real time    0.0001
    --------------------------------------------
      LOOP:  cpu time    0.0440: real time    0.0521

 eigenvalue-minimisations  :   232
 total energy-change (2. order) :-0.3877190E+03  (-0.3795847E+03)
 number of electron      64.0000000 magnetization 
 augmentation part       64.0000000 magnetization 

 Free energy of the ion-electron system (eV)
  ---------------------------------------------------
  alpha Z        PSCENC =       152.60904737
  Ewald energy   TEWEN  =     -2842.02858273
  -Hartree energ DENC   =      -979.63991372
  -exchange      EXHF   =         0.00000000
  -V(xc)+E(xc)   XCENC  =      -164.05863411
  PAW double counting   =      3294.84937727    -2894.33685034
  entropy T*S    EENTRO =        -0.00000000
  eigenvalues    EBANDS =      -296.16125845
  atomic energy  EATOM  =      3642.39975602
  Solvation  Ediel_sol  =         0.00000000
  ---------------------------------------------------
  free energy    TOTEN  =       -86.36705869 eV

  energy without entropy =      -86.36705869  energy(sigma->0) =      -86.36705869


--------------------------------------------------------------------------------------------------------




----------------------------------------- Iteration    1(   3)  ---------------------------------------


     EDDAV:  cpu time    0.0400: real time    0.0400
       DOS:  cpu time    0.0000: real time    0.0001
    --------------------------------------------
      LOOP:  cpu time    0.0400: real time    0.0431

 eigenvalue-minimisations  :   216
 total energy-change (2. order) :-0.2113306E+02  (-0.2105333E+02)
 number of electron      64.0000000 magnetization 
 augmentation part       64.0000000 magnetization 

 Free energy of the ion-electron system (eV)
  ---------------------------------------------------
  alpha Z        PSCENC =       152.60904737
  Ewald energy   TEWEN  =     -2842.02858273
  -Hartree energ DENC   =      -979.63991372
  -exchange      EXHF   =         0.00000000
  -V(xc)+E(xc)   XCENC  =      -164.05863411
  PAW double counting   =      3294.84937727    -2894.33685034
  entropy T*S    EENTRO =        -0.00000000
  eigenvalues    EBANDS =      -317.29431605
  atomic energy  EATOM  =      3642.39975602
  Solvation  Ediel_sol  =         0.00000000
  ---------------------------------------------------
  free energy    TOTEN  =      -107.50011630 eV

  energy without entropy =     -107.50011630  energy(sigma->0) =     -107.50011630


--------------------------------------------------------------------------------------------------------




----------------------------------------- Iteration    1(   4)  ---------------------------------------


     EDDAV:  cpu time    0.0440: real time    0.0415
       DOS:  cpu time    0.0000: real time    0.0001
    --------------------------------------------
      LOOP:  cpu time    0.0440: real time    0.0444

 eigenvalue-minimisations  :   224
 total energy-change (2. order) :-0.1514538E+00  (-0.1513106E+00)
 number of electron      64.0000000 magnetization 
 augmentation part       64.0000000 magnetization 

 Free energy of the ion-electron system (eV)
  ---------------------------------------------------
  alpha Z        PSCENC =       152.60904737
  Ewald energy   TEWEN  =     -2842.02858273
  -Hartree energ DENC   =      -979.63991372
  -exchange      EXHF   =         0.00000000
  -V(xc)+E(xc)   XCENC  =      -164.05863411
  PAW double counting   =      3294.84937727    -2894.33685034
  entropy T*S    EENTRO =        -0.00000000
  eigenvalues    EBANDS =      -317.44576986
  atomic energy  EATOM  =      3642.39975602
  Solvation  Ediel_sol  =         0.00000000
  ---------------------------------------------------
  free energy    TOTEN  =      -107.65157011 eV

  energy without entropy =     -107.65157011  energy(sigma->0) =     -107.65157011


--------------------------------------------------------------------------------------------------------




----------------------------------------- Iteration    1(   5)  ---------------------------------------


     EDDAV:  cpu time    0.0400: real time    0.0396
       DOS:  cpu time    0.0000: real time    0.0001
    CHARGE:  cpu time    0.0120: real time    0.0115
    MIXING:  cpu time    0.0000: real time    0.0003
    --------------------------------------------
      LOOP:  cpu time    0.0520: real time    0.0543

 eigenvalue-minimisations  :   212
 total energy-change (2. order) :-0.1424305E-02  (-0.1423951E-02)
 number of electron      63.9999795 magnetization 
 augmentation part        6.3645013 magnetization 

 Broyden mixing:
  rms(total) = 0.19969E+01    rms(broyden)= 0.19959E+01
  rms(prec ) = 0.42670E+01
  weight for this iteration     100.00

 Free energy of the ion-electron system (eV)
  ---------------------------------------------------
  alpha Z        PSCENC =       152.60904737
  Ewald energy   TEWEN  =     -2842.02858273
  -Hartree energ DENC   =      -979.63991372
  -exchange      EXHF   =         0.00000000
  -V(xc)+E(xc)   XCENC  =      -164.05863411
  PAW double counting   =      3294.84937727    -2894.33685034
  entropy T*S    EENTRO =        -0.00000000
  eigenvalues    EBANDS =      -317.44719417
  atomic energy  EATOM  =      3642.39975602
  Solvation  Ediel_sol  =         0.00000000
  ---------------------------------------------------
  free energy    TOTEN  =      -107.65299441 eV

  energy without entropy =     -107.65299441  energy(sigma->0) =     -107.65299441


--------------------------------------------------------------------------------------------------------




----------------------------------------- Iteration    1(   6)  ---------------------------------------


    POTLOK:  cpu time    0.0040: real time    0.0041
    SETDIJ:  cpu time    0.1000: real time    0.1028
     EDDAV:  cpu time    0.0800: real time    0.0854
       DOS:  cpu time    0.0000: real time    0.0004
    CHARGE:  cpu time    0.0160: real time    0.0169
    MIXING:  cpu time    0.0000: real time    0.0004
    --------------------------------------------
      LOOP:  cpu time    0.2000: real time    0.2131

 eigenvalue-minimisations  :   216
 total energy-change (2. order) : 0.1207151E+02  (-0.5157192E+01)
 number of electron      63.9999832 magnetization 
 augmentation part        5.2820964 magnetization 

 Broyden mixing:
  rms(total) = 0.63672E+00    rms(broyden)= 0.63493E+00
  rms(prec ) = 0.97014E+00
  weight for this iteration     100.00

 eigenvalues of (default mixing * dielectric matrix)
  average eigenvalue GAMMA=   0.8664
  0.8664

 Free energy of the ion-electron system (eV)
  ---------------------------------------------------
  alpha Z        PSCENC =       152.60904737
  Ewald energy   TEWEN  =     -2842.02858273
  -Hartree energ DENC   =     -1126.29787298
  -exchange      EXHF   =         0.00000000
  -V(xc)+E(xc)   XCENC  =      -153.71599065
  PAW double counting   =      3906.07660784    -3508.14168667
  entropy T*S    EENTRO =        -0.00000000
  eigenvalues    EBANDS =      -166.48276458
  atomic energy  EATOM  =      3642.39975602
  Solvation  Ediel_sol  =         0.00000000
  ---------------------------------------------------
  free energy    TOTEN  =       -95.58148638 eV

  energy without entropy =      -95.58148638  energy(sigma->0) =      -95.58148638


--------------------------------------------------------------------------------------------------------




----------------------------------------- Iteration    1(   7)  ---------------------------------------


    POTLOK:  cpu time    0.0040: real time    0.0063
    SETDIJ:  cpu time    0.1000: real time    0.1003
     EDDAV:  cpu time    0.0440: real time    0.0429
       DOS:  cpu time    0.0000: real time    0.0001
    CHARGE:  cpu time    0.0120: real time    0.0114
    MIXING:  cpu time    0.0000: real time    0.0003
    --------------------------------------------
      LOOP:  cpu time    0.1600: real time    0.1640

 eigenvalue-minimisations  :   192
 total energy-change (2. order) : 0.6004514E-01  (-0.8992559E-01)
 number of electron      63.9999832 magnetization 
 augmentation part        5.2788719 magnetization 

 Broyden mixing:
  rms(total) = 0.39447E+00    rms(broyden)= 0.39441E+00
  rms(prec ) = 0.60824E+00
  weight for this iteration     100.00

 eigenvalues of (default mixing * dielectric matrix)
  average eigenvalue GAMMA=   1.7782
  0.9993  2.5571

 Free energy of the ion-electron system (eV)
  ---------------------------------------------------
  alpha Z        PSCENC =       152.60904737
  Ewald energy   TEWEN  =     -2842.02858273
  -Hartree energ DENC   =     -1129.00463262
  -exchange      EXHF   =         0.00000000
  -V(xc)+E(xc)   XCENC  =      -153.20346162
  PAW double counting   =      4125.28057320    -3727.04573194
  entropy T*S    EENTRO =        -0.00000000
  eigenvalues    EBANDS =      -164.52840893
  atomic energy  EATOM  =      3642.39975602
  Solvation  Ediel_sol  =         0.00000000
  ---------------------------------------------------
  free energy    TOTEN  =       -95.52144124 eV

  energy without entropy =      -95.52144124  energy(sigma->0) =      -95.52144124


--------------------------------------------------------------------------------------------------------




----------------------------------------- Iteration    1(   8)  ---------------------------------------


    POTLOK:  cpu time    0.0040: real time    0.0045
    SETDIJ:  cpu time    0.1000: real time    0.1003
     EDDAV:  cpu time    0.0480: real time    0.0476
       DOS:  cpu time    0.0000: real time    0.0001
    CHARGE:  cpu time    0.0120: real time    0.0124
    MIXING:  cpu time    0.0000: real time    0.0003
    --------------------------------------------
      LOOP:  cpu time    0.1640: real time    0.1682

 eigenvalue-minimisations  :   204
 total energy-change (2. order) : 0.4508649E-01  (-0.2564487E-01)
 number of electron      63.9999831 magnetization 
 augmentation part        5.3201505 magnetization 

 Broyden mixing:
  rms(total) = 0.73463E-01    rms(broyden)= 0.73435E-01
  rms(prec ) = 0.12442E+00
  weight for this iteration     100.00

 eigenvalues of (default mixing * dielectric matrix)
  average eigenvalue GAMMA=   1.4469
  2.5233  0.9086  0.9086

 Free energy of the ion-electron system (eV)
  ---------------------------------------------------
  alpha Z        PSCENC =       152.60904737
  Ewald energy   TEWEN  =     -2842.02858273
  -Hartree energ DENC   =     -1135.04672337
  -exchange      EXHF   =         0.00000000
  -V(xc)+E(xc)   XCENC  =      -152.05728829
  PAW double counting   =      4498.39411862    -4099.81535180
  entropy T*S    EENTRO =        -0.00000000
  eigenvalues    EBANDS =      -159.93133056
  atomic energy  EATOM  =      3642.39975602
  Solvation  Ediel_sol  =         0.00000000
  ---------------------------------------------------
  free energy    TOTEN  =       -95.47635475 eV

  energy without entropy =      -95.47635475  energy(sigma->0) =      -95.47635475


--------------------------------------------------------------------------------------------------------




----------------------------------------- Iteration    1(   9)  ---------------------------------------


    POTLOK:  cpu time    0.0080: real time    0.0043
    SETDIJ:  cpu time    0.0960: real time    0.0984
     EDDAV:  cpu time    0.0440: real time    0.0417
       DOS:  cpu time    0.0000: real time    0.0001
    CHARGE:  cpu time    0.0080: real time    0.0106
    MIXING:  cpu time    0.0000: real time    0.0003
    --------------------------------------------
      LOOP:  cpu time    0.1560: real time    0.1584

 eigenvalue-minimisations  :   224
 total energy-change (2. order) : 0.8587331E-02  (-0.2865306E-02)
 number of electron      63.9999831 magnetization 
 augmentation part        5.2952552 magnetization 

 Broyden mixing:
  rms(total) = 0.19639E-01    rms(broyden)= 0.19608E-01
  rms(prec ) = 0.26411E-01
  weight for this iteration     100.00

 eigenvalues of (default mixing * dielectric matrix)
  average eigenvalue GAMMA=   1.7708
  0.9904  0.9904  2.5513  2.5513

 Free energy of the ion-electron system (eV)
  ---------------------------------------------------
  alpha Z        PSCENC =       152.60904737
  Ewald energy   TEWEN  =     -2842.02858273
  -Hartree energ DENC   =     -1138.50650029
  -exchange      EXHF   =         0.00000000
  -V(xc)+E(xc)   XCENC  =      -151.81686278
  PAW double counting   =      4482.42638607    -4083.93296589
  entropy T*S    EENTRO =        -0.00000000
  eigenvalues    EBANDS =      -156.61804519
  atomic energy  EATOM  =      3642.39975602
  Solvation  Ediel_sol  =         0.00000000
  ---------------------------------------------------
  free energy    TOTEN  =       -95.46776742 eV

  energy without entropy =      -95.46776742  energy(sigma->0) =      -95.46776742


--------------------------------------------------------------------------------------------------------




----------------------------------------- Iteration    1(  10)  ---------------------------------------


    POTLOK:  cpu time    0.0040: real time    0.0040
    SETDIJ:  cpu time    0.1000: real time    0.0983
     EDDAV:  cpu time    0.0400: real time    0.0387
       DOS:  cpu time    0.0000: real time    0.0001
    CHARGE:  cpu time    0.0080: real time    0.0098
    MIXING:  cpu time    0.0000: real time    0.0003
    --------------------------------------------
      LOOP:  cpu time    0.1520: real time    0.1539

 eigenvalue-minimisations  :   200
 total energy-change (2. order) :-0.1041846E-02  (-0.3559143E-03)
 number of electron      63.9999832 magnetization 
 augmentation part        5.2896796 magnetization 

 Broyden mixing:
  rms(total) = 0.58971E-02    rms(broyden)= 0.58847E-02
  rms(prec ) = 0.10074E-01
  weight for this iteration     100.00

 eigenvalues of (default mixing * dielectric matrix)
  average eigenvalue GAMMA=   1.6668
  2.8572  2.4786  0.9999  0.9999  0.9983

 Free energy of the ion-electron system (eV)
  ---------------------------------------------------
  alpha Z        PSCENC =       152.60904737
  Ewald energy   TEWEN  =     -2842.02858273
  -Hartree energ DENC   =     -1139.19013938
  -exchange      EXHF   =         0.00000000
  -V(xc)+E(xc)   XCENC  =      -151.74288165
  PAW double counting   =      4449.11505258    -4050.65745986
  entropy T*S    EENTRO =        -0.00000000
  eigenvalues    EBANDS =      -155.97360161
  atomic energy  EATOM  =      3642.39975602
  Solvation  Ediel_sol  =         0.00000000
  ---------------------------------------------------
  free energy    TOTEN  =       -95.46880926 eV

  energy without entropy =      -95.46880926  energy(sigma->0) =      -95.46880926


--------------------------------------------------------------------------------------------------------




----------------------------------------- Iteration    1(  11)  ---------------------------------------


    POTLOK:  cpu time    0.0040: real time    0.0040
    SETDIJ:  cpu time    0.1000: real time    0.0990
     EDDAV:  cpu time    0.0400: real time    0.0391
       DOS:  cpu time    0.0000: real time    0.0001
    CHARGE:  cpu time    0.0080: real time    0.0100
    MIXING:  cpu time    0.0000: real time    0.0003
    --------------------------------------------
      LOOP:  cpu time    0.1520: real time    0.1552

 eigenvalue-minimisations  :   208
 total energy-change (2. order) : 0.2667671E-04  (-0.1689660E-04)
 number of electron      63.9999831 magnetization 
 augmentation part        5.2916375 magnetization 

 Broyden mixing:
  rms(total) = 0.11876E-02    rms(broyden)= 0.11871E-02
  rms(prec ) = 0.18398E-02
  weight for this iteration     100.00

 eigenvalues of (default mixing * dielectric matrix)
  average eigenvalue GAMMA=   1.7854
  0.9457  1.0094  1.0094  2.8657  2.4411  2.4411

 Free energy of the ion-electron system (eV)
  ---------------------------------------------------
  alpha Z        PSCENC =       152.60904737
  Ewald energy   TEWEN  =     -2842.02858273
  -Hartree energ DENC   =     -1138.98086025
  -exchange      EXHF   =         0.00000000
  -V(xc)+E(xc)   XCENC  =      -151.75223979
  PAW double counting   =      4447.95990443    -4049.50032191
  entropy T*S    EENTRO =        -0.00000000
  eigenvalues    EBANDS =      -156.17548572
  atomic energy  EATOM  =      3642.39975602
  Solvation  Ediel_sol  =         0.00000000
  ---------------------------------------------------
  free energy    TOTEN  =       -95.46878259 eV

  energy without entropy =      -95.46878259  energy(sigma->0) =      -95.46878259


--------------------------------------------------------------------------------------------------------




----------------------------------------- Iteration    1(  12)  ---------------------------------------


    POTLOK:  cpu time    0.0040: real time    0.0042
    SETDIJ:  cpu time    0.1000: real time    0.0984
     EDDAV:  cpu time    0.0400: real time    0.0402
       DOS:  cpu time    0.0000: real time    0.0001
    CHARGE:  cpu time    0.0120: real time    0.0100
    MIXING:  cpu time    0.0000: real time    0.0003
    --------------------------------------------
      LOOP:  cpu time    0.1560: real time    0.1557

 eigenvalue-minimisations  :   216
 total energy-change (2. order) : 0.2023563E-05  (-0.9716811E-06)
 number of electron      63.9999831 magnetization 
 augmentation part        5.2920228 magnetization 

 Broyden mixing:
  rms(total) = 0.29186E-03    rms(broyden)= 0.29091E-03
  rms(prec ) = 0.37394E-03
  weight for this iteration     100.00

 eigenvalues of (default mixing * dielectric matrix)
  average eigenvalue GAMMA=   1.7375
  3.0135  2.6553  2.4306  1.0293  1.0293  1.0023  1.0023

 Free energy of the ion-electron system (eV)
  ---------------------------------------------------
  alpha Z        PSCENC =       152.60904737
  Ewald energy   TEWEN  =     -2842.02858273
  -Hartree energ DENC   =     -1138.94398202
  -exchange      EXHF   =         0.00000000
  -V(xc)+E(xc)   XCENC  =      -151.75606915
  PAW double counting   =      4449.88400874    -4051.42590300
  entropy T*S    EENTRO =        -0.00000000
  eigenvalues    EBANDS =      -156.20705579
  atomic energy  EATOM  =      3642.39975602
  Solvation  Ediel_sol  =         0.00000000
  ---------------------------------------------------
  free energy    TOTEN  =       -95.46878056 eV

  energy without entropy =      -95.46878056  energy(sigma->0) =      -95.46878056


--------------------------------------------------------------------------------------------------------




----------------------------------------- Iteration    1(  13)  ---------------------------------------


    POTLOK:  cpu time    0.0040: real time    0.0039
    SETDIJ:  cpu time    0.0960: real time    0.0983
     EDDAV:  cpu time    0.0320: real time    0.0297
       DOS:  cpu time    0.0000: real time    0.0001
    --------------------------------------------
      LOOP:  cpu time    0.1320: real time    0.1348

 eigenvalue-minimisations  :   128
 total energy-change (2. order) :-0.5107063E-06  (-0.2621017E-07)
 number of electron      63.9999831 magnetization 
 augmentation part        5.2920228 magnetization 

 Free energy of the ion-electron system (eV)
  ---------------------------------------------------
  alpha Z        PSCENC =       152.60904737
  Ewald energy   TEWEN  =     -2842.02858273
  -Hartree energ DENC   =     -1138.93023926
  -exchange      EXHF   =         0.00000000
  -V(xc)+E(xc)   XCENC  =      -151.75719630
  PAW double counting   =      4449.40530080    -4050.94748427
  entropy T*S    EENTRO =        -0.00000000
  eigenvalues    EBANDS =      -156.21938270
  atomic energy  EATOM  =      3642.39975602
  Solvation  Ediel_sol  =         0.00000000
  ---------------------------------------------------
  free energy    TOTEN  =       -95.46878107 eV

  energy without entropy =      -95.46878107  energy(sigma->0) =      -95.46878107


--------------------------------------------------------------------------------------------------------




 average (electrostatic) potential at core
  the test charge radii are     1.0714  0.7215
  (the norm of the test charge is              1.0000)
       1 -35.2923       2 -35.2923       3 -35.2923       4 -35.2923       5 -35.2923
       6 -35.2923       7 -35.2923       8 -35.2923       9 -69.8160      10 -69.8160
      11 -69.8160      12 -69.8160      13 -69.8160      14 -69.8160      15 -69.8160
      16 -69.8160
 
 
 
 E-fermi :   3.1622     XC(G=0): -10.9594     alpha+bet :-12.8395


 k-point     1 :       0.2500    0.2500    0.2500
  band No.  band energies     occupation 
      1     -13.9833      2.00000
      2     -13.1273      2.00000
      3     -12.8881      2.00000
      4     -12.8881      2.00000
      5     -12.8881      2.00000
      6     -12.7119      2.00000
      7     -12.7119      2.00000
      8     -12.7119      2.00000
      9      -1.2521      2.00000
     10      -1.2521      2.00000
     11      -1.2521      2.00000
     12      -0.9825      2.00000
     13      -0.7876      2.00000
     14      -0.7876      2.00000
     15      -0.7876      2.00000
     16       1.3166      2.00000
     17       1.3166      2.00000
     18       1.3166      2.00000
     19       1.7748      2.00000
     20       1.7748      2.00000
     21       1.7748      2.00000
     22       1.8851      2.00000
     23       1.8851      2.00000
     24       1.8851      2.00000
     25       2.0520      2.00000
     26       2.2594      2.00000
     27       2.2594      2.00000
     28       2.2594      2.00000
     29       2.4515      2.00000
     30       2.4515      2.00000
     31       2.8960      2.00000
     32       2.8960      2.00000
     33       8.4080      0.00000
     34      10.6272      0.00000
     35      11.4194      0.00000
     36      11.4194      0.00000
     37      11.4194      0.00000
     38      12.5303      0.00000
     39      12.5303      0.00000
     40      12.5303      0.00000
     41      13.2040      0.00000
     42      13.2040      0.00000
     43      13.2040      0.00000
     44      15.1530      0.00000

 k-point     2 :      -0.2500    0.2500    0.2500
  band No.  band energies     occupation 
      1     -13.6184      2.00000
      2     -13.3271      2.00000
      3     -13.0893      2.00000
      4     -12.9334      2.00000
      5     -12.9334      2.00000
      6     -12.7604      2.00000
      7     -12.6760      2.00000
      8     -12.6760      2.00000
      9      -0.6666      2.00000
     10      -0.6257      2.00000
     11      -0.6257      2.00000
     12      -0.4245      2.00000
     13      -0.4245      2.00000
     14      -0.3042      2.00000
     15      -0.1186      2.00000
     16       0.5758      2.00000
     17       0.5758      2.00000
     18       0.6816      2.00000
     19       0.7674      2.00000
     20       1.3178      2.00000
     21       1.3178      2.00000
     22       1.6567      2.00000
     23       1.6567      2.00000
     24       1.8356      2.00000
     25       2.0366      2.00000
     26       2.0679      2.00000
     27       2.1256      2.00000
     28       2.1561      2.00000
     29       2.1561      2.00000
     30       2.5257      2.00000
     31       2.5287      2.00000
     32       2.5949      2.00000
     33       9.9982      0.00000
     34      10.8297      0.00000
     35      11.9347      0.00000
     36      12.2947      0.00000
     37      12.2947      0.00000
     38      12.7740      0.00000
     39      13.4559      0.00000
     40      13.4559      0.00000
     41      13.5869      0.00000
     42      14.4904      0.00000
     43      14.4930      0.00000
     44      14.4983      0.00000


--------------------------------------------------------------------------------------------------------


 soft charge-density along one line, spin component           1
         0         1         2         3         4         5         6         7         8         9
 total charge-density along one line
 
 pseudopotential strength for first ion, spin component:           1
  2.973   9.448   0.000   0.000  -0.000   0.000   0.000  -0.000
  9.448  29.867   0.000   0.000  -0.000   0.000   0.000  -0.000
  0.000   0.000   7.292  -0.000  -0.000  10.569  -0.000  -0.000
  0.000   0.000  -0.000   7.292  -0.000  -0.000  10.569  -0.000
 -0.000  -0.000  -0.000  -0.000   7.292  -0.000  -0.000  10.569
  0.000   0.000  10.569  -0.000  -0.000  14.535  -0.000  -0.000
  0.000   0.000  -0.000  10.569  -0.000  -0.000  14.535  -0.000
 -0.000  -0.000  -0.000  -0.000  10.569  -0.000  -0.000  14.535
 -0.000  -0.000  -0.000  -0.000   0.000  -0.000  -0.000   0.000
 -0.000  -0.000   0.000   0.000  -0.000   0.000   0.000  -0.000
 -0.000  -0.000  -0.000   0.000   0.000  -0.000   0.000   0.000
 -0.000  -0.000  -0.000  -0.000   0.000  -0.000  -0.000   0.000
  0.000   0.000  -0.000  -0.000  -0.000  -0.000  -0.000  -0.000
 total augmentation occupancy for first ion, spin component:           1
  0.991  -0.045  -0.000   0.000   0.000  -0.000  -0.000   0.000   0.000  -0.000   0.000  -0.000   0.000
 -0.045   0.002   0.000   0.000  -0.000  -0.000  -0.000  -0.000   0.000  -0.000   0.000   0.000   0.000
 -0.000   0.000   0.115   0.000  -0.000  -0.012   0.000   0.000  -0.000  -0.000   0.000  -0.000   0.000
  0.000   0.000   0.000   0.115  -0.000  -0.000  -0.012  -0.000   0.000  -0.000   0.000   0.000  -0.000
  0.000  -0.000   0.000   0.000   0.115  -0.000   0.000  -0.012  -0.000  -0.000   0.000   0.000  -0.000
 -0.000  -0.000  -0.012  -0.000  -0.000   0.001   0.000   0.000  -0.000   0.000  -0.000  -0.000   0.000
 -0.000  -0.000   0.000  -0.012   0.000   0.000   0.001   0.000   0.000   0.000   0.000  -0.000  -0.000
  0.000  -0.000   0.000  -0.000  -0.012  -0.000  -0.000   0.001   0.000   0.000  -0.000   0.000  -0.000
  0.000  -0.000  -0.000   0.000  -0.000  -0.000   0.000   0.000   0.012  -0.000   0.000   0.000  -0.000
 -0.000  -0.000  -0.000  -0.000  -0.000   0.000   0.000   0.000  -0.000   0.012  -0.000   0.000   0.000
 -0.000   0.000   0.000   0.000   0.000   0.000   0.000  -0.000  -0.000   0.000   0.049  -0.000  -0.000
 -0.000   0.000  -0.000   0.000   0.000  -0.000  -0.000   0.000  -0.000   0.000  -0.000   0.012   0.000
  0.000  -0.000   0.000  -0.000  -0.000  -0.000   0.000  -0.000   0.000   0.000  -0.000   0.000   0.049


------------------------ aborting loop because EDIFF is reached ----------------------------------------


 


 total charge     
 
# of ion     s       p       d       tot
----------------------------------------
  1        0.145   0.171   0.075   0.391
  2        0.145   0.171   0.075   0.391
  3        0.145   0.171   0.075   0.391
  4        0.145   0.171   0.075   0.391
  5        0.145   0.171   0.075   0.391
  6        0.145   0.171   0.075   0.391
  7        0.145   0.171   0.075   0.391
  8        0.145   0.171   0.075   0.391
  9        1.567   3.560   0.000   5.127
 10        1.567   3.560   0.000   5.127
 11        1.567   3.560   0.000   5.127
 12        1.567   3.560   0.000   5.127
 13        1.567   3.560   0.000   5.127
 14        1.567   3.560   0.000   5.127
 15        1.567   3.560   0.000   5.127
 16        1.567   3.560   0.000   5.127
------------------------------------------------
tot       13.694  29.851   0.597  44.142
 
    CHARGE:  cpu time    0.0120: real time    0.0115
    FORLOC:  cpu time    0.0000: real time    0.0005
    FORNL :  cpu time    0.0120: real time    0.0127
    STRESS:  cpu time    0.0360: real time    0.0380
    FORCOR:  cpu time    0.0080: real time    0.0042
    FORHAR:  cpu time    0.0000: real time    0.0013
    MIXING:  cpu time    0.0000: real time    0.0003
    OFIELD:  cpu time    0.0000: real time    0.0000

  FORCE on cell =-STRESS in cart. coord.  units (eV):
  Direction    XX          YY          ZZ          XY          YZ          ZX
  --------------------------------------------------------------------------------------
  Alpha Z   152.60905   152.60905   152.60905
  Ewald    -947.34483  -947.34483  -947.34483    -0.00000    -0.00000     0.00000
  Hartree   379.65137   379.65137   379.65137     0.00000     0.00000     0.00000
  E(xc)    -290.33585  -290.33585  -290.33585    -0.00088    -0.00088    -0.00088
  Local    -335.53855  -335.53855  -335.53855     0.00777     0.00777     0.00777
  n-local  -149.35227  -152.34949  -152.34949    -0.16970     0.38558    -0.16970
  augment    54.45939    54.45939    54.45939    -0.00001    -0.00001    -0.00001
  Kinetic  1126.12514  1136.67187  1136.67187     2.94140    -7.25797     2.94139
  Fock        0.00000     0.00000     0.00000     0.00000     0.00000     0.00000
  -------------------------------------------------------------------------------------
  Total      -4.69354    -4.69354    -4.69354     0.00000    -0.00000     0.00000
  in kB     -49.08708   -49.08708   -49.08708     0.00000    -0.00000     0.00000
  external pressure =      -49.09 kB  Pullay stress =        0.00 kB


 VOLUME and BASIS-vectors are now :
 -----------------------------------------------------------------------------
  energy-cutoff  :      400.00
  volume of cell :      153.19
      direct lattice vectors                 reciprocal lattice vectors
     0.000000000  4.246893000  4.246893000    -0.117733129  0.117733129  0.117733129
     4.246893000  0.000000000  4.246893000     0.117733129 -0.117733129  0.117733129
     4.246893000  4.246893000  0.000000000     0.117733129  0.117733129 -0.117733129

  length of vectors
     6.006013679  6.006013679  6.006013679     0.203919761  0.203919761  0.203919761


 FORCES acting on ions
    electron-ion (+dipol)            ewald-force                    non-local-force                 convergence-correction
 -----------------------------------------------------------------------------------------------
   0.406E-14 -.387E-14 0.285E-14   -.187E-15 -.633E-15 0.471E-15   0.000E+00 0.165E-23 0.331E-23   0.377E-14 0.262E-14 -.656E-14
   -.360E-14 -.115E-13 0.153E-14   -.161E-15 -.521E-15 0.000E+00   -.331E-23 -.165E-23 -.662E-23   -.201E-14 -.436E-14 0.256E-14
   -.577E-14 -.282E-14 -.663E-14   -.265E-16 0.000E+00 -.289E-16   0.496E-23 -.414E-24 -.372E-23   0.629E-14 0.320E-14 -.388E-14
   -.816E-14 -.347E-14 -.244E-14   0.000E+00 0.569E-16 -.555E-15   -.207E-24 -.931E-24 -.460E-23   -.355E-14 -.617E-14 0.285E-14
   0.195E-12 -.110E-13 0.194E-12   0.000E+00 0.110E-15 0.666E-15   0.352E-23 -.744E-23 0.682E-23   0.270E-14 0.568E-14 -.217E-14
   -.499E-13 -.266E-13 -.309E-13   0.265E-16 0.000E+00 0.890E-15   0.103E-24 -.243E-23 -.760E-23   -.555E-14 -.305E-14 0.457E-14
   -.196E-12 0.122E-12 0.504E-13   0.161E-15 0.632E-15 0.000E+00   -.248E-23 0.165E-23 0.000E+00   0.294E-14 0.401E-14 -.373E-14
   0.224E-13 -.124E-12 -.239E-12   0.767E-16 0.439E-15 0.223E-15   0.000E+00 0.827E-24 -.331E-23   -.458E-14 -.233E-14 0.539E-14
   0.230E-12 0.156E-13 0.385E-12   -.394E-14 -.702E-16 -.567E-14   0.372E-23 -.290E-23 0.199E-22   0.515E-13 0.474E-13 -.648E-14
   0.358E-12 0.142E-12 0.407E-12   -.128E-14 -.106E-14 -.635E-14   -.765E-23 -.101E-22 -.165E-22   -.334E-13 -.290E-13 0.548E-13
   0.401E-12 -.541E-14 0.599E-12   -.211E-14 -.118E-14 0.483E-15   -.116E-22 -.910E-23 -.662E-23   0.541E-13 0.508E-13 -.639E-14
   0.486E-12 0.102E-12 0.598E-12   0.546E-15 -.216E-14 -.195E-15   0.248E-23 -.414E-23 -.103E-22   -.385E-13 -.477E-13 0.355E-13
   0.245E-11 0.205E-11 0.901E-12   -.544E-15 0.228E-14 0.473E-15   -.744E-23 -.744E-23 0.132E-22   0.605E-13 0.496E-13 -.705E-14
   0.468E-12 0.465E-12 0.519E-12   0.223E-14 0.135E-14 -.955E-15   0.455E-23 -.136E-22 -.496E-23   -.490E-13 -.534E-13 0.356E-13
   0.196E-11 0.130E-11 0.106E-11   0.139E-14 0.140E-14 0.652E-14   0.910E-23 0.132E-22 0.165E-22   0.468E-13 0.394E-13 0.430E-15
   0.380E-13 -.145E-11 0.190E-11   0.405E-14 0.383E-15 0.509E-14   0.620E-23 0.951E-23 0.165E-23   -.300E-13 -.442E-13 0.614E-13
 -----------------------------------------------------------------------------------------------
   0.636E-11 0.256E-11 0.635E-11   0.230E-15 0.103E-14 0.106E-14   0.196E-23 -.333E-22 -.290E-23   0.621E-13 0.124E-13 0.167E-12
 
 
 POSITION                                       TOTAL-FORCE (eV/Angst)
 -----------------------------------------------------------------------------------
      0.00000      0.00000      0.00000         0.000000      0.000000     -0.000000
      2.12345      2.12345      0.00000         0.000000      0.000000     -0.000000
      2.12345      0.00000      2.12345         0.000000      0.000000     -0.000000
      4.24689      2.12345      2.12345         0.000000      0.000000     -0.000000
      0.00000      2.12345      2.12345         0.000000      0.000000     -0.000000
      2.12345      4.24689      2.12345         0.000000      0.000000     -0.000000
      2.12345      2.12345      4.24689         0.000000      0.000000     -0.000000
      4.24689      4.24689      4.24689         0.000000     -0.000000     -0.000000
      2.12345      2.12345      2.12345        -0.000000     -0.000000      0.000000
      4.24689      4.24689      2.12345         0.000000     -0.000000      0.000000
      4.24689      2.12345      4.24689        -0.000000      0.000000      0.000000
      6.37034      4.24689      4.24689         0.000000      0.000000     -0.000000
      2.12345      4.24689      4.24689         0.000000      0.000000     -0.000000
      4.24689      6.37034      4.24689         0.000000     -0.000000     -0.000000
      4.24689      4.24689      6.37034        -0.000000     -0.000000     -0.000000
      6.37034      6.37034      6.37034         0.000000      0.000000      0.000000
 -----------------------------------------------------------------------------------
    total drift:                                0.000000      0.000000      0.000000


--------------------------------------------------------------------------------------------------------



  FREE ENERGIE OF THE ION-ELECTRON SYSTEM (eV)
  ---------------------------------------------------
  free  energy   TOTEN  =       -95.46878107 eV

  energy  without entropy=      -95.46878107  energy(sigma->0) =      -95.46878107
 


--------------------------------------------------------------------------------------------------------


    POTLOK:  cpu time    0.1000: real time    0.1023


--------------------------------------------------------------------------------------------------------




--------------------------------------------------------------------------------------------------------


  
 reached required accuracy - stopping structural energy minimisation
     LOOP+:  cpu time    1.9000: real time    1.9533
    4ORBIT:  cpu time    0.0000: real time    0.0000
 


 total charge     
 
# of ion     s       p       d       tot
----------------------------------------
  1        0.145   0.171   0.075   0.391
  2        0.145   0.171   0.075   0.391
  3        0.145   0.171   0.075   0.391
  4        0.145   0.171   0.075   0.391
  5        0.145   0.171   0.075   0.391
  6        0.145   0.171   0.075   0.391
  7        0.145   0.171   0.075   0.391
  8        0.145   0.171   0.075   0.391
  9        1.567   3.560   0.000   5.127
 10        1.567   3.560   0.000   5.127
 11        1.567   3.560   0.000   5.127
 12        1.567   3.560   0.000   5.127
 13        1.567   3.560   0.000   5.127
 14        1.567   3.560   0.000   5.127
 15        1.567   3.560   0.000   5.127
 16        1.567   3.560   0.000   5.127
------------------------------------------------
tot       13.694  29.851   0.597  44.142
 

 total amount of memory used by VASP on root node    31959. kBytes
========================================================================

   base      :      30000. kBytes
   nonlr-proj:        915. kBytes
   fftplans  :        352. kBytes
   grid      :        558. kBytes
   one-center:         16. kBytes
   wavefun   :        118. kBytes
 
  
  
 General timing and accounting informations for this job:
 ========================================================
  
                  Total CPU time used (sec):        2.480
                            User time (sec):        2.344
                          System time (sec):        0.136
                         Elapsed time (sec):        2.806
  
                   Maximum memory used (kb):       72164.
                   Average memory used (kb):           0.
  
                          Minor page faults:         6941
                          Major page faults:           10
                 Voluntary context switches:         2287
