 vasp.5.4.1 05Feb16 (build Mar 31 2016 13:39:20) complex                        
  
 executed on           IFC91_ompi date 2018.04.28  12:47:46
 running on   16 total cores
 distrk:  each k-point on   16 cores,    1 groups
 distr:  one band on NCORES_PER_BAND=   4 cores,    4 groups


--------------------------------------------------------------------------------------------------------


 INCAR:
 POTCAR:    PAW_PBE Mg 13Apr2007                  
 POTCAR:    PAW_PBE O 08Apr2002                   
 POTCAR:    PAW_PBE Mg 13Apr2007                  
   VRHFIN =Mg: s2p0                                                             
   LEXCH  = PE                                                                  
   EATOM  =    23.0369 eV,    1.6932 Ry                                         
                                                                                
   TITEL  = PAW_PBE Mg 13Apr2007                                                
   LULTRA =        F    use ultrasoft PP ?                                      
   IUNSCR =        1    unscreen: 0-lin 1-nonlin 2-no                           
   RPACOR =    1.500    partial core radius                                     
   POMASS =   24.305; ZVAL   =    2.000    mass and valenz                      
   RCORE  =    2.000    outmost cutoff radius                                   
   RWIGS  =    2.880; RWIGS  =    1.524    wigner-seitz radius (au A)           
   ENMAX  =  126.143; ENMIN  =   94.607 eV                                      
   RCLOC  =    1.506    cutoff for local pot                                    
   LCOR   =        T    correct aug charges                                     
   LPAW   =        T    paw PP                                                  
   EAUG   =  454.734                                                            
   DEXC   =    0.000                                                            
   RMAX   =    2.045    core radius for proj-oper                               
   RAUG   =    1.300    factor for augmentation sphere                          
   RDEP   =    2.025    radius for radial grids                                 
   RDEPT  =    1.942    core radius for aug-charge                              
                                                                                
   Atomic configuration                                                         
    6 entries                                                                   
     n  l   j            E        occ.                                          
     1  0  0.50     -1259.6230   2.0000                                         
     2  0  0.50       -79.8442   2.0000                                         
     2  1  1.50       -46.6121   6.0000                                         
     3  0  0.50        -4.7055   2.0000                                         
     3  1  0.50        -1.3660   0.0000                                         
     3  2  1.50        -1.3606   0.0000                                         
   Description                                                                  
     l       E           TYP  RCUT    TYP  RCUT                                 
     0     -4.7054661     23  2.000                                             
     0     27.2116520     23  2.000                                             
     1      1.3605826     23  2.000                                             
     1     27.2116520     23  2.000                                             
     2     -1.3605826     23  2.000                                             
  local pseudopotential read in
  partial core-charges read in
  partial kinetic energy density read in
  atomic valenz-charges read in
  non local Contribution for L=           0  read in
    real space projection operators read in
  non local Contribution for L=           0  read in
    real space projection operators read in
  non local Contribution for L=           1  read in
    real space projection operators read in
  non local Contribution for L=           1  read in
    real space projection operators read in
  non local Contribution for L=           2  read in
    real space projection operators read in
    PAW grid and wavefunctions read in
 
   number of l-projection  operators is LMAX  =           5
   number of lm-projection operators is LMMAX =          13
 
 POTCAR:    PAW_PBE O 08Apr2002                   
   VRHFIN =O: s2p4                                                              
   LEXCH  = PE                                                                  
   EATOM  =   432.3788 eV,   31.7789 Ry                                         
                                                                                
   TITEL  = PAW_PBE O 08Apr2002                                                 
   LULTRA =        F    use ultrasoft PP ?                                      
   IUNSCR =        1    unscreen: 0-lin 1-nonlin 2-no                           
   RPACOR =    1.200    partial core radius                                     
   POMASS =   16.000; ZVAL   =    6.000    mass and valenz                      
   RCORE  =    1.520    outmost cutoff radius                                   
   RWIGS  =    1.550; RWIGS  =    0.820    wigner-seitz radius (au A)           
   ENMAX  =  400.000; ENMIN  =  300.000 eV                                      
   ICORE  =        2    local potential                                         
   LCOR   =        T    correct aug charges                                     
   LPAW   =        T    paw PP                                                  
   EAUG   =  605.392                                                            
   DEXC   =    0.000                                                            
   RMAX   =    1.553    core radius for proj-oper                               
   RAUG   =    1.300    factor for augmentation sphere                          
   RDEP   =    1.550    radius for radial grids                                 
   RDEPT  =    1.329    core radius for aug-charge                              
                                                                                
   Atomic configuration                                                         
    4 entries                                                                   
     n  l   j            E        occ.                                          
     1  0  0.50      -514.6923   2.0000                                         
     2  0  0.50       -23.9615   2.0000                                         
     2  1  0.50        -9.0305   4.0000                                         
     3  2  1.50        -9.5241   0.0000                                         
   Description                                                                  
     l       E           TYP  RCUT    TYP  RCUT                                 
     0    -23.9615318     23  1.200                                             
     0     -9.5240782     23  1.200                                             
     1     -9.0304911     23  1.520                                             
     1      8.1634956     23  1.520                                             
     2     -9.5240782      7  1.500                                             
  local pseudopotential read in
  partial core-charges read in
  partial kinetic energy density read in
  kinetic energy density of atom read in
  atomic valenz-charges read in
  non local Contribution for L=           0  read in
    real space projection operators read in
  non local Contribution for L=           0  read in
    real space projection operators read in
  non local Contribution for L=           1  read in
    real space projection operators read in
  non local Contribution for L=           1  read in
    real space projection operators read in
    PAW grid and wavefunctions read in
 
   number of l-projection  operators is LMAX  =           4
   number of lm-projection operators is LMMAX =           8
 
 Optimization of the real space projectors (new method)

 maximal supplied QI-value         = 18.90
 optimisation between [QCUT,QGAM] = [ 10.20, 20.41] = [ 29.16,116.64] Ry 
 Optimized for a Real-space Cutoff    1.30 Angstroem

   l    n(q)    QCUT    max X(q) W(low)/X(q) W(high)/X(q)  e(spline) 
   0      8    10.205    28.265    0.22E-03    0.17E-03    0.53E-07
   0      8    10.205    10.429    0.17E-03    0.15E-03    0.43E-07
   1      7    10.205    13.073    0.71E-04    0.41E-03    0.76E-07
   1      7    10.205     9.625    0.71E-04    0.33E-03    0.63E-07
   2      7    10.205     4.652    0.24E-03    0.41E-03    0.55E-07
 Optimization of the real space projectors (new method)

 maximal supplied QI-value         = 24.76
 optimisation between [QCUT,QGAM] = [ 10.15, 20.30] = [ 28.85,115.39] Ry 
 Optimized for a Real-space Cutoff    1.38 Angstroem

   l    n(q)    QCUT    max X(q) W(low)/X(q) W(high)/X(q)  e(spline) 
   0      8    10.150    20.381    0.22E-03    0.32E-03    0.29E-06
   0      8    10.150    15.268    0.23E-03    0.35E-03    0.30E-06
   1      8    10.150     5.964    0.46E-03    0.53E-03    0.21E-06
   1      8    10.150     5.382    0.38E-03    0.45E-03    0.19E-06
  PAW_PBE Mg 13Apr2007                  :
 energy of atom  1       EATOM=  -23.0369
 kinetic energy error for atom=    0.0001 (will be added to EATOM!!)
  PAW_PBE O 08Apr2002                   :
 energy of atom  2       EATOM= -432.3788
 kinetic energy error for atom=    0.1156 (will be added to EATOM!!)
 
 
 POSCAR: Mg8 O8                                  
  positions in direct lattice
  No initial velocities read in
 exchange correlation table for  LEXCH =        8
   RHO(1)=    0.500       N(1)  =     2000
   RHO(2)=  100.500       N(2)  =     4000
 


--------------------------------------------------------------------------------------------------------


 ion  position               nearest neighbor table
   1  0.000  0.000  0.000-  10 2.12  11 2.12  12 2.12  13 2.12  14 2.12  15 2.12   2 3.00   3 3.00
                             5 3.00   2 3.00   4 3.00   6 3.00   3 3.00   4 3.00   7 3.00   5 3.00
   2  0.000  0.000  0.500-   9 2.12  11 2.12  12 2.12  13 2.12  14 2.12  16 2.12   1 3.00   4 3.00
                             6 3.00   1 3.00   3 3.00   5 3.00   3 3.00   4 3.00   8 3.00   5 3.00
   3  0.000  0.500  0.000-   9 2.12  10 2.12  12 2.12  13 2.12  15 2.12  16 2.12   1 3.00   4 3.00
                             7 3.00   2 3.00   4 3.00   8 3.00   1 3.00   2 3.00   5 3.00   5 3.00
   4  0.000  0.500  0.500-   9 2.12  10 2.12  11 2.12  14 2.12  15 2.12  16 2.12   2 3.00   3 3.00
                             8 3.00   1 3.00   3 3.00   7 3.00   1 3.00   2 3.00   6 3.00   6 3.00
   5  0.500  0.000  0.000-   9 2.12  10 2.12  11 2.12  14 2.12  15 2.12  16 2.12   1 3.00   6 3.00
                             7 3.00   2 3.00   6 3.00   8 3.00   3 3.00   7 3.00   8 3.00   1 3.00
   6  0.500  0.000  0.500-   9 2.12  10 2.12  12 2.12  13 2.12  15 2.12  16 2.12   2 3.00   5 3.00
                             8 3.00   1 3.00   5 3.00   7 3.00   4 3.00   7 3.00   8 3.00   1 3.00
   7  0.500  0.500  0.000-   9 2.12  11 2.12  12 2.12  13 2.12  14 2.12  16 2.12   3 3.00   5 3.00
                             8 3.00   4 3.00   6 3.00   8 3.00   1 3.00   5 3.00   6 3.00   1 3.00
   8  0.500  0.500  0.500-  10 2.12  11 2.12  12 2.12  13 2.12  14 2.12  15 2.12   4 3.00   6 3.00
                             7 3.00   3 3.00   5 3.00   7 3.00   2 3.00   5 3.00   6 3.00   2 3.00
   9  0.250  0.250  0.250-   2 2.12   3 2.12   4 2.12   5 2.12   6 2.12   7 2.12
  10  0.250  0.250  0.750-   1 2.12   3 2.12   4 2.12   5 2.12   6 2.12   8 2.12
  11  0.250  0.750  0.250-   1 2.12   2 2.12   4 2.12   5 2.12   7 2.12   8 2.12
  12  0.250  0.750  0.750-   1 2.12   2 2.12   3 2.12   6 2.12   7 2.12   8 2.12
  13  0.750  0.250  0.250-   1 2.12   2 2.12   3 2.12   6 2.12   7 2.12   8 2.12
  14  0.750  0.250  0.750-   1 2.12   2 2.12   4 2.12   5 2.12   7 2.12   8 2.12
  15  0.750  0.750  0.250-   1 2.12   3 2.12   4 2.12   5 2.12   6 2.12   8 2.12
  16  0.750  0.750  0.750-   2 2.12   3 2.12   4 2.12   5 2.12   6 2.12   7 2.12
 
  LATTYP: Found a face centered cubic cell.
 ALAT       =     8.4937860000
  
  Lattice vectors:
  
 A1 = (   0.0000000000,   4.2468930000,   4.2468930000)
 A2 = (   4.2468930000,   0.0000000000,   4.2468930000)
 A3 = (   4.2468930000,   4.2468930000,   0.0000000000)


Analysis of symmetry for initial positions (statically):
=====================================================================
 Subroutine PRICEL returns following result:
 
  LATTYP: Found a face centered cubic cell.
 ALAT       =     4.2468930000
  
  Lattice vectors:
  
 A1 = (   0.0000000000,   2.1234465000,   2.1234465000)
 A2 = (   2.1234465000,   0.0000000000,   2.1234465000)
 A3 = (   2.1234465000,   2.1234465000,   0.0000000000)
 
   8 primitive cells build up your supercell.
 

 Routine SETGRP: Setting up the symmetry group for a 
 face centered cubic supercell.


 Subroutine GETGRP returns: Found 48 space group operations
 (whereof 48 operations were pure point group operations)
 out of a pool of 48 trial point group operations.


The static configuration has the point symmetry O_h .


Analysis of symmetry for dynamics (positions and initial velocities):
=====================================================================
 Subroutine PRICEL returns following result:
 
  LATTYP: Found a face centered cubic cell.
 ALAT       =     4.2468930000
  
  Lattice vectors:
  
 A1 = (   0.0000000000,   2.1234465000,   2.1234465000)
 A2 = (   2.1234465000,   0.0000000000,   2.1234465000)
 A3 = (   2.1234465000,   2.1234465000,   0.0000000000)
 
   8 primitive cells build up your supercell.
 

 Routine SETGRP: Setting up the symmetry group for a 
 face centered cubic supercell.


 Subroutine GETGRP returns: Found 48 space group operations
 (whereof 48 operations were pure point group operations)
 out of a pool of 48 trial point group operations.


The dynamic configuration has the point symmetry O_h .


 Subroutine INISYM returns: Found 48 space group operations
 (whereof 48 operations are pure point group operations),
 and found     8 'primitive' translations

 
 
 KPOINTS: k-point mesh                            

Automatic generation of k-mesh.
Space group operators:
 irot       det(A)        alpha          n_x          n_y          n_z        tau_x        tau_y        tau_z
    1     1.000000     0.000000     1.000000     0.000000     0.000000     0.000000     0.000000     0.000000
    2    -1.000000     0.000000     1.000000     0.000000     0.000000     0.000000     0.000000     0.000000
    3     1.000000   120.000000    -0.577350    -0.577350    -0.577350     0.000000     0.000000     0.000000
    4    -1.000000   120.000000    -0.577350    -0.577350    -0.577350     0.000000     0.000000     0.000000
    5     1.000000   120.000000     0.577350     0.577350     0.577350     0.000000     0.000000     0.000000
    6    -1.000000   120.000000     0.577350     0.577350     0.577350     0.000000     0.000000     0.000000
    7     1.000000    90.000000     0.000000     0.000000    -1.000000     0.000000     0.000000     0.000000
    8    -1.000000    90.000000     0.000000     0.000000    -1.000000     0.000000     0.000000     0.000000
    9     1.000000   180.000000     0.000000     0.707107     0.707107     0.000000     0.000000     0.000000
   10    -1.000000   180.000000     0.000000     0.707107     0.707107     0.000000     0.000000     0.000000
   11     1.000000    90.000000     0.000000     1.000000     0.000000     0.000000     0.000000     0.000000
   12    -1.000000    90.000000     0.000000     1.000000     0.000000     0.000000     0.000000     0.000000
   13     1.000000   180.000000     0.000000     0.000000     1.000000     0.000000     0.000000     0.000000
   14    -1.000000   180.000000     0.000000     0.000000     1.000000     0.000000     0.000000     0.000000
   15     1.000000   120.000000    -0.577350     0.577350     0.577350     0.000000     0.000000     0.000000
   16    -1.000000   120.000000    -0.577350     0.577350     0.577350     0.000000     0.000000     0.000000
   17     1.000000   120.000000    -0.577350     0.577350    -0.577350     0.000000     0.000000     0.000000
   18    -1.000000   120.000000    -0.577350     0.577350    -0.577350     0.000000     0.000000     0.000000
   19     1.000000    90.000000     0.000000     0.000000     1.000000     0.000000     0.000000     0.000000
   20    -1.000000    90.000000     0.000000     0.000000     1.000000     0.000000     0.000000     0.000000
   21     1.000000    90.000000    -1.000000     0.000000     0.000000     0.000000     0.000000     0.000000
   22    -1.000000    90.000000    -1.000000     0.000000     0.000000     0.000000     0.000000     0.000000
   23     1.000000   180.000000     0.707107     0.000000     0.707107     0.000000     0.000000     0.000000
   24    -1.000000   180.000000     0.707107     0.000000     0.707107     0.000000     0.000000     0.000000
   25     1.000000   120.000000     0.577350    -0.577350     0.577350     0.000000     0.000000     0.000000
   26    -1.000000   120.000000     0.577350    -0.577350     0.577350     0.000000     0.000000     0.000000
   27     1.000000   120.000000    -0.577350    -0.577350     0.577350     0.000000     0.000000     0.000000
   28    -1.000000   120.000000    -0.577350    -0.577350     0.577350     0.000000     0.000000     0.000000
   29     1.000000   180.000000     1.000000     0.000000     0.000000     0.000000     0.000000     0.000000
   30    -1.000000   180.000000     1.000000     0.000000     0.000000     0.000000     0.000000     0.000000
   31     1.000000    90.000000     0.000000    -1.000000     0.000000     0.000000     0.000000     0.000000
   32    -1.000000    90.000000     0.000000    -1.000000     0.000000     0.000000     0.000000     0.000000
   33     1.000000   180.000000     0.707107     0.707107     0.000000     0.000000     0.000000     0.000000
   34    -1.000000   180.000000     0.707107     0.707107     0.000000     0.000000     0.000000     0.000000
   35     1.000000    90.000000     1.000000     0.000000     0.000000     0.000000     0.000000     0.000000
   36    -1.000000    90.000000     1.000000     0.000000     0.000000     0.000000     0.000000     0.000000
   37     1.000000   120.000000     0.577350    -0.577350    -0.577350     0.000000     0.000000     0.000000
   38    -1.000000   120.000000     0.577350    -0.577350    -0.577350     0.000000     0.000000     0.000000
   39     1.000000   180.000000     0.000000     1.000000     0.000000     0.000000     0.000000     0.000000
   40    -1.000000   180.000000     0.000000     1.000000     0.000000     0.000000     0.000000     0.000000
   41     1.000000   120.000000     0.577350     0.577350    -0.577350     0.000000     0.000000     0.000000
   42    -1.000000   120.000000     0.577350     0.577350    -0.577350     0.000000     0.000000     0.000000
   43     1.000000   180.000000     0.000000    -0.707107     0.707107     0.000000     0.000000     0.000000
   44    -1.000000   180.000000     0.000000    -0.707107     0.707107     0.000000     0.000000     0.000000
   45     1.000000   180.000000     0.707107    -0.707107     0.000000     0.000000     0.000000     0.000000
   46    -1.000000   180.000000     0.707107    -0.707107     0.000000     0.000000     0.000000     0.000000
   47     1.000000   180.000000     0.707107     0.000000    -0.707107     0.000000     0.000000     0.000000
   48    -1.000000   180.000000     0.707107     0.000000    -0.707107     0.000000     0.000000     0.000000
 
 Subroutine IBZKPT returns following result:
 ===========================================
 
 Found      3 irreducible k-points:
 
 Following reciprocal coordinates:
            Coordinates               Weight
  0.000000  0.000000  0.000000      1.000000
  0.500000  0.000000  0.000000      4.000000
  0.500000  0.500000  0.000000      3.000000
 
 Following cartesian coordinates:
            Coordinates               Weight
  0.000000  0.000000  0.000000      1.000000
 -0.058867  0.058867  0.058867      4.000000
  0.000000  0.000000  0.117733      3.000000
 


--------------------------------------------------------------------------------------------------------




 Dimension of arrays:
   k-points           NKPTS =      3   k-points in BZ     NKDIM =      3   number of bands    NBANDS=     44
   number of dos      NEDOS =    301   number of ions     NIONS =     16
   non local maximal  LDIM  =      5   non local SUM 2l+1 LMDIM =     13
   total plane-waves  NPLWV =  27000
   max r-space proj   IRMAX =   1992   max aug-charges    IRDMAX=   7686
   dimension x,y,z NGX =    30 NGY =   30 NGZ =   30
   dimension x,y,z NGXF=    60 NGYF=   60 NGZF=   60
   support grid    NGXF=    60 NGYF=   60 NGZF=   60
   ions per type =               8   8
 NGX,Y,Z   is equivalent  to a cutoff of   8.30,  8.30,  8.30 a.u.
 NGXF,Y,Z  is equivalent  to a cutoff of  16.61, 16.61, 16.61 a.u.


 I would recommend the setting:
   dimension x,y,z NGX =    29 NGY =   29 NGZ =   29
 SYSTEM =  unknown system                          
 POSCAR =  Mg8 O8                                  

 Startparameter for this run:
   NWRITE =      2    write-flag & timer
   PREC   = n         normal or accurate (medium, high low for compatibility)
   ISTART =      0    job   : 0-new  1-cont  2-samecut
   ICHARG =      2    charge: 1-file 2-atom 10-const
   ISPIN  =      1    spin polarized calculation?
   LNONCOLLINEAR =      F non collinear calculations
   LSORBIT =      F    spin-orbit coupling
   INIWAV =      1    electr: 0-lowe 1-rand  2-diag
   LASPH  =      T    aspherical Exc in radial PAW
   METAGGA=      F    non-selfconsistent MetaGGA calc.

 Electronic Relaxation 1
   ENCUT  =  400.0 eV  29.40 Ry    5.42 a.u.   9.79  9.79  9.79*2*pi/ulx,y,z
   ENINI  =  400.0     initial cutoff
   ENAUG  =  605.4 eV  augmentation charge cutoff
   NELM   =    100;   NELMIN=  4; NELMDL= -5     # of ELM steps 
   EDIFF  = 0.1E-05   stopping-criterion for ELM
   LREAL  =      T    real-space projection
   NLSPLINE    = F    spline interpolate recip. space projectors
   LCOMPAT=      F    compatible to vasp.4.4
   GGA_COMPAT  = T    GGA compatible to vasp.4.4-vasp.4.6
   LMAXPAW     = -100 max onsite density
   LMAXMIX     =    2 max onsite mixed and CHGCAR
   VOSKOWN=      0    Vosko Wilk Nusair interpolation
   ROPT   =   -0.00050  -0.00050
 Ionic relaxation
   EDIFFG = -.5E-01   stopping-criterion for IOM
   NSW    =     20    number of steps for IOM
   NBLOCK =      1;   KBLOCK =     20    inner block; outer block 
   IBRION =      2    ionic relax: 0-MD 1-quasi-New 2-CG
   NFREE  =      1    steps in history (QN), initial steepest desc. (CG)
   ISIF   =      2    stress and relaxation
   IWAVPR =     11    prediction:  0-non 1-charg 2-wave 3-comb
   ISYM   =      2    0-nonsym 1-usesym 2-fastsym
   LCORR  =      T    Harris-Foulkes like correction to forces

   POTIM  = 0.5000    time-step for ionic-motion
   TEIN   =    0.0    initial temperature
   TEBEG  =    0.0;   TEEND  =   0.0 temperature during run
   SMASS  =  -3.00    Nose mass-parameter (am)
   estimated Nose-frequenzy (Omega)   =  0.10E-29 period in steps =****** mass=  -0.824E-27a.u.
   SCALEE = 1.0000    scale energy and forces
   NPACO  =    256;   APACO  = 16.0  distance and # of slots for P.C.
   PSTRESS=    0.0 pullay stress

  Mass of Ions in am
   POMASS =  24.30 16.00
  Ionic Valenz
   ZVAL   =   2.00  6.00
  Atomic Wigner-Seitz radii
   RWIGS  =  -1.00 -1.00
  virtual crystal weights 
   VCA    =   1.00  1.00
   NELECT =      64.0000    total number of electrons
   NUPDOWN=      -1.0000    fix difference up-down

 DOS related values:
   EMIN   =  10.00;   EMAX   =-10.00  energy-range for DOS
   EFERMI =   0.00
   ISMEAR =     0;   SIGMA  =   0.05  broadening in eV -4-tet -1-fermi 0-gaus

 Electronic relaxation 2 (details)
   IALGO  =     38    algorithm
   LDIAG  =      T    sub-space diagonalisation (order eigenvalues)
   LSUBROT=      F    optimize rotation matrix (better conditioning)
   TURBO    =      0    0=normal 1=particle mesh
   IRESTART =      0    0=no restart 2=restart with 2 vectors
   NREBOOT  =      0    no. of reboots
   NMIN     =      0    reboot dimension
   EREF     =   0.00    reference energy to select bands
   IMIX   =      4    mixing-type and parameters
     AMIX     =   0.40;   BMIX     =  1.00
     AMIX_MAG =   1.60;   BMIX_MAG =  1.00
     AMIN     =   0.10
     WC   =   100.;   INIMIX=   1;  MIXPRE=   1;  MAXMIX= -45

 Intra band minimization:
   WEIMIN = 0.0010     energy-eigenvalue tresh-hold
   EBREAK =  0.57E-08  absolut break condition
   DEPER  =   0.30     relativ break condition  

   TIME   =   0.40     timestep for ELM

  volume/ion in A,a.u.               =       9.57        64.61
  Fermi-wavevector in a.u.,A,eV,Ry     =   1.223827  2.312698 20.378173  1.497753
  Thomas-Fermi vector in A             =   2.358924
 
 Write flags
   LWAVE  =      F    write WAVECAR
   LCHARG =      F    write CHGCAR
   LVTOT  =      F    write LOCPOT, total local potential
   LVHAR  =      F    write LOCPOT, Hartree potential only
   LELF   =      F    write electronic localiz. function (ELF)
   LORBIT =     12    0 simple, 1 ext, 2 COOP (PROOUT)


 Dipole corrections
   LMONO  =      F    monopole corrections only (constant potential shift)
   LDIPOL =      F    correct potential (dipole corrections)
   IDIPOL =      0    1-x, 2-y, 3-z, 4-all directions 
   EPSILON=  1.0000000 bulk dielectric constant

 Exchange correlation treatment:
   GGA     =    --    GGA type
   LEXCH   =     8    internal setting for exchange type
   VOSKOWN=      0    Vosko Wilk Nusair interpolation
   LHFCALC =     F    Hartree Fock is set to
   LHFONE  =     F    Hartree Fock one center treatment
   AEXX    =    0.0000 exact exchange contribution

 Linear response parameters
   LEPSILON=     F    determine dielectric tensor
   LRPA    =     F    only Hartree local field effects (RPA)
   LNABLA  =     F    use nabla operator in PAW spheres
   LVEL    =     F    velocity operator in full k-point grid
   LINTERFAST=   F  fast interpolation
   KINTER  =     0    interpolate to denser k-point grid
   CSHIFT  =0.1000    complex shift for real part using Kramers Kronig
   OMEGAMAX=  -1.0    maximum frequency
   DEG_THRESHOLD= 0.2000000E-02 threshold for treating states as degnerate
   RTIME   =    0.100 relaxation time in fs

 Orbital magnetization related:
   ORBITALMAG=     F  switch on orbital magnetization
   LCHIMAG   =     F  perturbation theory with respect to B field
   DQ        =  0.001000  dq finite difference perturbation B field



--------------------------------------------------------------------------------------------------------


 conjugate gradient relaxation of ions
 charge density and potential will be updated during run
 non-spin polarized calculation
 Variant of blocked Davidson
 Davidson routine will perform the subspace rotation
 perform sub-space diagonalisation
    after iterative eigenvector-optimisation
 modified Broyden-mixing scheme, WC =      100.0
 initial mixing is a Kerker type mixing with AMIX =  0.4000 and BMIX =      1.0000
 Hartree-type preconditioning will be used
 using additional bands           12
 real space projection scheme for non local part
 use partial core corrections
 calculate Harris-corrections to forces 
   (improved forces if not selfconsistent)
 use gradient corrections 
 use of overlap-Matrix (Vanderbilt PP)
 Gauss-broadening in eV      SIGMA  =   0.05


--------------------------------------------------------------------------------------------------------


  energy-cutoff  :      400.00
  volume of cell :      153.19
      direct lattice vectors                 reciprocal lattice vectors
     0.000000000  4.246893000  4.246893000    -0.117733129  0.117733129  0.117733129
     4.246893000  0.000000000  4.246893000     0.117733129 -0.117733129  0.117733129
     4.246893000  4.246893000  0.000000000     0.117733129  0.117733129 -0.117733129

  length of vectors
     6.006013679  6.006013679  6.006013679     0.203919761  0.203919761  0.203919761


 
 k-points in units of 2pi/SCALE and weight: k-point mesh                            
   0.00000000  0.00000000  0.00000000       0.125
  -0.05886656  0.05886656  0.05886656       0.500
   0.00000000  0.00000000  0.11773313       0.375
 
 k-points in reciprocal lattice and weights: k-point mesh                            
   0.00000000  0.00000000  0.00000000       0.125
   0.50000000  0.00000000  0.00000000       0.500
   0.50000000  0.50000000  0.00000000       0.375
 
 position of ions in fractional coordinates (direct lattice) 
   0.00000000  0.00000000  0.00000000
   0.00000000  0.00000000  0.50000000
   0.00000000  0.50000000  0.00000000
   0.00000000  0.50000000  0.50000000
   0.50000000  0.00000000  0.00000000
   0.50000000  0.00000000  0.50000000
   0.50000000  0.50000000  0.00000000
   0.50000000  0.50000000  0.50000000
   0.25000000  0.25000000  0.25000000
   0.25000000  0.25000000  0.75000000
   0.25000000  0.75000000  0.25000000
   0.25000000  0.75000000  0.75000000
   0.75000000  0.25000000  0.25000000
   0.75000000  0.25000000  0.75000000
   0.75000000  0.75000000  0.25000000
   0.75000000  0.75000000  0.75000000
 
 position of ions in cartesian coordinates  (Angst):
   0.00000000  0.00000000  0.00000000
   2.12344650  2.12344650  0.00000000
   2.12344650  0.00000000  2.12344650
   4.24689300  2.12344650  2.12344650
   0.00000000  2.12344650  2.12344650
   2.12344650  4.24689300  2.12344650
   2.12344650  2.12344650  4.24689300
   4.24689300  4.24689300  4.24689300
   2.12344650  2.12344650  2.12344650
   4.24689300  4.24689300  2.12344650
   4.24689300  2.12344650  4.24689300
   6.37033950  4.24689300  4.24689300
   2.12344650  4.24689300  4.24689300
   4.24689300  6.37033950  4.24689300
   4.24689300  4.24689300  6.37033950
   6.37033950  6.37033950  6.37033950
 


--------------------------------------------------------------------------------------------------------


 k-point  1 :   0.0000 0.0000 0.0000  plane waves:    2733
 k-point  2 :   0.5000 0.0000 0.0000  plane waves:    2788
 k-point  3 :   0.5000 0.5000 0.0000  plane waves:    2778

 maximum and minimum number of plane-waves per node :       704      676

 maximum number of plane-waves:      2788
 maximum index in each direction: 
   IXMAX=    9   IYMAX=    9   IZMAX=    9
   IXMIN=  -10   IYMIN=  -10   IZMIN=   -9

 WARNING: aliasing errors must be expected set NGX to  40 to avoid them
 WARNING: aliasing errors must be expected set NGY to  40 to avoid them
 WARNING: aliasing errors must be expected set NGZ to  38 to avoid them
 aliasing errors are usually negligible using standard VASP settings
 and one can safely disregard these warnings

 real space projection operators:
  total allocation   :       2224.81 KBytes
  max/ min on nodes  :        599.25        513.16


 parallel 3D FFT for wavefunctions:
    minimum data exchange during FFTs selected (reduces bandwidth)
 parallel 3D FFT for charge:
    minimum data exchange during FFTs selected (reduces bandwidth)


 total amount of memory used by VASP on root node    33520. kBytes
========================================================================

   base      :      30000. kBytes
   nonlr-proj:       1274. kBytes
   fftplans  :        707. kBytes
   grid      :       1117. kBytes
   one-center:         32. kBytes
   wavefun   :        390. kBytes
 
     INWAV:  cpu time    0.0000: real time    0.0000
 Broyden mixing: mesh for mixing (old mesh)
   NGX = 19   NGY = 19   NGZ = 19
  (NGX  = 60   NGY  = 60   NGZ  = 60)
  gives a total of   6859 points

 initial charge density was supplied:
 charge density of overlapping atoms calculated
 number of electron      64.0000000 magnetization 
 keeping initial charge density in first step


--------------------------------------------------------------------------------------------------------


 Maximum index for non-local projection operator          527
 Maximum index for augmentation-charges          482 (set IRDMAX)


--------------------------------------------------------------------------------------------------------


 First call to EWALD:  gamma=   0.331
 Maximum number of real-space cells 3x 3x 3
 Maximum number of reciprocal cells 3x 3x 3

 FEWALD executed in parallel
    FEWALD:  cpu time    0.0040: real time    0.0017


----------------------------------------- Iteration    1(   1)  ---------------------------------------


    POTLOK:  cpu time    0.0120: real time    0.0097
    SETDIJ:  cpu time    0.1920: real time    0.1962
     EDDAV:  cpu time    0.0920: real time    0.0915
       DOS:  cpu time    0.0000: real time    0.0002
    --------------------------------------------
      LOOP:  cpu time    0.2960: real time    0.3007

 eigenvalue-minimisations  :   280
 total energy-change (2. order) : 0.2699020E+03  (-0.2769991E+04)
 number of electron      64.0000000 magnetization 
 augmentation part       64.0000000 magnetization 

 Free energy of the ion-electron system (eV)
  ---------------------------------------------------
  alpha Z        PSCENC =       152.60904737
  Ewald energy   TEWEN  =     -2842.02858273
  -Hartree energ DENC   =      -979.63991372
  -exchange      EXHF   =         0.00000000
  -V(xc)+E(xc)   XCENC  =      -164.05863411
  PAW double counting   =      3294.84937727    -2894.33685034
  entropy T*S    EENTRO =        -0.01069214
  eigenvalues    EBANDS =        60.11853234
  atomic energy  EATOM  =      3642.39975602
  Solvation  Ediel_sol  =         0.00000000
  ---------------------------------------------------
  free energy    TOTEN  =       269.90203995 eV

  energy without entropy =      269.91273209  energy(sigma->0) =      269.90738602


--------------------------------------------------------------------------------------------------------




----------------------------------------- Iteration    1(   2)  ---------------------------------------


     EDDAV:  cpu time    0.1000: real time    0.1030
       DOS:  cpu time    0.0000: real time    0.0001
    --------------------------------------------
      LOOP:  cpu time    0.1040: real time    0.1058

 eigenvalue-minimisations  :   340
 total energy-change (2. order) :-0.3587086E+03  (-0.3478906E+03)
 number of electron      64.0000000 magnetization 
 augmentation part       64.0000000 magnetization 

 Free energy of the ion-electron system (eV)
  ---------------------------------------------------
  alpha Z        PSCENC =       152.60904737
  Ewald energy   TEWEN  =     -2842.02858273
  -Hartree energ DENC   =      -979.63991372
  -exchange      EXHF   =         0.00000000
  -V(xc)+E(xc)   XCENC  =      -164.05863411
  PAW double counting   =      3294.84937727    -2894.33685034
  entropy T*S    EENTRO =        -0.00000000
  eigenvalues    EBANDS =      -298.60076413
  atomic energy  EATOM  =      3642.39975602
  Solvation  Ediel_sol  =         0.00000000
  ---------------------------------------------------
  free energy    TOTEN  =       -88.80656437 eV

  energy without entropy =      -88.80656437  energy(sigma->0) =      -88.80656437


--------------------------------------------------------------------------------------------------------




----------------------------------------- Iteration    1(   3)  ---------------------------------------


     EDDAV:  cpu time    0.1000: real time    0.1004
       DOS:  cpu time    0.0000: real time    0.0001
    --------------------------------------------
      LOOP:  cpu time    0.1000: real time    0.1033

 eigenvalue-minimisations  :   328
 total energy-change (2. order) :-0.1867917E+02  (-0.1860190E+02)
 number of electron      64.0000000 magnetization 
 augmentation part       64.0000000 magnetization 

 Free energy of the ion-electron system (eV)
  ---------------------------------------------------
  alpha Z        PSCENC =       152.60904737
  Ewald energy   TEWEN  =     -2842.02858273
  -Hartree energ DENC   =      -979.63991372
  -exchange      EXHF   =         0.00000000
  -V(xc)+E(xc)   XCENC  =      -164.05863411
  PAW double counting   =      3294.84937727    -2894.33685034
  entropy T*S    EENTRO =        -0.00000000
  eigenvalues    EBANDS =      -317.27992935
  atomic energy  EATOM  =      3642.39975602
  Solvation  Ediel_sol  =         0.00000000
  ---------------------------------------------------
  free energy    TOTEN  =      -107.48572959 eV

  energy without entropy =     -107.48572959  energy(sigma->0) =     -107.48572959


--------------------------------------------------------------------------------------------------------




----------------------------------------- Iteration    1(   4)  ---------------------------------------


     EDDAV:  cpu time    0.1000: real time    0.0979
       DOS:  cpu time    0.0000: real time    0.0001
    --------------------------------------------
      LOOP:  cpu time    0.1000: real time    0.1009

 eigenvalue-minimisations  :   320
 total energy-change (2. order) :-0.1301190E+00  (-0.1300175E+00)
 number of electron      64.0000000 magnetization 
 augmentation part       64.0000000 magnetization 

 Free energy of the ion-electron system (eV)
  ---------------------------------------------------
  alpha Z        PSCENC =       152.60904737
  Ewald energy   TEWEN  =     -2842.02858273
  -Hartree energ DENC   =      -979.63991372
  -exchange      EXHF   =         0.00000000
  -V(xc)+E(xc)   XCENC  =      -164.05863411
  PAW double counting   =      3294.84937727    -2894.33685034
  entropy T*S    EENTRO =        -0.00000000
  eigenvalues    EBANDS =      -317.41004837
  atomic energy  EATOM  =      3642.39975602
  Solvation  Ediel_sol  =         0.00000000
  ---------------------------------------------------
  free energy    TOTEN  =      -107.61584862 eV

  energy without entropy =     -107.61584862  energy(sigma->0) =     -107.61584862


--------------------------------------------------------------------------------------------------------




----------------------------------------- Iteration    1(   5)  ---------------------------------------


     EDDAV:  cpu time    0.0960: real time    0.0981
       DOS:  cpu time    0.0000: real time    0.0001
    CHARGE:  cpu time    0.0160: real time    0.0142
    MIXING:  cpu time    0.0000: real time    0.0005
    --------------------------------------------
      LOOP:  cpu time    0.1120: real time    0.1159

 eigenvalue-minimisations  :   320
 total energy-change (2. order) :-0.1253964E-02  (-0.1253583E-02)
 number of electron      63.9999795 magnetization 
 augmentation part        6.3679758 magnetization 

 Broyden mixing:
  rms(total) = 0.19995E+01    rms(broyden)= 0.19986E+01
  rms(prec ) = 0.42727E+01
  weight for this iteration     100.00

 Free energy of the ion-electron system (eV)
  ---------------------------------------------------
  alpha Z        PSCENC =       152.60904737
  Ewald energy   TEWEN  =     -2842.02858273
  -Hartree energ DENC   =      -979.63991372
  -exchange      EXHF   =         0.00000000
  -V(xc)+E(xc)   XCENC  =      -164.05863411
  PAW double counting   =      3294.84937727    -2894.33685034
  entropy T*S    EENTRO =        -0.00000000
  eigenvalues    EBANDS =      -317.41130233
  atomic energy  EATOM  =      3642.39975602
  Solvation  Ediel_sol  =         0.00000000
  ---------------------------------------------------
  free energy    TOTEN  =      -107.61710258 eV

  energy without entropy =     -107.61710258  energy(sigma->0) =     -107.61710258


--------------------------------------------------------------------------------------------------------




----------------------------------------- Iteration    1(   6)  ---------------------------------------


    POTLOK:  cpu time    0.0080: real time    0.0091
    SETDIJ:  cpu time    0.1960: real time    0.1964
     EDDAV:  cpu time    0.0920: real time    0.0920
       DOS:  cpu time    0.0000: real time    0.0001
    CHARGE:  cpu time    0.0160: real time    0.0141
    MIXING:  cpu time    0.0000: real time    0.0013
    --------------------------------------------
      LOOP:  cpu time    0.3120: real time    0.3162

 eigenvalue-minimisations  :   292
 total energy-change (2. order) : 0.1213496E+02  (-0.5091073E+01)
 number of electron      63.9999832 magnetization 
 augmentation part        5.2925928 magnetization 

 Broyden mixing:
  rms(total) = 0.63623E+00    rms(broyden)= 0.63448E+00
  rms(prec ) = 0.97138E+00
  weight for this iteration     100.00

 eigenvalues of (default mixing * dielectric matrix)
  average eigenvalue GAMMA=   0.8682
  0.8682

 Free energy of the ion-electron system (eV)
  ---------------------------------------------------
  alpha Z        PSCENC =       152.60904737
  Ewald energy   TEWEN  =     -2842.02858273
  -Hartree energ DENC   =     -1126.49878513
  -exchange      EXHF   =         0.00000000
  -V(xc)+E(xc)   XCENC  =      -153.70209389
  PAW double counting   =      3907.18397870    -3509.25409084
  entropy T*S    EENTRO =        -0.00000000
  eigenvalues    EBANDS =      -166.19137591
  atomic energy  EATOM  =      3642.39975602
  Solvation  Ediel_sol  =         0.00000000
  ---------------------------------------------------
  free energy    TOTEN  =       -95.48214642 eV

  energy without entropy =      -95.48214642  energy(sigma->0) =      -95.48214642


--------------------------------------------------------------------------------------------------------




----------------------------------------- Iteration    1(   7)  ---------------------------------------


    POTLOK:  cpu time    0.0080: real time    0.0090
    SETDIJ:  cpu time    0.1960: real time    0.1965
     EDDAV:  cpu time    0.0920: real time    0.0925
       DOS:  cpu time    0.0000: real time    0.0001
    CHARGE:  cpu time    0.0160: real time    0.0139
    MIXING:  cpu time    0.0000: real time    0.0004
    --------------------------------------------
      LOOP:  cpu time    0.3120: real time    0.3156

 eigenvalue-minimisations  :   296
 total energy-change (2. order) : 0.6658661E-01  (-0.8119070E-01)
 number of electron      63.9999832 magnetization 
 augmentation part        5.2886152 magnetization 

 Broyden mixing:
  rms(total) = 0.39536E+00    rms(broyden)= 0.39530E+00
  rms(prec ) = 0.61086E+00
  weight for this iteration     100.00

 eigenvalues of (default mixing * dielectric matrix)
  average eigenvalue GAMMA=   1.7879
  0.9992  2.5766

 Free energy of the ion-electron system (eV)
  ---------------------------------------------------
  alpha Z        PSCENC =       152.60904737
  Ewald energy   TEWEN  =     -2842.02858273
  -Hartree energ DENC   =     -1129.53670879
  -exchange      EXHF   =         0.00000000
  -V(xc)+E(xc)   XCENC  =      -153.16633036
  PAW double counting   =      4128.09102218    -3729.88081567
  entropy T*S    EENTRO =        -0.00000000
  eigenvalues    EBANDS =      -163.90294783
  atomic energy  EATOM  =      3642.39975602
  Solvation  Ediel_sol  =         0.00000000
  ---------------------------------------------------
  free energy    TOTEN  =       -95.41555981 eV

  energy without entropy =      -95.41555981  energy(sigma->0) =      -95.41555981


--------------------------------------------------------------------------------------------------------




----------------------------------------- Iteration    1(   8)  ---------------------------------------


    POTLOK:  cpu time    0.0080: real time    0.0090
    SETDIJ:  cpu time    0.1960: real time    0.1962
     EDDAV:  cpu time    0.0920: real time    0.0903
       DOS:  cpu time    0.0000: real time    0.0001
    CHARGE:  cpu time    0.0120: real time    0.0140
    MIXING:  cpu time    0.0000: real time    0.0004
    --------------------------------------------
      LOOP:  cpu time    0.3080: real time    0.3131

 eigenvalue-minimisations  :   288
 total energy-change (2. order) : 0.4502001E-01  (-0.2509990E-01)
 number of electron      63.9999830 magnetization 
 augmentation part        5.3264266 magnetization 

 Broyden mixing:
  rms(total) = 0.71249E-01    rms(broyden)= 0.71224E-01
  rms(prec ) = 0.11771E+00
  weight for this iteration     100.00

 eigenvalues of (default mixing * dielectric matrix)
  average eigenvalue GAMMA=   1.4476
  2.5278  0.9075  0.9075

 Free energy of the ion-electron system (eV)
  ---------------------------------------------------
  alpha Z        PSCENC =       152.60904737
  Ewald energy   TEWEN  =     -2842.02858273
  -Hartree energ DENC   =     -1136.21934268
  -exchange      EXHF   =         0.00000000
  -V(xc)+E(xc)   XCENC  =      -151.96741765
  PAW double counting   =      4506.79186470    -4108.24939762
  entropy T*S    EENTRO =        -0.00000000
  eigenvalues    EBANDS =      -158.70646721
  atomic energy  EATOM  =      3642.39975602
  Solvation  Ediel_sol  =         0.00000000
  ---------------------------------------------------
  free energy    TOTEN  =       -95.37053980 eV

  energy without entropy =      -95.37053980  energy(sigma->0) =      -95.37053980


--------------------------------------------------------------------------------------------------------




----------------------------------------- Iteration    1(   9)  ---------------------------------------


    POTLOK:  cpu time    0.0120: real time    0.0090
    SETDIJ:  cpu time    0.1960: real time    0.1962
     EDDAV:  cpu time    0.1000: real time    0.1016
       DOS:  cpu time    0.0000: real time    0.0001
    CHARGE:  cpu time    0.0120: real time    0.0140
    MIXING:  cpu time    0.0040: real time    0.0004
    --------------------------------------------
      LOOP:  cpu time    0.3240: real time    0.3246

 eigenvalue-minimisations  :   332
 total energy-change (2. order) : 0.7631305E-02  (-0.2476571E-02)
 number of electron      63.9999831 magnetization 
 augmentation part        5.3038363 magnetization 

 Broyden mixing:
  rms(total) = 0.19622E-01    rms(broyden)= 0.19595E-01
  rms(prec ) = 0.26307E-01
  weight for this iteration     100.00

 eigenvalues of (default mixing * dielectric matrix)
  average eigenvalue GAMMA=   1.7756
  0.9905  0.9905  2.5607  2.5607

 Free energy of the ion-electron system (eV)
  ---------------------------------------------------
  alpha Z        PSCENC =       152.60904737
  Ewald energy   TEWEN  =     -2842.02858273
  -Hartree energ DENC   =     -1139.36637458
  -exchange      EXHF   =         0.00000000
  -V(xc)+E(xc)   XCENC  =      -151.75381937
  PAW double counting   =      4487.39934705    -4088.94054588
  entropy T*S    EENTRO =        -0.00000000
  eigenvalues    EBANDS =      -155.68173637
  atomic energy  EATOM  =      3642.39975602
  Solvation  Ediel_sol  =         0.00000000
  ---------------------------------------------------
  free energy    TOTEN  =       -95.36290850 eV

  energy without entropy =      -95.36290850  energy(sigma->0) =      -95.36290850


--------------------------------------------------------------------------------------------------------




----------------------------------------- Iteration    1(  10)  ---------------------------------------


    POTLOK:  cpu time    0.0080: real time    0.0090
    SETDIJ:  cpu time    0.1960: real time    0.1973
     EDDAV:  cpu time    0.0880: real time    0.0893
       DOS:  cpu time    0.0000: real time    0.0001
    CHARGE:  cpu time    0.0160: real time    0.0140
    MIXING:  cpu time    0.0000: real time    0.0005
    --------------------------------------------
      LOOP:  cpu time    0.3080: real time    0.3131

 eigenvalue-minimisations  :   284
 total energy-change (2. order) :-0.1100900E-02  (-0.3847970E-03)
 number of electron      63.9999831 magnetization 
 augmentation part        5.2978424 magnetization 

 Broyden mixing:
  rms(total) = 0.66391E-02    rms(broyden)= 0.66276E-02
  rms(prec ) = 0.11602E-01
  weight for this iteration     100.00

 eigenvalues of (default mixing * dielectric matrix)
  average eigenvalue GAMMA=   1.6708
  2.8500  2.4943  1.0070  1.0070  0.9957

 Free energy of the ion-electron system (eV)
  ---------------------------------------------------
  alpha Z        PSCENC =       152.60904737
  Ewald energy   TEWEN  =     -2842.02858273
  -Hartree energ DENC   =     -1140.09284369
  -exchange      EXHF   =         0.00000000
  -V(xc)+E(xc)   XCENC  =      -151.67633399
  PAW double counting   =      4453.89884486    -4055.48021386
  entropy T*S    EENTRO =        -0.00000000
  eigenvalues    EBANDS =      -154.99368339
  atomic energy  EATOM  =      3642.39975602
  Solvation  Ediel_sol  =         0.00000000
  ---------------------------------------------------
  free energy    TOTEN  =       -95.36400940 eV

  energy without entropy =      -95.36400940  energy(sigma->0) =      -95.36400940


--------------------------------------------------------------------------------------------------------




----------------------------------------- Iteration    1(  11)  ---------------------------------------


    POTLOK:  cpu time    0.0080: real time    0.0090
    SETDIJ:  cpu time    0.1960: real time    0.1963
     EDDAV:  cpu time    0.0960: real time    0.0939
       DOS:  cpu time    0.0000: real time    0.0001
    CHARGE:  cpu time    0.0120: real time    0.0140
    MIXING:  cpu time    0.0000: real time    0.0005
    --------------------------------------------
      LOOP:  cpu time    0.3120: real time    0.3169

 eigenvalue-minimisations  :   300
 total energy-change (2. order) : 0.5141410E-04  (-0.2693857E-04)
 number of electron      63.9999831 magnetization 
 augmentation part        5.3003210 magnetization 

 Broyden mixing:
  rms(total) = 0.10699E-02    rms(broyden)= 0.10681E-02
  rms(prec ) = 0.15431E-02
  weight for this iteration     100.00

 eigenvalues of (default mixing * dielectric matrix)
  average eigenvalue GAMMA=   1.7733
  0.9343  1.0136  1.0136  2.8705  2.4038  2.4038

 Free energy of the ion-electron system (eV)
  ---------------------------------------------------
  alpha Z        PSCENC =       152.60904737
  Ewald energy   TEWEN  =     -2842.02858273
  -Hartree energ DENC   =     -1139.80320221
  -exchange      EXHF   =         0.00000000
  -V(xc)+E(xc)   XCENC  =      -151.69193977
  PAW double counting   =      4452.44441603    -4054.02219240
  entropy T*S    EENTRO =        -0.00000000
  eigenvalues    EBANDS =      -155.27126030
  atomic energy  EATOM  =      3642.39975602
  Solvation  Ediel_sol  =         0.00000000
  ---------------------------------------------------
  free energy    TOTEN  =       -95.36395799 eV

  energy without entropy =      -95.36395799  energy(sigma->0) =      -95.36395799


--------------------------------------------------------------------------------------------------------




----------------------------------------- Iteration    1(  12)  ---------------------------------------


    POTLOK:  cpu time    0.0120: real time    0.0090
    SETDIJ:  cpu time    0.1960: real time    0.1964
     EDDAV:  cpu time    0.0800: real time    0.0825
       DOS:  cpu time    0.0000: real time    0.0001
    CHARGE:  cpu time    0.0160: real time    0.0140
    MIXING:  cpu time    0.0000: real time    0.0005
    --------------------------------------------
      LOOP:  cpu time    0.3040: real time    0.3055

 eigenvalue-minimisations  :   252
 total energy-change (2. order) : 0.1954180E-05  (-0.7648670E-06)
 number of electron      63.9999831 magnetization 
 augmentation part        5.3005233 magnetization 

 Broyden mixing:
  rms(total) = 0.31227E-03    rms(broyden)= 0.31173E-03
  rms(prec ) = 0.47551E-03
  weight for this iteration     100.00

 eigenvalues of (default mixing * dielectric matrix)
  average eigenvalue GAMMA=   1.7391
  3.0483  2.6519  2.4408  1.0294  1.0294  0.9871  0.9871

 Free energy of the ion-electron system (eV)
  ---------------------------------------------------
  alpha Z        PSCENC =       152.60904737
  Ewald energy   TEWEN  =     -2842.02858273
  -Hartree energ DENC   =     -1139.79032021
  -exchange      EXHF   =         0.00000000
  -V(xc)+E(xc)   XCENC  =      -151.69390716
  PAW double counting   =      4454.56138714    -4056.14004136
  entropy T*S    EENTRO =        -0.00000000
  eigenvalues    EBANDS =      -155.28129511
  atomic energy  EATOM  =      3642.39975602
  Solvation  Ediel_sol  =         0.00000000
  ---------------------------------------------------
  free energy    TOTEN  =       -95.36395603 eV

  energy without entropy =      -95.36395603  energy(sigma->0) =      -95.36395603


--------------------------------------------------------------------------------------------------------




----------------------------------------- Iteration    1(  13)  ---------------------------------------


    POTLOK:  cpu time    0.0080: real time    0.0091
    SETDIJ:  cpu time    0.1960: real time    0.1972
     EDDAV:  cpu time    0.0720: real time    0.0706
       DOS:  cpu time    0.0000: real time    0.0001
    --------------------------------------------
      LOOP:  cpu time    0.2760: real time    0.2799

 eigenvalue-minimisations  :   196
 total energy-change (2. order) :-0.6703522E-06  (-0.1225395E-06)
 number of electron      63.9999831 magnetization 
 augmentation part        5.3005233 magnetization 

 Free energy of the ion-electron system (eV)
  ---------------------------------------------------
  alpha Z        PSCENC =       152.60904737
  Ewald energy   TEWEN  =     -2842.02858273
  -Hartree energ DENC   =     -1139.76612447
  -exchange      EXHF   =         0.00000000
  -V(xc)+E(xc)   XCENC  =      -151.69585500
  PAW double counting   =      4454.04874952    -4055.62757622
  entropy T*S    EENTRO =        -0.00000000
  eigenvalues    EBANDS =      -155.30337118
  atomic energy  EATOM  =      3642.39975602
  Solvation  Ediel_sol  =         0.00000000
  ---------------------------------------------------
  free energy    TOTEN  =       -95.36395670 eV

  energy without entropy =      -95.36395670  energy(sigma->0) =      -95.36395670


--------------------------------------------------------------------------------------------------------




 average (electrostatic) potential at core
  the test charge radii are     1.0714  0.7215
  (the norm of the test charge is              1.0000)
       1 -35.2983       2 -35.2983       3 -35.2983       4 -35.2983       5 -35.2983
       6 -35.2983       7 -35.2983       8 -35.2983       9 -69.7919      10 -69.7919
      11 -69.7919      12 -69.7919      13 -69.7919      14 -69.7919      15 -69.7919
      16 -69.7919
 
 
 
 E-fermi :   3.3293     XC(G=0): -10.9562     alpha+bet :-12.8395


 k-point     1 :       0.0000    0.0000    0.0000
  band No.  band energies     occupation 
      1     -14.1260      2.00000
      2     -12.9046      2.00000
      3     -12.9046      2.00000
      4     -12.9046      2.00000
      5     -12.9046      2.00000
      6     -12.6549      2.00000
      7     -12.6549      2.00000
      8     -12.6549      2.00000
      9      -1.5024      2.00000
     10      -1.5024      2.00000
     11      -1.5024      2.00000
     12      -1.5024      2.00000
     13      -0.9774      2.00000
     14      -0.9774      2.00000
     15      -0.9774      2.00000
     16       1.6957      2.00000
     17       1.6957      2.00000
     18       1.6957      2.00000
     19       1.6959      2.00000
     20       1.6959      2.00000
     21       1.6959      2.00000
     22       2.3830      2.00000
     23       2.3830      2.00000
     24       2.3830      2.00000
     25       2.3833      2.00000
     26       2.3833      2.00000
     27       2.3833      2.00000
     28       2.3834      2.00000
     29       2.3834      2.00000
     30       3.0097      2.00000
     31       3.0101      2.00000
     32       3.0101      2.00000
     33       7.4992      0.00000
     34      10.7522      0.00000
     35      10.7525      0.00000
     36      10.7525      0.00000
     37      10.7525      0.00000
     38      12.1044      0.00000
     39      12.1044      0.00000
     40      12.1044      0.00000
     41      12.7108      0.00000
     42      12.7108      0.00000
     43      12.7108      0.00000
     44      15.3645      0.00000

 k-point     2 :       0.5000    0.0000    0.0000
  band No.  band energies     occupation 
      1     -13.5671      2.00000
      2     -13.5671      2.00000
      3     -12.7897      2.00000
      4     -12.7897      2.00000
      5     -12.7897      2.00000
      6     -12.7897      2.00000
      7     -12.7897      2.00000
      8     -12.7897      2.00000
      9      -0.7191      2.00000
     10      -0.7191      2.00000
     11      -0.7191      2.00000
     12      -0.7191      2.00000
     13      -0.7191      2.00000
     14      -0.7191      2.00000
     15       0.3938      2.00000
     16       0.3938      2.00000
     17       1.1453      2.00000
     18       1.1453      2.00000
     19       1.1453      2.00000
     20       1.1453      2.00000
     21       1.1453      2.00000
     22       1.1453      2.00000
     23       2.0207      2.00000
     24       2.0207      2.00000
     25       2.0207      2.00000
     26       2.0207      2.00000
     27       2.0209      2.00000
     28       2.0209      2.00000
     29       2.6791      2.00000
     30       2.6791      2.00000
     31       2.6795      2.00000
     32       2.6795      2.00000
     33       9.8757      0.00000
     34       9.8757      0.00000
     35      12.5413      0.00000
     36      12.5413      0.00000
     37      12.5416      0.00000
     38      12.5416      0.00000
     39      12.5416      0.00000
     40      12.5416      0.00000
     41      14.3851      0.00000
     42      14.3851      0.00000
     43      14.3852      0.00000
     44      14.3852      0.00000

 k-point     3 :       0.5000    0.5000    0.0000
  band No.  band energies     occupation 
      1     -13.4101      2.00000
      2     -13.4101      2.00000
      3     -12.9715      2.00000
      4     -12.9715      2.00000
      5     -12.9715      2.00000
      6     -12.9715      2.00000
      7     -12.6085      2.00000
      8     -12.6085      2.00000
      9      -0.4140      2.00000
     10      -0.4140      2.00000
     11      -0.4139      2.00000
     12      -0.4139      2.00000
     13       0.1282      2.00000
     14       0.1282      2.00000
     15       0.1283      2.00000
     16       0.1283      2.00000
     17       0.4236      2.00000
     18       0.4236      2.00000
     19       1.0674      2.00000
     20       1.0674      2.00000
     21       1.0674      2.00000
     22       1.0674      2.00000
     23       1.2792      2.00000
     24       1.2792      2.00000
     25       2.2913      2.00000
     26       2.2913      2.00000
     27       2.2915      2.00000
     28       2.2915      2.00000
     29       2.3819      2.00000
     30       2.3819      2.00000
     31       2.3822      2.00000
     32       2.3822      2.00000
     33      10.8337      0.00000
     34      10.8337      0.00000
     35      12.2715      0.00000
     36      12.2715      0.00000
     37      12.2718      0.00000
     38      12.2718      0.00000
     39      14.1153      0.00000
     40      14.1154      0.00000
     41      14.5040      0.00000
     42      14.5041      0.00000
     43      14.5059      0.00000
     44      14.6220      0.00000


--------------------------------------------------------------------------------------------------------


 soft charge-density along one line, spin component           1
         0         1         2         3         4         5         6         7         8         9
 total charge-density along one line
 
 pseudopotential strength for first ion, spin component:           1
  2.973   9.448   0.000   0.000  -0.000   0.000   0.000  -0.000
  9.448  29.867   0.000   0.000  -0.000   0.000   0.000  -0.000
  0.000   0.000   7.292  -0.000  -0.000  10.569  -0.000  -0.000
  0.000   0.000  -0.000   7.292  -0.000  -0.000  10.569  -0.000
 -0.000  -0.000  -0.000  -0.000   7.292  -0.000  -0.000  10.569
  0.000   0.000  10.569  -0.000  -0.000  14.535  -0.000  -0.000
  0.000   0.000  -0.000  10.569  -0.000  -0.000  14.535  -0.000
 -0.000  -0.000  -0.000  -0.000  10.569  -0.000  -0.000  14.535
 -0.000  -0.000  -0.000  -0.000   0.000  -0.000  -0.000   0.000
 -0.000  -0.000   0.000   0.000  -0.000   0.000   0.000  -0.000
 -0.000  -0.000  -0.000   0.000   0.000  -0.000   0.000   0.000
 -0.000  -0.000  -0.000  -0.000   0.000  -0.000  -0.000   0.000
  0.000   0.000  -0.000  -0.000  -0.000  -0.000  -0.000  -0.000
 total augmentation occupancy for first ion, spin component:           1
  0.987  -0.045   0.000  -0.000   0.000  -0.000  -0.000   0.000  -0.000   0.000   0.000  -0.000   0.000
 -0.045   0.002  -0.000   0.000   0.000  -0.000  -0.000   0.000   0.000  -0.000   0.000  -0.000  -0.000
  0.000  -0.000   0.115  -0.000  -0.000  -0.012   0.000  -0.000   0.000  -0.000  -0.000   0.000  -0.000
 -0.000   0.000  -0.000   0.115   0.000  -0.000  -0.012  -0.000  -0.000  -0.000  -0.000  -0.000  -0.000
  0.000   0.000  -0.000   0.000   0.115   0.000   0.000  -0.012   0.000   0.000   0.000  -0.000  -0.000
 -0.000  -0.000  -0.012   0.000   0.000   0.001  -0.000  -0.000   0.000   0.000   0.000   0.000   0.000
 -0.000  -0.000   0.000  -0.012   0.000  -0.000   0.001   0.000  -0.000   0.000   0.000   0.000   0.000
  0.000   0.000   0.000   0.000  -0.012  -0.000   0.000   0.001  -0.000   0.000   0.000   0.000  -0.000
 -0.000   0.000   0.000  -0.000   0.000   0.000  -0.000  -0.000   0.012   0.000  -0.000  -0.000   0.000
  0.000  -0.000  -0.000  -0.000   0.000   0.000   0.000   0.000   0.000   0.012   0.000   0.000  -0.000
  0.000   0.000  -0.000  -0.000   0.000  -0.000   0.000   0.000  -0.000   0.000   0.050   0.000   0.000
 -0.000   0.000   0.000  -0.000  -0.000   0.000   0.000   0.000  -0.000   0.000   0.000   0.012   0.000
  0.000  -0.000  -0.000   0.000  -0.000   0.000   0.000  -0.000   0.000  -0.000   0.000  -0.000   0.050


------------------------ aborting loop because EDIFF is reached ----------------------------------------


 


 total charge     
 
# of ion     s       p       d       tot
----------------------------------------
  1        0.144   0.171   0.075   0.390
  2        0.144   0.171   0.075   0.390
  3        0.144   0.171   0.075   0.390
  4        0.144   0.171   0.075   0.390
  5        0.144   0.171   0.075   0.390
  6        0.144   0.171   0.075   0.390
  7        0.144   0.171   0.075   0.390
  8        0.144   0.171   0.075   0.390
  9        1.566   3.563   0.000   5.129
 10        1.566   3.563   0.000   5.129
 11        1.566   3.563   0.000   5.129
 12        1.566   3.563   0.000   5.129
 13        1.566   3.563   0.000   5.129
 14        1.566   3.563   0.000   5.129
 15        1.566   3.563   0.000   5.129
 16        1.566   3.563   0.000   5.129
------------------------------------------------
tot       13.681  29.875   0.598  44.154
 
    CHARGE:  cpu time    0.0120: real time    0.0145
    FORLOC:  cpu time    0.0040: real time    0.0015
    FORNL :  cpu time    0.0320: real time    0.0346
    STRESS:  cpu time    0.1080: real time    0.1082
    FORCOR:  cpu time    0.0120: real time    0.0106
    FORHAR:  cpu time    0.0040: real time    0.0031
    MIXING:  cpu time    0.0000: real time    0.0006
    OFIELD:  cpu time    0.0000: real time    0.0000

  FORCE on cell =-STRESS in cart. coord.  units (eV):
  Direction    XX          YY          ZZ          XY          YZ          ZX
  --------------------------------------------------------------------------------------
  Alpha Z   152.60905   152.60905   152.60905
  Ewald    -947.34483  -947.34483  -947.34483    -0.00000    -0.00000     0.00000
  Hartree   379.93232   379.93232   379.93232     0.00000     0.00000     0.00000
  E(xc)    -290.38618  -290.38618  -290.38618    -0.00086    -0.00086    -0.00086
  Local    -335.83916  -335.83916  -335.83916     0.00761     0.00761     0.00761
  n-local  -152.64792  -152.64822  -149.75240    -0.36113     0.37034    -0.36110
  augment    54.53690    54.53690    54.53690     0.00000     0.00000     0.00000
  Kinetic  1136.86378  1136.86486  1126.67100     6.98607    -6.97209     6.98695
  Fock        0.00000     0.00000     0.00000     0.00000     0.00000     0.00000
  -------------------------------------------------------------------------------------
  Total      -4.70820    -4.70820    -4.70820     0.00000    -0.00000    -0.00000
  in kB     -49.24041   -49.24041   -49.24041     0.00000    -0.00000    -0.00000
  external pressure =      -49.24 kB  Pullay stress =        0.00 kB


 VOLUME and BASIS-vectors are now :
 -----------------------------------------------------------------------------
  energy-cutoff  :      400.00
  volume of cell :      153.19
      direct lattice vectors                 reciprocal lattice vectors
     0.000000000  4.246893000  4.246893000    -0.117733129  0.117733129  0.117733129
     4.246893000  0.000000000  4.246893000     0.117733129 -0.117733129  0.117733129
     4.246893000  4.246893000  0.000000000     0.117733129  0.117733129 -0.117733129

  length of vectors
     6.006013679  6.006013679  6.006013679     0.203919761  0.203919761  0.203919761


 FORCES acting on ions
    electron-ion (+dipol)            ewald-force                    non-local-force                 convergence-correction
 -----------------------------------------------------------------------------------------------
   -.382E-14 0.722E-15 0.756E-14   -.187E-15 -.633E-15 0.471E-15   -.414E-23 -.207E-23 0.496E-23   0.387E-14 0.409E-14 -.519E-14
   -.701E-14 -.304E-14 0.373E-14   -.161E-15 -.521E-15 0.000E+00   -.165E-23 -.827E-23 -.662E-23   -.351E-14 -.437E-14 0.331E-14
   -.107E-13 0.118E-14 -.292E-15   -.265E-16 0.000E+00 -.289E-16   -.414E-23 -.149E-22 0.744E-23   0.526E-14 0.364E-14 -.431E-14
   -.125E-13 -.123E-15 -.148E-14   0.000E+00 0.569E-16 -.555E-15   0.134E-22 0.145E-23 -.620E-23   -.401E-14 -.503E-14 0.392E-14
   0.196E-12 -.102E-13 0.195E-12   0.000E+00 0.110E-15 0.666E-15   0.600E-23 -.517E-24 0.861E-23   0.309E-14 0.469E-14 -.398E-14
   -.489E-13 -.260E-13 -.327E-13   0.265E-16 0.000E+00 0.890E-15   -.165E-23 0.331E-23 -.116E-22   -.449E-14 -.353E-14 0.434E-14
   -.195E-12 0.119E-12 0.529E-13   0.161E-15 0.632E-15 0.000E+00   0.993E-23 -.331E-23 -.662E-23   0.433E-14 0.411E-14 -.385E-14
   0.232E-13 -.125E-12 -.238E-12   0.767E-16 0.439E-15 0.223E-15   0.331E-23 0.232E-22 -.496E-23   -.467E-14 -.379E-14 0.470E-14
   0.231E-12 0.171E-13 0.388E-12   -.394E-14 -.702E-16 -.567E-14   -.462E-22 -.231E-22 -.662E-23   0.663E-13 0.283E-13 -.210E-13
   0.359E-12 0.143E-12 0.411E-12   -.128E-14 -.106E-14 -.635E-14   -.401E-22 -.414E-24 -.993E-23   -.235E-13 -.534E-13 0.376E-13
   0.401E-12 -.426E-14 0.600E-12   -.211E-14 -.118E-14 0.483E-15   -.614E-22 -.283E-22 -.331E-23   0.688E-13 0.254E-13 -.102E-13
   0.487E-12 0.103E-12 0.600E-12   0.546E-15 -.216E-14 -.195E-15   0.108E-22 0.538E-22 -.364E-22   -.227E-13 -.696E-13 0.322E-13
   0.245E-11 0.205E-11 0.900E-12   -.544E-15 0.228E-14 0.473E-15   -.496E-23 -.678E-22 0.331E-22   0.602E-13 0.485E-13 -.272E-14
   0.468E-12 0.464E-12 0.517E-12   0.223E-14 0.135E-14 -.955E-15   0.165E-22 -.132E-22 0.397E-22   -.459E-13 -.541E-13 0.437E-13
   0.197E-11 0.130E-11 0.106E-11   0.139E-14 0.140E-14 0.652E-14   0.438E-22 -.389E-22 -.463E-22   0.467E-13 0.361E-13 -.683E-14
   0.382E-13 -.145E-11 0.190E-11   0.405E-14 0.383E-15 0.509E-14   -.223E-22 0.331E-22 0.132E-22   -.254E-13 -.459E-13 0.546E-13
 -----------------------------------------------------------------------------------------------
   0.635E-11 0.258E-11 0.637E-11   0.230E-15 0.103E-14 0.106E-14   -.828E-22 -.860E-22 -.315E-22   0.124E-12 -.848E-13 0.126E-12
 
 
 POSITION                                       TOTAL-FORCE (eV/Angst)
 -----------------------------------------------------------------------------------
      0.00000      0.00000      0.00000         0.000000     -0.000000     -0.000000
      2.12345      2.12345      0.00000         0.000000     -0.000000     -0.000000
      2.12345      0.00000      2.12345         0.000000      0.000000     -0.000000
      4.24689      2.12345      2.12345         0.000000      0.000000     -0.000000
      0.00000      2.12345      2.12345         0.000000     -0.000000     -0.000000
      2.12345      4.24689      2.12345         0.000000      0.000000     -0.000000
      2.12345      2.12345      4.24689        -0.000000      0.000000     -0.000000
      4.24689      4.24689      4.24689         0.000000      0.000000     -0.000000
      2.12345      2.12345      2.12345         0.000000      0.000000     -0.000000
      4.24689      4.24689      2.12345        -0.000000     -0.000000     -0.000000
      4.24689      2.12345      4.24689         0.000000      0.000000      0.000000
      6.37034      4.24689      4.24689         0.000000     -0.000000      0.000000
      2.12345      4.24689      4.24689        -0.000000      0.000000      0.000000
      4.24689      6.37034      4.24689        -0.000000     -0.000000      0.000000
      4.24689      4.24689      6.37034        -0.000000      0.000000      0.000000
      6.37034      6.37034      6.37034        -0.000000     -0.000000     -0.000000
 -----------------------------------------------------------------------------------
    total drift:                                0.000000      0.000000      0.000000


--------------------------------------------------------------------------------------------------------



  FREE ENERGIE OF THE ION-ELECTRON SYSTEM (eV)
  ---------------------------------------------------
  free  energy   TOTEN  =       -95.36395670 eV

  energy  without entropy=      -95.36395670  energy(sigma->0) =      -95.36395670
 


--------------------------------------------------------------------------------------------------------


    POTLOK:  cpu time    0.2080: real time    0.2085


--------------------------------------------------------------------------------------------------------




--------------------------------------------------------------------------------------------------------


  
 reached required accuracy - stopping structural energy minimisation
     LOOP+:  cpu time    3.7522: real time    3.8042
    4ORBIT:  cpu time    0.0000: real time    0.0000
 


 total charge     
 
# of ion     s       p       d       tot
----------------------------------------
  1        0.144   0.171   0.075   0.390
  2        0.144   0.171   0.075   0.390
  3        0.144   0.171   0.075   0.390
  4        0.144   0.171   0.075   0.390
  5        0.144   0.171   0.075   0.390
  6        0.144   0.171   0.075   0.390
  7        0.144   0.171   0.075   0.390
  8        0.144   0.171   0.075   0.390
  9        1.566   3.563   0.000   5.129
 10        1.566   3.563   0.000   5.129
 11        1.566   3.563   0.000   5.129
 12        1.566   3.563   0.000   5.129
 13        1.566   3.563   0.000   5.129
 14        1.566   3.563   0.000   5.129
 15        1.566   3.563   0.000   5.129
 16        1.566   3.563   0.000   5.129
------------------------------------------------
tot       13.681  29.875   0.598  44.154
 

 total amount of memory used by VASP on root node    33520. kBytes
========================================================================

   base      :      30000. kBytes
   nonlr-proj:       1274. kBytes
   fftplans  :        707. kBytes
   grid      :       1117. kBytes
   one-center:         32. kBytes
   wavefun   :        390. kBytes
 
  
  
 General timing and accounting informations for this job:
 ========================================================
  
                  Total CPU time used (sec):        4.480
                            User time (sec):        4.284
                          System time (sec):        0.196
                         Elapsed time (sec):        4.744
  
                   Maximum memory used (kb):       31840.
                   Average memory used (kb):           0.
  
                          Minor page faults:         8599
                          Major page faults:           10
                 Voluntary context switches:          969
