PROCAR lm decomposed + phase
# of k-points:    3         # of bands:  44         # of ions:  16

 k-point    1 :    0.00000000 0.00000000 0.00000000     weight = 0.12500000

band   1 # energy  -14.12598828 # occ.  2.00000000
 
ion      s     py     pz     px    dxy    dyz    dz2    dxz    dx2    tot
  1  0.005  0.000  0.000  0.000  0.000  0.000  0.000  0.000  0.000  0.005
  2  0.005  0.000  0.000  0.000  0.000  0.000  0.000  0.000  0.000  0.005
  3  0.005  0.000  0.000  0.000  0.000  0.000  0.000  0.000  0.000  0.005
  4  0.005  0.000  0.000  0.000  0.000  0.000  0.000  0.000  0.000  0.005
  5  0.005  0.000  0.000  0.000  0.000  0.000  0.000  0.000  0.000  0.005
  6  0.005  0.000  0.000  0.000  0.000  0.000  0.000  0.000  0.000  0.005
  7  0.005  0.000  0.000  0.000  0.000  0.000  0.000  0.000  0.000  0.005
  8  0.005  0.000  0.000  0.000  0.000  0.000  0.000  0.000  0.000  0.005
  9  0.086  0.000  0.000  0.000  0.000  0.000  0.000  0.000  0.000  0.086
 10  0.086  0.000  0.000  0.000  0.000  0.000  0.000  0.000  0.000  0.086
 11  0.086  0.000  0.000  0.000  0.000  0.000  0.000  0.000  0.000  0.086
 12  0.086  0.000  0.000  0.000  0.000  0.000  0.000  0.000  0.000  0.086
 13  0.086  0.000  0.000  0.000  0.000  0.000  0.000  0.000  0.000  0.086
 14  0.086  0.000  0.000  0.000  0.000  0.000  0.000  0.000  0.000  0.086
 15  0.086  0.000  0.000  0.000  0.000  0.000  0.000  0.000  0.000  0.086
 16  0.086  0.000  0.000  0.000  0.000  0.000  0.000  0.000  0.000  0.086
tot  0.726  0.000  0.000  0.000  0.000  0.000  0.000  0.000  0.000  0.726
ion      s     py     pz     px    dxy    dyz    dz2    dxz    dx2
  1  0.135 -0.000  0.000 -0.000  0.000  0.000  0.000  0.000 -0.000
  1 -0.138  0.000  0.000 -0.000 -0.000 -0.000 -0.000 -0.000  0.000
  2  0.135 -0.000  0.000 -0.000  0.000  0.000  0.000  0.000  0.000
  2 -0.138 -0.000  0.000  0.000 -0.000 -0.000 -0.000 -0.000  0.000
  3  0.135 -0.000 -0.000  0.000  0.000  0.000  0.000  0.000  0.000
  3 -0.138  0.000 -0.000  0.000 -0.000 -0.000 -0.000 -0.000  0.000
  4  0.135  0.000  0.000  0.000  0.000  0.000  0.000  0.000 -0.000
  4 -0.138  0.000  0.000  0.000 -0.000 -0.000 -0.000 -0.000  0.000
  5  0.135 -0.000 -0.000  0.000  0.000  0.000  0.000  0.000 -0.000
  5 -0.138 -0.000 -0.000  0.000 -0.000 -0.000 -0.000 -0.000  0.000
  6  0.135  0.000  0.000 -0.000  0.000  0.000  0.000  0.000  0.000
  6 -0.138  0.000  0.000 -0.000 -0.000 -0.000 -0.000 -0.000  0.000
  7  0.135  0.000 -0.000 -0.000  0.000  0.000  0.000  0.000  0.000
  7 -0.138  0.000  0.000 -0.000 -0.000 -0.000 -0.000 -0.000  0.000
  8  0.135  0.000 -0.000  0.000  0.000  0.000  0.000  0.000 -0.000
  8 -0.138  0.000  0.000  0.000 -0.000 -0.000 -0.000 -0.000  0.000
  9  0.354  0.000 -0.000  0.000  0.000  0.000  0.000  0.000  0.000
  9 -0.362 -0.000  0.000 -0.000  0.000  0.000  0.000  0.000  0.000
 10  0.354  0.000  0.000 -0.000  0.000  0.000  0.000  0.000  0.000
 10 -0.362  0.000  0.000 -0.000  0.000  0.000  0.000  0.000  0.000
 11  0.354  0.000  0.000  0.000  0.000  0.000  0.000  0.000  0.000
 11 -0.362 -0.000  0.000  0.000  0.000  0.000  0.000  0.000  0.000
 12  0.354 -0.000  0.000 -0.000  0.000  0.000  0.000  0.000  0.000
 12 -0.362  0.000 -0.000 -0.000  0.000  0.000  0.000  0.000  0.000
 13  0.354  0.000 -0.000  0.000  0.000  0.000  0.000  0.000  0.000
 13 -0.362 -0.000 -0.000 -0.000  0.000  0.000  0.000  0.000  0.000
 14  0.354 -0.000 -0.000 -0.000  0.000  0.000  0.000  0.000  0.000
 14 -0.362  0.000 -0.000  0.000  0.000  0.000  0.000  0.000  0.000
 15  0.354 -0.000 -0.000  0.000  0.000  0.000  0.000  0.000  0.000
 15 -0.362 -0.000  0.000  0.000  0.000  0.000  0.000  0.000  0.000
 16  0.354 -0.000  0.000  0.000  0.000  0.000  0.000  0.000  0.000
 16 -0.362 -0.000 -0.000  0.000  0.000  0.000  0.000  0.000  0.000
 
band   2 # energy  -12.90458671 # occ.  2.00000000
 
ion      s     py     pz     px    dxy    dyz    dz2    dxz    dx2    tot
  1  0.000  0.001  0.001  0.001  0.000  0.000  0.000  0.000  0.000  0.002
  2  0.000  0.001  0.001  0.001  0.000  0.000  0.000  0.000  0.000  0.002
  3  0.000  0.001  0.001  0.001  0.000  0.000  0.000  0.000  0.000  0.002
  4  0.000  0.001  0.001  0.001  0.000  0.000  0.000  0.000  0.000  0.002
  5  0.000  0.001  0.001  0.001  0.000  0.000  0.000  0.000  0.000  0.002
  6  0.000  0.001  0.001  0.001  0.000  0.000  0.000  0.000  0.000  0.002
  7  0.000  0.001  0.001  0.001  0.000  0.000  0.000  0.000  0.000  0.002
  8  0.000  0.001  0.001  0.001  0.000  0.000  0.000  0.000  0.000  0.002
  9  0.097  0.000  0.000  0.000  0.000  0.000  0.000  0.000  0.000  0.097
 10  0.097  0.000  0.000  0.000  0.000  0.000  0.000  0.000  0.000  0.097
 11  0.097  0.000  0.000  0.000  0.000  0.000  0.000  0.000  0.000  0.097
 12  0.097  0.000  0.000  0.000  0.000  0.000  0.000  0.000  0.000  0.097
 13  0.097  0.000  0.000  0.000  0.000  0.000  0.000  0.000  0.000  0.097
 14  0.097  0.000  0.000  0.000  0.000  0.000  0.000  0.000  0.000  0.097
 15  0.097  0.000  0.000  0.000  0.000  0.000  0.000  0.000  0.000  0.097
 16  0.097  0.000  0.000  0.000  0.000  0.000  0.000  0.000  0.000  0.097
tot  0.774  0.006  0.006  0.006  0.000  0.000  0.000  0.000  0.000  0.793
ion      s     py     pz     px    dxy    dyz    dz2    dxz    dx2
  1 -0.000 -0.002 -0.002 -0.002  0.000  0.000 -0.000 -0.000  0.000
  1  0.000  0.035  0.035  0.035 -0.000  0.000 -0.000  0.000 -0.000
  2 -0.000  0.002  0.002  0.002 -0.000 -0.000 -0.000 -0.000 -0.000
  2 -0.000 -0.035 -0.035 -0.035  0.000 -0.000 -0.000 -0.000  0.000
  3 -0.000  0.002  0.002  0.002 -0.000 -0.000  0.000 -0.000 -0.000
  3 -0.000 -0.035 -0.035 -0.035 -0.000 -0.000 -0.000 -0.000  0.000
  4 -0.000 -0.002 -0.002 -0.002  0.000  0.000  0.000  0.000  0.000
  4 -0.000  0.035  0.035  0.035  0.000 -0.000  0.000 -0.000 -0.000
  5 -0.000  0.002  0.002  0.002  0.000 -0.000  0.000  0.000  0.000
  5 -0.000 -0.035 -0.035 -0.035 -0.000  0.000  0.000  0.000 -0.000
  6 -0.000 -0.002 -0.002 -0.002  0.000 -0.000  0.000 -0.000 -0.000
  6 -0.000  0.035  0.035  0.035  0.000 -0.000  0.000 -0.000  0.000
  7 -0.000 -0.002 -0.002 -0.002  0.000  0.000 -0.000  0.000 -0.000
  7 -0.000  0.035  0.035  0.035 -0.000 -0.000 -0.000  0.000  0.000
  8 -0.000  0.002  0.002  0.002  0.000 -0.000 -0.000 -0.000  0.000
  8  0.000 -0.035 -0.035 -0.035  0.000 -0.000 -0.000 -0.000 -0.000
  9  0.026  0.000  0.000  0.000  0.000  0.000  0.000  0.000  0.000
  9 -0.493 -0.000 -0.000 -0.000  0.000  0.000  0.000  0.000  0.000
 10 -0.026 -0.000  0.000 -0.000  0.000  0.000  0.000  0.000  0.000
 10  0.493  0.000  0.000  0.000  0.000  0.000  0.000  0.000  0.000
 11 -0.026 -0.000 -0.000 -0.000  0.000  0.000  0.000  0.000  0.000
 11  0.493 -0.000 -0.000 -0.000  0.000  0.000  0.000  0.000  0.000
 12  0.026 -0.000  0.000  0.000  0.000  0.000  0.000  0.000  0.000
 12 -0.493  0.000 -0.000 -0.000  0.000  0.000  0.000  0.000  0.000
 13 -0.026 -0.000 -0.000 -0.000  0.000  0.000  0.000  0.000  0.000
 13  0.493 -0.000  0.000  0.000  0.000  0.000  0.000  0.000  0.000
 14  0.026  0.000 -0.000 -0.000  0.000  0.000  0.000  0.000  0.000
 14 -0.493 -0.000 -0.000  0.000  0.000  0.000  0.000  0.000  0.000
 15  0.026  0.000  0.000  0.000  0.000  0.000  0.000  0.000  0.000
 15 -0.493  0.000 -0.000  0.000  0.000  0.000  0.000  0.000  0.000
 16 -0.026 -0.000  0.000 -0.000  0.000  0.000  0.000  0.000  0.000
 16  0.493 -0.000 -0.000 -0.000  0.000  0.000  0.000  0.000  0.000
 
band   3 # energy  -12.90457744 # occ.  2.00000000
 
ion      s     py     pz     px    dxy    dyz    dz2    dxz    dx2    tot
  1  0.000  0.001  0.001  0.001  0.000  0.000  0.000  0.000  0.000  0.003
  2  0.000  0.001  0.001  0.001  0.000  0.000  0.000  0.000  0.000  0.002
  3  0.000  0.001  0.001  0.001  0.000  0.000  0.000  0.000  0.000  0.002
  4  0.000  0.001  0.001  0.001  0.000  0.000  0.000  0.000  0.000  0.002
  5  0.000  0.001  0.001  0.001  0.000  0.000  0.000  0.000  0.000  0.002
  6  0.000  0.001  0.001  0.001  0.000  0.000  0.000  0.000  0.000  0.002
  7  0.000  0.001  0.001  0.001  0.000  0.000  0.000  0.000  0.000  0.002
  8  0.000  0.001  0.001  0.001  0.000  0.000  0.000  0.000  0.000  0.003
  9  0.069  0.000  0.000  0.000  0.000  0.000  0.000  0.000  0.000  0.069
 10  0.080  0.000  0.000  0.000  0.000  0.000  0.000  0.000  0.000  0.080
 11  0.146  0.000  0.000  0.000  0.000  0.000  0.000  0.000  0.000  0.146
 12  0.091  0.000  0.000  0.000  0.000  0.000  0.000  0.000  0.000  0.091
 13  0.091  0.000  0.000  0.000  0.000  0.000  0.000  0.000  0.000  0.091
 14  0.146  0.000  0.000  0.000  0.000  0.000  0.000  0.000  0.000  0.146
 15  0.080  0.000  0.000  0.000  0.000  0.000  0.000  0.000  0.000  0.080
 16  0.069  0.000  0.000  0.000  0.000  0.000  0.000  0.000  0.000  0.069
tot  0.774  0.006  0.006  0.006  0.000  0.000  0.000  0.000  0.000  0.793
ion      s     py     pz     px    dxy    dyz    dz2    dxz    dx2
  1  0.000  0.009  0.032 -0.032  0.000  0.000  0.000  0.000 -0.000
  1  0.000 -0.043  0.002  0.012 -0.000  0.000  0.000 -0.000 -0.000
  2  0.000  0.032  0.009 -0.009  0.000 -0.000 -0.000 -0.000  0.000
  2  0.000 -0.012 -0.029  0.043  0.000 -0.000  0.000  0.000  0.000
  3  0.000  0.009  0.032 -0.032 -0.000 -0.000  0.000  0.000  0.000
  3  0.000 -0.029 -0.012 -0.002  0.000 -0.000 -0.000  0.000 -0.000
  4  0.000  0.032  0.009 -0.009  0.000  0.000  0.000 -0.000 -0.000
  4  0.000  0.002 -0.043  0.029 -0.000  0.000  0.000  0.000 -0.000
  5  0.000 -0.032 -0.009  0.009 -0.000  0.000  0.000  0.000 -0.000
  5  0.000 -0.002  0.043 -0.029  0.000  0.000  0.000 -0.000 -0.000
  6  0.000 -0.009 -0.032  0.032  0.000 -0.000  0.000 -0.000  0.000
  6  0.000  0.029  0.012  0.002 -0.000 -0.000 -0.000 -0.000 -0.000
  7  0.000 -0.032 -0.009  0.009  0.000  0.000 -0.000  0.000  0.000
  7  0.000  0.012  0.029 -0.043 -0.000 -0.000  0.000 -0.000  0.000
  8  0.000 -0.009 -0.032  0.032  0.000 -0.000  0.000 -0.000 -0.000
  8  0.000  0.043 -0.002 -0.012 -0.000  0.000  0.000  0.000 -0.000
  9  0.129  0.000  0.000 -0.000  0.000  0.000  0.000  0.000  0.000
  9 -0.398 -0.000 -0.000 -0.000  0.000  0.000  0.000  0.000  0.000
 10  0.449  0.000 -0.000  0.000  0.000  0.000  0.000  0.000  0.000
 10  0.022  0.000 -0.000  0.000  0.000  0.000  0.000  0.000  0.000
 11  0.126  0.000  0.000  0.000  0.000  0.000  0.000  0.000  0.000
 11 -0.593 -0.000  0.000  0.000  0.000  0.000  0.000  0.000  0.000
 12  0.447 -0.000 -0.000  0.000  0.000  0.000  0.000  0.000  0.000
 12 -0.173  0.000  0.000 -0.000  0.000  0.000  0.000  0.000  0.000
 13 -0.447 -0.000 -0.000 -0.000  0.000  0.000  0.000  0.000  0.000
 13  0.173  0.000  0.000 -0.000  0.000  0.000  0.000  0.000  0.000
 14 -0.126  0.000 -0.000 -0.000  0.000  0.000  0.000  0.000  0.000
 14  0.593 -0.000  0.000 -0.000  0.000  0.000  0.000  0.000  0.000
 15 -0.449 -0.000  0.000  0.000  0.000  0.000  0.000  0.000  0.000
 15 -0.022 -0.000 -0.000 -0.000  0.000  0.000  0.000  0.000  0.000
 16 -0.129  0.000  0.000  0.000  0.000  0.000  0.000  0.000  0.000
 16  0.398  0.000 -0.000  0.000  0.000  0.000  0.000  0.000  0.000
 
band   4 # energy  -12.90457744 # occ.  2.00000000
 
ion      s     py     pz     px    dxy    dyz    dz2    dxz    dx2    tot
  1  0.000  0.000  0.001  0.000  0.000  0.000  0.000  0.000  0.000  0.002
  2  0.000  0.000  0.001  0.000  0.000  0.000  0.000  0.000  0.000  0.002
  3  0.000  0.001  0.000  0.001  0.000  0.000  0.000  0.000  0.000  0.003
  4  0.000  0.001  0.000  0.001  0.000  0.000  0.000  0.000  0.000  0.003
  5  0.000  0.001  0.000  0.001  0.000  0.000  0.000  0.000  0.000  0.003
  6  0.000  0.001  0.000  0.001  0.000  0.000  0.000  0.000  0.000  0.003
  7  0.000  0.000  0.001  0.000  0.000  0.000  0.000  0.000  0.000  0.002
  8  0.000  0.000  0.001  0.000  0.000  0.000  0.000  0.000  0.000  0.002
  9  0.154  0.000  0.000  0.000  0.000  0.000  0.000  0.000  0.000  0.154
 10  0.155  0.000  0.000  0.000  0.000  0.000  0.000  0.000  0.000  0.155
 11  0.052  0.000  0.000  0.000  0.000  0.000  0.000  0.000  0.000  0.052
 12  0.026  0.000  0.000  0.000  0.000  0.000  0.000  0.000  0.000  0.026
 13  0.026  0.000  0.000  0.000  0.000  0.000  0.000  0.000  0.000  0.026
 14  0.052  0.000  0.000  0.000  0.000  0.000  0.000  0.000  0.000  0.052
 15  0.155  0.000  0.000  0.000  0.000  0.000  0.000  0.000  0.000  0.155
 16  0.154  0.000  0.000  0.000  0.000  0.000  0.000  0.000  0.000  0.154
tot  0.774  0.006  0.006  0.006  0.000  0.000  0.000  0.000  0.000  0.793
ion      s     py     pz     px    dxy    dyz    dz2    dxz    dx2
  1  0.000  0.023 -0.045 -0.016  0.000  0.000 -0.000  0.000  0.000
  1  0.000 -0.011 -0.004 -0.009 -0.000 -0.000 -0.000 -0.000 -0.000
  2  0.000  0.016 -0.038 -0.023  0.000 -0.000  0.000 -0.000 -0.000
  2 -0.000  0.009 -0.024  0.011 -0.000  0.000 -0.000  0.000 -0.000
  3  0.000 -0.038  0.016  0.045 -0.000 -0.000  0.000  0.000 -0.000
  3  0.000 -0.024  0.009  0.004  0.000  0.000  0.000 -0.000 -0.000
  4  0.000 -0.045  0.023  0.038  0.000  0.000  0.000 -0.000  0.000
  4 -0.000 -0.004 -0.011  0.024  0.000 -0.000  0.000 -0.000 -0.000
  5  0.000  0.045 -0.023 -0.038 -0.000  0.000 -0.000 -0.000  0.000
  5  0.000  0.004  0.011 -0.024 -0.000 -0.000 -0.000  0.000 -0.000
  6  0.000  0.038 -0.016 -0.045  0.000 -0.000  0.000  0.000 -0.000
  6  0.000  0.024 -0.009 -0.004 -0.000  0.000  0.000  0.000  0.000
  7  0.000 -0.016  0.038  0.023  0.000 -0.000  0.000 -0.000 -0.000
  7 -0.000 -0.009  0.024 -0.011  0.000  0.000 -0.000 -0.000 -0.000
  8  0.000 -0.023  0.045  0.016  0.000  0.000  0.000  0.000  0.000
  8 -0.000  0.011  0.004  0.009  0.000 -0.000 -0.000 -0.000  0.000
  9 -0.523 -0.000  0.000 -0.000  0.000  0.000  0.000  0.000  0.000
  9 -0.337  0.000 -0.000  0.000  0.000  0.000  0.000  0.000  0.000
 10 -0.622 -0.000 -0.000  0.000  0.000  0.000  0.000  0.000  0.000
 10 -0.062 -0.000 -0.000 -0.000  0.000  0.000  0.000  0.000  0.000
 11  0.326 -0.000 -0.000  0.000  0.000  0.000  0.000  0.000  0.000
 11 -0.156 -0.000 -0.000  0.000  0.000  0.000  0.000  0.000  0.000
 12  0.227 -0.000 -0.000  0.000  0.000  0.000  0.000  0.000  0.000
 12  0.118 -0.000  0.000  0.000  0.000  0.000  0.000  0.000  0.000
 13 -0.227  0.000  0.000 -0.000  0.000  0.000  0.000  0.000  0.000
 13 -0.118  0.000 -0.000  0.000  0.000  0.000  0.000  0.000  0.000
 14 -0.326  0.000 -0.000  0.000  0.000  0.000  0.000  0.000  0.000
 14  0.156  0.000  0.000 -0.000  0.000  0.000  0.000  0.000  0.000
 15  0.622  0.000  0.000 -0.000  0.000  0.000  0.000  0.000  0.000
 15  0.062  0.000  0.000  0.000  0.000  0.000  0.000  0.000  0.000
 16  0.523  0.000  0.000 -0.000  0.000  0.000  0.000  0.000  0.000
 16  0.337 -0.000  0.000 -0.000  0.000  0.000  0.000  0.000  0.000
 
band   5 # energy  -12.90457744 # occ.  2.00000000
 
ion      s     py     pz     px    dxy    dyz    dz2    dxz    dx2    tot
  1  0.000  0.001  0.000  0.001  0.000  0.000  0.000  0.000  0.000  0.003
  2  0.000  0.001  0.001  0.001  0.000  0.000  0.000  0.000  0.000  0.003
  3  0.000  0.001  0.001  0.000  0.000  0.000  0.000  0.000  0.000  0.002
  4  0.000  0.000  0.001  0.001  0.000  0.000  0.000  0.000  0.000  0.002
  5  0.000  0.000  0.001  0.001  0.000  0.000  0.000  0.000  0.000  0.002
  6  0.000  0.001  0.001  0.000  0.000  0.000  0.000  0.000  0.000  0.002
  7  0.000  0.001  0.001  0.001  0.000  0.000  0.000  0.000  0.000  0.003
  8  0.000  0.001  0.000  0.001  0.000  0.000  0.000  0.000  0.000  0.003
  9  0.067  0.000  0.000  0.000  0.000  0.000  0.000  0.000  0.000  0.067
 10  0.055  0.000  0.000  0.000  0.000  0.000  0.000  0.000  0.000  0.055
 11  0.093  0.000  0.000  0.000  0.000  0.000  0.000  0.000  0.000  0.093
 12  0.173  0.000  0.000  0.000  0.000  0.000  0.000  0.000  0.000  0.173
 13  0.173  0.000  0.000  0.000  0.000  0.000  0.000  0.000  0.000  0.173
 14  0.093  0.000  0.000  0.000  0.000  0.000  0.000  0.000  0.000  0.093
 15  0.055  0.000  0.000  0.000  0.000  0.000  0.000  0.000  0.000  0.055
 16  0.067  0.000  0.000  0.000  0.000  0.000  0.000  0.000  0.000  0.067
tot  0.774  0.006  0.006  0.006  0.000  0.000  0.000  0.000  0.000  0.793
ion      s     py     pz     px    dxy    dyz    dz2    dxz    dx2
  1 -0.000  0.033 -0.006 -0.019  0.000  0.000  0.000  0.000  0.000
  1 -0.000  0.011 -0.026  0.043 -0.000  0.000 -0.000 -0.000 -0.000
  2  0.000  0.019  0.008 -0.033  0.000 -0.000  0.000 -0.000 -0.000
  2  0.000 -0.043  0.029 -0.011 -0.000 -0.000 -0.000  0.000  0.000
  3 -0.000  0.008  0.019  0.006 -0.000 -0.000  0.000  0.000 -0.000
  3 -0.000  0.029 -0.043  0.026 -0.000 -0.000 -0.000 -0.000 -0.000
  4 -0.000 -0.006  0.033 -0.008 -0.000 -0.000 -0.000  0.000  0.000
  4 -0.000 -0.026  0.011 -0.029  0.000  0.000  0.000  0.000  0.000
  5 -0.000  0.006 -0.033  0.008  0.000  0.000  0.000 -0.000  0.000
  5 -0.000  0.026 -0.011  0.029  0.000  0.000  0.000  0.000  0.000
  6 -0.000 -0.008 -0.019 -0.006  0.000  0.000  0.000 -0.000 -0.000
  6 -0.000 -0.029  0.043 -0.026  0.000 -0.000  0.000 -0.000 -0.000
  7  0.000 -0.019 -0.008  0.033 -0.000 -0.000  0.000  0.000 -0.000
  7 -0.000  0.043 -0.029  0.011 -0.000 -0.000  0.000  0.000  0.000
  8 -0.000 -0.033  0.006  0.019 -0.000 -0.000  0.000  0.000  0.000
  8 -0.000 -0.011  0.026 -0.043  0.000 -0.000 -0.000 -0.000 -0.000
  9  0.105  0.000  0.000 -0.000  0.000  0.000  0.000  0.000  0.000
  9  0.397 -0.000 -0.000 -0.000  0.000  0.000  0.000  0.000  0.000
 10 -0.084  0.000 -0.000 -0.000  0.000  0.000  0.000  0.000  0.000
 10 -0.361  0.000  0.000  0.000  0.000  0.000  0.000  0.000  0.000
 11  0.457 -0.000 -0.000  0.000  0.000  0.000  0.000  0.000  0.000
 11  0.155 -0.000 -0.000  0.000  0.000  0.000  0.000  0.000  0.000
 12  0.268 -0.000  0.000  0.000  0.000  0.000  0.000  0.000  0.000
 12 -0.603  0.000 -0.000 -0.000  0.000  0.000  0.000  0.000  0.000
 13 -0.268 -0.000 -0.000 -0.000  0.000  0.000  0.000  0.000  0.000
 13  0.603  0.000 -0.000 -0.000  0.000  0.000  0.000  0.000  0.000
 14 -0.457  0.000 -0.000  0.000  0.000  0.000  0.000  0.000  0.000
 14 -0.155 -0.000 -0.000 -0.000  0.000  0.000  0.000  0.000  0.000
 15  0.084  0.000  0.000  0.000  0.000  0.000  0.000  0.000  0.000
 15  0.361  0.000  0.000  0.000  0.000  0.000  0.000  0.000  0.000
 16 -0.105 -0.000  0.000 -0.000  0.000  0.000  0.000  0.000  0.000
 16 -0.397 -0.000  0.000 -0.000  0.000  0.000  0.000  0.000  0.000
 
band   6 # energy  -12.65490713 # occ.  2.00000000
 
ion      s     py     pz     px    dxy    dyz    dz2    dxz    dx2    tot
  1  0.001  0.000  0.000  0.000  0.000  0.000  0.000  0.000  0.001  0.002
  2  0.001  0.000  0.000  0.000  0.000  0.000  0.000  0.000  0.001  0.002
  3  0.001  0.000  0.000  0.000  0.000  0.000  0.000  0.000  0.001  0.002
  4  0.001  0.000  0.000  0.000  0.000  0.000  0.000  0.000  0.001  0.002
  5  0.001  0.000  0.000  0.000  0.000  0.000  0.000  0.000  0.001  0.002
  6  0.001  0.000  0.000  0.000  0.000  0.000  0.000  0.000  0.001  0.002
  7  0.001  0.000  0.000  0.000  0.000  0.000  0.000  0.000  0.001  0.002
  8  0.001  0.000  0.000  0.000  0.000  0.000  0.000  0.000  0.001  0.002
  9  0.100  0.000  0.000  0.000  0.000  0.000  0.000  0.000  0.000  0.100
 10  0.100  0.000  0.000  0.000  0.000  0.000  0.000  0.000  0.000  0.100
 11  0.100  0.000  0.000  0.000  0.000  0.000  0.000  0.000  0.000  0.100
 12  0.100  0.000  0.000  0.000  0.000  0.000  0.000  0.000  0.000  0.100
 13  0.100  0.000  0.000  0.000  0.000  0.000  0.000  0.000  0.000  0.100
 14  0.100  0.000  0.000  0.000  0.000  0.000  0.000  0.000  0.000  0.100
 15  0.100  0.000  0.000  0.000  0.000  0.000  0.000  0.000  0.000  0.100
 16  0.100  0.000  0.000  0.000  0.000  0.000  0.000  0.000  0.000  0.100
tot  0.802  0.000  0.000  0.000  0.000  0.000  0.002  0.000  0.006  0.810
ion      s     py     pz     px    dxy    dyz    dz2    dxz    dx2
  1 -0.032  0.000 -0.000 -0.000 -0.000 -0.000 -0.011 -0.000  0.018
  1  0.058  0.000 -0.000  0.000  0.000  0.000  0.019  0.000 -0.033
  2  0.032 -0.000 -0.000  0.000  0.000  0.000  0.011  0.000 -0.018
  2 -0.058 -0.000 -0.000  0.000 -0.000 -0.000 -0.019 -0.000  0.033
  3  0.032 -0.000 -0.000  0.000  0.000  0.000  0.011  0.000 -0.018
  3 -0.058 -0.000  0.000 -0.000 -0.000 -0.000 -0.019 -0.000  0.033
  4 -0.032 -0.000  0.000 -0.000 -0.000 -0.000 -0.011 -0.000  0.018
  4  0.058  0.000  0.000 -0.000  0.000  0.000  0.019  0.000 -0.033
  5 -0.032 -0.000  0.000 -0.000 -0.000 -0.000 -0.011 -0.000  0.018
  5  0.058  0.000  0.000 -0.000  0.000  0.000  0.019  0.000 -0.033
  6  0.032 -0.000  0.000 -0.000  0.000  0.000  0.011  0.000 -0.018
  6 -0.058 -0.000  0.000 -0.000 -0.000 -0.000 -0.019 -0.000  0.033
  7  0.032 -0.000 -0.000  0.000  0.000  0.000  0.011  0.000 -0.018
  7 -0.058 -0.000 -0.000  0.000 -0.000 -0.000 -0.019 -0.000  0.033
  8 -0.032  0.000 -0.000 -0.000 -0.000 -0.000 -0.011 -0.000  0.018
  8  0.058 -0.000 -0.000 -0.000  0.000  0.000  0.019  0.000 -0.033
  9  0.239 -0.000  0.000 -0.000  0.000  0.000  0.000  0.000  0.000
  9 -0.430 -0.000 -0.000  0.000  0.000  0.000  0.000  0.000  0.000
 10 -0.239  0.000  0.000  0.000  0.000  0.000  0.000  0.000  0.000
 10  0.430  0.000 -0.000  0.000  0.000  0.000  0.000  0.000  0.000
 11 -0.239  0.000  0.000 -0.000  0.000  0.000  0.000  0.000  0.000
 11  0.430 -0.000 -0.000  0.000  0.000  0.000  0.000  0.000  0.000
 12  0.239  0.000 -0.000 -0.000  0.000  0.000  0.000  0.000  0.000
 12 -0.430 -0.000 -0.000  0.000  0.000  0.000  0.000  0.000  0.000
 13  0.239 -0.000 -0.000  0.000  0.000  0.000  0.000  0.000  0.000
 13 -0.430  0.000  0.000 -0.000  0.000  0.000  0.000  0.000  0.000
 14 -0.239  0.000 -0.000  0.000  0.000  0.000  0.000  0.000  0.000
 14  0.430  0.000  0.000 -0.000  0.000  0.000  0.000  0.000  0.000
 15 -0.239 -0.000  0.000 -0.000  0.000  0.000  0.000  0.000  0.000
 15  0.430  0.000  0.000 -0.000  0.000  0.000  0.000  0.000  0.000
 16  0.239 -0.000 -0.000  0.000  0.000  0.000  0.000  0.000  0.000
 16 -0.430  0.000  0.000 -0.000  0.000  0.000  0.000  0.000  0.000
 
band   7 # energy  -12.65490713 # occ.  2.00000000
 
ion      s     py     pz     px    dxy    dyz    dz2    dxz    dx2    tot
  1  0.001  0.000  0.000  0.000  0.000  0.000  0.000  0.000  0.001  0.002
  2  0.001  0.000  0.000  0.000  0.000  0.000  0.000  0.000  0.001  0.002
  3  0.001  0.000  0.000  0.000  0.000  0.000  0.000  0.000  0.001  0.002
  4  0.001  0.000  0.000  0.000  0.000  0.000  0.000  0.000  0.001  0.002
  5  0.001  0.000  0.000  0.000  0.000  0.000  0.000  0.000  0.001  0.002
  6  0.001  0.000  0.000  0.000  0.000  0.000  0.000  0.000  0.001  0.002
  7  0.001  0.000  0.000  0.000  0.000  0.000  0.000  0.000  0.001  0.002
  8  0.001  0.000  0.000  0.000  0.000  0.000  0.000  0.000  0.001  0.002
  9  0.100  0.000  0.000  0.000  0.000  0.000  0.000  0.000  0.000  0.100
 10  0.100  0.000  0.000  0.000  0.000  0.000  0.000  0.000  0.000  0.100
 11  0.100  0.000  0.000  0.000  0.000  0.000  0.000  0.000  0.000  0.100
 12  0.100  0.000  0.000  0.000  0.000  0.000  0.000  0.000  0.000  0.100
 13  0.100  0.000  0.000  0.000  0.000  0.000  0.000  0.000  0.000  0.100
 14  0.100  0.000  0.000  0.000  0.000  0.000  0.000  0.000  0.000  0.100
 15  0.100  0.000  0.000  0.000  0.000  0.000  0.000  0.000  0.000  0.100
 16  0.100  0.000  0.000  0.000  0.000  0.000  0.000  0.000  0.000  0.100
tot  0.802  0.000  0.000  0.000  0.000  0.000  0.002  0.000  0.006  0.810
ion      s     py     pz     px    dxy    dyz    dz2    dxz    dx2
  1 -0.066 -0.000  0.000 -0.000 -0.000 -0.000 -0.022 -0.000 -0.038
  1 -0.004  0.000 -0.000  0.000 -0.000 -0.000 -0.001 -0.000 -0.002
  2  0.066  0.000  0.000  0.000  0.000  0.000  0.022  0.000  0.038
  2  0.004  0.000 -0.000  0.000  0.000  0.000  0.001  0.000  0.002
  3 -0.066 -0.000 -0.000  0.000 -0.000 -0.000 -0.022 -0.000 -0.038
  3 -0.004 -0.000  0.000 -0.000 -0.000 -0.000 -0.001 -0.000 -0.002
  4  0.066  0.000  0.000 -0.000  0.000  0.000  0.022  0.000  0.038
  4  0.004  0.000  0.000  0.000  0.000  0.000  0.001  0.000  0.002
  5  0.066 -0.000 -0.000  0.000  0.000  0.000  0.022  0.000  0.038
  5  0.004  0.000  0.000  0.000  0.000  0.000  0.001  0.000  0.002
  6 -0.066 -0.000 -0.000 -0.000 -0.000 -0.000 -0.022 -0.000 -0.038
  6 -0.004 -0.000  0.000 -0.000 -0.000 -0.000 -0.001 -0.000 -0.002
  7  0.066  0.000  0.000  0.000  0.000  0.000  0.022  0.000  0.038
  7  0.004  0.000 -0.000 -0.000  0.000  0.000  0.001  0.000  0.002
  8 -0.066  0.000  0.000  0.000 -0.000 -0.000 -0.022 -0.000 -0.038
  8 -0.004 -0.000 -0.000  0.000 -0.000 -0.000 -0.001 -0.000 -0.002
  9  0.491  0.000  0.000 -0.000  0.000  0.000  0.000  0.000  0.000
  9  0.032 -0.000  0.000 -0.000  0.000  0.000  0.000  0.000  0.000
 10 -0.491  0.000  0.000 -0.000  0.000  0.000  0.000  0.000  0.000
 10 -0.032  0.000  0.000  0.000  0.000  0.000  0.000  0.000  0.000
 11  0.491  0.000  0.000 -0.000  0.000  0.000  0.000  0.000  0.000
 11  0.032  0.000  0.000 -0.000  0.000  0.000  0.000  0.000  0.000
 12 -0.491  0.000 -0.000 -0.000  0.000  0.000  0.000  0.000  0.000
 12 -0.032  0.000 -0.000  0.000  0.000  0.000  0.000  0.000  0.000
 13 -0.491 -0.000 -0.000  0.000  0.000  0.000  0.000  0.000  0.000
 13 -0.032 -0.000  0.000  0.000  0.000  0.000  0.000  0.000  0.000
 14  0.491 -0.000  0.000  0.000  0.000  0.000  0.000  0.000  0.000
 14  0.032  0.000 -0.000  0.000  0.000  0.000  0.000  0.000  0.000
 15 -0.491 -0.000 -0.000  0.000  0.000  0.000  0.000  0.000  0.000
 15 -0.032 -0.000  0.000 -0.000  0.000  0.000  0.000  0.000  0.000
 16  0.491 -0.000 -0.000  0.000  0.000  0.000  0.000  0.000  0.000
 16  0.032  0.000 -0.000  0.000  0.000  0.000  0.000  0.000  0.000
 
band   8 # energy  -12.65490712 # occ.  2.00000000
 
ion      s     py     pz     px    dxy    dyz    dz2    dxz    dx2    tot
  1  0.001  0.000  0.000  0.000  0.000  0.000  0.001  0.000  0.000  0.002
  2  0.001  0.000  0.000  0.000  0.000  0.000  0.001  0.000  0.000  0.002
  3  0.001  0.000  0.000  0.000  0.000  0.000  0.001  0.000  0.000  0.002
  4  0.001  0.000  0.000  0.000  0.000  0.000  0.001  0.000  0.000  0.002
  5  0.001  0.000  0.000  0.000  0.000  0.000  0.001  0.000  0.000  0.002
  6  0.001  0.000  0.000  0.000  0.000  0.000  0.001  0.000  0.000  0.002
  7  0.001  0.000  0.000  0.000  0.000  0.000  0.001  0.000  0.000  0.002
  8  0.001  0.000  0.000  0.000  0.000  0.000  0.001  0.000  0.000  0.002
  9  0.100  0.000  0.000  0.000  0.000  0.000  0.000  0.000  0.000  0.100
 10  0.100  0.000  0.000  0.000  0.000  0.000  0.000  0.000  0.000  0.100
 11  0.100  0.000  0.000  0.000  0.000  0.000  0.000  0.000  0.000  0.100
 12  0.100  0.000  0.000  0.000  0.000  0.000  0.000  0.000  0.000  0.100
 13  0.100  0.000  0.000  0.000  0.000  0.000  0.000  0.000  0.000  0.100
 14  0.100  0.000  0.000  0.000  0.000  0.000  0.000  0.000  0.000  0.100
 15  0.100  0.000  0.000  0.000  0.000  0.000  0.000  0.000  0.000  0.100
 16  0.100  0.000  0.000  0.000  0.000  0.000  0.000  0.000  0.000  0.100
tot  0.802  0.000  0.000  0.000  0.000  0.000  0.008  0.000  0.000  0.810
ion      s     py     pz     px    dxy    dyz    dz2    dxz    dx2
  1 -0.050 -0.000 -0.000  0.000 -0.000 -0.000  0.033 -0.000  0.000
  1  0.044 -0.000  0.000 -0.000  0.000  0.000 -0.029  0.000 -0.000
  2 -0.050 -0.000 -0.000 -0.000 -0.000 -0.000  0.033 -0.000 -0.000
  2  0.044  0.000  0.000 -0.000  0.000  0.000 -0.029  0.000  0.000
  3  0.050  0.000  0.000 -0.000  0.000  0.000 -0.033  0.000  0.000
  3 -0.044  0.000 -0.000  0.000 -0.000 -0.000  0.029 -0.000 -0.000
  4  0.050 -0.000 -0.000  0.000  0.000  0.000 -0.033  0.000 -0.000
  4 -0.044 -0.000 -0.000 -0.000 -0.000 -0.000  0.029 -0.000  0.000
  5  0.050  0.000  0.000 -0.000  0.000  0.000 -0.033  0.000 -0.000
  5 -0.044 -0.000 -0.000 -0.000 -0.000 -0.000  0.029 -0.000  0.000
  6  0.050  0.000 -0.000  0.000  0.000  0.000 -0.033  0.000  0.000
  6 -0.044  0.000 -0.000  0.000 -0.000 -0.000  0.029 -0.000 -0.000
  7 -0.050 -0.000 -0.000 -0.000 -0.000 -0.000  0.033 -0.000 -0.000
  7  0.044  0.000  0.000  0.000  0.000  0.000 -0.029  0.000  0.000
  8 -0.050 -0.000 -0.000  0.000 -0.000 -0.000  0.033 -0.000  0.000
  8  0.044 -0.000  0.000 -0.000  0.000  0.000 -0.029  0.000 -0.000
  9  0.369 -0.000 -0.000  0.000  0.000  0.000  0.000  0.000  0.000
  9 -0.326  0.000  0.000 -0.000  0.000  0.000  0.000  0.000  0.000
 10  0.369 -0.000 -0.000  0.000  0.000  0.000  0.000  0.000  0.000
 10 -0.326  0.000 -0.000 -0.000  0.000  0.000  0.000  0.000  0.000
 11 -0.369 -0.000 -0.000  0.000  0.000  0.000  0.000  0.000  0.000
 11  0.326 -0.000  0.000 -0.000  0.000  0.000  0.000  0.000  0.000
 12 -0.369 -0.000 -0.000  0.000  0.000  0.000  0.000  0.000  0.000
 12  0.326  0.000  0.000 -0.000  0.000  0.000  0.000  0.000  0.000
 13 -0.369  0.000  0.000 -0.000  0.000  0.000  0.000  0.000  0.000
 13  0.326  0.000 -0.000 -0.000  0.000  0.000  0.000  0.000  0.000
 14 -0.369  0.000  0.000 -0.000  0.000  0.000  0.000  0.000  0.000
 14  0.326 -0.000 -0.000  0.000  0.000  0.000  0.000  0.000  0.000
 15  0.369  0.000  0.000 -0.000  0.000  0.000  0.000  0.000  0.000
 15 -0.326 -0.000 -0.000  0.000  0.000  0.000  0.000  0.000  0.000
 16  0.369  0.000  0.000 -0.000  0.000  0.000  0.000  0.000  0.000
 16 -0.326 -0.000  0.000  0.000  0.000  0.000  0.000  0.000  0.000
 
band   9 # energy   -1.50243592 # occ.  2.00000000
 
ion      s     py     pz     px    dxy    dyz    dz2    dxz    dx2    tot
  1  0.013  0.000  0.000  0.000  0.000  0.000  0.000  0.000  0.000  0.014
  2  0.013  0.000  0.000  0.000  0.000  0.000  0.000  0.000  0.000  0.014
  3  0.013  0.000  0.000  0.000  0.000  0.000  0.000  0.000  0.000  0.014
  4  0.013  0.000  0.000  0.000  0.000  0.000  0.000  0.000  0.000  0.014
  5  0.013  0.000  0.000  0.000  0.000  0.000  0.000  0.000  0.000  0.014
  6  0.013  0.000  0.000  0.000  0.000  0.000  0.000  0.000  0.000  0.014
  7  0.013  0.000  0.000  0.000  0.000  0.000  0.000  0.000  0.000  0.014
  8  0.013  0.000  0.000  0.000  0.000  0.000  0.000  0.000  0.000  0.014
  9  0.000  0.018  0.018  0.018  0.000  0.000  0.000  0.000  0.000  0.053
 10  0.000  0.018  0.018  0.018  0.000  0.000  0.000  0.000  0.000  0.053
 11  0.000  0.018  0.018  0.018  0.000  0.000  0.000  0.000  0.000  0.053
 12  0.000  0.018  0.018  0.018  0.000  0.000  0.000  0.000  0.000  0.053