PROCAR lm decomposed + phase
# of k-points:    2         # of bands:  44         # of ions:  16

 k-point    1 :    0.25000000 0.25000000 0.25000000     weight = 0.25000000

band   1 # energy  -13.98330450 # occ.  2.00000000
 
ion      s     py     pz     px    dxy    dyz    dz2    dxz    dx2    tot
  1  0.005  0.000  0.000  0.000  0.000  0.000  0.000  0.000  0.000  0.005
  2  0.005  0.000  0.000  0.000  0.000  0.000  0.000  0.000  0.000  0.005
  3  0.005  0.000  0.000  0.000  0.000  0.000  0.000  0.000  0.000  0.005
  4  0.005  0.000  0.000  0.000  0.000  0.000  0.000  0.000  0.000  0.005
  5  0.005  0.000  0.000  0.000  0.000  0.000  0.000  0.000  0.000  0.005
  6  0.005  0.000  0.000  0.000  0.000  0.000  0.000  0.000  0.000  0.005
  7  0.005  0.000  0.000  0.000  0.000  0.000  0.000  0.000  0.000  0.005
  8  0.005  0.000  0.000  0.000  0.000  0.000  0.000  0.000  0.000  0.005
  9  0.087  0.000  0.000  0.000  0.000  0.000  0.000  0.000  0.000  0.087
 10  0.087  0.000  0.000  0.000  0.000  0.000  0.000  0.000  0.000  0.087
 11  0.087  0.000  0.000  0.000  0.000  0.000  0.000  0.000  0.000  0.087
 12  0.087  0.000  0.000  0.000  0.000  0.000  0.000  0.000  0.000  0.087
 13  0.087  0.000  0.000  0.000  0.000  0.000  0.000  0.000  0.000  0.087
 14  0.087  0.000  0.000  0.000  0.000  0.000  0.000  0.000  0.000  0.087
 15  0.087  0.000  0.000  0.000  0.000  0.000  0.000  0.000  0.000  0.087
 16  0.087  0.000  0.000  0.000  0.000  0.000  0.000  0.000  0.000  0.087
tot  0.731  0.001  0.001  0.001  0.000  0.000  0.000  0.000  0.000  0.734
ion      s     py     pz     px    dxy    dyz    dz2    dxz    dx2
  1  0.139 -0.008 -0.008 -0.008 -0.000 -0.000  0.000 -0.000 -0.000
  1  0.117  0.010  0.010  0.010 -0.000 -0.000  0.000 -0.000 -0.000
  2  0.139 -0.008 -0.008 -0.008 -0.000 -0.000  0.000 -0.000 -0.000
  2  0.117  0.010  0.010  0.010 -0.000 -0.000  0.000 -0.000 -0.000
  3  0.139 -0.008 -0.008 -0.008 -0.000 -0.000  0.000 -0.000 -0.000
  3  0.117  0.010  0.010  0.010 -0.000 -0.000  0.000 -0.000 -0.000
  4  0.139 -0.008 -0.008 -0.008 -0.000 -0.000  0.000 -0.000 -0.000
  4  0.117  0.010  0.010  0.010 -0.000 -0.000  0.000 -0.000 -0.000
  5  0.139 -0.008 -0.008 -0.008 -0.000 -0.000  0.000 -0.000 -0.000
  5  0.117  0.010  0.010  0.010 -0.000 -0.000  0.000 -0.000 -0.000
  6  0.139 -0.008 -0.008 -0.008 -0.000 -0.000  0.000 -0.000 -0.000
  6  0.117  0.010  0.010  0.010 -0.000 -0.000  0.000 -0.000 -0.000
  7  0.139 -0.008 -0.008 -0.008 -0.000 -0.000  0.000 -0.000 -0.000
  7  0.117  0.010  0.010  0.010 -0.000 -0.000  0.000 -0.000 -0.000
  8  0.139 -0.008 -0.008 -0.008 -0.000 -0.000  0.000 -0.000 -0.000
  8  0.117  0.010  0.010  0.010 -0.000 -0.000  0.000 -0.000 -0.000
  9  0.386 -0.006 -0.006 -0.006  0.000  0.000  0.000  0.000  0.000
  9  0.323  0.008  0.008  0.008  0.000  0.000  0.000  0.000  0.000
 10  0.386 -0.006 -0.006 -0.006  0.000  0.000  0.000  0.000  0.000
 10  0.323  0.008  0.008  0.008  0.000  0.000  0.000  0.000  0.000
 11  0.386 -0.006 -0.006 -0.006  0.000  0.000  0.000  0.000  0.000
 11  0.323  0.008  0.008  0.008  0.000  0.000  0.000  0.000  0.000
 12  0.386 -0.006 -0.006 -0.006  0.000  0.000  0.000  0.000  0.000
 12  0.323  0.008  0.008  0.008  0.000  0.000  0.000  0.000  0.000
 13  0.386 -0.006 -0.006 -0.006  0.000  0.000  0.000  0.000  0.000
 13  0.323  0.008  0.008  0.008  0.000  0.000  0.000  0.000  0.000
 14  0.386 -0.006 -0.006 -0.006  0.000  0.000  0.000  0.000  0.000
 14  0.323  0.008  0.008  0.008  0.000  0.000  0.000  0.000  0.000
 15  0.386 -0.006 -0.006 -0.006  0.000  0.000  0.000  0.000  0.000
 15  0.323  0.008  0.008  0.008  0.000  0.000  0.000  0.000  0.000
 16  0.386 -0.006 -0.006 -0.006  0.000  0.000  0.000  0.000  0.000
 16  0.323  0.008  0.008  0.008  0.000  0.000  0.000  0.000  0.000
 
band   2 # energy  -13.12732967 # occ.  2.00000000
 
ion      s     py     pz     px    dxy    dyz    dz2    dxz    dx2    tot
  1  0.001  0.001  0.001  0.001  0.000  0.000  0.000  0.000  0.000  0.003
  2  0.001  0.001  0.001  0.001  0.000  0.000  0.000  0.000  0.000  0.003
  3  0.001  0.001  0.001  0.001  0.000  0.000  0.000  0.000  0.000  0.003
  4  0.001  0.001  0.001  0.001  0.000  0.000  0.000  0.000  0.000  0.003
  5  0.001  0.001  0.001  0.001  0.000  0.000  0.000  0.000  0.000  0.003
  6  0.001  0.001  0.001  0.001  0.000  0.000  0.000  0.000  0.000  0.003
  7  0.001  0.001  0.001  0.001  0.000  0.000  0.000  0.000  0.000  0.003
  8  0.001  0.001  0.001  0.001  0.000  0.000  0.000  0.000  0.000  0.003
  9  0.094  0.000  0.000  0.000  0.000  0.000  0.000  0.000  0.000  0.094
 10  0.094  0.000  0.000  0.000  0.000  0.000  0.000  0.000  0.000  0.094
 11  0.094  0.000  0.000  0.000  0.000  0.000  0.000  0.000  0.000  0.094
 12  0.094  0.000  0.000  0.000  0.000  0.000  0.000  0.000  0.000  0.094
 13  0.094  0.000  0.000  0.000  0.000  0.000  0.000  0.000  0.000  0.094
 14  0.094  0.000  0.000  0.000  0.000  0.000  0.000  0.000  0.000  0.094
 15  0.094  0.000  0.000  0.000  0.000  0.000  0.000  0.000  0.000  0.094
 16  0.094  0.000  0.000  0.000  0.000  0.000  0.000  0.000  0.000  0.094
tot  0.762  0.005  0.005  0.005  0.000  0.000  0.000  0.000  0.000  0.778
ion      s     py     pz     px    dxy    dyz    dz2    dxz    dx2
  1 -0.030  0.030  0.030  0.030  0.000  0.000  0.000  0.000 -0.000
  1  0.078  0.012  0.012  0.012 -0.001 -0.001  0.000 -0.001 -0.000
  2  0.030 -0.030 -0.030 -0.030 -0.000 -0.000 -0.000 -0.000 -0.000
  2 -0.078 -0.012 -0.012 -0.012  0.001  0.001 -0.000  0.001  0.000
  3  0.030 -0.030 -0.030 -0.030 -0.000 -0.000  0.000 -0.000 -0.000
  3 -0.078 -0.012 -0.012 -0.012  0.001  0.001 -0.000  0.001 -0.000
  4 -0.030  0.030  0.030  0.030  0.000  0.000  0.000  0.000 -0.000
  4  0.078  0.012  0.012  0.012 -0.001 -0.001  0.000 -0.001 -0.000
  5  0.030 -0.030 -0.030 -0.030 -0.000 -0.000  0.000 -0.000  0.000
  5 -0.078 -0.012 -0.012 -0.012  0.001  0.001 -0.000  0.001  0.000
  6 -0.030  0.030  0.030  0.030  0.000  0.000 -0.000  0.000  0.000
  6  0.078  0.012  0.012  0.012 -0.001 -0.001  0.000 -0.001  0.000
  7 -0.030  0.030  0.030  0.030  0.000  0.000 -0.000  0.000  0.000
  7  0.078  0.012  0.012  0.012 -0.001 -0.001 -0.000 -0.001  0.000
  8  0.030 -0.030 -0.030 -0.030 -0.000 -0.000 -0.000 -0.000  0.000
  8 -0.078 -0.012 -0.012 -0.012  0.001  0.001 -0.000  0.001 -0.000
  9 -0.457 -0.005 -0.005 -0.005  0.000  0.000  0.000  0.000  0.000
  9 -0.176  0.012  0.012  0.012  0.000  0.000  0.000  0.000  0.000
 10  0.457  0.005  0.005  0.005  0.000  0.000  0.000  0.000  0.000
 10  0.176 -0.012 -0.012 -0.012  0.000  0.000  0.000  0.000  0.000
 11  0.457  0.005  0.005  0.005  0.000  0.000  0.000  0.000  0.000
 11  0.176 -0.012 -0.012 -0.012  0.000  0.000  0.000  0.000  0.000
 12 -0.457 -0.005 -0.005 -0.005  0.000  0.000  0.000  0.000  0.000
 12 -0.176  0.012  0.012  0.012  0.000  0.000  0.000  0.000  0.000
 13  0.457  0.005  0.005  0.005  0.000  0.000  0.000  0.000  0.000
 13  0.176 -0.012 -0.012 -0.012  0.000  0.000  0.000  0.000  0.000
 14 -0.457 -0.005 -0.005 -0.005  0.000  0.000  0.000  0.000  0.000
 14 -0.176  0.012  0.012  0.012  0.000  0.000  0.000  0.000  0.000
 15 -0.457 -0.005 -0.005 -0.005  0.000  0.000  0.000  0.000  0.000
 15 -0.176  0.012  0.012  0.012  0.000  0.000  0.000  0.000  0.000
 16  0.457  0.005  0.005  0.005  0.000  0.000  0.000  0.000  0.000
 16  0.176 -0.012 -0.012 -0.012  0.000  0.000  0.000  0.000  0.000
 
band   3 # energy  -12.88809210 # occ.  2.00000000
 
ion      s     py     pz     px    dxy    dyz    dz2    dxz    dx2    tot
  1  0.000  0.000  0.001  0.001  0.000  0.000  0.000  0.000  0.000  0.002
  2  0.000  0.000  0.001  0.001  0.000  0.000  0.000  0.000  0.000  0.002
  3  0.000  0.001  0.000  0.001  0.000  0.000  0.000  0.000  0.000  0.002
  4  0.000  0.001  0.000  0.001  0.000  0.000  0.000  0.000  0.000  0.002
  5  0.000  0.001  0.000  0.001  0.000  0.000  0.000  0.000  0.000  0.002
  6  0.000  0.001  0.000  0.001  0.000  0.000  0.000  0.000  0.000  0.002
  7  0.000  0.000  0.001  0.001  0.000  0.000  0.000  0.000  0.000  0.002
  8  0.000  0.000  0.001  0.001  0.000  0.000  0.000  0.000  0.000  0.002
  9  0.121  0.000  0.000  0.000  0.000  0.000  0.000  0.000  0.000  0.121
 10  0.121  0.000  0.000  0.000  0.000  0.000  0.000  0.000  0.000  0.121
 11  0.073  0.000  0.000  0.000  0.000  0.000  0.000  0.000  0.000  0.073
 12  0.073  0.000  0.000  0.000  0.000  0.000  0.000  0.000  0.000  0.073
 13  0.073  0.000  0.000  0.000  0.000  0.000  0.000  0.000  0.000  0.073
 14  0.073  0.000  0.000  0.000  0.000  0.000  0.000  0.000  0.000  0.073
 15  0.121  0.000  0.000  0.000  0.000  0.000  0.000  0.000  0.000  0.121
 16  0.121  0.000  0.000  0.000  0.000  0.000  0.000  0.000  0.000  0.121
tot  0.777  0.005  0.005  0.006  0.000  0.000  0.000  0.000  0.001  0.794
ion      s     py     pz     px    dxy    dyz    dz2    dxz    dx2
  1  0.025  0.011  0.022 -0.012  0.001  0.000  0.007  0.001 -0.011
  1  0.019 -0.026 -0.029  0.027  0.000  0.000  0.005  0.000 -0.005
  2  0.025  0.011  0.022 -0.012  0.001  0.000  0.007  0.001 -0.011
  2  0.019 -0.026 -0.029  0.027  0.000  0.000  0.005  0.000 -0.005
  3  0.022  0.022  0.011 -0.022  0.000  0.000  0.006  0.000 -0.012
  3  0.010 -0.029 -0.026  0.030  0.000  0.000  0.003  0.000 -0.009
  4  0.022  0.022  0.011 -0.022  0.000  0.000  0.006  0.000 -0.012
  4  0.010 -0.029 -0.026  0.030  0.000  0.000  0.003  0.000 -0.009
  5 -0.022 -0.022 -0.011  0.022 -0.000 -0.000 -0.006 -0.000  0.012
  5 -0.010  0.029  0.026 -0.030 -0.000 -0.000 -0.003 -0.000  0.009
  6 -0.022 -0.022 -0.011  0.022 -0.000 -0.000 -0.006 -0.000  0.012
  6 -0.010  0.029  0.026 -0.030 -0.000 -0.000 -0.003 -0.000  0.009
  7 -0.025 -0.011 -0.022  0.012 -0.001 -0.000 -0.007 -0.001  0.011
  7 -0.019  0.026  0.029 -0.027 -0.000 -0.000 -0.005 -0.000  0.005
  8 -0.025 -0.011 -0.022  0.012 -0.001 -0.000 -0.007 -0.001  0.011
  8 -0.019  0.026  0.029 -0.027 -0.000 -0.000 -0.005 -0.000  0.005
  9  0.326 -0.001 -0.002  0.009  0.000  0.000  0.000  0.000  0.000
  9 -0.440  0.001 -0.001  0.005  0.000  0.000  0.000  0.000  0.000
 10  0.326 -0.001 -0.002  0.009  0.000  0.000  0.000  0.000  0.000
 10 -0.440  0.001 -0.001  0.005  0.000  0.000  0.000  0.000  0.000
 11  0.171 -0.002 -0.001  0.009  0.000  0.000  0.000  0.000  0.000
 11 -0.389 -0.003 -0.001  0.006  0.000  0.000  0.000  0.000  0.000
 12  0.171 -0.002 -0.001  0.009  0.000  0.000  0.000  0.000  0.000
 12 -0.389 -0.003 -0.001  0.006  0.000  0.000  0.000  0.000  0.000
 13 -0.171  0.002  0.001 -0.009  0.000  0.000  0.000  0.000  0.000
 13  0.389  0.003  0.001 -0.006  0.000  0.000  0.000  0.000  0.000
 14 -0.171  0.002  0.001 -0.009  0.000  0.000  0.000  0.000  0.000
 14  0.389  0.003  0.001 -0.006  0.000  0.000  0.000  0.000  0.000
 15 -0.326  0.001  0.002 -0.009  0.000  0.000  0.000  0.000  0.000
 15  0.440 -0.001  0.001 -0.005  0.000  0.000  0.000  0.000  0.000
 16 -0.326  0.001  0.002 -0.009  0.000  0.000  0.000  0.000  0.000
 16  0.440 -0.001  0.001 -0.005  0.000  0.000  0.000  0.000  0.000
 
band   4 # energy  -12.88809210 # occ.  2.00000000
 
ion      s     py     pz     px    dxy    dyz    dz2    dxz    dx2    tot
  1  0.000  0.001  0.000  0.001  0.000  0.000  0.000  0.000  0.000  0.002
  2  0.000  0.001  0.000  0.001  0.000  0.000  0.000  0.000  0.000  0.002
  3  0.000  0.001  0.001  0.000  0.000  0.000  0.000  0.000  0.000  0.002
  4  0.000  0.001  0.001  0.000  0.000  0.000  0.000  0.000  0.000  0.002
  5  0.000  0.001  0.001  0.000  0.000  0.000  0.000  0.000  0.000  0.002
  6  0.000  0.001  0.001  0.000  0.000  0.000  0.000  0.000  0.000  0.002
  7  0.000  0.001  0.000  0.001  0.000  0.000  0.000  0.000  0.000  0.002
  8  0.000  0.001  0.000  0.001  0.000  0.000  0.000  0.000  0.000  0.002
  9  0.073  0.000  0.000  0.000  0.000  0.000  0.000  0.000  0.000  0.073
 10  0.073  0.000  0.000  0.000  0.000  0.000  0.000  0.000  0.000  0.073
 11  0.121  0.000  0.000  0.000  0.000  0.000  0.000  0.000  0.000  0.121
 12  0.121  0.000  0.000  0.000  0.000  0.000  0.000  0.000  0.000  0.121
 13  0.121  0.000  0.000  0.000  0.000  0.000  0.000  0.000  0.000  0.121
 14  0.121  0.000  0.000  0.000  0.000  0.000  0.000  0.000  0.000  0.121
 15  0.073  0.000  0.000  0.000  0.000  0.000  0.000  0.000  0.000  0.073
 16  0.073  0.000  0.000  0.000  0.000  0.000  0.000  0.000  0.000  0.073
tot  0.777  0.006  0.005  0.005  0.000  0.000  0.000  0.000  0.001  0.794
ion      s     py     pz     px    dxy    dyz    dz2    dxz    dx2
  1  0.005 -0.034  0.028  0.033  0.000  0.000  0.001  0.000  0.006
  1  0.024  0.015 -0.005 -0.015  0.001  0.001  0.007  0.000  0.014
  2  0.005 -0.034  0.028  0.033  0.000  0.000  0.001  0.000  0.006
  2  0.024  0.015 -0.005 -0.015  0.001  0.001  0.007  0.000  0.014
  3 -0.013  0.029 -0.033 -0.028 -0.000 -0.000 -0.004 -0.000 -0.002
  3 -0.029 -0.006  0.015  0.005 -0.001 -0.001 -0.008 -0.000 -0.012
  4 -0.013  0.029 -0.033 -0.028 -0.000 -0.000 -0.004 -0.000 -0.002
  4 -0.029 -0.006  0.015  0.005 -0.001 -0.001 -0.008 -0.000 -0.012
  5  0.013 -0.029  0.033  0.028  0.000  0.000  0.004  0.000  0.002
  5  0.029  0.006 -0.015 -0.005  0.001  0.001  0.008  0.000  0.012
  6  0.013 -0.029  0.033  0.028  0.000  0.000  0.004  0.000  0.002
  6  0.029  0.006 -0.015 -0.005  0.001  0.001  0.008  0.000  0.012
  7 -0.005  0.034 -0.028 -0.033 -0.000 -0.000 -0.001 -0.000 -0.006
  7 -0.024 -0.015  0.005  0.015 -0.001 -0.001 -0.007 -0.000 -0.014
  8 -0.005  0.034 -0.028 -0.033 -0.000 -0.000 -0.001 -0.000 -0.006
  8 -0.024 -0.015  0.005  0.015 -0.001 -0.001 -0.007 -0.000 -0.014
  9  0.417  0.004 -0.000 -0.002  0.000  0.000  0.000  0.000  0.000
  9 -0.081  0.010 -0.002 -0.003  0.000  0.000  0.000  0.000  0.000
 10  0.417  0.004 -0.000 -0.002  0.000  0.000  0.000  0.000  0.000
 10 -0.080  0.010 -0.002 -0.003  0.000  0.000  0.000  0.000  0.000
 11 -0.501 -0.003  0.001 -0.001  0.000  0.000  0.000  0.000  0.000
 11  0.221 -0.010  0.002  0.001  0.000  0.000  0.000  0.000  0.000
 12 -0.501 -0.003  0.001 -0.001  0.000  0.000  0.000  0.000  0.000
 12  0.221 -0.010  0.002  0.001  0.000  0.000  0.000  0.000  0.000
 13  0.501  0.003 -0.001  0.001  0.000  0.000  0.000  0.000  0.000
 13 -0.221  0.010 -0.002 -0.001  0.000  0.000  0.000  0.000  0.000
 14  0.501  0.003 -0.001  0.001  0.000  0.000  0.000  0.000  0.000
 14 -0.221  0.010 -0.002 -0.001  0.000  0.000  0.000  0.000  0.000
 15 -0.417 -0.004  0.000  0.002  0.000  0.000  0.000  0.000  0.000
 15  0.080 -0.010  0.002  0.003  0.000  0.000  0.000  0.000  0.000
 16 -0.417 -0.004  0.000  0.002  0.000  0.000  0.000  0.000  0.000
 16  0.081 -0.010  0.002  0.003  0.000  0.000  0.000  0.000  0.000
 
band   5 # energy  -12.88809210 # occ.  2.00000000
 
ion      s     py     pz     px    dxy    dyz    dz2    dxz    dx2    tot
  1  0.000  0.001  0.001  0.001  0.000  0.000  0.000  0.000  0.000  0.002
  2  0.000  0.001  0.001  0.001  0.000  0.000  0.000  0.000  0.000  0.002
  3  0.000  0.001  0.001  0.001  0.000  0.000  0.000  0.000  0.000  0.002
  4  0.000  0.001  0.001  0.001  0.000  0.000  0.000  0.000  0.000  0.002
  5  0.000  0.001  0.001  0.001  0.000  0.000  0.000  0.000  0.000  0.002
  6  0.000  0.001  0.001  0.001  0.000  0.000  0.000  0.000  0.000  0.002
  7  0.000  0.001  0.001  0.001  0.000  0.000  0.000  0.000  0.000  0.002
  8  0.000  0.001  0.001  0.001  0.000  0.000  0.000  0.000  0.000  0.002
  9  0.097  0.000  0.000  0.000  0.000  0.000  0.000  0.000  0.000  0.097
 10  0.097  0.000  0.000  0.000  0.000  0.000  0.000  0.000  0.000  0.097
 11  0.097  0.000  0.000  0.000  0.000  0.000  0.000  0.000  0.000  0.097
 12  0.097  0.000  0.000  0.000  0.000  0.000  0.000  0.000  0.000  0.097
 13  0.097  0.000  0.000  0.000  0.000  0.000  0.000  0.000  0.000  0.097
 14  0.097  0.000  0.000  0.000  0.000  0.000  0.000  0.000  0.000  0.097
 15  0.097  0.000  0.000  0.000  0.000  0.000  0.000  0.000  0.000  0.097
 16  0.097  0.000  0.000  0.000  0.000  0.000  0.000  0.000  0.000  0.097
tot  0.777  0.005  0.006  0.005  0.000  0.000  0.001  0.000  0.000  0.794
ion      s     py     pz     px    dxy    dyz    dz2    dxz    dx2
  1 -0.026  0.011 -0.011  0.011 -0.000 -0.001  0.015 -0.001 -0.000
  1  0.009  0.031 -0.032  0.031  0.000  0.000 -0.005  0.000  0.000
  2  0.026 -0.011  0.011 -0.011  0.000  0.001 -0.015  0.001 -0.000
  2 -0.009 -0.031  0.032 -0.031 -0.000 -0.000  0.005 -0.000  0.000
  3 -0.026  0.011 -0.011  0.011 -0.000 -0.001  0.015 -0.001 -0.000
  3  0.009  0.031 -0.032  0.031  0.000  0.000 -0.005  0.000 -0.000
  4  0.026 -0.011  0.011 -0.011  0.000  0.001 -0.015  0.001 -0.000
  4 -0.009 -0.031  0.032 -0.031 -0.000 -0.000  0.005 -0.000 -0.000
  5 -0.026  0.011 -0.011  0.011 -0.000 -0.001  0.015 -0.001  0.000
  5  0.009  0.031 -0.032  0.031  0.000  0.000 -0.005  0.000  0.000
  6  0.026 -0.011  0.011 -0.011  0.000  0.001 -0.015  0.001  0.000
  6 -0.009 -0.031  0.032 -0.031 -0.000 -0.000  0.005 -0.000  0.000
  7 -0.026  0.011 -0.011  0.011 -0.000 -0.001  0.015 -0.001  0.000
  7  0.009  0.031 -0.032  0.031  0.000  0.000 -0.005  0.000 -0.000
  8  0.026 -0.011  0.011 -0.011  0.000  0.001 -0.015  0.001  0.000
  8 -0.009 -0.031  0.032 -0.031 -0.000 -0.000  0.005 -0.000 -0.000
  9  0.165  0.002 -0.010  0.002  0.000  0.000  0.000  0.000  0.000
  9  0.462 -0.001  0.004 -0.001  0.000  0.000  0.000  0.000  0.000
 10 -0.165 -0.002  0.010 -0.002  0.000  0.000  0.000  0.000  0.000
 10 -0.462  0.001 -0.004  0.001  0.000  0.000  0.000  0.000  0.000
 11  0.165  0.002 -0.010  0.002  0.000  0.000  0.000  0.000  0.000
 11  0.462 -0.001  0.004 -0.001  0.000  0.000  0.000  0.000  0.000
 12 -0.165 -0.002  0.010 -0.002  0.000  0.000  0.000  0.000  0.000
 12 -0.462  0.001 -0.004  0.001  0.000  0.000  0.000  0.000  0.000
 13  0.165  0.002 -0.010  0.002  0.000  0.000  0.000  0.000  0.000
 13  0.462 -0.001  0.004 -0.001  0.000  0.000  0.000  0.000  0.000
 14 -0.165 -0.002  0.010 -0.002  0.000  0.000  0.000  0.000  0.000
 14 -0.462  0.001 -0.004  0.001  0.000  0.000  0.000  0.000  0.000
 15  0.165  0.002 -0.010  0.002  0.000  0.000  0.000  0.000  0.000
 15  0.462 -0.001  0.004 -0.001  0.000  0.000  0.000  0.000  0.000
 16 -0.165 -0.002  0.010 -0.002  0.000  0.000  0.000  0.000  0.000
 16 -0.462  0.001 -0.004  0.001  0.000  0.000  0.000  0.000  0.000
 
band   6 # energy  -12.71189654 # occ.  2.00000000
 
ion      s     py     pz     px    dxy    dyz    dz2    dxz    dx2    tot
  1  0.001  0.000  0.000  0.000  0.000  0.000  0.000  0.000  0.001  0.002
  2  0.001  0.000  0.000  0.000  0.000  0.000  0.000  0.000  0.001  0.002
  3  0.001  0.000  0.000  0.000  0.000  0.000  0.000  0.000  0.001  0.002
  4  0.001  0.000  0.000  0.000  0.000  0.000  0.000  0.000  0.001  0.002
  5  0.001  0.000  0.000  0.000  0.000  0.000  0.000  0.000  0.001  0.002
  6  0.001  0.000  0.000  0.000  0.000  0.000  0.000  0.000  0.001  0.002
  7  0.001  0.000  0.000  0.000  0.000  0.000  0.000  0.000  0.001  0.002
  8  0.001  0.000  0.000  0.000  0.000  0.000  0.000  0.000  0.001  0.002
  9  0.099  0.000  0.000  0.000  0.000  0.000  0.000  0.000  0.000  0.099
 10  0.099  0.000  0.000  0.000  0.000  0.000  0.000  0.000  0.000  0.099
 11  0.099  0.000  0.000  0.000  0.000  0.000  0.000  0.000  0.000  0.099
 12  0.099  0.000  0.000  0.000  0.000  0.000  0.000  0.000  0.000  0.099
 13  0.099  0.000  0.000  0.000  0.000  0.000  0.000  0.000  0.000  0.099
 14  0.099  0.000  0.000  0.000  0.000  0.000  0.000  0.000  0.000  0.099
 15  0.099  0.000  0.000  0.000  0.000  0.000  0.000  0.000  0.000  0.099
 16  0.099  0.000  0.000  0.000  0.000  0.000  0.000  0.000  0.000  0.099
tot  0.796  0.001  0.001  0.001  0.000  0.000  0.002  0.000  0.005  0.806
ion      s     py     pz     px    dxy    dyz    dz2    dxz    dx2
  1 -0.046  0.009  0.009 -0.010 -0.000 -0.000 -0.015 -0.000  0.026
  1 -0.042 -0.010 -0.010  0.011 -0.000 -0.000 -0.013 -0.000  0.023
  2  0.046 -0.009 -0.009  0.010  0.000  0.000  0.015  0.000 -0.026
  2  0.042  0.010  0.010 -0.011  0.000  0.000  0.013  0.000 -0.023
  3  0.046 -0.009 -0.009  0.010  0.000  0.000  0.015  0.000 -0.026
  3  0.042  0.010  0.010 -0.011  0.000  0.000  0.013  0.000 -0.023
  4 -0.046  0.009  0.009 -0.010 -0.000 -0.000 -0.015 -0.000  0.026
  4 -0.042 -0.010 -0.010  0.011 -0.000 -0.000 -0.013 -0.000  0.023
  5 -0.046  0.009  0.009 -0.010 -0.000 -0.000 -0.015 -0.000  0.026
  5 -0.042 -0.010 -0.010  0.011 -0.000 -0.000 -0.013 -0.000  0.023
  6  0.046 -0.009 -0.009  0.010  0.000  0.000  0.015  0.000 -0.026
  6  0.042  0.010  0.010 -0.011  0.000  0.000  0.013  0.000 -0.023
  7  0.046 -0.009 -0.009  0.010  0.000  0.000  0.015  0.000 -0.026
  7  0.042  0.010  0.010 -0.011  0.000  0.000  0.013  0.000 -0.023
  8 -0.046  0.009  0.009 -0.010 -0.000 -0.000 -0.015 -0.000  0.026
  8 -0.042 -0.010 -0.010  0.011 -0.000 -0.000 -0.013 -0.000  0.023
  9  0.363 -0.001 -0.001  0.008  0.000  0.000  0.000  0.000  0.000
  9  0.329  0.001  0.001 -0.008  0.000  0.000  0.000  0.000  0.000
 10 -0.363  0.001  0.001 -0.008  0.000  0.000  0.000  0.000  0.000
 10 -0.329 -0.001 -0.001  0.008  0.000  0.000  0.000  0.000  0.000
 11 -0.363  0.001  0.001 -0.008  0.000  0.000  0.000  0.000  0.000
 11 -0.329 -0.001 -0.001  0.008  0.000  0.000  0.000  0.000  0.000
 12  0.363 -0.001 -0.001  0.008  0.000  0.000  0.000  0.000  0.000
 12  0.329  0.001  0.001 -0.008  0.000  0.000  0.000  0.000  0.000
 13  0.363 -0.001 -0.001  0.008  0.000  0.000  0.000  0.000  0.000
 13  0.329  0.001  0.001 -0.008  0.000  0.000  0.000  0.000  0.000
 14 -0.363  0.001  0.001 -0.008  0.000  0.000  0.000  0.000  0.000
 14 -0.329 -0.001 -0.001  0.008  0.000  0.000  0.000  0.000  0.000
 15 -0.363  0.001  0.001 -0.008  0.000  0.000  0.000  0.000  0.000
 15 -0.329 -0.001 -0.001  0.008  0.000  0.000  0.000  0.000  0.000
 16  0.363 -0.001 -0.001  0.008  0.000  0.000  0.000  0.000  0.000
 16  0.329  0.001  0.001 -0.008  0.000  0.000  0.000  0.000  0.000
 
band   7 # energy  -12.71189654 # occ.  2.00000000
 
ion      s     py     pz     px    dxy    dyz    dz2    dxz    dx2    tot
  1  0.001  0.000  0.000  0.000  0.000  0.000  0.000  0.000  0.001  0.002
  2  0.001  0.000  0.000  0.000  0.000  0.000  0.000  0.000  0.001  0.002
  3  0.001  0.000  0.000  0.000  0.000  0.000  0.000  0.000  0.001  0.002
  4  0.001  0.000  0.000  0.000  0.000  0.000  0.000  0.000  0.001  0.002
  5  0.001  0.000  0.000  0.000  0.000  0.000  0.000  0.000  0.001  0.002
  6  0.001  0.000  0.000  0.000  0.000  0.000  0.000  0.000  0.001  0.002
  7  0.001  0.000  0.000  0.000  0.000  0.000  0.000  0.000  0.001  0.002
  8  0.001  0.000  0.000  0.000  0.000  0.000  0.000  0.000  0.001  0.002
  9  0.099  0.000  0.000  0.000  0.000  0.000  0.000  0.000  0.000  0.099
 10  0.099  0.000  0.000  0.000  0.000  0.000  0.000  0.000  0.000  0.099
 11  0.099  0.000  0.000  0.000  0.000  0.000  0.000  0.000  0.000  0.099
 12  0.099  0.000  0.000  0.000  0.000  0.000  0.000  0.000  0.000  0.099
 13  0.099  0.000  0.000  0.000  0.000  0.000  0.000  0.000  0.000  0.099
 14  0.099  0.000  0.000  0.000  0.000  0.000  0.000  0.000  0.000  0.099
 15  0.099  0.000  0.000  0.000  0.000  0.000  0.000  0.000  0.000  0.099
 16  0.099  0.000  0.000  0.000  0.000  0.000  0.000  0.000  0.000  0.099
tot  0.796  0.001  0.001  0.001  0.000  0.000  0.002  0.000  0.005  0.806
ion      s     py     pz     px    dxy    dyz    dz2    dxz    dx2
  1  0.019  0.015 -0.013 -0.013  0.000  0.000  0.006  0.000  0.011
  1  0.059 -0.005  0.004  0.004  0.000  0.000  0.019  0.000  0.033
  2 -0.019 -0.015  0.013  0.013 -0.000 -0.000 -0.006 -0.000 -0.011
  2 -0.059  0.005 -0.004 -0.004 -0.000 -0.000 -0.019 -0.000 -0.033
  3  0.019  0.015 -0.013 -0.013  0.000  0.000  0.006  0.000  0.011
  3  0.059 -0.005  0.004  0.004  0.000  0.000  0.019  0.000  0.033
  4 -0.019 -0.015  0.013  0.013 -0.000 -0.000 -0.006 -0.000 -0.011
  4 -0.059  0.005 -0.004 -0.004 -0.000 -0.000 -0.019 -0.000 -0.033
  5 -0.019 -0.015  0.013  0.013 -0.000 -0.000 -0.006 -0.000 -0.011
  5 -0.059  0.005 -0.004 -0.004 -0.000 -0.000 -0.019 -0.000 -0.033
  6  0.019  0.015 -0.013 -0.013  0.000  0.000  0.006  0.000  0.011
  6  0.059 -0.005  0.004  0.004  0.000  0.000  0.019  0.000  0.033
  7 -0.019 -0.015  0.013  0.013 -0.000 -0.000 -0.006 -0.000 -0.011
  7 -0.059  0.005 -0.004 -0.004 -0.000 -0.000 -0.019 -0.000 -0.033
  8  0.019  0.015 -0.013 -0.013  0.000  0.000  0.006  0.000  0.011
  8  0.059 -0.005  0.004  0.004  0.000  0.000  0.019  0.000  0.033
  9 -0.150 -0.011  0.001  0.001  0.000  0.000  0.000  0.000  0.000
  9 -0.467  0.004 -0.000 -0.000  0.000  0.000  0.000  0.000  0.000
 10  0.150  0.011 -0.001 -0.001  0.000  0.000  0.000  0.000  0.000
 10  0.467 -0.004  0.000  0.000  0.000  0.000  0.000  0.000  0.000
 11 -0.150 -0.011  0.001  0.001  0.000  0.000  0.000  0.000  0.000
 11 -0.466  0.004 -0.000 -0.000  0.000  0.000  0.000  0.000  0.000
 12  0.150  0.011 -0.001 -0.001  0.000  0.000  0.000  0.000  0.000
 12  0.466 -0.004  0.000  0.000  0.000  0.000  0.000  0.000  0.000
 13  0.150  0.011 -0.001 -0.001  0.000  0.000  0.000  0.000  0.000
 13  0.466 -0.004  0.000  0.000  0.000  0.000  0.000  0.000  0.000
 14 -0.150 -0.011  0.001  0.001  0.000  0.000  0.000  0.000  0.000
 14 -0.466  0.004 -0.000 -0.000  0.000  0.000  0.000  0.000  0.000
 15  0.150  0.011 -0.001 -0.001  0.000  0.000  0.000  0.000  0.000
 15  0.467 -0.004  0.000  0.000  0.000  0.000  0.000  0.000  0.000
 16 -0.150 -0.011  0.001  0.001  0.000  0.000  0.000  0.000  0.000
 16 -0.467  0.004 -0.000 -0.000  0.000  0.000  0.000  0.000  0.000
 
band   8 # energy  -12.71189654 # occ.  2.00000000
 
ion      s     py     pz     px    dxy    dyz    dz2    dxz    dx2    tot
  1  0.001  0.000  0.000  0.000  0.000  0.000  0.001  0.000  0.000  0.002
  2  0.001  0.000  0.000  0.000  0.000  0.000  0.001  0.000  0.000  0.002
  3  0.001  0.000  0.000  0.000  0.000  0.000  0.001  0.000  0.000  0.002
  4  0.001  0.000  0.000  0.000  0.000  0.000  0.001  0.000  0.000  0.002
  5  0.001  0.000  0.000  0.000  0.000  0.000  0.001  0.000  0.000  0.002
  6  0.001  0.000  0.000  0.000  0.000  0.000  0.001  0.000  0.000  0.002
  7  0.001  0.000  0.000  0.000  0.000  0.000  0.001  0.000  0.000  0.002
  8  0.001  0.000  0.000  0.000  0.000  0.000  0.001  0.000  0.000  0.002
  9  0.099  0.000  0.000  0.000  0.000  0.000  0.000  0.000  0.000  0.099
 10  0.099  0.000  0.000  0.000  0.000  0.000  0.000  0.000  0.000  0.099
 11  0.099  0.000  0.000  0.000  0.000  0.000  0.000  0.000  0.000  0.099
 12  0.099  0.000  0.000  0.000  0.000  0.000  0.000  0.000  0.000  0.099
 13  0.099  0.000  0.000  0.000  0.000  0.000  0.000  0.000  0.000  0.099
 14  0.099  0.000  0.000  0.000  0.000  0.000  0.000  0.000  0.000  0.099
 15  0.099  0.000  0.000  0.000  0.000  0.000  0.000  0.000  0.000  0.099
 16  0.099  0.000  0.000  0.000  0.000  0.000  0.000  0.000  0.000  0.099
tot  0.796  0.001  0.001  0.001  0.000  0.000  0.007  0.000  0.000  0.806
ion      s     py     pz     px    dxy    dyz    dz2    dxz    dx2
  1  0.054  0.007 -0.008  0.007  0.000  0.000 -0.035  0.000 -0.000
  1 -0.031  0.011 -0.013  0.011 -0.000 -0.000  0.020 -0.000 -0.000
  2  0.054  0.007 -0.008  0.007  0.000  0.000 -0.035  0.000  0.000
  2 -0.031  0.011 -0.013  0.011 -0.000 -0.000  0.020 -0.000  0.000
  3 -0.054 -0.007  0.008 -0.007 -0.000 -0.000  0.035 -0.000 -0.000
  3  0.031 -0.011  0.013 -0.011  0.000  0.000 -0.020  0.000  0.000
  4 -0.054 -0.007  0.008 -0.007 -0.000 -0.000  0.035 -0.000  0.000
  4  0.031 -0.011  0.013 -0.011  0.000  0.000 -0.020  0.000 -0.000
  5 -0.054 -0.007  0.008 -0.007 -0.000 -0.000  0.035 -0.000  0.000
  5  0.031 -0.011  0.013 -0.011  0.000  0.000 -0.020  0.000 -0.000
  6 -0.054 -0.007  0.008 -0.007 -0.000 -0.000  0.035 -0.000 -0.000
  6  0.031 -0.011  0.013 -0.011  0.000  0.000 -0.020  0.000  0.000
  7  0.054  0.007 -0.008  0.007  0.000  0.000 -0.035  0.000  0.000
  7 -0.031  0.011 -0.013  0.011 -0.000 -0.000  0.020 -0.000  0.000
  8  0.054  0.007 -0.008  0.007  0.000  0.000 -0.035  0.000 -0.000
  8 -0.031  0.011 -0.013  0.011 -0.000 -0.000  0.020 -0.000 -0.000
  9 -0.426 -0.000  0.006 -0.000  0.000  0.000  0.000  0.000  0.000
  9  0.242 -0.001  0.010 -0.001  0.000  0.000  0.000  0.000  0.000
 10 -0.426 -0.000  0.006 -0.000  0.000  0.000  0.000  0.000  0.000
 10  0.242 -0.001  0.010 -0.001  0.000  0.000  0.000  0.000  0.000
 11  0.426  0.000 -0.006  0.000  0.000  0.000  0.000  0.000  0.000
 11 -0.242  0.001 -0.010  0.001  0.000  0.000  0.000  0.000  0.000
 12  0.426  0.000 -0.006  0.000  0.000  0.000  0.000  0.000  0.000
 12 -0.242  0.001 -0.010  0.001  0.000  0.000  0.000  0.000  0.000
 13  0.426  0.000 -0.006  0.000  0.000  0.000  0.000  0.000  0.000
 13 -0.242  0.001 -0.010  0.001  0.000  0.000  0.000  0.000  0.000
 14  0.426  0.000 -0.006  0.000  0.000  0.000  0.000  0.000  0.000
 14 -0.242  0.001 -0.010  0.001  0.000  0.000  0.000  0.000  0.000
 15 -0.426 -0.000  0.006 -0.000  0.000  0.000  0.000  0.000  0.000
 15  0.242 -0.001  0.010 -0.001  0.000  0.000  0.000  0.000  0.000
 16 -0.426 -0.000  0.006 -0.000  0.000  0.000  0.000  0.000  0.000
 16  0.242 -0.001  0.010 -0.001  0.000  0.000  0.000  0.000  0.000
 
band   9 # energy   -1.25214861 # occ.  2.00000000
 
ion      s     py     pz     px    dxy    dyz    dz2    dxz    dx2    tot
  1  0.010  0.000  0.001  0.000  0.000  0.000  0.000  0.000  0.000  0.012
  2  0.013  0.000  0.001  0.000  0.000  0.000  0.000  0.000  0.000  0.015
  3  0.010  0.000  0.000  0.000  0.000  0.000  0.000  0.000  0.000  0.012
  4  0.013  0.000  0.001  0.000  0.000  0.000  0.000  0.000  0.000  0.015
  5  0.013  0.000  0.001  0.000  0.000  0.000  0.000  0.000  0.000  0.015
  6  0.010  0.000  0.000  0.000  0.000  0.000  0.000  0.000  0.000  0.012
  7  0.013  0.000  0.001  0.000  0.000  0.000  0.000  0.000  0.000  0.015
  8  0.010  0.000  0.001  0.000  0.000  0.000  0.000  0.000  0.000  0.012
  9  0.000  0.015  0.023  0.019  0.000  0.000  0.000  0.000  0.000  0.057
 10  0.000  0.019  0.019  0.015  0.000  0.000  0.000  0.000  0.000  0.053
 11  0.000  0.015  0.023  0.019  0.000  0.000  0.000  0.000  0.000  0.058
 12  0.000  0.019  0.019  0.015  0.000  0.000  0.000  0.000  0.000  0.053