<?xml version="1.0" encoding="ISO-8859-1"?>
<modeling>
 <generator>
  <i name="program" type="string">vasp </i>
  <i name="version" type="string">5.4.1  </i>
  <i name="subversion" type="string">05Feb16 (build Mar 31 2016 13:39:20) complex                          parallel </i>
  <i name="platform" type="string">IFC91_ompi </i>
  <i name="date" type="string">2018 04 28 </i>
  <i name="time" type="string">12:47:46 </i>
 </generator>
 <incar>
  <i type="string" name="PREC">n</i>
  <i type="string" name="ALGO"> N</i>
  <i type="int" name="NELM">   100</i>
  <i type="int" name="NELMIN">     4</i>
  <i type="int" name="IBRION">     2</i>
  <i name="EDIFF">      0.00000100</i>
  <i name="EDIFFG">     -0.05000000</i>
  <i type="int" name="NSW">    20</i>
  <i type="int" name="ISIF">     2</i>
  <i name="ENCUT">    400.00000000</i>
  <i type="string" name="LREAL"> A</i>
  <i type="int" name="ISMEAR">     0</i>
  <i name="SIGMA">      0.05000000</i>
  <i type="logical" name="LWAVE"> F  </i>
  <i type="logical" name="LCHARG"> F  </i>
  <i type="logical" name="LORBIT"> F  </i>
  <i type="logical" name="LASPH"> T  </i>
  <v type="int" name="KPOINT_BSE">    -1     0     0     0</v>
  <i type="int" name="NELM">   100</i>
  <i type="logical" name="LASPH"> T  </i>
 </incar>
 <kpoints>
  <generation param="Gamma">
   <v type="int" name="divisions">       2        2        2 </v>
   <v name="usershift">      0.00000000       0.00000000       0.00000000 </v>
   <v name="genvec1">      0.50000000       0.00000000       0.00000000 </v>
   <v name="genvec2">      0.00000000       0.50000000       0.00000000 </v>
   <v name="genvec3">      0.00000000       0.00000000       0.50000000 </v>
   <v name="shift">      0.00000000       0.00000000       0.00000000 </v>
  </generation>
  <varray name="kpointlist" >
   <v>       0.00000000       0.00000000       0.00000000 </v>
   <v>       0.50000000       0.00000000       0.00000000 </v>
   <v>       0.50000000       0.50000000       0.00000000 </v>
  </varray>
  <varray name="weights" >
   <v>       0.12500000 </v>
   <v>       0.50000000 </v>
   <v>       0.37500000 </v>
  </varray>
 </kpoints>
 <parameters>
  <separator name="general" >
   <i type="string" name="SYSTEM">unknown system</i>
   <i type="logical" name="LCOMPAT"> F  </i>
  </separator>
  <separator name="electronic" >
   <i type="string" name="PREC">n</i>
   <i name="ENMAX">    400.00000000</i>
   <i name="ENAUG">    605.39200000</i>
   <i name="EDIFF">      0.00000100</i>
   <i type="int" name="IALGO">    38</i>
   <i type="int" name="IWAVPR">    11</i>
   <i type="int" name="NBANDS">    44</i>
   <i name="NELECT">     64.00000000</i>
   <i type="int" name="TURBO">     0</i>
   <i type="int" name="IRESTART">     0</i>
   <i type="int" name="NREBOOT">     0</i>
   <i type="int" name="NMIN">     0</i>
   <i name="EREF">      0.00000000</i>
   <separator name="electronic smearing" >
    <i type="int" name="ISMEAR">     0</i>
    <i name="SIGMA">      0.05000000</i>
    <i name="KSPACING">      0.50000000</i>
    <i type="logical" name="KGAMMA"> T  </i>
   </separator>
   <separator name="electronic projectors" >
    <i type="logical" name="LREAL"> T  </i>
    <v name="ROPT">     -0.00050000     -0.00050000</v>
    <i type="int" name="LMAXPAW">  -100</i>
    <i type="int" name="LMAXMIX">     2</i>
    <i type="logical" name="NLSPLINE"> F  </i>
   </separator>
   <separator name="electronic startup" >
    <i type="int" name="ISTART">     0</i>
    <i type="int" name="ICHARG">     2</i>
    <i type="int" name="INIWAV">     1</i>
   </separator>
   <separator name="electronic spin" >
    <i type="int" name="ISPIN">     1</i>
    <i type="logical" name="LNONCOLLINEAR"> F  </i>
    <v name="MAGMOM">      1.00000000      1.00000000      1.00000000      1.00000000      1.00000000      1.00000000      1.00000000      1.00000000      1.00000000      1.00000000      1.00000000      1.00000000      1.00000000      1.00000000      1.00000000      1.00000000</v>
    <i name="NUPDOWN">     -1.00000000</i>
    <i type="logical" name="LSORBIT"> F  </i>
    <v name="SAXIS">      0.00000000      0.00000000      1.00000000</v>
    <i type="logical" name="LSPIRAL"> F  </i>
    <v name="QSPIRAL">      0.00000000      0.00000000      0.00000000</v>
    <i type="logical" name="LZEROZ"> F  </i>
   </separator>
   <separator name="electronic exchange-correlation" >
    <i type="logical" name="LASPH"> T  </i>
    <i type="logical" name="LMETAGGA"> F  </i>
   </separator>
   <separator name="electronic convergence" >
    <i type="int" name="NELM">   100</i>
    <i type="int" name="NELMDL">    -5</i>
    <i type="int" name="NELMIN">     4</i>
    <i name="ENINI">    400.00000000</i>
    <separator name="electronic convergence detail" >
     <i type="logical" name="LDIAG"> T  </i>
     <i type="logical" name="LSUBROT"> F  </i>
     <i name="WEIMIN">      0.00100000</i>
     <i name="EBREAK">      0.00000001</i>
     <i name="DEPER">      0.30000000</i>
     <i type="int" name="NRMM">     4</i>
     <i name="TIME">      0.40000000</i>
    </separator>
   </separator>
   <separator name="electronic mixer" >
    <i name="AMIX">      0.40000000</i>
    <i name="BMIX">      1.00000000</i>
    <i name="AMIN">      0.10000000</i>
    <i name="AMIX_MAG">      1.60000000</i>
    <i name="BMIX_MAG">      1.00000000</i>
    <separator name="electronic mixer details" >
     <i type="int" name="IMIX">     4</i>
     <i type="logical" name="MIXFIRST"> F  </i>
     <i type="int" name="MAXMIX">   -45</i>
     <i name="WC">    100.00000000</i>
     <i type="int" name="INIMIX">     1</i>
     <i type="int" name="MIXPRE">     1</i>
     <i type="int" name="MREMOVE">     5</i>
    </separator>
   </separator>
   <separator name="electronic dipolcorrection" >
    <i type="logical" name="LDIPOL"> F  </i>
    <i type="logical" name="LMONO"> F  </i>
    <i type="int" name="IDIPOL">     0</i>
    <i name="EPSILON">      1.00000000</i>
    <v name="DIPOL">   -100.00000000   -100.00000000   -100.00000000</v>
    <i name="EFIELD">      0.00000000</i>
   </separator>
  </separator>
  <separator name="grids" >
   <i type="int" name="NGX">    30</i>
   <i type="int" name="NGY">    30</i>
   <i type="int" name="NGZ">    30</i>
   <i type="int" name="NGXF">    60</i>
   <i type="int" name="NGYF">    60</i>
   <i type="int" name="NGZF">    60</i>
   <i type="logical" name="ADDGRID"> F  </i>
  </separator>
  <separator name="ionic" >
   <i type="int" name="NSW">    20</i>
   <i type="int" name="IBRION">     2</i>
   <i type="int" name="ISIF">     2</i>
   <i name="PSTRESS">      0.00000000</i>
   <i name="EDIFFG">     -0.05000000</i>
   <i type="int" name="NFREE">     1</i>
   <i name="POTIM">      0.50000000</i>
   <i name="SMASS">     -3.00000000</i>
   <i name="SCALEE">      1.00000000</i>
  </separator>
  <separator name="ionic md" >
   <i name="TEBEG">      0.00010000</i>
   <i name="TEEND">      0.00010000</i>
   <i type="int" name="NBLOCK">     1</i>
   <i type="int" name="KBLOCK">    20</i>
   <i type="int" name="NPACO">   256</i>
   <i name="APACO">     16.00000000</i>
  </separator>
  <separator name="symmetry" >
   <i type="int" name="ISYM">     2</i>
   <i name="SYMPREC">      0.00001000</i>
  </separator>
  <separator name="dos" >
   <i type="logical" name="LORBIT"> F  </i>
   <v name="RWIGS">     -1.00000000     -1.00000000</v>
   <i type="int" name="NEDOS">   301</i>
   <i name="EMIN">     10.00000000</i>
   <i name="EMAX">    -10.00000000</i>
   <i name="EFERMI">      0.00000000</i>
  </separator>
  <separator name="writing" >
   <i type="int" name="NWRITE">     2</i>
   <i type="logical" name="LWAVE"> F  </i>
   <i type="logical" name="LCHARG"> F  </i>
   <i type="logical" name="LPARD"> F  </i>
   <i type="logical" name="LVTOT"> F  </i>
   <i type="logical" name="LVHAR"> F  </i>
   <i type="logical" name="LELF"> F  </i>
   <i type="logical" name="LOPTICS"> F  </i>
   <v name="STM">      0.00000000      0.00000000      0.00000000      0.00000000      0.00000000      0.00000000      0.00000000</v>
  </separator>
  <separator name="performance" >
   <i type="int" name="NPAR">     4</i>
   <i type="int" name="NSIM">     4</i>
   <i type="int" name="NBLK">    -1</i>
   <i type="logical" name="LPLANE"> T  </i>
   <i type="logical" name="LSCALAPACK"> T  </i>
   <i type="logical" name="LSCAAWARE"> F  </i>
   <i type="logical" name="LSCALU"> F  </i>
   <i type="logical" name="LASYNC"> F  </i>
   <i type="logical" name="LORBITALREAL"> F  </i>
  </separator>
  <separator name="miscellaneous" >
   <i type="int" name="IDIOT">     3</i>
   <i type="logical" name="LMUSIC"> F  </i>
   <v name="POMASS">     24.30500000     16.00000000</v>
   <v name="DARWINR">      0.00000000      0.00000000</v>
   <v name="DARWINV">      1.00000000      1.00000000</v>
   <i type="logical" name="LCORR"> T  </i>
  </separator>
  <i type="logical" name="GGA_COMPAT"> T  </i>
  <i type="logical" name="LBERRY"> F  </i>
  <i type="int" name="ICORELEVEL">     0</i>
  <i type="logical" name="LDAU"> F  </i>
  <i type="int" name="I_CONSTRAINED_M">     0</i>
  <separator name="electronic exchange-correlation" >
   <i type="string" name="GGA">--</i>
   <i type="int" name="VOSKOWN">     0</i>
   <i type="logical" name="LHFCALC"> F  </i>
   <i type="string" name="PRECFOCK"></i>
   <i type="logical" name="LSYMGRAD"> F  </i>
   <i type="logical" name="LHFONE"> F  </i>
   <i type="logical" name="LRHFCALC"> F  </i>
   <i type="logical" name="LTHOMAS"> F  </i>
   <i type="logical" name="LMODELHF"> F  </i>
   <i name="ENCUT4O">     -1.00000000</i>
   <i type="int" name="EXXOEP">     0</i>
   <i type="int" name="FOURORBIT">     0</i>
   <i name="AEXX">      0.00000000</i>
   <i name="HFALPHA">      0.00000000</i>
   <i name="MCALPHA">      0.00000000</i>
   <i name="ALDAX">      1.00000000</i>
   <i name="AGGAX">      1.00000000</i>
   <i name="ALDAC">      1.00000000</i>
   <i name="AGGAC">      1.00000000</i>
   <i type="int" name="NKREDX">     1</i>
   <i type="int" name="NKREDY">     1</i>
   <i type="int" name="NKREDZ">     1</i>
   <i type="logical" name="SHIFTRED"> F  </i>
   <i type="logical" name="ODDONLY"> F  </i>
   <i type="logical" name="EVENONLY"> F  </i>
   <i type="int" name="LMAXFOCK">     0</i>
   <i type="int" name="NMAXFOCKAE">     0</i>
   <i type="logical" name="LFOCKAEDFT"> F  </i>
   <i name="HFSCREEN">      0.00000000</i>
   <i name="HFSCREENC">      0.00000000</i>
   <i type="int" name="NBANDSGWLOW">     0</i>
  </separator>
  <separator name="vdW DFT" >
   <i type="logical" name="LUSE_VDW"> F  </i>
   <i name="Zab_VDW">     -0.84910000</i>
   <i name="PARAM1">      0.12340000</i>
   <i name="PARAM2">      1.00000000</i>
   <i name="PARAM3">      0.00000000</i>
  </separator>
  <separator name="model GW" >
   <i type="int" name="MODEL_GW">     0</i>
   <i name="MODEL_EPS0">      5.74480406</i>
   <i name="MODEL_ALPHA">      1.00000000</i>
  </separator>
  <separator name="linear response parameters" >
   <i type="logical" name="LEPSILON"> F  </i>
   <i type="logical" name="LRPA"> F  </i>
   <i type="logical" name="LNABLA"> F  </i>
   <i type="logical" name="LVEL"> F  </i>
   <i type="int" name="KINTER">     0</i>
   <i name="CSHIFT">      0.10000000</i>
   <i name="OMEGAMAX">     -1.00000000</i>
   <i name="DEG_THRESHOLD">      0.00200000</i>
  </separator>
  <separator name="orbital magnetization" >
   <i type="logical" name="NUCIND"> F  </i>
   <v name="MAGPOS">      0.00000000      0.00000000      0.00000000</v>
   <i type="logical" name="LNICSALL"> T  </i>
   <i type="logical" name="ORBITALMAG"> F  </i>
   <i type="logical" name="LMAGBLOCH"> F  </i>
   <i type="logical" name="LCHIMAG"> F  </i>
   <i type="logical" name="LGAUGE"> T  </i>
   <i type="int" name="MAGATOM">     0</i>
   <v name="MAGDIPOL">      0.00000000      0.00000000      0.00000000</v>
   <v name="AVECCONST">      0.00000000      0.00000000      0.00000000</v>
  </separator>
  <separator name="response functions" >
   <i type="logical" name="LADDER"> F  </i>
   <i type="logical" name="LFXC"> F  </i>
   <i type="logical" name="LHARTREE"> T  </i>
   <i type="int" name="IBSE">     0</i>
   <v type="int" name="KPOINT">    -1     0     0     0</v>
   <i type="logical" name="LTCTE"> F  </i>
   <i type="logical" name="LTETE"> F  </i>
   <i type="logical" name="LTRIPLET"> F  </i>
   <i type="logical" name="LFXCEPS"> F  </i>
   <i type="logical" name="LFXHEG"> F  </i>
   <i type="int" name="NATURALO">     0</i>
   <i type="logical" name="L2ORDER"> F  </i>
   <i type="logical" name="LUSEW"> F  </i>
   <i name="ENCUTGW">     -2.00000000</i>
   <i name="ENCUTGWSOFT">     -2.00000000</i>
   <i name="ENCUTLF">     -1.00000000</i>
   <i type="int" name="LMAXMP2">    -1</i>
   <i name="SCISSOR">      0.00000000</i>
   <i type="int" name="NOMEGA">     0</i>
   <i type="int" name="NOMEGAR">     0</i>
   <i type="int" name="NBANDSGW">    -1</i>
   <i type="int" name="NBANDSO">    -1</i>
   <i type="int" name="NBANDSV">    -1</i>
   <i type="int" name="NELM">   100</i>
   <i type="int" name="NELMHF">     1</i>
   <i type="int" name="DIM">     3</i>
   <i type="int" name="ANTIRES">     0</i>
   <i name="OMEGAMAX">    -30.00000000</i>
   <i name="OMEGAMIN">    -30.00000000</i>
   <i name="OMEGATL">   -200.00000000</i>
   <i type="int" name="OMEGAGRID">     0</i>
   <i name="CSHIFT">     -0.10000000</i>
   <i type="logical" name="SELFENERGY"> F  </i>
   <i type="logical" name="LSPECTRAL"> F  </i>
   <i type="logical" name="LSPECTRALGW"> F  </i>
   <i type="logical" name="LSINGLES"> F  </i>
   <i type="logical" name="LFERMIGW"> F  </i>
   <i type="logical" name="ODDONLYGW"> F  </i>
   <i type="logical" name="EVENONLYGW"> F  </i>
   <i type="int" name="NKREDLFX">     1</i>
   <i type="int" name="NKREDLFY">     1</i>
   <i type="int" name="NKREDLFZ">     1</i>
   <i type="int" name="MAXMEM">  1800</i>
   <i type="int" name="TELESCOPE">     0</i>
   <i type="int" name="TAUPAR">     1</i>
   <i type="int" name="OMEGAPAR">    -1</i>
   <i name="LAMBDA">      1.00000000</i>
  </separator>
  <separator name="External order field" >
   <i name="OFIELD_KAPPA">      0.00000000</i>
   <v name="OFIELD_K">      0.00000000      0.00000000      0.00000000</v>
   <i name="OFIELD_Q6_NEAR">      0.00000000</i>
   <i name="OFIELD_Q6_FAR">      0.00000000</i>
   <i name="OFIELD_A">      0.00000000</i>
  </separator>
 </parameters>
 <atominfo>
  <atoms>      16 </atoms>
  <types>       2 </types>
  <array name="atoms" >
   <dimension dim="1">ion</dimension>
   <field type="string">element</field>
   <field type="int">atomtype</field>
   <set>
    <rc><c>Mg</c><c>   1</c></rc>
    <rc><c>Mg</c><c>   1</c></rc>
    <rc><c>Mg</c><c>   1</c></rc>
    <rc><c>Mg</c><c>   1</c></rc>
    <rc><c>Mg</c><c>   1</c></rc>
    <rc><c>Mg</c><c>   1</c></rc>
    <rc><c>Mg</c><c>   1</c></rc>
    <rc><c>Mg</c><c>   1</c></rc>
    <rc><c>O </c><c>   2</c></rc>
    <rc><c>O </c><c>   2</c></rc>
    <rc><c>O </c><c>   2</c></rc>
    <rc><c>O </c><c>   2</c></rc>
    <rc><c>O </c><c>   2</c></rc>
    <rc><c>O </c><c>   2</c></rc>
    <rc><c>O </c><c>   2</c></rc>
    <rc><c>O </c><c>   2</c></rc>
   </set>
  </array>
  <array name="atomtypes" >
   <dimension dim="1">type</dimension>
   <field type="int">atomspertype</field>
   <field type="string">element</field>
   <field>mass</field>
   <field>valence</field>
   <field type="string">pseudopotential</field>
   <set>
    <rc><c>   8</c><c>Mg</c><c>     24.30500000</c><c>      2.00000000</c><c>  PAW_PBE Mg 13Apr2007                  </c></rc>
    <rc><c>   8</c><c>O </c><c>     16.00000000</c><c>      6.00000000</c><c>  PAW_PBE O 08Apr2002                   </c></rc>
   </set>
  </array>
 </atominfo>
 <structure name="initialpos" >
  <crystal>
   <varray name="basis" >
    <v>       0.00000000       4.24689300       4.24689300 </v>
    <v>       4.24689300       0.00000000       4.24689300 </v>
    <v>       4.24689300       4.24689300       0.00000000 </v>
   </varray>
   <i name="volume">    153.19477498 </i>
   <varray name="rec_basis" >
    <v>      -0.11773313       0.11773313       0.11773313 </v>
    <v>       0.11773313      -0.11773313       0.11773313 </v>
    <v>       0.11773313       0.11773313      -0.11773313 </v>
   </varray>
  </crystal>
  <varray name="positions" >
   <v>       0.00000000       0.00000000       0.00000000 </v>
   <v>       0.00000000       0.00000000       0.50000000 </v>
   <v>       0.00000000       0.50000000       0.00000000 </v>
   <v>       0.00000000       0.50000000       0.50000000 </v>
   <v>       0.50000000       0.00000000       0.00000000 </v>
   <v>       0.50000000       0.00000000       0.50000000 </v>
   <v>       0.50000000       0.50000000       0.00000000 </v>
   <v>       0.50000000       0.50000000       0.50000000 </v>
   <v>       0.25000000       0.25000000       0.25000000 </v>
   <v>       0.25000000       0.25000000       0.75000000 </v>
   <v>       0.25000000       0.75000000       0.25000000 </v>
   <v>       0.25000000       0.75000000       0.75000000 </v>
   <v>       0.75000000       0.25000000       0.25000000 </v>
   <v>       0.75000000       0.25000000       0.75000000 </v>
   <v>       0.75000000       0.75000000       0.25000000 </v>
   <v>       0.75000000       0.75000000       0.75000000 </v>
  </varray>
 </structure>
 <calculation>
  <scstep>
   <time name="dav">    0.09    0.09</time>
   <time name="total">    0.30    0.30</time>
   <energy>
    <i name="alphaZ">    152.60904737 </i>
    <i name="ewald">  -2842.02858273 </i>
    <i name="hartreedc">   -979.63991372 </i>
    <i name="XCdc">   -164.05863411 </i>
    <i name="pawpsdc">   3294.84937727 </i>
    <i name="pawaedc">  -2894.33685034 </i>
    <i name="eentropy">     -0.01069214 </i>
    <i name="bandstr">     60.11853234 </i>
    <i name="atom">   3642.39975602 </i>
    <i name="e_fr_energy">    269.90203995 </i>
    <i name="e_wo_entrp">    269.91273209 </i>
    <i name="e_0_energy">    269.90738602 </i>
   </energy>
  </scstep>
  <scstep>
   <time name="dav">    0.10    0.10</time>
   <time name="total">    0.10    0.11</time>
   <energy>
    <i name="e_fr_energy">    -88.80656437 </i>
    <i name="e_wo_entrp">    -88.80656437 </i>
    <i name="e_0_energy">    -88.80656437 </i>
   </energy>
  </scstep>
  <scstep>
   <time name="dav">    0.10    0.10</time>
   <time name="total">    0.10    0.10</time>
   <energy>
    <i name="e_fr_energy">   -107.48572959 </i>
    <i name="e_wo_entrp">   -107.48572959 </i>
    <i name="e_0_energy">   -107.48572959 </i>
   </energy>
  </scstep>
  <scstep>
   <time name="dav">    0.10    0.10</time>
   <time name="total">    0.10    0.10</time>
   <energy>
    <i name="e_fr_energy">   -107.61584862 </i>
    <i name="e_wo_entrp">   -107.61584862 </i>
    <i name="e_0_energy">   -107.61584862 </i>
   </energy>
  </scstep>
  <scstep>
   <time name="dav">    0.10    0.10</time>
   <time name="total">    0.11    0.12</time>
   <energy>
    <i name="e_fr_energy">   -107.61710258 </i>
    <i name="e_wo_entrp">   -107.61710258 </i>
    <i name="e_0_energy">   -107.61710258 </i>
   </energy>
  </scstep>
  <scstep>
   <time name="dav">    0.09    0.09</time>
   <time name="total">    0.31    0.32</time>
   <energy>
    <i name="e_fr_energy">    -95.48214642 </i>
    <i name="e_wo_entrp">    -95.48214642 </i>
    <i name="e_0_energy">    -95.48214642 </i>
   </energy>
  </scstep>
  <scstep>
   <time name="dav">    0.09    0.09</time>
   <time name="total">    0.31    0.32</time>
   <energy>
    <i name="e_fr_energy">    -95.41555981 </i>
    <i name="e_wo_entrp">    -95.41555981 </i>
    <i name="e_0_energy">    -95.41555981 </i>
   </energy>
  </scstep>
  <scstep>
   <time name="dav">    0.09    0.09</time>
   <time name="total">    0.31    0.31</time>
   <energy>
    <i name="e_fr_energy">    -95.37053980 </i>
    <i name="e_wo_entrp">    -95.37053980 </i>
    <i name="e_0_energy">    -95.37053980 </i>
   </energy>
  </scstep>
  <scstep>
   <time name="dav">    0.10    0.10</time>
   <time name="total">    0.32    0.32</time>
   <energy>
    <i name="e_fr_energy">    -95.36290850 </i>
    <i name="e_wo_entrp">    -95.36290850 </i>
    <i name="e_0_energy">    -95.36290850 </i>
   </energy>
  </scstep>
  <scstep>
   <time name="dav">    0.09    0.09</time>
   <time name="total">    0.31    0.31</time>
   <energy>
    <i name="e_fr_energy">    -95.36400940 </i>
    <i name="e_wo_entrp">    -95.36400940 </i>
    <i name="e_0_energy">    -95.36400940 </i>
   </energy>
  </scstep>
  <scstep>
   <time name="dav">    0.10    0.09</time>
   <time name="total">    0.31    0.32</time>
   <energy>
    <i name="e_fr_energy">    -95.36395799 </i>
    <i name="e_wo_entrp">    -95.36395799 </i>
    <i name="e_0_energy">    -95.36395799 </i>
   </energy>
  </scstep>
  <scstep>
   <time name="dav">    0.08    0.08</time>
   <time name="total">    0.30    0.31</time>
   <energy>
    <i name="e_fr_energy">    -95.36395603 </i>
    <i name="e_wo_entrp">    -95.36395603 </i>
    <i name="e_0_energy">    -95.36395603 </i>
   </energy>
  </scstep>
  <scstep>
   <time name="dav">    0.07    0.07</time>
   <time name="total">    0.28    0.28</time>
   <energy>
    <i name="alphaZ">    152.60904737 </i>
    <i name="ewald">  -2842.02858273 </i>
    <i name="hartreedc">  -1139.76612447 </i>
    <i name="XCdc">   -151.69585500 </i>
    <i name="pawpsdc">   4454.04874952 </i>
    <i name="pawaedc">  -4055.62757622 </i>
    <i name="eentropy">     -0.00000000 </i>
    <i name="bandstr">   -155.30337118 </i>
    <i name="atom">   3642.39975602 </i>
    <i name="e_fr_energy">    -95.36395670 </i>
    <i name="e_wo_entrp">    -95.36395670 </i>
    <i name="e_0_energy">    -95.36395670 </i>
   </energy>
  </scstep>
  <structure>
   <crystal>
    <varray name="basis" >
     <v>       0.00000000       4.24689300       4.24689300 </v>
     <v>       4.24689300       0.00000000       4.24689300 </v>
     <v>       4.24689300       4.24689300       0.00000000 </v>
    </varray>
    <i name="volume">    153.19477498 </i>
    <varray name="rec_basis" >
     <v>      -0.11773313       0.11773313       0.11773313 </v>
     <v>       0.11773313      -0.11773313       0.11773313 </v>
     <v>       0.11773313       0.11773313      -0.11773313 </v>
    </varray>
   </crystal>
   <varray name="positions" >
    <v>       0.00000000       0.00000000       0.00000000 </v>
    <v>       0.00000000       0.00000000       0.50000000 </v>
    <v>       0.00000000       0.50000000       0.00000000 </v>
    <v>       0.00000000       0.50000000       0.50000000 </v>
    <v>       0.50000000       0.00000000       0.00000000 </v>
    <v>       0.50000000       0.00000000       0.50000000 </v>
    <v>       0.50000000       0.50000000       0.00000000 </v>
    <v>       0.50000000       0.50000000       0.50000000 </v>
    <v>       0.25000000       0.25000000       0.25000000 </v>
    <v>       0.25000000       0.25000000       0.75000000 </v>
    <v>       0.25000000       0.75000000       0.25000000 </v>
    <v>       0.25000000       0.75000000       0.75000000 </v>
    <v>       0.75000000       0.25000000       0.25000000 </v>
    <v>       0.75000000       0.25000000       0.75000000 </v>
    <v>       0.75000000       0.75000000       0.25000000 </v>
    <v>       0.75000000       0.75000000       0.75000000 </v>
   </varray>
  </structure>
  <varray name="forces" >
   <v>       0.00000000      -0.00000000      -0.00000000 </v>
   <v>       0.00000000      -0.00000000      -0.00000000 </v>
   <v>       0.00000000       0.00000000      -0.00000000 </v>
   <v>       0.00000000       0.00000000      -0.00000000 </v>
   <v>       0.00000000      -0.00000000      -0.00000000 </v>
   <v>       0.00000000       0.00000000      -0.00000000 </v>
   <v>      -0.00000000       0.00000000      -0.00000000 </v>
   <v>       0.00000000       0.00000000      -0.00000000 </v>
   <v>       0.00000000       0.00000000      -0.00000000 </v>
   <v>      -0.00000000      -0.00000000      -0.00000000 </v>
   <v>       0.00000000       0.00000000       0.00000000 </v>
   <v>       0.00000000      -0.00000000       0.00000000 </v>
   <v>      -0.00000000       0.00000000       0.00000000 </v>
   <v>      -0.00000000      -0.00000000       0.00000000 </v>
   <v>      -0.00000000       0.00000000       0.00000000 </v>
   <v>      -0.00000000      -0.00000000      -0.00000000 </v>
  </varray>
  <varray name="stress" >
   <v>     -49.24041158       0.00000000      -0.00000000 </v>
   <v>       0.00000000     -49.24041158       0.00000000 </v>
   <v>       0.00000000      -0.00000000     -49.24041158 </v>
  </varray>
  <energy>
   <i name="e_fr_energy">    -95.36395670 </i>
   <i name="e_wo_entrp">    -95.36395670 </i>
   <i name="e_0_energy">     -0.00000000 </i>
  </energy>
  <time name="totalsc">    3.75    3.80</time>
  <eigenvalues>
   <array>
    <dimension dim="1">band</dimension>
    <dimension dim="2">kpoint</dimension>
    <dimension dim="3">spin</dimension>
    <field>eigene</field>
    <field>occ</field>
    <set>
     <set comment="spin 1">
      <set comment="kpoint 1">
       <r>  -14.1260    1.0000 </r>
       <r>  -12.9046    1.0000 </r>
       <r>  -12.9046    1.0000 </r>
       <r>  -12.9046    1.0000 </r>
       <r>  -12.9046    1.0000 </r>
       <r>  -12.6549    1.0000 </r>
       <r>  -12.6549    1.0000 </r>
       <r>  -12.6549    1.0000 </r>
       <r>   -1.5024    1.0000 </r>
       <r>   -1.5024    1.0000 </r>
       <r>   -1.5024    1.0000 </r>
       <r>   -1.5024    1.0000 </r>
       <r>   -0.9774    1.0000 </r>
       <r>   -0.9774    1.0000 </r>
       <r>   -0.9774    1.0000 </r>
       <r>    1.6957    1.0000 </r>
       <r>    1.6957    1.0000 </r>
       <r>    1.6957    1.0000 </r>
       <r>    1.6959    1.0000 </r>
       <r>    1.6959    1.0000 </r>
       <r>    1.6959    1.0000 </r>
       <r>    2.3830    1.0000 </r>
       <r>    2.3830    1.0000 </r>
       <r>    2.3830    1.0000 </r>
       <r>    2.3833    1.0000 </r>
       <r>    2.3833    1.0000 </r>
       <r>    2.3833    1.0000 </r>
       <r>    2.3834    1.0000 </r>
       <r>    2.3834    1.0000 </r>
       <r>    3.0097    1.0000 </r>
       <r>    3.0101    1.0000 </r>
       <r>    3.0101    1.0000 </r>
       <r>    7.4992    0.0000 </r>
       <r>   10.7522    0.0000 </r>
       <r>   10.7525    0.0000 </r>
       <r>   10.7525    0.0000 </r>
       <r>   10.7525    0.0000 </r>
       <r>   12.1044    0.0000 </r>
       <r>   12.1044    0.0000 </r>
       <r>   12.1044    0.0000 </r>
       <r>   12.7108    0.0000 </r>
       <r>   12.7108    0.0000 </r>
       <r>   12.7108    0.0000 </r>
       <r>   15.3645    0.0000 </r>
      </set>
      <set comment="kpoint 2">
       <r>  -13.5671    1.0000 </r>
       <r>  -13.5671    1.0000 </r>
       <r>  -12.7897    1.0000 </r>
       <r>  -12.7897    1.0000 </r>
       <r>  -12.7897    1.0000 </r>
       <r>  -12.7897    1.0000 </r>
       <r>  -12.7897    1.0000 </r>
       <r>  -12.7897    1.0000 </r>
       <r>   -0.7191    1.0000 </r>
       <r>   -0.7191    1.0000 </r>
       <r>   -0.7191    1.0000 </r>
       <r>   -0.7191    1.0000 </r>
       <r>   -0.7191    1.0000 </r>
       <r>   -0.7191    1.0000 </r>
       <r>    0.3938    1.0000 </r>
       <r>    0.3938    1.0000 </r>
       <r>    1.1453    1.0000 </r>
       <r>    1.1453    1.0000 </r>
       <r>    1.1453    1.0000 </r>
       <r>    1.1453    1.0000 </r>
       <r>    1.1453    1.0000 </r>
       <r>    1.1453    1.0000 </r>
       <r>    2.0207    1.0000 </r>
       <r>    2.0207    1.0000 </r>
       <r>    2.0207    1.0000 </r>
       <r>    2.0207    1.0000 </r>
       <r>    2.0209    1.0000 </r>
       <r>    2.0209    1.0000 </r>
       <r>    2.6791    1.0000 </r>
       <r>    2.6791    1.0000 </r>
       <r>    2.6795    1.0000 </r>
       <r>    2.6795    1.0000 </r>
       <r>    9.8757    0.0000 </r>
       <r>    9.8757    0.0000 </r>
       <r>   12.5413    0.0000 </r>
       <r>   12.5413    0.0000 </r>
       <r>   12.5416    0.0000 </r>
       <r>   12.5416    0.0000 </r>
       <r>   12.5416    0.0000 </r>
       <r>   12.5416    0.0000 </r>
       <r>   14.3851    0.0000 </r>
       <r>   14.3851    0.0000 </r>
       <r>   14.3852    0.0000 </r>
       <r>   14.3852    0.0000 </r>
      </set>
      <set comment="kpoint 3">
       <r>  -13.4101    1.0000 </r>
       <r>  -13.4101    1.0000 </r>
       <r>  -12.9715    1.0000 </r>
       <r>  -12.9715    1.0000 </r>
       <r>  -12.9715    1.0000 </r>
       <r>  -12.9715    1.0000 </r>
       <r>  -12.6085    1.0000 </r>
       <r>  -12.6085    1.0000 </r>
       <r>   -0.4140    1.0000 </r>
       <r>   -0.4140    1.0000 </r>
       <r>   -0.4139    1.0000 </r>
       <r>   -0.4139    1.0000 </r>
       <r>    0.1282    1.0000 </r>
       <r>    0.1282    1.0000 </r>
       <r>    0.1283    1.0000 </r>
       <r>    0.1283    1.0000 </r>
       <r>    0.4236    1.0000 </r>
       <r>    0.4236    1.0000 </r>
       <r>    1.0674    1.0000 </r>
       <r>    1.0674    1.0000 </r>
       <r>    1.0674    1.0000 </r>
       <r>    1.0674    1.0000 </r>
       <r>    1.2792    1.0000 </r>
       <r>    1.2792    1.0000 </r>
       <r>    2.2913    1.0000 </r>
       <r>    2.2913    1.0000 </r>
       <r>    2.2915    1.0000 </r>
       <r>    2.2915    1.0000 </r>
       <r>    2.3819    1.0000 </r>
       <r>    2.3819    1.0000 </r>
       <r>    2.3822    1.0000 </r>
       <r>    2.3822    1.0000 </r>
       <r>   10.8337    0.0000 </r>
       <r>   10.8337    0.0000 </r>
       <r>   12.2715    0.0000 </r>
       <r>   12.2715    0.0000 </r>
       <r>   12.2718    0.0000 </r>
       <r>   12.2718    0.0000 </r>
       <r>   14.1153    0.0000 </r>
       <r>   14.1154    0.0000 </r>
       <r>   14.5040    0.0000 </r>
       <r>   14.5041    0.0000 </r>
       <r>   14.5059    0.0000 </r>
       <r>   14.6220    0.0000 </r>
      </set>
     </set>
    </set>
   </array>
  </eigenvalues>
  <separator name="orbital magnetization" >
   <v name="MAGDIPOLOUT">      0.00000000      0.00000000      0.00000000</v>
  </separator>
  <dos>
   <i name="efermi">      3.32929791 </i>
   <total>
    <array>
     <dimension dim="1">gridpoints</dimension>
     <dimension dim="2">spin</dimension>
     <field>energy</field>
     <field>total</field>
     <field>integrated</field>
     <set>
      <set comment="spin 1">
       <r>   -15.6005     0.0000     0.0000 </r>
       <r>   -15.4924     0.0000     0.0000 </r>
       <r>   -15.3842     0.0000     0.0000 </r>
       <r>   -15.2761     0.0000     0.0000 </r>
       <r>   -15.1680     0.0000     0.0000 </r>
       <r>   -15.0599     0.0000     0.0000 </r>
       <r>   -14.9517     0.0000     0.0000 </r>
       <r>   -14.8436     0.0000     0.0000 </r>
       <r>   -14.7355     0.0000     0.0000 </r>
       <r>   -14.6273     0.0000     0.0000 </r>
       <r>   -14.5192     0.0000     0.0000 </r>
       <r>   -14.4111     0.0000     0.0000 </r>
       <r>   -14.3029     0.0000     0.0000 </r>
       <r>   -14.1948     0.0597     0.0065 </r>
       <r>   -14.0867     1.9447     0.2167 </r>
       <r>   -13.9785     0.3075     0.2500 </r>
       <r>   -13.8704     0.0000     0.2500 </r>
       <r>   -13.7623     0.0000     0.2500 </r>
       <r>   -13.6541     0.1274     0.2638 </r>
       <r>   -13.5460    13.2680     1.6985 </r>
       <r>   -13.4379     8.0922     2.5735 </r>
       <r>   -13.3297    10.7203     3.7327 </r>
       <r>   -13.2216     0.1601     3.7500 </r>
       <r>   -13.1135     0.0008     3.7501 </r>
       <r>   -13.0054     4.7045     4.2588 </r>
       <r>   -12.8972    27.9947     7.2859 </r>
       <r>   -12.7891    32.4164    10.7912 </r>
       <r>   -12.6810    29.1845    13.9469 </r>
       <r>   -12.5728    16.7427    15.7573 </r>
       <r>   -12.4647     2.2437    16.0000 </r>
       <r>   -12.3566     0.0003    16.0000 </r>
       <r>   -12.2484     0.0000    16.0000 </r>
       <r>   -12.1403     0.0000    16.0000 </r>
       <r>   -12.0322     0.0000    16.0000 </r>
       <r>   -11.9240     0.0000    16.0000 </r>
       <r>   -11.8159     0.0000    16.0000 </r>
       <r>   -11.7078     0.0000    16.0000 </r>
       <r>   -11.5996     0.0000    16.0000 </r>
       <r>   -11.4915     0.0000    16.0000 </r>
       <r>   -11.3834     0.0000    16.0000 </r>
       <r>   -11.2752     0.0000    16.0000 </r>
       <r>   -11.1671     0.0000    16.0000 </r>
       <r>   -11.0590     0.0000    16.0000 </r>
       <r>   -10.9508     0.0000    16.0000 </r>
       <r>   -10.8427     0.0000    16.0000 </r>
       <r>   -10.7346     0.0000    16.0000 </r>
       <r>   -10.6265     0.0000    16.0000 </r>
       <r>   -10.5183     0.0000    16.0000 </r>
       <r>   -10.4102     0.0000    16.0000 </r>
       <r>   -10.3021     0.0000    16.0000 </r>
       <r>   -10.1939     0.0000    16.0000 </r>
       <r>   -10.0858     0.0000    16.0000 </r>
       <r>    -9.9777     0.0000    16.0000 </r>
       <r>    -9.8695     0.0000    16.0000 </r>
       <r>    -9.7614     0.0000    16.0000 </r>
       <r>    -9.6533     0.0000    16.0000 </r>
       <r>    -9.5451     0.0000    16.0000 </r>
       <r>    -9.4370     0.0000    16.0000 </r>
       <r>    -9.3289     0.0000    16.0000 </r>
       <r>    -9.2207     0.0000    16.0000 </r>
       <r>    -9.1126     0.0000    16.0000 </r>
       <r>    -9.0045     0.0000    16.0000 </r>
       <r>    -8.8963     0.0000    16.0000 </r>
       <r>    -8.7882     0.0000    16.0000 </r>
       <r>    -8.6801     0.0000    16.0000 </r>
       <r>    -8.5719     0.0000    16.0000 </r>
       <r>    -8.4638     0.0000    16.0000 </r>
       <r>    -8.3557     0.0000    16.0000 </r>
       <r>    -8.2476     0.0000    16.0000 </r>
       <r>    -8.1394     0.0000    16.0000 </r>
       <r>    -8.0313     0.0000    16.0000 </r>
       <r>    -7.9232     0.0000    16.0000 </r>
       <r>    -7.8150     0.0000    16.0000 </r>
       <r>    -7.7069     0.0000    16.0000 </r>
       <r>    -7.5988     0.0000    16.0000 </r>
       <r>    -7.4906     0.0000    16.0000 </r>
       <r>    -7.3825     0.0000    16.0000 </r>
       <r>    -7.2744     0.0000    16.0000 </r>
       <r>    -7.1662     0.0000    16.0000 </r>
       <r>    -7.0581     0.0000    16.0000 </r>
       <r>    -6.9500     0.0000    16.0000 </r>
       <r>    -6.8418     0.0000    16.0000 </r>
       <r>    -6.7337     0.0000    16.0000 </r>
       <r>    -6.6256     0.0000    16.0000 </r>
       <r>    -6.5174     0.0000    16.0000 </r>
       <r>    -6.4093     0.0000    16.0000 </r>
       <r>    -6.3012     0.0000    16.0000 </r>
       <r>    -6.1931     0.0000    16.0000 </r>
       <r>    -6.0849     0.0000    16.0000 </r>
       <r>    -5.9768     0.0000    16.0000 </r>
       <r>    -5.8687     0.0000    16.0000 </r>
       <r>    -5.7605     0.0000    16.0000 </r>
       <r>    -5.6524     0.0000    16.0000 </r>
       <r>    -5.5443     0.0000    16.0000 </r>
       <r>    -5.4361     0.0000    16.0000 </r>
       <r>    -5.3280     0.0000    16.0000 </r>
       <r>    -5.2199     0.0000    16.0000 </r>
       <r>    -5.1117     0.0000    16.0000 </r>
       <r>    -5.0036     0.0000    16.0000 </r>
       <r>    -4.8955     0.0000    16.0000 </r>
       <r>    -4.7873     0.0000    16.0000 </r>
       <r>    -4.6792     0.0000    16.0000 </r>
       <r>    -4.5711     0.0000    16.0000 </r>
       <r>    -4.4629     0.0000    16.0000 </r>
       <r>    -4.3548     0.0000    16.0000 </r>
       <r>    -4.2467     0.0000    16.0000 </r>
       <r>    -4.1385     0.0000    16.0000 </r>
       <r>    -4.0304     0.0000    16.0000 </r>
       <r>    -3.9223     0.0000    16.0000 </r>
       <r>    -3.8142     0.0000    16.0000 </r>
       <r>    -3.7060     0.0000    16.0000 </r>
       <r>    -3.5979     0.0000    16.0000 </r>
       <r>    -3.4898     0.0000    16.0000 </r>
       <r>    -3.3816     0.0000    16.0000 </r>
       <r>    -3.2735     0.0000    16.0000 </r>
       <r>    -3.1654     0.0000    16.0000 </r>
       <r>    -3.0572     0.0000    16.0000 </r>
       <r>    -2.9491     0.0000    16.0000 </r>
       <r>    -2.8410     0.0000    16.0000 </r>
       <r>    -2.7328     0.0000    16.0000 </r>
       <r>    -2.6247     0.0000    16.0000 </r>
       <r>    -2.5166     0.0000    16.0000 </r>
       <r>    -2.4084     0.0000    16.0000 </r>
       <r>    -2.3003     0.0000    16.0000 </r>
       <r>    -2.1922     0.0000    16.0000 </r>
       <r>    -2.0840     0.0000    16.0000 </r>
       <r>    -1.9759     0.0000    16.0000 </r>
       <r>    -1.8678     0.0000    16.0000 </r>
       <r>    -1.7597     0.0000    16.0000 </r>
       <r>    -1.6515     0.0001    16.0000 </r>
       <r>    -1.5434     1.1379    16.1231 </r>
       <r>    -1.4353     7.8435    16.9712 </r>
       <r>    -1.3271     0.2664    17.0000 </r>
       <r>    -1.2190     0.0000    17.0000 </r>
       <r>    -1.1109     0.0006    17.0001 </r>
       <r>    -1.0027     1.6399    17.1774 </r>
       <r>    -0.8946     5.2288    17.7428 </r>
       <r>    -0.7865     1.6394    17.9201 </r>
       <r>    -0.6783    47.0061    23.0029 </r>
       <r>    -0.5702     6.9085    23.7499 </r>
       <r>    -0.4621     2.4083    24.0104 </r>
       <r>    -0.3539    24.0935    26.6156 </r>
       <r>    -0.2458     1.2427    26.7500 </r>
       <r>    -0.1377     0.0000    26.7500 </r>
       <r>    -0.0295     0.0001    26.7500 </r>
       <r>     0.0786     2.2251    26.9906 </r>
       <r>     0.1867    24.1596    29.6030 </r>
       <r>     0.2949     1.4083    29.7553 </r>
       <r>     0.4030    14.9736    31.3744 </r>
       <r>     0.5111    17.2447    33.2391 </r>
       <r>     0.6192     0.1005    33.2500 </r>
       <r>     0.7274     0.0000    33.2500 </r>
       <r>     0.8355     0.0000    33.2500 </r>
       <r>     0.9436     0.0064    33.2507 </r>
       <r>     1.0518     9.3555    34.2623 </r>
       <r>     1.1599    54.9063    40.1994 </r>
       <r>     1.2680    24.1652    42.8125 </r>
       <r>     1.3762     8.6280    43.7454 </r>
       <r>     1.4843     0.0423    43.7500 </r>
       <r>     1.5924     0.0239    43.7526 </r>
       <r>     1.7006     7.6508    44.5799 </r>
       <r>     1.8087     6.1874    45.2489 </r>
       <r>     1.9168     0.1008    45.2598 </r>
       <r>     2.0250    30.2659    48.5325 </r>
       <r>     2.1331    25.0897    51.2455 </r>
       <r>     2.2412     2.2058    51.4841 </r>
       <r>     2.3494    32.2303    54.9692 </r>
       <r>     2.4575    38.8030    59.1650 </r>
       <r>     2.5656     0.8101    59.2526 </r>
       <r>     2.6737    16.1693    61.0010 </r>
       <r>     2.7819    20.7299    63.2426 </r>
       <r>     2.8900     0.0710    63.2503 </r>
       <r>     2.9981     2.5549    63.5265 </r>
       <r>     3.1063     4.3563    63.9976 </r>
       <r>     3.2144     0.0224    64.0000 </r>
       <r>     3.3225     0.0000    64.0000 </r>
       <r>     3.4307     0.0000    64.0000 </r>
       <r>     3.5388     0.0000    64.0000 </r>
       <r>     3.6469     0.0000    64.0000 </r>
       <r>     3.7551     0.0000    64.0000 </r>
       <r>     3.8632     0.0000    64.0000 </r>
       <r>     3.9713     0.0000    64.0000 </r>
       <r>     4.0795     0.0000    64.0000 </r>
       <r>     4.1876     0.0000    64.0000 </r>
       <r>     4.2957     0.0000    64.0000 </r>
       <r>     4.4039     0.0000    64.0000 </r>
       <r>     4.5120     0.0000    64.0000 </r>
       <r>     4.6201     0.0000    64.0000 </r>
       <r>     4.7283     0.0000    64.0000 </r>
       <r>     4.8364     0.0000    64.0000 </r>
       <r>     4.9445     0.0000    64.0000 </r>
       <r>     5.0526     0.0000    64.0000 </r>
       <r>     5.1608     0.0000    64.0000 </r>
       <r>     5.2689     0.0000    64.0000 </r>
       <r>     5.3770     0.0000    64.0000 </r>
       <r>     5.4852     0.0000    64.0000 </r>
       <r>     5.5933     0.0000    64.0000 </r>
       <r>     5.7014     0.0000    64.0000 </r>
       <r>     5.8096     0.0000    64.0000 </r>
       <r>     5.9177     0.0000    64.0000 </r>
       <r>     6.0258     0.0000    64.0000 </r>
       <r>     6.1340     0.0000    64.0000 </r>
       <r>     6.2421     0.0000    64.0000 </r>
       <r>     6.3502     0.0000    64.0000 </r>
       <r>     6.4584     0.0000    64.0000 </r>
       <r>     6.5665     0.0000    64.0000 </r>
       <r>     6.6746     0.0000    64.0000 </r>
       <r>     6.7828     0.0000    64.0000 </r>
       <r>     6.8909     0.0000    64.0000 </r>
       <r>     6.9990     0.0000    64.0000 </r>
       <r>     7.1071     0.0000    64.0000 </r>
       <r>     7.2153     0.0000    64.0000 </r>
       <r>     7.3234     0.0000    64.0000 </r>
       <r>     7.4315     0.0645    64.0070 </r>
       <r>     7.5397     1.9563    64.2185 </r>
       <r>     7.6478     0.2911    64.2500 </r>
       <r>     7.7559     0.0000    64.2500 </r>
       <r>     7.8641     0.0000    64.2500 </r>
       <r>     7.9722     0.0000    64.2500 </r>
       <r>     8.0803     0.0000    64.2500 </r>
       <r>     8.1885     0.0000    64.2500 </r>
       <r>     8.2966     0.0000    64.2500 </r>
       <r>     8.4047     0.0000    64.2500 </r>
       <r>     8.5129     0.0000    64.2500 </r>
       <r>     8.6210     0.0000    64.2500 </r>
       <r>     8.7291     0.0000    64.2500 </r>
       <r>     8.8373     0.0000    64.2500 </r>
       <r>     8.9454     0.0000    64.2500 </r>
       <r>     9.0535     0.0000    64.2500 </r>
       <r>     9.1617     0.0000    64.2500 </r>
       <r>     9.2698     0.0000    64.2500 </r>
       <r>     9.3779     0.0000    64.2500 </r>
       <r>     9.4860     0.0000    64.2500 </r>
       <r>     9.5942     0.0000    64.2500 </r>
       <r>     9.7023     0.0000    64.2500 </r>
       <r>     9.8104     0.5989    64.3148 </r>
       <r>     9.9186    15.8098    66.0243 </r>
       <r>    10.0267     2.0870    66.2500 </r>
       <r>    10.1348     0.0002    66.2500 </r>
       <r>    10.2430     0.0000    66.2500 </r>
       <r>    10.3511     0.0000    66.2500 </r>
       <r>    10.4592     0.0000    66.2500 </r>
       <r>    10.5674     0.0000    66.2500 </r>
       <r>    10.6755     0.1364    66.2647 </r>
       <r>    10.7836     8.4482    67.1783 </r>
       <r>    10.8918    13.8362    68.6744 </r>
       <r>    10.9999     0.6991    68.7500 </r>
       <r>    11.1080     0.0000    68.7500 </r>
       <r>    11.2162     0.0000    68.7500 </r>
       <r>    11.3243     0.0000    68.7500 </r>
       <r>    11.4324     0.0000    68.7500 </r>
       <r>    11.5406     0.0000    68.7500 </r>
       <r>    11.6487     0.0000    68.7500 </r>
       <r>    11.7568     0.0000    68.7500 </r>
       <r>    11.8649     0.0000    68.7500 </r>
       <r>    11.9731     0.0007    68.7501 </r>
       <r>    12.0812     1.7735    68.9418 </r>
       <r>    12.1893     5.3816    69.5238 </r>
       <r>    12.2975    21.0733    71.8025 </r>
       <r>    12.4056     6.4521    72.5001 </r>
       <r>    12.5137    11.9880    73.7964 </r>
       <r>    12.6219    42.9006    78.4353 </r>
       <r>    12.7300     5.4949    79.0295 </r>
       <r>    12.8381     2.0380    79.2499 </r>
       <r>    12.9463     0.0011    79.2500 </r>
       <r>    13.0544     0.0000    79.2500 </r>
       <r>    13.1625     0.0000    79.2500 </r>
       <r>    13.2707     0.0000    79.2500 </r>
       <r>    13.3788     0.0000    79.2500 </r>
       <r>    13.4869     0.0000    79.2500 </r>
       <r>    13.5951     0.0000    79.2500 </r>
       <r>    13.7032     0.0000    79.2500 </r>
       <r>    13.8113     0.0000    79.2500 </r>
       <r>    13.9194     0.0000    79.2500 </r>
       <r>    14.0276     0.0903    79.2598 </r>
       <r>    14.1357     9.8623    80.3262 </r>
       <r>    14.2438     3.9186    80.7499 </r>
       <r>    14.3520     6.4459    81.4469 </r>
       <r>    14.4601    32.0798    84.9158 </r>
       <r>    14.5682    18.9694    86.9670 </r>
       <r>    14.6764     6.8121    87.7036 </r>
       <r>    14.7845     0.4294    87.7500 </r>
       <r>    14.8926     0.0000    87.7500 </r>
       <r>    15.0008     0.0000    87.7500 </r>
       <r>    15.1089     0.0000    87.7500 </r>
       <r>    15.2170     0.0000    87.7500 </r>
       <r>    15.3252     0.3075    87.7833 </r>
       <r>    15.4333     1.9447    87.9935 </r>
       <r>    15.5414     0.0597    88.0000 </r>
       <r>    15.6496     0.0000    88.0000 </r>
       <r>    15.7577     0.0000    88.0000 </r>
       <r>    15.8658     0.0000    88.0000 </r>
       <r>    15.9740     0.0000    88.0000 </r>
       <r>    16.0821     0.0000    88.0000 </r>
       <r>    16.1902     0.0000    88.0000 </r>
       <r>    16.2983     0.0000    88.0000 </r>
       <r>    16.4065     0.0000    88.0000 </r>
       <r>    16.5146     0.0000    88.0000 </r>
       <r>    16.6227     0.0000    88.0000 </r>
       <r>    16.7309     0.0000    88.0000 </r>
       <r>    16.8390     0.0000    88.0000 </r>
      </set>
     </set>
    </array>
   </total>
   <partial>
    <array>
     <dimension dim="1">gridpoints</dimension>
     <dimension dim="2">spin</dimension>
     <dimension dim="3">ion</dimension>
     <field>energy</field>
     <field>  s</field>
     <field> py</field>
     <field> pz</field>
     <field> px</field>
     <field>dxy</field>
     <field>dyz</field>
     <field>dz2</field>
     <field>dxz</field>
     <field>dx2</field>
     <set>
      <set comment="ion 1">
       <set comment="spin 1">
        <r>   -15.6005     0.0000     0.0000     0.0000     0.0000     0.0000     0.0000     0.0000     0.0000     0.0000 </r>
        <r>   -15.4924     0.0000     0.0000     0.0000     0.0000     0.0000     0.0000     0.0000     0.0000     0.0000 </r>
        <r>   -15.3842     0.0000     0.0000     0.0000     0.0000     0.0000     0.0000     0.0000     0.0000     0.0000 </r>
        <r>   -15.2761     0.0000     0.0000     0.0000     0.0000     0.0000     0.0000     0.0000     0.0000     0.0000 </r>
        <r>   -15.1680     0.0000     0.0000     0.0000     0.0000     0.0000     0.0000     0.0000     0.0000     0.0000 </r>
        <r>   -15.0599     0.0000     0.0000     0.0000     0.0000     0.0000     0.0000     0.0000     0.0000     0.0000 </r>
        <r>   -14.9517     0.0000     0.0000     0.0000     0.0000     0.0000     0.0000     0.0000     0.0000     0.0000 </r>
        <r>   -14.8436     0.0000     0.0000     0.0000     0.0000     0.0000     0.0000     0.0000     0.0000     0.0000 </r>
        <r>   -14.7355     0.0000     0.0000     0.0000     0.0000     0.0000     0.0000     0.0000     0.0000     0.0000 </r>
        <r>   -14.6273     0.0000     0.0000     0.0000     0.0000     0.0000     0.0000     0.0000     0.0000     0.0000 </r>
        <r>   -14.5192     0.0000     0.0000     0.0000     0.0000     0.0000     0.0000     0.0000     0.0000     0.0000 </r>
        <r>   -14.4111     0.0000     0.0000     0.0000     0.0000     0.0000     0.0000     0.0000     0.0000     0.0000 </r>
        <r>   -14.3029     0.0000     0.0000     0.0000     0.0000     0.0000     0.0000     0.0000     0.0000     0.0000 </r>
        <r>   -14.1948     0.0003     0.0000     0.0000     0.0000     0.0000     0.0000     0.0000     0.0000     0.0000 </r>
        <r>   -14.0867     0.0101     0.0000     0.0000     0.0000     0.0000     0.0000     0.0000     0.0000     0.0000 </r>
        <r>   -13.9785     0.0016     0.0000     0.0000     0.0000     0.0000     0.0000     0.0000     0.0000     0.0000 </r>
        <r>   -13.8704     0.0000     0.0000     0.0000     0.0000     0.0000     0.0000     0.0000     0.0000     0.0000 </r>
        <r>   -13.7623     0.0000     0.0000     0.0000     0.0000     0.0000     0.0000     0.0000     0.0000     0.0000 </r>
        <r>   -13.6541     0.0004     0.0000     0.0000     0.0000     0.0000     0.0000     0.0000     0.0000     0.0000 </r>
        <r>   -13.5460     0.0392     0.0046     0.0046     0.0046     0.0000     0.0000     0.0000     0.0000     0.0000 </r>
        <r>   -13.4379     0.0230     0.0018     0.0042     0.0018     0.0000     0.0000     0.0006     0.0000     0.0000 </r>
        <r>   -13.3297     0.0282     0.0000     0.0087     0.0000     0.0000     0.0000     0.0022     0.0000     0.0000 </r>
        <r>   -13.2216     0.0004     0.0000     0.0001     0.0000     0.0000     0.0000     0.0000     0.0000     0.0000 </r>
        <r>   -13.1135     0.0000     0.0000     0.0000     0.0000     0.0000     0.0000     0.0000     0.0000     0.0000 </r>
        <r>   -13.0054     0.0035     0.0036     0.0000     0.0036     0.0000     0.0000     0.0011     0.0000     0.0000 </r>
        <r>   -12.8972     0.0171     0.0215     0.0041     0.0215     0.0000     0.0000     0.0052     0.0000     0.0000 </r>
        <r>   -12.7891     0.0102     0.0144     0.0141     0.0144     0.0000     0.0000     0.0071     0.0000     0.0070 </r>
        <r>   -12.6810     0.0105     0.0108     0.0110     0.0108     0.0000     0.0000     0.0076     0.0000     0.0078 </r>
        <r>   -12.5728     0.0033     0.0000     0.0084     0.0000     0.0000     0.0000     0.0028     0.0000     0.0118 </r>
        <r>   -12.4647     0.0000     0.0000     0.0016     0.0000     0.0000     0.0000     0.0000     0.0000     0.0017 </r>
        <r>   -12.3566     0.0000     0.0000     0.0000     0.0000     0.0000     0.0000     0.0000     0.0000     0.0000 </r>
        <r>   -12.2484     0.0000     0.0000     0.0000     0.0000     0.0000     0.0000     0.0000     0.0000     0.0000 </r>
        <r>   -12.1403     0.0000     0.0000     0.0000     0.0000     0.0000     0.0000     0.0000     0.0000     0.0000 </r>
        <r>   -12.0322     0.0000     0.0000     0.0000     0.0000     0.0000     0.0000     0.0000     0.0000     0.0000 </r>
        <r>   -11.9240     0.0000     0.0000     0.0000     0.0000     0.0000     0.0000     0.0000     0.0000     0.0000 </r>
        <r>   -11.8159     0.0000     0.0000     0.0000     0.0000     0.0000     0.0000     0.0000     0.0000     0.0000 </r>
        <r>   -11.7078     0.0000     0.0000     0.0000     0.0000     0.0000     0.0000     0.0000     0.0000     0.0000 </r>
        <r>   -11.5996     0.0000     0.0000     0.0000     0.0000     0.0000     0.0000     0.0000     0.0000     0.0000 </r>
        <r>   -11.4915     0.0000     0.0000     0.0000     0.0000     0.0000     0.0000     0.0000     0.0000     0.0000 </r>
        <r>   -11.3834     0.0000     0.0000     0.0000     0.0000     0.0000     0.0000     0.0000     0.0000     0.0000 </r>
        <r>   -11.2752     0.0000     0.0000     0.0000     0.0000     0.0000     0.0000     0.0000     0.0000     0.0000 </r>
        <r>   -11.1671     0.0000     0.0000     0.0000     0.0000     0.0000     0.0000     0.0000     0.0000     0.0000 </r>
        <r>   -11.0590     0.0000     0.0000     0.0000     0.0000     0.0000     0.0000     0.0000     0.0000     0.0000 </r>
        <r>   -10.9508     0.0000     0.0000     0.0000     0.0000     0.0000     0.0000     0.0000     0.0000     0.0000 </r>
        <r>   -10.8427     0.0000     0.0000     0.0000     0.0000     0.0000     0.0000     0.0000     0.0000     0.0000 </r>
        <r>   -10.7346     0.0000     0.0000     0.0000     0.0000     0.0000     0.0000     0.0000     0.0000     0.0000 </r>
        <r>   -10.6265     0.0000     0.0000     0.0000     0.0000     0.0000     0.0000     0.0000     0.0000     0.0000 </r>
        <r>   -10.5183     0.0000     0.0000     0.0000     0.0000     0.0000     0.0000     0.0000     0.0000     0.0000 </r>
        <r>   -10.4102     0.0000     0.0000     0.0000     0.0000     0.0000     0.0000     0.0000     0.0000     0.0000 </r>
        <r>   -10.3021     0.0000     0.0000     0.0000     0.0000     0.0000     0.0000     0.0000     0.0000     0.0000 </r>
        <r>   -10.1939     0.0000     0.0000     0.0000     0.0000     0.0000     0.0000     0.0000     0.0000     0.0000 </r>
        <r>   -10.0858     0.0000     0.0000     0.0000     0.0000     0.0000     0.0000     0.0000     0.0000     0.0000 </r>
        <r>    -9.9777     0.0000     0.0000     0.0000     0.0000     0.0000     0.0000     0.0000     0.0000     0.0000 </r>
        <r>    -9.8695     0.0000     0.0000     0.0000     0.0000     0.0000     0.0000     0.0000     0.0000     0.0000 </r>
        <r>    -9.7614     0.0000     0.0000     0.0000     0.0000     0.0000     0.0000     0.0000     0.0000     0.0000 </r>
        <r>    -9.6533     0.0000     0.0000     0.0000     0.0000     0.0000     0.0000     0.0000     0.0000     0.0000 </r>
        <r>    -9.5451     0.0000     0.0000     0.0000     0.0000     0.0000     0.0000     0.0000     0.0000     0.0000 </r>
        <r>    -9.4370     0.0000     0.0000     0.0000     0.0000     0.0000     0.0000     0.0000     0.0000     0.0000 </r>
        <r>    -9.3289     0.0000     0.0000     0.0000     0.0000     0.0000     0.0000     0.0000     0.0000     0.0000 </r>
        <r>    -9.2207     0.0000     0.0000     0.0000     0.0000     0.0000     0.0000     0.0000     0.0000     0.0000 </r>
        <r>    -9.1126     0.0000     0.0000     0.0000     0.0000     0.0000     0.0000     0.0000     0.0000     0.0000 </r>
        <r>    -9.0045     0.0000     0.0000     0.0000     0.0000     0.0000     0.0000     0.0000     0.0000     0.0000 </r>
        <r>    -8.8963     0.0000     0.0000     0.0000     0.0000     0.0000     0.0000     0.0000     0.0000     0.0000 </r>
        <r>    -8.7882     0.0000     0.0000     0.0000     0.0000     0.0000     0.0000     0.0000     0.0000     0.0000 </r>
        <r>    -8.6801     0.0000     0.0000     0.0000     0.0000     0.0000     0.0000     0.0000     0.0000     0.0000 </r>
        <r>    -8.5719     0.0000     0.0000     0.0000     0.0000     0.0000     0.0000     0.0000     0.0000     0.0000 </r>
        <r>    -8.4638     0.0000     0.0000     0.0000     0.0000     0.0000     0.0000     0.0000     0.0000     0.0000 </r>
        <r>    -8.3557     0.0000     0.0000     0.0000     0.0000     0.0000     0.0000     0.0000     0.0000     0.0000 </r>
        <r>    -8.2476     0.0000     0.0000     0.0000     0.0000     0.0000     0.0000     0.0000     0.0000     0.0000 </r>
        <r>    -8.1394     0.0000     0.0000     0.0000     0.0000     0.0000     0.0000     0.0000     0.0000     0.0000 </r>
        <r>    -8.0313     0.0000     0.0000     0.0000     0.0000     0.0000     0.0000     0.0000     0.0000     0.0000 </r>
        <r>    -7.9232     0.0000     0.0000     0.0000     0.0000     0.0000     0.0000     0.0000     0.0000     0.0000 </r>
        <r>    -7.8150     0.0000     0.0000     0.0000     0.0000     0.0000     0.0000     0.0000     0.0000     0.0000 </r>
        <r>    -7.7069     0.0000     0.0000     0.0000     0.0000     0.0000     0.0000     0.0000     0.0000     0.0000 </r>
        <r>    -7.5988     0.0000     0.0000     0.0000     0.0000     0.0000     0.0000     0.0000     0.0000     0.0000 </r>
        <r>    -7.4906     0.0000     0.0000     0.0000     0.0000     0.0000     0.0000     0.0000     0.0000     0.0000 </r>
        <r>    -7.3825     0.0000     0.0000     0.0000     0.0000     0.0000     0.0000     0.0000     0.0000     0.0000 </r>
        <r>    -7.2744     0.0000     0.0000     0.0000     0.0000     0.0000     0.0000     0.0000     0.0000     0.0000 </r>
        <r>    -7.1662     0.0000     0.0000     0.0000     0.0000     0.0000     0.0000     0.0000     0.0000     0.0000 </r>
        <r>    -7.0581     0.0000     0.0000     0.0000     0.0000     0.0000     0.0000     0.0000     0.0000     0.0000 </r>
        <r>    -6.9500     0.0000     0.0000     0.0000     0.0000     0.0000     0.0000     0.0000     0.0000     0.0000 </r>
        <r>    -6.8418     0.0000     0.0000     0.0000     0.0000     0.0000     0.0000     0.0000     0.0000     0.0000 </r>
        <r>    -6.7337     0.0000     0.0000     0.0000     0.0000     0.0000     0.0000     0.0000     0.0000     0.0000 </r>
        <r>    -6.6256     0.0000     0.0000     0.0000     0.0000     0.0000     0.0000     0.0000     0.0000     0.0000 </r>
        <r>    -6.5174     0.0000     0.0000     0.0000     0.0000     0.0000     0.0000     0.0000     0.0000     0.0000 </r>
        <r>    -6.4093     0.0000     0.0000     0.0000     0.0000     0.0000     0.0000     0.0000     0.0000     0.0000 </r>
        <r>    -6.3012     0.0000     0.0000     0.0000     0.0000     0.0000     0.0000     0.0000     0.0000     0.0000 </r>
        <r>    -6.1931     0.0000     0.0000     0.0000     0.0000     0.0000     0.0000     0.0000     0.0000     0.0000 </r>
        <r>    -6.0849     0.0000     0.0000     0.0000     0.0000     0.0000     0.0000     0.0000     0.0000     0.0000 </r>
        <r>    -5.9768     0.0000     0.0000     0.0000     0.0000     0.0000     0.0000     0.0000     0.0000     0.0000 </r>
        <r>    -5.8687     0.0000     0.0000     0.0000     0.0000     0.0000     0.0000     0.0000     0.0000     0.0000 </r>
        <r>    -5.7605     0.0000     0.0000     0.0000     0.0000     0.0000     0.0000     0.0000     0.0000     0.0000 </r>
        <r>    -5.6524     0.0000     0.0000     0.0000     0.0000     0.0000     0.0000     0.0000     0.0000     0.0000 </r>
        <r>    -5.5443     0.0000     0.0000     0.0000     0.0000     0.0000     0.0000     0.0000     0.0000     0.0000 </r>
        <r>    -5.4361     0.0000     0.0000     0.0000     0.0000     0.0000     0.0000     0.0000     0.0000     0.0000 </r>
        <r>    -5.3280     0.0000     0.0000     0.0000     0.0000     0.0000     0.0000     0.0000     0.0000     0.0000 </r>
        <r>    -5.2199     0.0000     0.0000     0.0000     0.0000     0.0000     0.0000     0.0000     0.0000     0.0000 </r>
        <r>    -5.1117     0.0000     0.0000     0.0000     0.0000     0.0000     0.0000     0.0000     0.0000     0.0000 </r>
        <r>    -5.0036     0.0000     0.0000     0.0000     0.0000     0.0000     0.0000     0.0000     0.0000     0.0000 </r>
        <r>    -4.8955     0.0000     0.0000     0.0000     0.0000     0.0000     0.0000     0.0000     0.0000     0.0000 </r>
        <r>    -4.7873     0.0000     0.0000     0.0000     0.0000     0.0000     0.0000     0.0000     0.0000     0.0000 </r>
        <r>    -4.6792     0.0000     0.0000     0.0000     0.0000     0.0000     0.0000     0.0000     0.0000     0.0000 </r>
        <r>    -4.5711     0.0000     0.0000     0.0000     0.0000     0.0000     0.0000     0.0000     0.0000     0.0000 </r>
        <r>    -4.4629     0.0000     0.0000     0.0000     0.0000     0.0000     0.0000     0.0000     0.0000     0.0000 </r>
        <r>    -4.3548     0.0000     0.0000     0.0000     0.0000     0.0000     0.0000     0.0000     0.0000     0.0000 </r>
        <r>    -4.2467     0.0000     0.0000     0.0000     0.0000     0.0000     0.0000     0.0000     0.0000     0.0000 </r>
        <r>    -4.1385     0.0000     0.0000     0.0000     0.0000     0.0000     0.0000     0.0000     0.0000     0.0000 </r>
        <r>    -4.0304     0.0000     0.0000     0.0000     0.0000     0.0000     0.0000     0.0000     0.0000     0.0000 </r>
        <r>    -3.9223     0.0000     0.0000     0.0000     0.0000     0.0000     0.0000     0.0000     0.0000     0.0000 </r>
        <r>    -3.8142     0.0000     0.0000     0.0000     0.0000     0.0000     0.0000     0.0000     0.0000     0.0000 </r>
        <r>    -3.7060     0.0000     0.0000     0.0000     0.0000     0.0000     0.0000     0.0000     0.0000     0.0000 </r>
        <r>    -3.5979     0.0000     0.0000     0.0000     0.0000     0.0000     0.0000     0.0000     0.0000     0.0000 </r>
        <r>    -3.4898     0.0000     0.0000     0.0000     0.0000     0.0000     0.0000     0.0000     0.0000     0.0000 </r>
        <r>    -3.3816     0.0000     0.0000     0.0000     0.0000     0.0000     0.0000     0.0000     0.0000     0.0000 </r>
        <r>    -3.2735     0.0000     0.0000     0.0000     0.0000     0.0000     0.0000     0.0000     0.0000     0.0000 </r>
        <r>    -3.1654     0.0000     0.0000     0.0000     0.0000     0.0000     0.0000     0.0000     0.0000     0.0000 </r>
        <r>    -3.0572     0.0000     0.0000     0.0000     0.0000     0.0000     0.0000     0.0000     0.0000     0.0000 </r>
        <r>    -2.9491     0.0000     0.0000     0.0000     0.0000     0.0000     0.0000     0.0000     0.0000     0.0000 </r>
        <r>    -2.8410     0.0000     0.0000     0.0000     0.0000     0.0000     0.0000     0.0000     0.0000     0.0000 </r>
        <r>    -2.7328     0.0000     0.0000     0.0000     0.0000     0.0000     0.0000     0.0000     0.0000     0.0000 </r>
        <r>    -2.6247     0.0000     0.0000     0.0000     0.0000     0.0000     0.0000     0.0000     0.0000     0.0000 </r>
        <r>    -2.5166     0.0000     0.0000     0.0000     0.0000     0.0000     0.0000     0.0000     0.0000     0.0000 </r>
        <r>    -2.4084     0.0000     0.0000     0.0000     0.0000     0.0000     0.0000     0.0000     0.0000     0.0000 </r>
        <r>    -2.3003     0.0000     0.0000     0.0000     0.0000     0.0000     0.0000     0.0000     0.0000     0.0000 </r>
        <r>    -2.1922     0.0000     0.0000     0.0000     0.0000     0.0000     0.0000     0.0000     0.0000     0.0000 </r>
        <r>    -2.0840     0.0000     0.0000     0.0000     0.0000     0.0000     0.0000     0.0000     0.0000     0.0000 </r>
        <r>    -1.9759     0.0000     0.0000     0.0000     0.0000     0.0000     0.0000     0.0000     0.0000     0.0000 </r>
        <r>    -1.8678     0.0000     0.0000     0.0000     0.0000     0.0000     0.0000     0.0000     0.0000     0.0000 </r>
        <r>    -1.7597     0.0000     0.0000     0.0000     0.0000     0.0000     0.0000     0.0000     0.0000     0.0000 </r>
        <r>    -1.6515     0.0000     0.0000     0.0000     0.0000     0.0000     0.0000     0.0000     0.0000     0.0000 </r>
        <r>    -1.5434     0.0146     0.0000     0.0000     0.0000     0.0005     0.0005     0.0000     0.0005     0.0000 </r>
        <r>    -1.4353     0.1008     0.0000     0.0000     0.0000     0.0034     0.0034     0.0000     0.0034     0.0000 </r>
        <r>    -1.3271     0.0034     0.0000     0.0000     0.0000     0.0001     0.0001     0.0000     0.0001     0.0000 </r>
        <r>    -1.2190     0.0000     0.0000     0.0000     0.0000     0.0000     0.0000     0.0000     0.0000     0.0000 </r>
        <r>    -1.1109     0.0000     0.0000     0.0000     0.0000     0.0000     0.0000     0.0000     0.0000     0.0000 </r>
        <r>    -1.0027     0.0000     0.0056     0.0056     0.0056     0.0000     0.0000     0.0000     0.0000     0.0000 </r>
        <r>    -0.8946     0.0000     0.0179     0.0179     0.0179     0.0000     0.0000     0.0000     0.0000     0.0000 </r>
        <r>    -0.7865     0.0104     0.0024     0.0024     0.0024     0.0004     0.0004     0.0001     0.0004     0.0001 </r>
        <r>    -0.6783     0.3117     0.0655     0.0655     0.0655     0.0109     0.0109     0.0034     0.0109     0.0034 </r>
        <r>    -0.5702     0.0458     0.0096     0.0096     0.0096     0.0016     0.0016     0.0005     0.0016     0.0005 </r>
        <r>    -0.4621     0.0246     0.0004     0.0000     0.0004     0.0016     0.0000     0.0018     0.0000     0.0000 </r>
        <r>    -0.3539     0.2466     0.0044     0.0000     0.0044     0.0162     0.0000     0.0178     0.0000     0.0000 </r>
        <r>    -0.2458     0.0127     0.0002     0.0000     0.0002     0.0008     0.0000     0.0009     0.0000     0.0000 </r>
        <r>    -0.1377     0.0000     0.0000     0.0000     0.0000     0.0000     0.0000     0.0000     0.0000     0.0000 </r>
        <r>    -0.0295     0.0000     0.0000     0.0000     0.0000     0.0000     0.0000     0.0000     0.0000     0.0000 </r>
        <r>     0.0786     0.0000     0.0092     0.0000     0.0092     0.0000     0.0007     0.0000     0.0007     0.0000 </r>
        <r>     0.1867     0.0000     0.0996     0.0000     0.0996     0.0000     0.0073     0.0000     0.0073     0.0000 </r>
        <r>     0.2949     0.0004     0.0056     0.0000     0.0056     0.0000     0.0004     0.0000     0.0004     0.0000 </r>
        <r>     0.4030     0.1265     0.0022     0.0072     0.0022     0.0028     0.0028     0.0065     0.0028     0.0000 </r>
        <r>     0.5111     0.1315     0.0014     0.0142     0.0014     0.0019     0.0019     0.0164     0.0019     0.0000 </r>
        <r>     0.6192     0.0007     0.0000     0.0001     0.0000     0.0000     0.0000     0.0002     0.0000     0.0000 </r>
        <r>     0.7274     0.0000     0.0000     0.0000     0.0000     0.0000     0.0000     0.0000     0.0000     0.0000 </r>
        <r>     0.8355     0.0000     0.0000     0.0000     0.0000     0.0000     0.0000     0.0000     0.0000     0.0000 </r>
        <r>     0.9436     0.0000     0.0000     0.0000     0.0000     0.0000     0.0000     0.0000     0.0000     0.0000 </r>
        <r>     1.0518     0.0002     0.0003     0.0571     0.0003     0.0000     0.0048     0.0001     0.0048     0.0001 </r>
        <r>     1.1599     0.0393     0.0551     0.1700     0.0551     0.0052     0.0148     0.0223     0.0148     0.0223 </r>
        <r>     1.2680     0.0566     0.0285     0.0293     0.0285     0.0027     0.0027     0.0206     0.0027     0.0115 </r>
        <r>     1.3762     0.0600     0.0000     0.0000     0.0000     0.0000     0.0000     0.0150     0.0000     0.0000 </r>
        <r>     1.4843     0.0003     0.0000     0.0000     0.0000     0.0000     0.0000     0.0001     0.0000     0.0000 </r>
        <r>     1.5924     0.0000     0.0000     0.0000     0.0000     0.0000     0.0000     0.0000     0.0000     0.0000 </r>
        <r>     1.7006     0.0000     0.0145     0.0145     0.0145     0.0000     0.0000     0.0000     0.0000     0.0000 </r>
        <r>     1.8087     0.0000     0.0117     0.0117     0.0117     0.0000     0.0000     0.0000     0.0000     0.0000 </r>
        <r>     1.9168     0.0000     0.0001     0.0001     0.0001     0.0000     0.0000     0.0001     0.0000     0.0001 </r>
        <r>     2.0250     0.0000     0.0310     0.0310     0.0311     0.0018     0.0018     0.0233     0.0018     0.0233 </r>
        <r>     2.1331     0.0000     0.0258     0.0258     0.0257     0.0015     0.0015     0.0193     0.0015     0.0193 </r>
        <r>     2.2412     0.0000     0.0042     0.0000     0.0042     0.0000     0.0004     0.0000     0.0004     0.0000 </r>
        <r>     2.3494     0.0000     0.0473     0.0000     0.0473     0.0004     0.0054     0.0052     0.0054     0.0216 </r>
        <r>     2.4575     0.0000     0.0068     0.0000     0.0068     0.0019     0.0021     0.0250     0.0021     0.0994 </r>
        <r>     2.5656     0.0000     0.0001     0.0000     0.0001     0.0000     0.0000     0.0006     0.0000     0.0021 </r>
        <r>     2.6737     0.0000     0.0054     0.0054     0.0054     0.0012     0.0012     0.0141     0.0012     0.0141 </r>
        <r>     2.7819     0.0000     0.0069     0.0069     0.0069     0.0015     0.0015     0.0181     0.0015     0.0181 </r>
        <r>     2.8900     0.0000     0.0000     0.0000     0.0000     0.0000     0.0000     0.0001     0.0000     0.0001 </r>
        <r>     2.9981     0.0000     0.0018     0.0018     0.0018     0.0000     0.0000     0.0000     0.0000     0.0000 </r>
        <r>     3.1063     0.0000     0.0030     0.0030     0.0030     0.0000     0.0000     0.0000     0.0000     0.0000 </r>
        <r>     3.2144     0.0000     0.0000     0.0000     0.0000     0.0000     0.0000     0.0000     0.0000     0.0000 </r>
        <r>     3.3225     0.0000     0.0000     0.0000     0.0000     0.0000     0.0000     0.0000     0.0000     0.0000 </r>
        <r>     3.4307     0.0000     0.0000     0.0000     0.0000     0.0000     0.0000     0.0000     0.0000     0.0000 </r>
        <r>     3.5388     0.0000     0.0000     0.0000     0.0000     0.0000     0.0000     0.0000     0.0000     0.0000 </r>
        <r>     3.6469     0.0000     0.0000     0.0000     0.0000     0.0000     0.0000     0.0000     0.0000     0.0000 </r>
        <r>     3.7551     0.0000     0.0000     0.0000     0.0000     0.0000     0.0000     0.0000     0.0000     0.0000 </r>
        <r>     3.8632     0.0000     0.0000     0.0000     0.0000     0.0000     0.0000     0.0000     0.0000     0.0000 </r>
        <r>     3.9713     0.0000     0.0000     0.0000     0.0000     0.0000     0.0000     0.0000     0.0000     0.0000 </r>
        <r>     4.0795     0.0000     0.0000     0.0000     0.0000     0.0000     0.0000     0.0000     0.0000     0.0000 </r>
        <r>     4.1876     0.0000     0.0000     0.0000     0.0000     0.0000     0.0000     0.0000     0.0000     0.0000 </r>
        <r>     4.2957     0.0000     0.0000     0.0000     0.0000     0.0000     0.0000     0.0000     0.0000     0.0000 </r>
        <r>     4.4039     0.0000     0.0000     0.0000     0.0000     0.0000     0.0000     0.0000     0.0000     0.0000 </r>
        <r>     4.5120     0.0000     0.0000     0.0000     0.0000     0.0000     0.0000     0.0000     0.0000     0.0000 </r>
        <r>     4.6201     0.0000     0.0000     0.0000     0.0000     0.0000     0.0000     0.0000     0.0000     0.0000 </r>
        <r>     4.7283     0.0000     0.0000     0.0000     0.0000     0.0000     0.0000     0.0000     0.0000     0.0000 </r>
        <r>     4.8364     0.0000     0.0000     0.0000     0.0000     0.0000     0.0000     0.0000     0.0000     0.0000 </r>
        <r>     4.9445     0.0000     0.0000     0.0000     0.0000     0.0000     0.0000     0.0000     0.0000     0.0000 </r>
        <r>     5.0526     0.0000     0.0000     0.0000     0.0000     0.0000     0.0000     0.0000     0.0000     0.0000 </r>
        <r>     5.1608     0.0000     0.0000     0.0000     0.0000     0.0000     0.0000     0.0000     0.0000     0.0000 </r>
        <r>     5.2689     0.0000     0.0000     0.0000     0.0000     0.0000     0.0000     0.0000     0.0000     0.0000 </r>
        <r>     5.3770     0.0000     0.0000     0.0000     0.0000     0.0000     0.0000     0.0000     0.0000     0.0000 </r>
        <r>     5.4852     0.0000     0.0000     0.0000     0.0000     0.0000     0.0000     0.0000     0.0000     0.0000 </r>
        <r>     5.5933     0.0000     0.0000     0.0000     0.0000     0.0000     0.0000     0.0000     0.0000     0.0000 </r>
        <r>     5.7014     0.0000     0.0000     0.0000     0.0000     0.0000     0.0000     0.0000     0.0000     0.0000 </r>
        <r>     5.8096     0.0000     0.0000     0.0000     0.0000     0.0000     0.0000     0.0000     0.0000     0.0000 </r>
        <r>     5.9177     0.0000     0.0000     0.0000     0.0000     0.0000     0.0000     0.0000     0.0000     0.0000 </r>
        <r>     6.0258     0.0000     0.0000     0.0000     0.0000     0.0000     0.0000     0.0000     0.0000     0.0000 </r>
        <r>     6.1340     0.0000     0.0000     0.0000     0.0000     0.0000     0.0000     0.0000     0.0000     0.0000 </r>
        <r>     6.2421     0.0000     0.0000     0.0000     0.0000     0.0000     0.0000     0.0000     0.0000     0.0000 </r>
        <r>     6.3502     0.0000     0.0000     0.0000     0.0000     0.0000     0.0000     0.0000     0.0000     0.0000 </r>
        <r>     6.4584     0.0000     0.0000     0.0000     0.0000     0.0000     0.0000     0.0000     0.0000     0.0000 </r>
        <r>     6.5665     0.0000     0.0000     0.0000     0.0000     0.0000     0.0000     0.0000     0.0000     0.0000 </r>
        <r>     6.6746     0.0000     0.0000     0.0000     0.0000     0.0000     0.0000     0.0000     0.0000     0.0000 </r>
        <r>     6.7828     0.0000     0.0000     0.0000     0.0000     0.0000     0.0000     0.0000     0.0000     0.0000 </r>
        <r>     6.8909     0.0000     0.0000     0.0000     0.0000     0.0000     0.0000     0.0000     0.0000     0.0000 </r>
        <r>     6.9990     0.0000     0.0000     0.0000     0.0000     0.0000     0.0000     0.0000     0.0000     0.0000 </r>
        <r>     7.1071     0.0000     0.0000     0.0000     0.0000     0.0000     0.0000     0.0000     0.0000     0.0000 </r>
        <r>     7.2153     0.0000     0.0000     0.0000     0.0000     0.0000     0.0000     0.0000     0.0000     0.0000 </r>
        <r>     7.3234     0.0000     0.0000     0.0000     0.0000     0.0000     0.0000     0.0000     0.0000     0.0000 </r>
        <r>     7.4315     0.0019     0.0000     0.0000     0.0000     0.0000     0.0000     0.0000     0.0000     0.0000 </r>
        <r>     7.5397     0.0583     0.0000     0.0000     0.0000     0.0000     0.0000     0.0000     0.0000     0.0000 </r>
        <r>     7.6478     0.0087     0.0000     0.0000     0.0000     0.0000     0.0000     0.0000     0.0000     0.0000 </r>
        <r>     7.7559     0.0000     0.0000     0.0000     0.0000     0.0000     0.0000     0.0000     0.0000     0.0000 </r>
        <r>     7.8641     0.0000     0.0000     0.0000     0.0000     0.0000     0.0000     0.0000     0.0000     0.0000 </r>
        <r>     7.9722     0.0000     0.0000     0.0000     0.0000     0.0000     0.0000     0.0000     0.0000     0.0000 </r>
        <r>     8.0803     0.0000     0.0000     0.0000     0.0000     0.0000     0.0000     0.0000     0.0000     0.0000 </r>
        <r>     8.1885     0.0000     0.0000     0.0000     0.0000     0.0000     0.0000     0.0000     0.0000     0.0000 </r>
        <r>     8.2966     0.0000     0.0000     0.0000     0.0000     0.0000     0.0000     0.0000     0.0000     0.0000 </r>
        <r>     8.4047     0.0000     0.0000     0.0000     0.0000     0.0000     0.0000     0.0000     0.0000     0.0000 </r>
        <r>     8.5129     0.0000     0.0000     0.0000     0.0000     0.0000     0.0000     0.0000     0.0000     0.0000 </r>
        <r>     8.6210     0.0000     0.0000     0.0000     0.0000     0.0000     0.0000     0.0000     0.0000     0.0000 </r>
        <r>     8.7291     0.0000     0.0000     0.0000     0.0000     0.0000     0.0000     0.0000     0.0000     0.0000 </r>
        <r>     8.8373     0.0000     0.0000     0.0000     0.0000     0.0000     0.0000     0.0000     0.0000     0.0000 </r>
        <r>     8.9454     0.0000     0.0000     0.0000     0.0000     0.0000     0.0000     0.0000     0.0000     0.0000 </r>
        <r>     9.0535     0.0000     0.0000     0.0000     0.0000     0.0000     0.0000     0.0000     0.0000     0.0000 </r>
        <r>     9.1617     0.0000     0.0000     0.0000     0.0000     0.0000     0.0000     0.0000     0.0000     0.0000 </r>
        <r>     9.2698     0.0000     0.0000     0.0000     0.0000     0.0000     0.0000     0.0000     0.0000     0.0000 </r>
        <r>     9.3779     0.0000     0.0000     0.0000     0.0000     0.0000     0.0000     0.0000     0.0000     0.0000 </r>
        <r>     9.4860     0.0000     0.0000     0.0000     0.0000     0.0000     0.0000     0.0000     0.0000     0.0000 </r>
        <r>     9.5942     0.0000     0.0000     0.0000     0.0000     0.0000     0.0000     0.0000     0.0000     0.0000 </r>
        <r>     9.7023     0.0000     0.0000     0.0000     0.0000     0.0000     0.0000     0.0000     0.0000     0.0000 </r>
        <r>     9.8104     0.0096     0.0017     0.0017     0.0017     0.0001     0.0001     0.0000     0.0001     0.0000 </r>
        <r>     9.9186     0.2524     0.0451     0.0451     0.0451     0.0020     0.0020     0.0000     0.0020     0.0000 </r>
        <r>    10.0267     0.0333     0.0060     0.0060     0.0060     0.0003     0.0003     0.0000     0.0003     0.0000 </r>
        <r>    10.1348     0.0000     0.0000     0.0000     0.0000     0.0000     0.0000     0.0000     0.0000     0.0000 </r>
        <r>    10.2430     0.0000     0.0000     0.0000     0.0000     0.0000     0.0000     0.0000     0.0000     0.0000 </r>
        <r>    10.3511     0.0000     0.0000     0.0000     0.0000     0.0000     0.0000     0.0000     0.0000     0.0000 </r>
        <r>    10.4592     0.0000     0.0000     0.0000     0.0000     0.0000     0.0000     0.0000     0.0000     0.0000 </r>
        <r>    10.5674     0.0000     0.0000     0.0000     0.0000     0.0000     0.0000     0.0000     0.0000     0.0000 </r>
        <r>    10.6755     0.0000     0.0010     0.0010     0.0010     0.0000     0.0000     0.0000     0.0000     0.0000 </r>
        <r>    10.7836     0.0247     0.0557     0.0577     0.0557     0.0000     0.0000     0.0017     0.0000     0.0000 </r>
        <r>    10.8918     0.2754     0.0132     0.0358     0.0132     0.0000     0.0000     0.0194     0.0000     0.0000 </r>
        <r>    10.9999     0.0159     0.0000     0.0013     0.0000     0.0000     0.0000     0.0011     0.0000     0.0000 </r>
        <r>    11.1080     0.0000     0.0000     0.0000     0.0000     0.0000     0.0000     0.0000     0.0000     0.0000 </r>
        <r>    11.2162     0.0000     0.0000     0.0000     0.0000     0.0000     0.0000     0.0000     0.0000     0.0000 </r>
        <r>    11.3243     0.0000     0.0000     0.0000     0.0000     0.0000     0.0000     0.0000     0.0000     0.0000 </r>
        <r>    11.4324     0.0000     0.0000     0.0000     0.0000     0.0000     0.0000     0.0000     0.0000     0.0000 </r>
        <r>    11.5406     0.0000     0.0000     0.0000     0.0000     0.0000     0.0000     0.0000     0.0000     0.0000 </r>
        <r>    11.6487     0.0000     0.0000     0.0000     0.0000     0.0000     0.0000     0.0000     0.0000     0.0000 </r>
        <r>    11.7568     0.0000     0.0000     0.0000     0.0000     0.0000     0.0000     0.0000     0.0000     0.0000 </r>
        <r>    11.8649     0.0000     0.0000     0.0000     0.0000     0.0000     0.0000     0.0000     0.0000     0.0000 </r>
        <r>    11.9731     0.0000     0.0000     0.0000     0.0000     0.0000     0.0000     0.0000     0.0000     0.0000 </r>
        <r>    12.0812     0.0000     0.0000     0.0000     0.0000     0.0129     0.0129     0.0000     0.0129     0.0000 </r>
        <r>    12.1893     0.0020     0.0019     0.0000     0.0019     0.0372     0.0371     0.0002     0.0371     0.0000 </r>
        <r>    12.2975     0.1490     0.1437     0.0000     0.1437     0.0082     0.0004     0.0148     0.0004     0.0000 </r>
        <r>    12.4056     0.0457     0.0441     0.0000     0.0441     0.0024     0.0000     0.0045     0.0000     0.0000 </r>
        <r>    12.5137     0.0876     0.0485     0.0485     0.0483     0.0176     0.0178     0.0042     0.0176     0.0042 </r>
        <r>    12.6219     0.3156     0.1730     0.1730     0.1732     0.0633     0.0631     0.0149     0.0633     0.0149 </r>
        <r>    12.7300     0.2798     0.0026     0.0026     0.0026     0.0009     0.0009     0.0012     0.0010     0.0012 </r>
        <r>    12.8381     0.1155     0.0000     0.0000     0.0000     0.0000     0.0000     0.0004     0.0000     0.0004 </r>
        <r>    12.9463     0.0001     0.0000     0.0000     0.0000     0.0000     0.0000     0.0000     0.0000     0.0000 </r>
        <r>    13.0544     0.0000     0.0000     0.0000     0.0000     0.0000     0.0000     0.0000     0.0000     0.0000 </r>
        <r>    13.1625     0.0000     0.0000     0.0000     0.0000     0.0000     0.0000     0.0000     0.0000     0.0000 </r>
        <r>    13.2707     0.0000     0.0000     0.0000     0.0000     0.0000     0.0000     0.0000     0.0000     0.0000 </r>
        <r>    13.3788     0.0000     0.0000     0.0000     0.0000     0.0000     0.0000     0.0000     0.0000     0.0000 </r>
[...]
        <r>  0.0000  0.0665  0.0000  0.0665  0.0000  0.0000  0.0000  0.0000  0.0000 </r>
        <r>  0.0000  0.0215  0.0000  0.0215  0.0000  0.0000  0.0000  0.0000  0.0000 </r>
        <r>  0.0000  0.0215  0.0000  0.0215  0.0000  0.0000  0.0000  0.0000  0.0000 </r>
        <r>  0.0000  0.0215  0.0000  0.0215  0.0000  0.0000  0.0000  0.0000  0.0000 </r>
        <r>  0.0000  0.0215  0.0000  0.0215  0.0000  0.0000  0.0000  0.0000  0.0000 </r>
        <r>  0.0000  0.0665  0.0000  0.0665  0.0000  0.0000  0.0000  0.0000  0.0000 </r>
        <r>  0.0000  0.0665  0.0000  0.0665  0.0000  0.0000  0.0000  0.0000  0.0000 </r>
       </set>
       <set comment="band 33">
        <r>  0.0170  0.0000  0.0023  0.0000  0.0000  0.0000  0.0012  0.0000  0.0000 </r>
        <r>  0.0170  0.0000  0.0023  0.0000  0.0000  0.0000  0.0012  0.0000  0.0000 </r>
        <r>  0.0286  0.0000  0.0014  0.0000  0.0000  0.0000  0.0020  0.0000  0.0000 </r>
        <r>  0.0286  0.0000  0.0014  0.0000  0.0000  0.0000  0.0020  0.0000  0.0000 </r>
        <r>  0.0286  0.0000  0.0014  0.0000  0.0000  0.0000  0.0020  0.0000  0.0000 </r>
        <r>  0.0286  0.0000  0.0014  0.0000  0.0000  0.0000  0.0020  0.0000  0.0000 </r>
        <r>  0.0170  0.0000  0.0023  0.0000  0.0000  0.0000  0.0012  0.0000  0.0000 </r>
        <r>  0.0170  0.0000  0.0023  0.0000  0.0000  0.0000  0.0012  0.0000  0.0000 </r>
        <r>  0.0210  0.0000  0.0227  0.0000  0.0000  0.0000  0.0000  0.0000  0.0000 </r>
        <r>  0.0210  0.0000  0.0227  0.0000  0.0000  0.0000  0.0000  0.0000  0.0000 </r>
        <r>  0.0125  0.0000  0.0381  0.0000  0.0000  0.0000  0.0000  0.0000  0.0000 </r>
        <r>  0.0125  0.0000  0.0381  0.0000  0.0000  0.0000  0.0000  0.0000  0.0000 </r>
        <r>  0.0125  0.0000  0.0381  0.0000  0.0000  0.0000  0.0000  0.0000  0.0000 </r>
        <r>  0.0125  0.0000  0.0381  0.0000  0.0000  0.0000  0.0000  0.0000  0.0000 </r>
        <r>  0.0210  0.0000  0.0227  0.0000  0.0000  0.0000  0.0000  0.0000  0.0000 </r>
        <r>  0.0210  0.0000  0.0227  0.0000  0.0000  0.0000  0.0000  0.0000  0.0000 </r>
       </set>
       <set comment="band 34">
        <r>  0.0286  0.0000  0.0014  0.0000  0.0000  0.0000  0.0020  0.0000  0.0000 </r>
        <r>  0.0286  0.0000  0.0014  0.0000  0.0000  0.0000  0.0020  0.0000  0.0000 </r>
        <r>  0.0170  0.0000  0.0023  0.0000  0.0000  0.0000  0.0012  0.0000  0.0000 </r>
        <r>  0.0170  0.0000  0.0023  0.0000  0.0000  0.0000  0.0012  0.0000  0.0000 </r>
        <r>  0.0170  0.0000  0.0023  0.0000  0.0000  0.0000  0.0012  0.0000  0.0000 </r>
        <r>  0.0170  0.0000  0.0023  0.0000  0.0000  0.0000  0.0012  0.0000  0.0000 </r>
        <r>  0.0286  0.0000  0.0014  0.0000  0.0000  0.0000  0.0020  0.0000  0.0000 </r>
        <r>  0.0286  0.0000  0.0014  0.0000  0.0000  0.0000  0.0020  0.0000  0.0000 </r>
        <r>  0.0125  0.0000  0.0381  0.0000  0.0000  0.0000  0.0000  0.0000  0.0000 </r>
        <r>  0.0125  0.0000  0.0381  0.0000  0.0000  0.0000  0.0000  0.0000  0.0000 </r>
        <r>  0.0210  0.0000  0.0227  0.0000  0.0000  0.0000  0.0000  0.0000  0.0000 </r>
        <r>  0.0210  0.0000  0.0227  0.0000  0.0000  0.0000  0.0000  0.0000  0.0000 </r>
        <r>  0.0210  0.0000  0.0227  0.0000  0.0000  0.0000  0.0000  0.0000  0.0000 </r>
        <r>  0.0210  0.0000  0.0227  0.0000  0.0000  0.0000  0.0000  0.0000  0.0000 </r>
        <r>  0.0125  0.0000  0.0381  0.0000  0.0000  0.0000  0.0000  0.0000  0.0000 </r>
        <r>  0.0125  0.0000  0.0381  0.0000  0.0000  0.0000  0.0000  0.0000  0.0000 </r>
       </set>
       <set comment="band 35">
        <r>  0.0106  0.0034  0.0000  0.0034  0.0006  0.0000  0.0011  0.0000  0.0000 </r>
        <r>  0.0106  0.0034  0.0000  0.0034  0.0006  0.0000  0.0011  0.0000  0.0000 </r>
        <r>  0.0035  0.0103  0.0000  0.0103  0.0002  0.0000  0.0004  0.0000  0.0000 </r>
        <r>  0.0035  0.0103  0.0000  0.0103  0.0002  0.0000  0.0004  0.0000  0.0000 </r>
        <r>  0.0035  0.0103  0.0000  0.0103  0.0002  0.0000  0.0004  0.0000  0.0000 </r>
        <r>  0.0035  0.0103  0.0000  0.0103  0.0002  0.0000  0.0004  0.0000  0.0000 </r>
        <r>  0.0106  0.0034  0.0000  0.0034  0.0006  0.0000  0.0011  0.0000  0.0000 </r>
        <r>  0.0106  0.0034  0.0000  0.0034  0.0006  0.0000  0.0011  0.0000  0.0000 </r>
        <r>  0.0181  0.0071  0.0000  0.0071  0.0000  0.0000  0.0000  0.0000  0.0000 </r>
        <r>  0.0181  0.0071  0.0000  0.0071  0.0000  0.0000  0.0000  0.0000  0.0000 </r>
        <r>  0.0060  0.0215  0.0000  0.0215  0.0000  0.0000  0.0000  0.0000  0.0000 </r>
        <r>  0.0060  0.0215  0.0000  0.0215  0.0000  0.0000  0.0000  0.0000  0.0000 </r>
        <r>  0.0060  0.0215  0.0000  0.0215  0.0000  0.0000  0.0000  0.0000  0.0000 </r>
        <r>  0.0060  0.0215  0.0000  0.0215  0.0000  0.0000  0.0000  0.0000  0.0000 </r>
        <r>  0.0181  0.0071  0.0000  0.0071  0.0000  0.0000  0.0000  0.0000  0.0000 </r>
        <r>  0.0181  0.0071  0.0000  0.0071  0.0000  0.0000  0.0000  0.0000  0.0000 </r>
       </set>
       <set comment="band 36">
        <r>  0.0035  0.0103  0.0000  0.0103  0.0002  0.0000  0.0004  0.0000  0.0000 </r>
        <r>  0.0035  0.0103  0.0000  0.0103  0.0002  0.0000  0.0004  0.0000  0.0000 </r>
        <r>  0.0106  0.0034  0.0000  0.0034  0.0006  0.0000  0.0011  0.0000  0.0000 </r>
        <r>  0.0106  0.0034  0.0000  0.0034  0.0006  0.0000  0.0011  0.0000  0.0000 </r>
        <r>  0.0106  0.0034  0.0000  0.0034  0.0006  0.0000  0.0011  0.0000  0.0000 </r>
        <r>  0.0106  0.0034  0.0000  0.0034  0.0006  0.0000  0.0011  0.0000  0.0000 </r>
        <r>  0.0035  0.0103  0.0000  0.0103  0.0002  0.0000  0.0004  0.0000  0.0000 </r>
        <r>  0.0035  0.0103  0.0000  0.0103  0.0002  0.0000  0.0004  0.0000  0.0000 </r>
        <r>  0.0060  0.0215  0.0000  0.0215  0.0000  0.0000  0.0000  0.0000  0.0000 </r>
        <r>  0.0060  0.0215  0.0000  0.0215  0.0000  0.0000  0.0000  0.0000  0.0000 </r>
        <r>  0.0181  0.0071  0.0000  0.0071  0.0000  0.0000  0.0000  0.0000  0.0000 </r>
        <r>  0.0181  0.0071  0.0000  0.0071  0.0000  0.0000  0.0000  0.0000  0.0000 </r>
        <r>  0.0181  0.0071  0.0000  0.0071  0.0000  0.0000  0.0000  0.0000  0.0000 </r>
        <r>  0.0181  0.0071  0.0000  0.0071  0.0000  0.0000  0.0000  0.0000  0.0000 </r>
        <r>  0.0060  0.0215  0.0000  0.0215  0.0000  0.0000  0.0000  0.0000  0.0000 </r>
        <r>  0.0060  0.0215  0.0000  0.0215  0.0000  0.0000  0.0000  0.0000  0.0000 </r>
       </set>
       <set comment="band 37">
        <r>  0.0096  0.0044  0.0000  0.0044  0.0005  0.0000  0.0010  0.0000  0.0000 </r>
        <r>  0.0096  0.0044  0.0000  0.0044  0.0005  0.0000  0.0010  0.0000  0.0000 </r>
        <r>  0.0045  0.0093  0.0000  0.0093  0.0002  0.0000  0.0005  0.0000  0.0000 </r>
        <r>  0.0045  0.0093  0.0000  0.0093  0.0002  0.0000  0.0005  0.0000  0.0000 </r>
        <r>  0.0045  0.0093  0.0000  0.0093  0.0002  0.0000  0.0005  0.0000  0.0000 </r>
        <r>  0.0045  0.0093  0.0000  0.0093  0.0002  0.0000  0.0005  0.0000  0.0000 </r>
        <r>  0.0096  0.0044  0.0000  0.0044  0.0005  0.0000  0.0010  0.0000  0.0000 </r>
        <r>  0.0096  0.0044  0.0000  0.0044  0.0005  0.0000  0.0010  0.0000  0.0000 </r>
        <r>  0.0164  0.0091  0.0000  0.0091  0.0000  0.0000  0.0000  0.0000  0.0000 </r>
        <r>  0.0164  0.0091  0.0000  0.0091  0.0000  0.0000  0.0000  0.0000  0.0000 </r>
        <r>  0.0077  0.0195  0.0000  0.0195  0.0000  0.0000  0.0000  0.0000  0.0000 </r>
        <r>  0.0077  0.0195  0.0000  0.0195  0.0000  0.0000  0.0000  0.0000  0.0000 </r>
        <r>  0.0077  0.0195  0.0000  0.0195  0.0000  0.0000  0.0000  0.0000  0.0000 </r>
        <r>  0.0077  0.0195  0.0000  0.0195  0.0000  0.0000  0.0000  0.0000  0.0000 </r>
        <r>  0.0164  0.0091  0.0000  0.0091  0.0000  0.0000  0.0000  0.0000  0.0000 </r>
        <r>  0.0164  0.0091  0.0000  0.0091  0.0000  0.0000  0.0000  0.0000  0.0000 </r>
       </set>
       <set comment="band 38">
        <r>  0.0045  0.0093  0.0000  0.0093  0.0002  0.0000  0.0005  0.0000  0.0000 </r>
        <r>  0.0045  0.0093  0.0000  0.0093  0.0002  0.0000  0.0005  0.0000  0.0000 </r>
        <r>  0.0096  0.0044  0.0000  0.0044  0.0005  0.0000  0.0010  0.0000  0.0000 </r>
        <r>  0.0096  0.0044  0.0000  0.0044  0.0005  0.0000  0.0010  0.0000  0.0000 </r>
        <r>  0.0096  0.0044  0.0000  0.0044  0.0005  0.0000  0.0010  0.0000  0.0000 </r>
        <r>  0.0096  0.0044  0.0000  0.0044  0.0005  0.0000  0.0010  0.0000  0.0000 </r>
        <r>  0.0045  0.0093  0.0000  0.0093  0.0002  0.0000  0.0005  0.0000  0.0000 </r>
        <r>  0.0045  0.0093  0.0000  0.0093  0.0002  0.0000  0.0005  0.0000  0.0000 </r>
        <r>  0.0077  0.0195  0.0000  0.0195  0.0000  0.0000  0.0000  0.0000  0.0000 </r>
        <r>  0.0077  0.0195  0.0000  0.0195  0.0000  0.0000  0.0000  0.0000  0.0000 </r>
        <r>  0.0164  0.0091  0.0000  0.0091  0.0000  0.0000  0.0000  0.0000  0.0000 </r>
        <r>  0.0164  0.0091  0.0000  0.0091  0.0000  0.0000  0.0000  0.0000  0.0000 </r>
        <r>  0.0164  0.0091  0.0000  0.0091  0.0000  0.0000  0.0000  0.0000  0.0000 </r>
        <r>  0.0164  0.0091  0.0000  0.0091  0.0000  0.0000  0.0000  0.0000  0.0000 </r>
        <r>  0.0077  0.0195  0.0000  0.0195  0.0000  0.0000  0.0000  0.0000  0.0000 </r>
        <r>  0.0077  0.0195  0.0000  0.0195  0.0000  0.0000  0.0000  0.0000  0.0000 </r>
       </set>
       <set comment="band 39">
        <r>  0.0000  0.0000  0.0000  0.0000  0.0133  0.0000  0.0000  0.0000  0.0000 </r>
        <r>  0.0000  0.0000  0.0000  0.0000  0.0133  0.0000  0.0000  0.0000  0.0000 </r>
        <r>  0.0000  0.0000  0.0000  0.0000  0.0328  0.0000  0.0000  0.0000  0.0000 </r>
        <r>  0.0000  0.0000  0.0000  0.0000  0.0328  0.0000  0.0000  0.0000  0.0000 </r>
        <r>  0.0000  0.0000  0.0000  0.0000  0.0328  0.0000  0.0000  0.0000  0.0000 </r>
        <r>  0.0000  0.0000  0.0000  0.0000  0.0328  0.0000  0.0000  0.0000  0.0000 </r>
        <r>  0.0000  0.0000  0.0000  0.0000  0.0133  0.0000  0.0000  0.0000  0.0000 </r>
        <r>  0.0000  0.0000  0.0000  0.0000  0.0133  0.0000  0.0000  0.0000  0.0000 </r>
        <r>  0.0000  0.0000  0.0000  0.0000  0.0000  0.0000  0.0000  0.0000  0.0000 </r>
        <r>  0.0000  0.0000  0.0000  0.0000  0.0000  0.0000  0.0000  0.0000  0.0000 </r>
        <r>  0.0000  0.0000  0.0000  0.0000  0.0000  0.0000  0.0000  0.0000  0.0000 </r>
        <r>  0.0000  0.0000  0.0000  0.0000  0.0000  0.0000  0.0000  0.0000  0.0000 </r>
        <r>  0.0000  0.0000  0.0000  0.0000  0.0000  0.0000  0.0000  0.0000  0.0000 </r>
        <r>  0.0000  0.0000  0.0000  0.0000  0.0000  0.0000  0.0000  0.0000  0.0000 </r>
        <r>  0.0000  0.0000  0.0000  0.0000  0.0000  0.0000  0.0000  0.0000  0.0000 </r>
        <r>  0.0000  0.0000  0.0000  0.0000  0.0000  0.0000  0.0000  0.0000  0.0000 </r>
       </set>
       <set comment="band 40">
        <r>  0.0000  0.0000  0.0000  0.0000  0.0328  0.0000  0.0000  0.0000  0.0000 </r>
        <r>  0.0000  0.0000  0.0000  0.0000  0.0328  0.0000  0.0000  0.0000  0.0000 </r>
        <r>  0.0000  0.0000  0.0000  0.0000  0.0133  0.0000  0.0000  0.0000  0.0000 </r>
        <r>  0.0000  0.0000  0.0000  0.0000  0.0133  0.0000  0.0000  0.0000  0.0000 </r>
        <r>  0.0000  0.0000  0.0000  0.0000  0.0133  0.0000  0.0000  0.0000  0.0000 </r>
        <r>  0.0000  0.0000  0.0000  0.0000  0.0133  0.0000  0.0000  0.0000  0.0000 </r>
        <r>  0.0000  0.0000  0.0000  0.0000  0.0328  0.0000  0.0000  0.0000  0.0000 </r>
        <r>  0.0000  0.0000  0.0000  0.0000  0.0328  0.0000  0.0000  0.0000  0.0000 </r>
        <r>  0.0000  0.0000  0.0000  0.0000  0.0000  0.0000  0.0000  0.0000  0.0000 </r>
        <r>  0.0000  0.0000  0.0000  0.0000  0.0000  0.0000  0.0000  0.0000  0.0000 </r>
        <r>  0.0000  0.0000  0.0000  0.0000  0.0000  0.0000  0.0000  0.0000  0.0000 </r>
        <r>  0.0000  0.0000  0.0000  0.0000  0.0000  0.0000  0.0000  0.0000  0.0000 </r>
        <r>  0.0000  0.0000  0.0000  0.0000  0.0000  0.0000  0.0000  0.0000  0.0000 </r>
        <r>  0.0000  0.0000  0.0000  0.0000  0.0000  0.0000  0.0000  0.0000  0.0000 </r>
        <r>  0.0000  0.0000  0.0000  0.0000  0.0000  0.0000  0.0000  0.0000  0.0000 </r>
        <r>  0.0000  0.0000  0.0000  0.0000  0.0000  0.0000  0.0000  0.0000  0.0000 </r>
       </set>
       <set comment="band 41">
        <r>  0.0000  0.0068  0.0000  0.0040  0.0000  0.0011  0.0000  0.0045  0.0000 </r>
        <r>  0.0000  0.0068  0.0000  0.0041  0.0000  0.0012  0.0000  0.0043  0.0000 </r>
        <r>  0.0000  0.0011  0.0000  0.0042  0.0000  0.0072  0.0000  0.0041  0.0000 </r>
        <r>  0.0000  0.0011  0.0000  0.0042  0.0000  0.0070  0.0000  0.0043  0.0000 </r>
        <r>  0.0000  0.0011  0.0000  0.0042  0.0000  0.0073  0.0000  0.0043  0.0000 </r>
        <r>  0.0000  0.0010  0.0000  0.0042  0.0000  0.0072  0.0000  0.0044  0.0000 </r>
        <r>  0.0000  0.0068  0.0000  0.0041  0.0000  0.0010  0.0000  0.0045  0.0000 </r>
        <r>  0.0000  0.0068  0.0000  0.0041  0.0000  0.0011  0.0000  0.0043  0.0000 </r>
        <r>  0.0000  0.0046  0.0000  0.0185  0.0000  0.0000  0.0000  0.0000  0.0000 </r>
        <r>  0.0000  0.0047  0.0000  0.0186  0.0000  0.0000  0.0000  0.0000  0.0000 </r>
        <r>  0.0000  0.0302  0.0000  0.0180  0.0000  0.0000  0.0000  0.0000  0.0000 </r>
        <r>  0.0000  0.0303  0.0000  0.0179  0.0000  0.0000  0.0000  0.0000  0.0000 </r>
        <r>  0.0000  0.0302  0.0000  0.0179  0.0000  0.0000  0.0000  0.0000  0.0000 </r>
        <r>  0.0000  0.0302  0.0000  0.0180  0.0000  0.0000  0.0000  0.0000  0.0000 </r>
        <r>  0.0000  0.0047  0.0000  0.0186  0.0000  0.0000  0.0000  0.0000  0.0000 </r>
        <r>  0.0000  0.0046  0.0000  0.0186  0.0000  0.0000  0.0000  0.0000  0.0000 </r>
       </set>
       <set comment="band 42">
        <r>  0.0000  0.0003  0.0000  0.0037  0.0000  0.0087  0.0000  0.0038  0.0000 </r>
        <r>  0.0000  0.0003  0.0000  0.0036  0.0000  0.0088  0.0000  0.0040  0.0000 </r>
        <r>  0.0000  0.0083  0.0000  0.0038  0.0000  0.0004  0.0000  0.0038  0.0000 </r>
        <r>  0.0000  0.0083  0.0000  0.0038  0.0000  0.0003  0.0000  0.0041  0.0000 </r>
        <r>  0.0000  0.0083  0.0000  0.0038  0.0000  0.0004  0.0000  0.0036  0.0000 </r>
        <r>  0.0000  0.0083  0.0000  0.0038  0.0000  0.0003  0.0000  0.0039  0.0000 </r>
        <r>  0.0000  0.0003  0.0000  0.0037  0.0000  0.0086  0.0000  0.0040  0.0000 </r>
        <r>  0.0000  0.0003  0.0000  0.0037  0.0000  0.0088  0.0000  0.0042  0.0000 </r>
        <r>  0.0000  0.0367  0.0000  0.0169  0.0000  0.0000  0.0000  0.0000  0.0000 </r>
        <r>  0.0000  0.0369  0.0000  0.0168  0.0000  0.0000  0.0000  0.0000  0.0000 </r>
        <r>  0.0000  0.0015  0.0000  0.0162  0.0000  0.0000  0.0000  0.0000  0.0000 </r>
        <r>  0.0000  0.0015  0.0000  0.0162  0.0000  0.0000  0.0000  0.0000  0.0000 </r>
        <r>  0.0000  0.0015  0.0000  0.0162  0.0000  0.0000  0.0000  0.0000  0.0000 </r>
        <r>  0.0000  0.0015  0.0000  0.0161  0.0000  0.0000  0.0000  0.0000  0.0000 </r>
        <r>  0.0000  0.0368  0.0000  0.0169  0.0000  0.0000  0.0000  0.0000  0.0000 </r>
        <r>  0.0000  0.0368  0.0000  0.0168  0.0000  0.0000  0.0000  0.0000  0.0000 </r>
       </set>
       <set comment="band 43">
        <r>  0.0000  0.0046  0.0001  0.0045  0.0000  0.0046  0.0000  0.0022  0.0000 </r>
        <r>  0.0000  0.0045  0.0001  0.0043  0.0000  0.0056  0.0000  0.0029  0.0000 </r>
        <r>  0.0000  0.0051  0.0000  0.0020  0.0000  0.0048  0.0000  0.0052  0.0000 </r>
        <r>  0.0000  0.0050  0.0001  0.0021  0.0000  0.0053  0.0000  0.0051  0.0000 </r>
        <r>  0.0000  0.0049  0.0001  0.0021  0.0000  0.0043  0.0000  0.0040  0.0000 </r>
        <r>  0.0000  0.0052  0.0000  0.0020  0.0000  0.0048  0.0000  0.0041  0.0000 </r>
        <r>  0.0000  0.0046  0.0000  0.0043  0.0000  0.0052  0.0000  0.0016  0.0000 </r>
        <r>  0.0000  0.0045  0.0001  0.0043  0.0000  0.0059  0.0000  0.0020  0.0000 </r>
        <r>  0.0000  0.0227  0.0001  0.0092  0.0000  0.0000  0.0000  0.0000  0.0000 </r>
        <r>  0.0000  0.0223  0.0004  0.0089  0.0000  0.0000  0.0000  0.0000  0.0000 </r>
        <r>  0.0000  0.0202  0.0003  0.0191  0.0000  0.0000  0.0000  0.0000  0.0000 </r>
        <r>  0.0000  0.0200  0.0000  0.0193  0.0000  0.0000  0.0000  0.0000  0.0000 </r>
        <r>  0.0000  0.0205  0.0000  0.0193  0.0000  0.0000  0.0000  0.0000  0.0000 </r>
        <r>  0.0000  0.0201  0.0003  0.0192  0.0000  0.0000  0.0000  0.0000  0.0000 </r>
        <r>  0.0000  0.0222  0.0003  0.0088  0.0000  0.0000  0.0000  0.0000  0.0000 </r>
        <r>  0.0000  0.0225  0.0001  0.0089  0.0000  0.0000  0.0000  0.0000  0.0000 </r>
       </set>
       <set comment="band 44">
        <r>  0.0002  0.0025  0.0052  0.0024  0.0000  0.0053  0.0001  0.0004  0.0000 </r>
        <r>  0.0009  0.0024  0.0006  0.0022  0.0000  0.0052  0.0000  0.0011  0.0000 </r>
        <r>  0.0002  0.0006  0.0065  0.0031  0.0000  0.0014  0.0000  0.0022  0.0000 </r>
        <r>  0.0001  0.0013  0.0044  0.0029  0.0000  0.0080  0.0000  0.0034  0.0000 </r>
        <r>  0.0001  0.0006  0.0049  0.0052  0.0000  0.0012  0.0000  0.0009  0.0000 </r>
        <r>  0.0002  0.0015  0.0038  0.0028  0.0000  0.0040  0.0000  0.0068  0.0000 </r>
        <r>  0.0009  0.0026  0.0002  0.0022  0.0000  0.0004  0.0000  0.0105  0.0000 </r>
        <r>  0.0016  0.0020  0.0069  0.0025  0.0000  0.0003  0.0000  0.0092  0.0000 </r>
        <r>  0.0000  0.0039  0.0004  0.0165  0.0000  0.0000  0.0000  0.0000  0.0000 </r>
        <r>  0.0000  0.0041  0.0205  0.0136  0.0000  0.0000  0.0000  0.0000  0.0000 </r>
        <r>  0.0000  0.0114  0.0167  0.0096  0.0000  0.0000  0.0000  0.0000  0.0000 </r>
        <r>  0.0000  0.0107  0.0177  0.0087  0.0000  0.0000  0.0000  0.0000  0.0000 </r>
        <r>  0.0000  0.0115  0.0143  0.0117  0.0000  0.0000  0.0000  0.0000  0.0000 </r>
        <r>  0.0000  0.0094  0.0130  0.0098  0.0000  0.0000  0.0000  0.0000  0.0000 </r>
        <r>  0.0000  0.0039  0.0175  0.0142  0.0000  0.0000  0.0000  0.0000  0.0000 </r>
        <r>  0.0000  0.0042  0.0028  0.0153  0.0000  0.0000  0.0000  0.0000  0.0000 </r>
       </set>
      </set>
     </set>
    </set>
   </array>
  </projected>
 </calculation>
 <structure name="finalpos" >
  <crystal>
   <varray name="basis" >
    <v>       0.00000000       4.24689300       4.24689300 </v>
    <v>       4.24689300       0.00000000       4.24689300 </v>
    <v>       4.24689300       4.24689300       0.00000000 </v>
   </varray>
   <i name="volume">    153.19477498 </i>
   <varray name="rec_basis" >
    <v>      -0.11773313       0.11773313       0.11773313 </v>
    <v>       0.11773313      -0.11773313       0.11773313 </v>
    <v>       0.11773313       0.11773313      -0.11773313 </v>
   </varray>
  </crystal>
  <varray name="positions" >
   <v>       0.00000000       0.00000000       0.00000000 </v>
   <v>       0.00000000       0.00000000       0.50000000 </v>
   <v>       0.00000000       0.50000000       0.00000000 </v>
   <v>       0.00000000       0.50000000       0.50000000 </v>
   <v>       0.50000000       0.00000000       0.00000000 </v>
   <v>       0.50000000       0.00000000       0.50000000 </v>
   <v>       0.50000000       0.50000000       0.00000000 </v>
   <v>       0.50000000       0.50000000       0.50000000 </v>
   <v>       0.25000000       0.25000000       0.25000000 </v>
   <v>       0.25000000       0.25000000       0.75000000 </v>
   <v>       0.25000000       0.75000000       0.25000000 </v>
   <v>       0.25000000       0.75000000       0.75000000 </v>
   <v>       0.75000000       0.25000000       0.25000000 </v>
   <v>       0.75000000       0.25000000       0.75000000 </v>
   <v>       0.75000000       0.75000000       0.25000000 </v>
   <v>       0.75000000       0.75000000       0.75000000 </v>
  </varray>
 </structure>
</modeling>
