<?xml version="1.0" encoding="ISO-8859-1"?>
<modeling>
 <generator>
  <i name="program" type="string">vasp </i>
  <i name="version" type="string">5.4.1  </i>
  <i name="subversion" type="string">05Feb16 (build Mar 31 2016 13:39:20) complex                          parallel </i>
  <i name="platform" type="string">IFC91_ompi </i>
  <i name="date" type="string">2018 04 12 </i>
  <i name="time" type="string">14:17:52 </i>
 </generator>
 <incar>
  <i type="string" name="PREC">n</i>
  <i type="string" name="ALGO"> N</i>
  <i type="int" name="NELM">   100</i>
  <i type="int" name="NELMIN">     4</i>
  <i type="int" name="IBRION">     2</i>
  <i name="EDIFF">      0.00000100</i>
  <i name="EDIFFG">     -0.05000000</i>
  <i type="int" name="NSW">    20</i>
  <i type="int" name="ISIF">     2</i>
  <i name="ENCUT">    400.00000000</i>
  <i type="string" name="LREAL"> A</i>
  <i type="int" name="ISMEAR">     0</i>
  <i name="SIGMA">      0.05000000</i>
  <i type="logical" name="LWAVE"> F  </i>
  <i type="logical" name="LCHARG"> F  </i>
  <i type="logical" name="LORBIT"> F  </i>
  <i type="logical" name="LASPH"> T  </i>
  <v type="int" name="KPOINT_BSE">    -1     0     0     0</v>
  <i type="int" name="NELM">   100</i>
  <i type="logical" name="LASPH"> T  </i>
 </incar>
 <kpoints>
  <generation param="Monkhorst-Pack">
   <v type="int" name="divisions">       2        2        2 </v>
   <v name="usershift">      0.00000000       0.00000000       0.00000000 </v>
   <v name="genvec1">      0.50000000       0.00000000       0.00000000 </v>
   <v name="genvec2">      0.00000000       0.50000000       0.00000000 </v>
   <v name="genvec3">      0.00000000       0.00000000       0.50000000 </v>
   <v name="shift">      0.50000000       0.50000000       0.50000000 </v>
  </generation>
  <varray name="kpointlist" >
   <v>       0.25000000       0.25000000       0.25000000 </v>
   <v>      -0.25000000       0.25000000       0.25000000 </v>
  </varray>
  <varray name="weights" >
   <v>       0.25000000 </v>
   <v>       0.75000000 </v>
  </varray>
 </kpoints>
 <parameters>
  <separator name="general" >
   <i type="string" name="SYSTEM">unknown system</i>
   <i type="logical" name="LCOMPAT"> F  </i>
  </separator>
  <separator name="electronic" >
   <i type="string" name="PREC">n</i>
   <i name="ENMAX">    400.00000000</i>
   <i name="ENAUG">    605.39200000</i>
   <i name="EDIFF">      0.00000100</i>
   <i type="int" name="IALGO">    38</i>
   <i type="int" name="IWAVPR">    11</i>
   <i type="int" name="NBANDS">    44</i>
   <i name="NELECT">     64.00000000</i>
   <i type="int" name="TURBO">     0</i>
   <i type="int" name="IRESTART">     0</i>
   <i type="int" name="NREBOOT">     0</i>
   <i type="int" name="NMIN">     0</i>
   <i name="EREF">      0.00000000</i>
   <separator name="electronic smearing" >
    <i type="int" name="ISMEAR">     0</i>
    <i name="SIGMA">      0.05000000</i>
    <i name="KSPACING">      0.50000000</i>
    <i type="logical" name="KGAMMA"> T  </i>
   </separator>
   <separator name="electronic projectors" >
    <i type="logical" name="LREAL"> T  </i>
    <v name="ROPT">     -0.00050000     -0.00050000</v>
    <i type="int" name="LMAXPAW">  -100</i>
    <i type="int" name="LMAXMIX">     2</i>
    <i type="logical" name="NLSPLINE"> F  </i>
   </separator>
   <separator name="electronic startup" >
    <i type="int" name="ISTART">     0</i>
    <i type="int" name="ICHARG">     2</i>
    <i type="int" name="INIWAV">     1</i>
   </separator>
   <separator name="electronic spin" >
    <i type="int" name="ISPIN">     1</i>
    <i type="logical" name="LNONCOLLINEAR"> F  </i>
    <v name="MAGMOM">      1.00000000      1.00000000      1.00000000      1.00000000      1.00000000      1.00000000      1.00000000      1.00000000      1.00000000      1.00000000      1.00000000      1.00000000      1.00000000      1.00000000      1.00000000      1.00000000</v>
    <i name="NUPDOWN">     -1.00000000</i>
    <i type="logical" name="LSORBIT"> F  </i>
    <v name="SAXIS">      0.00000000      0.00000000      1.00000000</v>
    <i type="logical" name="LSPIRAL"> F  </i>
    <v name="QSPIRAL">      0.00000000      0.00000000      0.00000000</v>
    <i type="logical" name="LZEROZ"> F  </i>
   </separator>
   <separator name="electronic exchange-correlation" >
    <i type="logical" name="LASPH"> T  </i>
    <i type="logical" name="LMETAGGA"> F  </i>
   </separator>
   <separator name="electronic convergence" >
    <i type="int" name="NELM">   100</i>
    <i type="int" name="NELMDL">    -5</i>
    <i type="int" name="NELMIN">     4</i>
    <i name="ENINI">    400.00000000</i>
    <separator name="electronic convergence detail" >
     <i type="logical" name="LDIAG"> T  </i>
     <i type="logical" name="LSUBROT"> F  </i>
     <i name="WEIMIN">      0.00100000</i>
     <i name="EBREAK">      0.00000001</i>
     <i name="DEPER">      0.30000000</i>
     <i type="int" name="NRMM">     4</i>
     <i name="TIME">      0.40000000</i>
    </separator>
   </separator>
   <separator name="electronic mixer" >
    <i name="AMIX">      0.40000000</i>
    <i name="BMIX">      1.00000000</i>
    <i name="AMIN">      0.10000000</i>
    <i name="AMIX_MAG">      1.60000000</i>
    <i name="BMIX_MAG">      1.00000000</i>
    <separator name="electronic mixer details" >
     <i type="int" name="IMIX">     4</i>
     <i type="logical" name="MIXFIRST"> F  </i>
     <i type="int" name="MAXMIX">   -45</i>
     <i name="WC">    100.00000000</i>
     <i type="int" name="INIMIX">     1</i>
     <i type="int" name="MIXPRE">     1</i>
     <i type="int" name="MREMOVE">     5</i>
    </separator>
   </separator>
   <separator name="electronic dipolcorrection" >
    <i type="logical" name="LDIPOL"> F  </i>
    <i type="logical" name="LMONO"> F  </i>
    <i type="int" name="IDIPOL">     0</i>
    <i name="EPSILON">      1.00000000</i>
    <v name="DIPOL">   -100.00000000   -100.00000000   -100.00000000</v>
    <i name="EFIELD">      0.00000000</i>
   </separator>
  </separator>
  <separator name="grids" >
   <i type="int" name="NGX">    30</i>
   <i type="int" name="NGY">    30</i>
   <i type="int" name="NGZ">    30</i>
   <i type="int" name="NGXF">    60</i>
   <i type="int" name="NGYF">    60</i>
   <i type="int" name="NGZF">    60</i>
   <i type="logical" name="ADDGRID"> F  </i>
  </separator>
  <separator name="ionic" >
   <i type="int" name="NSW">    20</i>
   <i type="int" name="IBRION">     2</i>
   <i type="int" name="ISIF">     2</i>
   <i name="PSTRESS">      0.00000000</i>
   <i name="EDIFFG">     -0.05000000</i>
   <i type="int" name="NFREE">     1</i>
   <i name="POTIM">      0.50000000</i>
   <i name="SMASS">     -3.00000000</i>
   <i name="SCALEE">      1.00000000</i>
  </separator>
  <separator name="ionic md" >
   <i name="TEBEG">      0.00010000</i>
   <i name="TEEND">      0.00010000</i>
   <i type="int" name="NBLOCK">     1</i>
   <i type="int" name="KBLOCK">    20</i>
   <i type="int" name="NPACO">   256</i>
   <i name="APACO">     16.00000000</i>
  </separator>
  <separator name="symmetry" >
   <i type="int" name="ISYM">     2</i>
   <i name="SYMPREC">      0.00001000</i>
  </separator>
  <separator name="dos" >
   <i type="logical" name="LORBIT"> F  </i>
   <v name="RWIGS">     -1.00000000     -1.00000000</v>
   <i type="int" name="NEDOS">   301</i>
   <i name="EMIN">     10.00000000</i>
   <i name="EMAX">    -10.00000000</i>
   <i name="EFERMI">      0.00000000</i>
  </separator>
  <separator name="writing" >
   <i type="int" name="NWRITE">     2</i>
   <i type="logical" name="LWAVE"> F  </i>
   <i type="logical" name="LCHARG"> F  </i>
   <i type="logical" name="LPARD"> F  </i>
   <i type="logical" name="LVTOT"> F  </i>
   <i type="logical" name="LVHAR"> F  </i>
   <i type="logical" name="LELF"> F  </i>
   <i type="logical" name="LOPTICS"> F  </i>
   <v name="STM">      0.00000000      0.00000000      0.00000000      0.00000000      0.00000000      0.00000000      0.00000000</v>
  </separator>
  <separator name="performance" >
   <i type="int" name="NPAR">     4</i>
   <i type="int" name="NSIM">     4</i>
   <i type="int" name="NBLK">    -1</i>
   <i type="logical" name="LPLANE"> T  </i>
   <i type="logical" name="LSCALAPACK"> T  </i>
   <i type="logical" name="LSCAAWARE"> F  </i>
   <i type="logical" name="LSCALU"> F  </i>
   <i type="logical" name="LASYNC"> F  </i>
   <i type="logical" name="LORBITALREAL"> F  </i>
  </separator>
  <separator name="miscellaneous" >
   <i type="int" name="IDIOT">     3</i>
   <i type="logical" name="LMUSIC"> F  </i>
   <v name="POMASS">     24.30500000     16.00000000</v>
   <v name="DARWINR">      0.00000000      0.00000000</v>
   <v name="DARWINV">      1.00000000      1.00000000</v>
   <i type="logical" name="LCORR"> T  </i>
  </separator>
  <i type="logical" name="GGA_COMPAT"> T  </i>
  <i type="logical" name="LBERRY"> F  </i>
  <i type="int" name="ICORELEVEL">     0</i>
  <i type="logical" name="LDAU"> F  </i>
  <i type="int" name="I_CONSTRAINED_M">     0</i>
  <separator name="electronic exchange-correlation" >
   <i type="string" name="GGA">--</i>
   <i type="int" name="VOSKOWN">     0</i>
   <i type="logical" name="LHFCALC"> F  </i>
   <i type="string" name="PRECFOCK"></i>
   <i type="logical" name="LSYMGRAD"> F  </i>
   <i type="logical" name="LHFONE"> F  </i>
   <i type="logical" name="LRHFCALC"> F  </i>
   <i type="logical" name="LTHOMAS"> F  </i>
   <i type="logical" name="LMODELHF"> F  </i>
   <i name="ENCUT4O">     -1.00000000</i>
   <i type="int" name="EXXOEP">     0</i>
   <i type="int" name="FOURORBIT">     0</i>
   <i name="AEXX">      0.00000000</i>
   <i name="HFALPHA">      0.00000000</i>
   <i name="MCALPHA">      0.00000000</i>
   <i name="ALDAX">      1.00000000</i>
   <i name="AGGAX">      1.00000000</i>
   <i name="ALDAC">      1.00000000</i>
   <i name="AGGAC">      1.00000000</i>
   <i type="int" name="NKREDX">     1</i>
   <i type="int" name="NKREDY">     1</i>
   <i type="int" name="NKREDZ">     1</i>
   <i type="logical" name="SHIFTRED"> F  </i>
   <i type="logical" name="ODDONLY"> F  </i>
   <i type="logical" name="EVENONLY"> F  </i>
   <i type="int" name="LMAXFOCK">     0</i>
   <i type="int" name="NMAXFOCKAE">     0</i>
   <i type="logical" name="LFOCKAEDFT"> F  </i>
   <i name="HFSCREEN">      0.00000000</i>
   <i name="HFSCREENC">      0.00000000</i>
   <i type="int" name="NBANDSGWLOW">     0</i>
  </separator>
  <separator name="vdW DFT" >
   <i type="logical" name="LUSE_VDW"> F  </i>
   <i name="Zab_VDW">     -0.84910000</i>
   <i name="PARAM1">      0.12340000</i>
   <i name="PARAM2">      1.00000000</i>
   <i name="PARAM3">      0.00000000</i>
  </separator>
  <separator name="model GW" >
   <i type="int" name="MODEL_GW">     0</i>
   <i name="MODEL_EPS0">      5.74480406</i>
   <i name="MODEL_ALPHA">      1.00000000</i>
  </separator>
  <separator name="linear response parameters" >
   <i type="logical" name="LEPSILON"> F  </i>
   <i type="logical" name="LRPA"> F  </i>
   <i type="logical" name="LNABLA"> F  </i>
   <i type="logical" name="LVEL"> F  </i>
   <i type="int" name="KINTER">     0</i>
   <i name="CSHIFT">      0.10000000</i>
   <i name="OMEGAMAX">     -1.00000000</i>
   <i name="DEG_THRESHOLD">      0.00200000</i>
  </separator>
  <separator name="orbital magnetization" >
   <i type="logical" name="NUCIND"> F  </i>
   <v name="MAGPOS">      0.00000000      0.00000000      0.00000000</v>
   <i type="logical" name="LNICSALL"> T  </i>
   <i type="logical" name="ORBITALMAG"> F  </i>
   <i type="logical" name="LMAGBLOCH"> F  </i>
   <i type="logical" name="LCHIMAG"> F  </i>
   <i type="logical" name="LGAUGE"> T  </i>
   <i type="int" name="MAGATOM">     0</i>
   <v name="MAGDIPOL">      0.00000000      0.00000000      0.00000000</v>
   <v name="AVECCONST">      0.00000000      0.00000000      0.00000000</v>
  </separator>
  <separator name="response functions" >
   <i type="logical" name="LADDER"> F  </i>
   <i type="logical" name="LFXC"> F  </i>
   <i type="logical" name="LHARTREE"> T  </i>
   <i type="int" name="IBSE">     0</i>
   <v type="int" name="KPOINT">    -1     0     0     0</v>
   <i type="logical" name="LTCTE"> F  </i>
   <i type="logical" name="LTETE"> F  </i>
   <i type="logical" name="LTRIPLET"> F  </i>
   <i type="logical" name="LFXCEPS"> F  </i>
   <i type="logical" name="LFXHEG"> F  </i>
   <i type="int" name="NATURALO">     0</i>
   <i type="logical" name="L2ORDER"> F  </i>
   <i type="logical" name="LUSEW"> F  </i>
   <i name="ENCUTGW">     -2.00000000</i>
   <i name="ENCUTGWSOFT">     -2.00000000</i>
   <i name="ENCUTLF">     -1.00000000</i>
   <i type="int" name="LMAXMP2">    -1</i>
   <i name="SCISSOR">      0.00000000</i>
   <i type="int" name="NOMEGA">     0</i>
   <i type="int" name="NOMEGAR">     0</i>
   <i type="int" name="NBANDSGW">    -1</i>
   <i type="int" name="NBANDSO">    -1</i>
   <i type="int" name="NBANDSV">    -1</i>
   <i type="int" name="NELM">   100</i>
   <i type="int" name="NELMHF">     1</i>
   <i type="int" name="DIM">     3</i>
   <i type="int" name="ANTIRES">     0</i>
   <i name="OMEGAMAX">    -30.00000000</i>
   <i name="OMEGAMIN">    -30.00000000</i>
   <i name="OMEGATL">   -200.00000000</i>
   <i type="int" name="OMEGAGRID">     0</i>
   <i name="CSHIFT">     -0.10000000</i>
   <i type="logical" name="SELFENERGY"> F  </i>
   <i type="logical" name="LSPECTRAL"> F  </i>
   <i type="logical" name="LSPECTRALGW"> F  </i>
   <i type="logical" name="LSINGLES"> F  </i>
   <i type="logical" name="LFERMIGW"> F  </i>
   <i type="logical" name="ODDONLYGW"> F  </i>
   <i type="logical" name="EVENONLYGW"> F  </i>
   <i type="int" name="NKREDLFX">     1</i>
   <i type="int" name="NKREDLFY">     1</i>
   <i type="int" name="NKREDLFZ">     1</i>
   <i type="int" name="MAXMEM">  1800</i>
   <i type="int" name="TELESCOPE">     0</i>
   <i type="int" name="TAUPAR">     1</i>
   <i type="int" name="OMEGAPAR">    -1</i>
   <i name="LAMBDA">      1.00000000</i>
  </separator>
  <separator name="External order field" >
   <i name="OFIELD_KAPPA">      0.00000000</i>
   <v name="OFIELD_K">      0.00000000      0.00000000      0.00000000</v>
   <i name="OFIELD_Q6_NEAR">      0.00000000</i>
   <i name="OFIELD_Q6_FAR">      0.00000000</i>
   <i name="OFIELD_A">      0.00000000</i>
  </separator>
 </parameters>
 <atominfo>
  <atoms>      16 </atoms>
  <types>       2 </types>
  <array name="atoms" >
   <dimension dim="1">ion</dimension>
   <field type="string">element</field>
   <field type="int">atomtype</field>
   <set>
    <rc><c>Mg</c><c>   1</c></rc>
    <rc><c>Mg</c><c>   1</c></rc>
    <rc><c>Mg</c><c>   1</c></rc>
    <rc><c>Mg</c><c>   1</c></rc>
    <rc><c>Mg</c><c>   1</c></rc>
    <rc><c>Mg</c><c>   1</c></rc>
    <rc><c>Mg</c><c>   1</c></rc>
    <rc><c>Mg</c><c>   1</c></rc>
    <rc><c>O </c><c>   2</c></rc>
    <rc><c>O </c><c>   2</c></rc>
    <rc><c>O </c><c>   2</c></rc>
    <rc><c>O </c><c>   2</c></rc>
    <rc><c>O </c><c>   2</c></rc>
    <rc><c>O </c><c>   2</c></rc>
    <rc><c>O </c><c>   2</c></rc>
    <rc><c>O </c><c>   2</c></rc>
   </set>
  </array>
  <array name="atomtypes" >
   <dimension dim="1">type</dimension>
   <field type="int">atomspertype</field>
   <field type="string">element</field>
   <field>mass</field>
   <field>valence</field>
   <field type="string">pseudopotential</field>
   <set>
    <rc><c>   8</c><c>Mg</c><c>     24.30500000</c><c>      2.00000000</c><c>  PAW_PBE Mg 13Apr2007                  </c></rc>
    <rc><c>   8</c><c>O </c><c>     16.00000000</c><c>      6.00000000</c><c>  PAW_PBE O 08Apr2002                   </c></rc>
   </set>
  </array>
 </atominfo>
 <structure name="initialpos" >
  <crystal>
   <varray name="basis" >
    <v>       0.00000000       4.24689300       4.24689300 </v>
    <v>       4.24689300       0.00000000       4.24689300 </v>
    <v>       4.24689300       4.24689300       0.00000000 </v>
   </varray>
   <i name="volume">    153.19477498 </i>
   <varray name="rec_basis" >
    <v>      -0.11773313       0.11773313       0.11773313 </v>
    <v>       0.11773313      -0.11773313       0.11773313 </v>
    <v>       0.11773313       0.11773313      -0.11773313 </v>
   </varray>
  </crystal>
  <varray name="positions" >
   <v>       0.00000000       0.00000000       0.00000000 </v>
   <v>       0.00000000       0.00000000       0.50000000 </v>
   <v>       0.00000000       0.50000000       0.00000000 </v>
   <v>       0.00000000       0.50000000       0.50000000 </v>
   <v>       0.50000000       0.00000000       0.00000000 </v>
   <v>       0.50000000       0.00000000       0.50000000 </v>
   <v>       0.50000000       0.50000000       0.00000000 </v>
   <v>       0.50000000       0.50000000       0.50000000 </v>
   <v>       0.25000000       0.25000000       0.25000000 </v>
   <v>       0.25000000       0.25000000       0.75000000 </v>
   <v>       0.25000000       0.75000000       0.25000000 </v>
   <v>       0.25000000       0.75000000       0.75000000 </v>
   <v>       0.75000000       0.25000000       0.25000000 </v>
   <v>       0.75000000       0.25000000       0.75000000 </v>
   <v>       0.75000000       0.75000000       0.25000000 </v>
   <v>       0.75000000       0.75000000       0.75000000 </v>
  </varray>
 </structure>
 <calculation>
  <scstep>
   <time name="dav">    0.04    0.04</time>
   <time name="total">    0.18    0.18</time>
   <energy>
    <i name="alphaZ">    152.60904737 </i>
    <i name="ewald">  -2842.02858273 </i>
    <i name="hartreedc">   -979.63991372 </i>
    <i name="XCdc">   -164.05863411 </i>
    <i name="pawpsdc">   3294.84937727 </i>
    <i name="pawaedc">  -2894.33685034 </i>
    <i name="eentropy">     -0.00000000 </i>
    <i name="bandstr">     91.55775996 </i>
    <i name="atom">   3642.39975602 </i>
    <i name="e_fr_energy">    301.35195971 </i>
    <i name="e_wo_entrp">    301.35195971 </i>
    <i name="e_0_energy">    301.35195971 </i>
   </energy>
  </scstep>
  <scstep>
   <time name="dav">    0.04    0.05</time>
   <time name="total">    0.04    0.05</time>
   <energy>
    <i name="e_fr_energy">    -86.36705869 </i>
    <i name="e_wo_entrp">    -86.36705869 </i>
    <i name="e_0_energy">    -86.36705869 </i>
   </energy>
  </scstep>
  <scstep>
   <time name="dav">    0.04    0.04</time>
   <time name="total">    0.04    0.04</time>
   <energy>
    <i name="e_fr_energy">   -107.50011630 </i>
    <i name="e_wo_entrp">   -107.50011630 </i>
    <i name="e_0_energy">   -107.50011630 </i>
   </energy>
  </scstep>
  <scstep>
   <time name="dav">    0.04    0.04</time>
   <time name="total">    0.04    0.04</time>
   <energy>
    <i name="e_fr_energy">   -107.65157011 </i>
    <i name="e_wo_entrp">   -107.65157011 </i>
    <i name="e_0_energy">   -107.65157011 </i>
   </energy>
  </scstep>
  <scstep>
   <time name="dav">    0.04    0.04</time>
   <time name="total">    0.05    0.05</time>
   <energy>
    <i name="e_fr_energy">   -107.65299441 </i>
    <i name="e_wo_entrp">   -107.65299441 </i>
    <i name="e_0_energy">   -107.65299441 </i>
   </energy>
  </scstep>
  <scstep>
   <time name="dav">    0.08    0.09</time>
   <time name="total">    0.20    0.21</time>
   <energy>
    <i name="e_fr_energy">    -95.58148638 </i>
    <i name="e_wo_entrp">    -95.58148638 </i>
    <i name="e_0_energy">    -95.58148638 </i>
   </energy>
  </scstep>
  <scstep>
   <time name="dav">    0.04    0.04</time>
   <time name="total">    0.16    0.16</time>
   <energy>
    <i name="e_fr_energy">    -95.52144124 </i>
    <i name="e_wo_entrp">    -95.52144124 </i>
    <i name="e_0_energy">    -95.52144124 </i>
   </energy>
  </scstep>
  <scstep>
   <time name="dav">    0.05    0.05</time>
   <time name="total">    0.16    0.17</time>
   <energy>
    <i name="e_fr_energy">    -95.47635475 </i>
    <i name="e_wo_entrp">    -95.47635475 </i>
    <i name="e_0_energy">    -95.47635475 </i>
   </energy>
  </scstep>
  <scstep>
   <time name="dav">    0.04    0.04</time>
   <time name="total">    0.16    0.16</time>
   <energy>
    <i name="e_fr_energy">    -95.46776742 </i>
    <i name="e_wo_entrp">    -95.46776742 </i>
    <i name="e_0_energy">    -95.46776742 </i>
   </energy>
  </scstep>
  <scstep>
   <time name="dav">    0.04    0.04</time>
   <time name="total">    0.15    0.15</time>
   <energy>
    <i name="e_fr_energy">    -95.46880926 </i>
    <i name="e_wo_entrp">    -95.46880926 </i>
    <i name="e_0_energy">    -95.46880926 </i>
   </energy>
  </scstep>
  <scstep>
   <time name="dav">    0.04    0.04</time>
   <time name="total">    0.15    0.16</time>
   <energy>
    <i name="e_fr_energy">    -95.46878259 </i>
    <i name="e_wo_entrp">    -95.46878259 </i>
    <i name="e_0_energy">    -95.46878259 </i>
   </energy>
  </scstep>
  <scstep>
   <time name="dav">    0.04    0.04</time>
   <time name="total">    0.16    0.16</time>
   <energy>
    <i name="e_fr_energy">    -95.46878056 </i>
    <i name="e_wo_entrp">    -95.46878056 </i>
    <i name="e_0_energy">    -95.46878056 </i>
   </energy>
  </scstep>
  <scstep>
   <time name="dav">    0.03    0.03</time>
   <time name="total">    0.13    0.13</time>
   <energy>
    <i name="alphaZ">    152.60904737 </i>
    <i name="ewald">  -2842.02858273 </i>
    <i name="hartreedc">  -1138.93023926 </i>
    <i name="XCdc">   -151.75719630 </i>
    <i name="pawpsdc">   4449.40530080 </i>
    <i name="pawaedc">  -4050.94748427 </i>
    <i name="eentropy">     -0.00000000 </i>
    <i name="bandstr">   -156.21938270 </i>
    <i name="atom">   3642.39975602 </i>
    <i name="e_fr_energy">    -95.46878107 </i>
    <i name="e_wo_entrp">    -95.46878107 </i>
    <i name="e_0_energy">    -95.46878107 </i>
   </energy>
  </scstep>
  <structure>
   <crystal>
    <varray name="basis" >
     <v>       0.00000000       4.24689300       4.24689300 </v>
     <v>       4.24689300       0.00000000       4.24689300 </v>
     <v>       4.24689300       4.24689300       0.00000000 </v>
    </varray>
    <i name="volume">    153.19477498 </i>
    <varray name="rec_basis" >
     <v>      -0.11773313       0.11773313       0.11773313 </v>
     <v>       0.11773313      -0.11773313       0.11773313 </v>
     <v>       0.11773313       0.11773313      -0.11773313 </v>
    </varray>
   </crystal>
   <varray name="positions" >
    <v>       0.00000000       0.00000000       0.00000000 </v>
    <v>       0.00000000       0.00000000       0.50000000 </v>
    <v>       0.00000000       0.50000000       0.00000000 </v>
    <v>       0.00000000       0.50000000       0.50000000 </v>
    <v>       0.50000000       0.00000000       0.00000000 </v>
    <v>       0.50000000       0.00000000       0.50000000 </v>
    <v>       0.50000000       0.50000000       0.00000000 </v>
    <v>       0.50000000       0.50000000       0.50000000 </v>
    <v>       0.25000000       0.25000000       0.25000000 </v>
    <v>       0.25000000       0.25000000       0.75000000 </v>
    <v>       0.25000000       0.75000000       0.25000000 </v>
    <v>       0.25000000       0.75000000       0.75000000 </v>
    <v>       0.75000000       0.25000000       0.25000000 </v>
    <v>       0.75000000       0.25000000       0.75000000 </v>
    <v>       0.75000000       0.75000000       0.25000000 </v>
    <v>       0.75000000       0.75000000       0.75000000 </v>
   </varray>
  </structure>
  <varray name="forces" >
   <v>       0.00000000       0.00000000      -0.00000000 </v>
   <v>       0.00000000       0.00000000      -0.00000000 </v>
   <v>       0.00000000       0.00000000      -0.00000000 </v>
   <v>       0.00000000       0.00000000      -0.00000000 </v>
   <v>       0.00000000       0.00000000      -0.00000000 </v>
   <v>       0.00000000       0.00000000      -0.00000000 </v>
   <v>       0.00000000       0.00000000      -0.00000000 </v>
   <v>       0.00000000      -0.00000000      -0.00000000 </v>
   <v>      -0.00000000      -0.00000000       0.00000000 </v>
   <v>       0.00000000      -0.00000000       0.00000000 </v>
   <v>      -0.00000000       0.00000000       0.00000000 </v>
   <v>       0.00000000       0.00000000      -0.00000000 </v>
   <v>       0.00000000       0.00000000      -0.00000000 </v>
   <v>       0.00000000      -0.00000000      -0.00000000 </v>
   <v>      -0.00000000      -0.00000000      -0.00000000 </v>
   <v>       0.00000000       0.00000000       0.00000000 </v>
  </varray>
  <varray name="stress" >
   <v>     -49.08708029       0.00000000       0.00000000 </v>
   <v>       0.00000000     -49.08708029       0.00000000 </v>
   <v>       0.00000000      -0.00000000     -49.08708029 </v>
  </varray>
  <energy>
   <i name="e_fr_energy">    -95.46878107 </i>
   <i name="e_wo_entrp">    -95.46878107 </i>
   <i name="e_0_energy">     -0.00000000 </i>
  </energy>
  <time name="totalsc">    1.90    1.95</time>
  <eigenvalues>
   <array>
    <dimension dim="1">band</dimension>
    <dimension dim="2">kpoint</dimension>
    <dimension dim="3">spin</dimension>
    <field>eigene</field>
    <field>occ</field>
    <set>
     <set comment="spin 1">
      <set comment="kpoint 1">
       <r>  -13.9833    1.0000 </r>
       <r>  -13.1273    1.0000 </r>
       <r>  -12.8881    1.0000 </r>
       <r>  -12.8881    1.0000 </r>
       <r>  -12.8881    1.0000 </r>
       <r>  -12.7119    1.0000 </r>
       <r>  -12.7119    1.0000 </r>
       <r>  -12.7119    1.0000 </r>
       <r>   -1.2521    1.0000 </r>
       <r>   -1.2521    1.0000 </r>
       <r>   -1.2521    1.0000 </r>
       <r>   -0.9825    1.0000 </r>
       <r>   -0.7876    1.0000 </r>
       <r>   -0.7876    1.0000 </r>
       <r>   -0.7876    1.0000 </r>
       <r>    1.3166    1.0000 </r>
       <r>    1.3166    1.0000 </r>
       <r>    1.3166    1.0000 </r>
       <r>    1.7748    1.0000 </r>
       <r>    1.7748    1.0000 </r>
       <r>    1.7748    1.0000 </r>
       <r>    1.8851    1.0000 </r>
       <r>    1.8851    1.0000 </r>
       <r>    1.8851    1.0000 </r>
       <r>    2.0520    1.0000 </r>
       <r>    2.2594    1.0000 </r>
       <r>    2.2594    1.0000 </r>
       <r>    2.2594    1.0000 </r>
       <r>    2.4515    1.0000 </r>
       <r>    2.4515    1.0000 </r>
       <r>    2.8960    1.0000 </r>
       <r>    2.8960    1.0000 </r>
       <r>    8.4080    0.0000 </r>
       <r>   10.6272    0.0000 </r>
       <r>   11.4194    0.0000 </r>
       <r>   11.4194    0.0000 </r>
       <r>   11.4194    0.0000 </r>
       <r>   12.5303    0.0000 </r>
       <r>   12.5303    0.0000 </r>
       <r>   12.5303    0.0000 </r>
       <r>   13.2040    0.0000 </r>
       <r>   13.2040    0.0000 </r>
       <r>   13.2040    0.0000 </r>
       <r>   15.1530    0.0000 </r>
      </set>
      <set comment="kpoint 2">
       <r>  -13.6184    1.0000 </r>
       <r>  -13.3271    1.0000 </r>
       <r>  -13.0893    1.0000 </r>
       <r>  -12.9334    1.0000 </r>
       <r>  -12.9334    1.0000 </r>
       <r>  -12.7604    1.0000 </r>
       <r>  -12.6760    1.0000 </r>
       <r>  -12.6760    1.0000 </r>
       <r>   -0.6666    1.0000 </r>
       <r>   -0.6257    1.0000 </r>
       <r>   -0.6257    1.0000 </r>
       <r>   -0.4245    1.0000 </r>
       <r>   -0.4245    1.0000 </r>
       <r>   -0.3042    1.0000 </r>
       <r>   -0.1186    1.0000 </r>
       <r>    0.5758    1.0000 </r>
       <r>    0.5758    1.0000 </r>
       <r>    0.6816    1.0000 </r>
       <r>    0.7674    1.0000 </r>
       <r>    1.3178    1.0000 </r>
       <r>    1.3178    1.0000 </r>
       <r>    1.6567    1.0000 </r>
       <r>    1.6567    1.0000 </r>
       <r>    1.8356    1.0000 </r>
       <r>    2.0366    1.0000 </r>
       <r>    2.0679    1.0000 </r>
       <r>    2.1256    1.0000 </r>
       <r>    2.1561    1.0000 </r>
       <r>    2.1561    1.0000 </r>
       <r>    2.5257    1.0000 </r>
       <r>    2.5287    1.0000 </r>
       <r>    2.5949    1.0000 </r>
       <r>    9.9982    0.0000 </r>
       <r>   10.8297    0.0000 </r>
       <r>   11.9347    0.0000 </r>
       <r>   12.2947    0.0000 </r>
       <r>   12.2947    0.0000 </r>
       <r>   12.7740    0.0000 </r>
       <r>   13.4559    0.0000 </r>
       <r>   13.4559    0.0000 </r>
       <r>   13.5869    0.0000 </r>
       <r>   14.4904    0.0000 </r>
       <r>   14.4930    0.0000 </r>
       <r>   14.4983    0.0000 </r>
      </set>
     </set>
    </set>
   </array>
  </eigenvalues>
  <separator name="orbital magnetization" >
   <v name="MAGDIPOLOUT">      0.00000000      0.00000000      0.00000000</v>
  </separator>
  <dos>
   <i name="efermi">      3.16221175 </i>
   <total>
    <array>
     <dimension dim="1">gridpoints</dimension>
     <dimension dim="2">spin</dimension>
     <field>energy</field>
     <field>total</field>
     <field>integrated</field>
     <set>
      <set comment="spin 1">
       <r>   -15.4401     0.0000     0.0000 </r>
       <r>   -15.3333     0.0000     0.0000 </r>
       <r>   -15.2265     0.0000     0.0000 </r>
       <r>   -15.1196     0.0000     0.0000 </r>
       <r>   -15.0128     0.0000     0.0000 </r>
       <r>   -14.9060     0.0000     0.0000 </r>
       <r>   -14.7991     0.0000     0.0000 </r>
       <r>   -14.6923     0.0000     0.0000 </r>
       <r>   -14.5855     0.0000     0.0000 </r>
       <r>   -14.4786     0.0000     0.0000 </r>
       <r>   -14.3718     0.0000     0.0000 </r>
       <r>   -14.2650     0.0000     0.0000 </r>
       <r>   -14.1581     0.0000     0.0000 </r>
       <r>   -14.0513     0.1275     0.0136 </r>
       <r>   -13.9445     3.9165     0.4320 </r>
       <r>   -13.8376     0.6361     0.5000 </r>
       <r>   -13.7308     0.0105     0.5011 </r>
       <r>   -13.6240     6.1342     1.1564 </r>
       <r>   -13.5171     7.8667     1.9969 </r>
       <r>   -13.4103     0.1605     2.0140 </r>
       <r>   -13.3035    10.3794     3.1229 </r>
       <r>   -13.1966     3.6623     3.5141 </r>
       <r>   -13.0898    10.8221     4.6703 </r>
       <r>   -12.9830    10.0581     5.7448 </r>
       <r>   -12.8761    33.1991     9.2916 </r>
       <r>   -12.7693    13.1053    10.6917 </r>
       <r>   -12.6625    38.6584    14.8217 </r>
       <r>   -12.5556    11.0201    15.9990 </r>
       <r>   -12.4488     0.0094    16.0000 </r>
       <r>   -12.3420     0.0000    16.0000 </r>
       <r>   -12.2351     0.0000    16.0000 </r>
       <r>   -12.1283     0.0000    16.0000 </r>
       <r>   -12.0215     0.0000    16.0000 </r>
       <r>   -11.9146     0.0000    16.0000 </r>
       <r>   -11.8078     0.0000    16.0000 </r>
       <r>   -11.7010     0.0000    16.0000 </r>
       <r>   -11.5941     0.0000    16.0000 </r>
       <r>   -11.4873     0.0000    16.0000 </r>
       <r>   -11.3805     0.0000    16.0000 </r>
       <r>   -11.2736     0.0000    16.0000 </r>
       <r>   -11.1668     0.0000    16.0000 </r>
       <r>   -11.0600     0.0000    16.0000 </r>
       <r>   -10.9531     0.0000    16.0000 </r>
       <r>   -10.8463     0.0000    16.0000 </r>
       <r>   -10.7395     0.0000    16.0000 </r>
       <r>   -10.6326     0.0000    16.0000 </r>
       <r>   -10.5258     0.0000    16.0000 </r>
       <r>   -10.4190     0.0000    16.0000 </r>
       <r>   -10.3121     0.0000    16.0000 </r>
       <r>   -10.2053     0.0000    16.0000 </r>
       <r>   -10.0985     0.0000    16.0000 </r>
       <r>    -9.9916     0.0000    16.0000 </r>
       <r>    -9.8848     0.0000    16.0000 </r>
       <r>    -9.7780     0.0000    16.0000 </r>
       <r>    -9.6711     0.0000    16.0000 </r>
       <r>    -9.5643     0.0000    16.0000 </r>
       <r>    -9.4575     0.0000    16.0000 </r>
       <r>    -9.3506     0.0000    16.0000 </r>
       <r>    -9.2438     0.0000    16.0000 </r>
       <r>    -9.1370     0.0000    16.0000 </r>
       <r>    -9.0301     0.0000    16.0000 </r>
       <r>    -8.9233     0.0000    16.0000 </r>
       <r>    -8.8165     0.0000    16.0000 </r>
       <r>    -8.7096     0.0000    16.0000 </r>
       <r>    -8.6028     0.0000    16.0000 </r>
       <r>    -8.4960     0.0000    16.0000 </r>
       <r>    -8.3891     0.0000    16.0000 </r>
       <r>    -8.2823     0.0000    16.0000 </r>
       <r>    -8.1755     0.0000    16.0000 </r>
       <r>    -8.0686     0.0000    16.0000 </r>
       <r>    -7.9618     0.0000    16.0000 </r>
       <r>    -7.8550     0.0000    16.0000 </r>
       <r>    -7.7481     0.0000    16.0000 </r>
       <r>    -7.6413     0.0000    16.0000 </r>
       <r>    -7.5345     0.0000    16.0000 </r>
       <r>    -7.4276     0.0000    16.0000 </r>
       <r>    -7.3208     0.0000    16.0000 </r>
       <r>    -7.2140     0.0000    16.0000 </r>
       <r>    -7.1071     0.0000    16.0000 </r>
       <r>    -7.0003     0.0000    16.0000 </r>
       <r>    -6.8935     0.0000    16.0000 </r>
       <r>    -6.7866     0.0000    16.0000 </r>
       <r>    -6.6798     0.0000    16.0000 </r>
       <r>    -6.5730     0.0000    16.0000 </r>
       <r>    -6.4661     0.0000    16.0000 </r>
       <r>    -6.3593     0.0000    16.0000 </r>
       <r>    -6.2525     0.0000    16.0000 </r>
       <r>    -6.1456     0.0000    16.0000 </r>
       <r>    -6.0388     0.0000    16.0000 </r>
       <r>    -5.9320     0.0000    16.0000 </r>
       <r>    -5.8251     0.0000    16.0000 </r>
       <r>    -5.7183     0.0000    16.0000 </r>
       <r>    -5.6115     0.0000    16.0000 </r>
       <r>    -5.5046     0.0000    16.0000 </r>
       <r>    -5.3978     0.0000    16.0000 </r>
       <r>    -5.2910     0.0000    16.0000 </r>
       <r>    -5.1841     0.0000    16.0000 </r>
       <r>    -5.0773     0.0000    16.0000 </r>
       <r>    -4.9705     0.0000    16.0000 </r>
       <r>    -4.8636     0.0000    16.0000 </r>
       <r>    -4.7568     0.0000    16.0000 </r>
       <r>    -4.6500     0.0000    16.0000 </r>
       <r>    -4.5431     0.0000    16.0000 </r>
       <r>    -4.4363     0.0000    16.0000 </r>
       <r>    -4.3295     0.0000    16.0000 </r>
       <r>    -4.2226     0.0000    16.0000 </r>
       <r>    -4.1158     0.0000    16.0000 </r>
       <r>    -4.0090     0.0000    16.0000 </r>
       <r>    -3.9021     0.0000    16.0000 </r>
       <r>    -3.7953     0.0000    16.0000 </r>
       <r>    -3.6885     0.0000    16.0000 </r>
       <r>    -3.5816     0.0000    16.0000 </r>
       <r>    -3.4748     0.0000    16.0000 </r>
       <r>    -3.3680     0.0000    16.0000 </r>
       <r>    -3.2611     0.0000    16.0000 </r>
       <r>    -3.1543     0.0000    16.0000 </r>
       <r>    -3.0475     0.0000    16.0000 </r>
       <r>    -2.9406     0.0000    16.0000 </r>
       <r>    -2.8338     0.0000    16.0000 </r>
       <r>    -2.7270     0.0000    16.0000 </r>
       <r>    -2.6201     0.0000    16.0000 </r>
       <r>    -2.5133     0.0000    16.0000 </r>
       <r>    -2.4065     0.0000    16.0000 </r>
       <r>    -2.2996     0.0000    16.0000 </r>
       <r>    -2.1928     0.0000    16.0000 </r>
       <r>    -2.0860     0.0000    16.0000 </r>
       <r>    -1.9791     0.0000    16.0000 </r>
       <r>    -1.8723     0.0000    16.0000 </r>
       <r>    -1.7655     0.0000    16.0000 </r>
       <r>    -1.6586     0.0000    16.0000 </r>
       <r>    -1.5518     0.0000    16.0000 </r>
       <r>    -1.4450     0.0000    16.0000 </r>
       <r>    -1.3381     0.1054    16.0113 </r>
       <r>    -1.2313    10.0356    17.0834 </r>
       <r>    -1.1245     3.8976    17.4998 </r>
       <r>    -1.0176     0.7531    17.5802 </r>
       <r>    -0.9108     3.8333    17.9898 </r>
       <r>    -0.8040     4.6117    18.4824 </r>
       <r>    -0.6971    12.7825    19.8480 </r>
       <r>    -0.5903    34.2018    23.5019 </r>
       <r>    -0.4835     5.9978    24.1427 </r>
       <r>    -0.3766    24.5572    26.7662 </r>
       <r>    -0.2698    13.9040    28.2516 </r>
       <r>    -0.1630     3.7942    28.6570 </r>
       <r>    -0.0561    12.0283    29.9420 </r>
       <r>     0.0507     0.5429    30.0000 </r>
       <r>     0.1575     0.0000    30.0000 </r>
       <r>     0.2644     0.0000    30.0000 </r>
       <r>     0.3712     0.0000    30.0000 </r>
       <r>     0.4780     0.0801    30.0086 </r>
       <r>     0.5849    16.8573    31.8095 </r>
       <r>     0.6917    19.9574    33.9416 </r>
       <r>     0.7985    16.5983    35.7149 </r>
       <r>     0.9054     2.6684    35.9999 </r>
       <r>     1.0122     0.0007    36.0000 </r>
       <r>     1.1190     0.0000    36.0000 </r>
       <r>     1.2259     0.2032    36.0217 </r>
       <r>     1.3327    27.9139    39.0038 </r>
       <r>     1.4395    13.9931    40.4988 </r>
       <r>     1.5464     0.0369    40.5027 </r>
       <r>     1.6532    12.9044    41.8813 </r>
       <r>     1.7600    20.0846    44.0270 </r>
       <r>     1.8669    24.6961    46.6654 </r>
       <r>     1.9737    13.0499    48.0595 </r>
       <r>     2.0805    26.5324    50.8941 </r>
       <r>     2.1874    42.2272    55.4054 </r>
       <r>     2.2942    17.3213    57.2558 </r>
       <r>     2.4010     3.0085    57.5773 </r>
       <r>     2.5079    16.4160    59.3310 </r>
       <r>     2.6147    30.1109    62.5479 </r>
       <r>     2.7215     4.2298    62.9997 </r>
       <r>     2.8284     0.2624    63.0278 </r>
       <r>     2.9352     7.8451    63.8659 </r>
       <r>     3.0420     1.2551    64.0000 </r>
       <r>     3.1489     0.0002    64.0000 </r>
       <r>     3.2557     0.0000    64.0000 </r>
       <r>     3.3625     0.0000    64.0000 </r>
       <r>     3.4694     0.0000    64.0000 </r>
       <r>     3.5762     0.0000    64.0000 </r>
       <r>     3.6830     0.0000    64.0000 </r>
       <r>     3.7899     0.0000    64.0000 </r>
       <r>     3.8967     0.0000    64.0000 </r>
       <r>     4.0035     0.0000    64.0000 </r>
       <r>     4.1104     0.0000    64.0000 </r>
       <r>     4.2172     0.0000    64.0000 </r>
       <r>     4.3240     0.0000    64.0000 </r>
       <r>     4.4309     0.0000    64.0000 </r>
       <r>     4.5377     0.0000    64.0000 </r>
       <r>     4.6445     0.0000    64.0000 </r>
       <r>     4.7514     0.0000    64.0000 </r>
       <r>     4.8582     0.0000    64.0000 </r>
       <r>     4.9650     0.0000    64.0000 </r>
       <r>     5.0719     0.0000    64.0000 </r>
       <r>     5.1787     0.0000    64.0000 </r>
       <r>     5.2855     0.0000    64.0000 </r>
       <r>     5.3924     0.0000    64.0000 </r>
       <r>     5.4992     0.0000    64.0000 </r>
       <r>     5.6060     0.0000    64.0000 </r>
       <r>     5.7129     0.0000    64.0000 </r>
       <r>     5.8197     0.0000    64.0000 </r>
       <r>     5.9265     0.0000    64.0000 </r>
       <r>     6.0334     0.0000    64.0000 </r>
       <r>     6.1402     0.0000    64.0000 </r>
       <r>     6.2470     0.0000    64.0000 </r>
       <r>     6.3539     0.0000    64.0000 </r>
       <r>     6.4607     0.0000    64.0000 </r>
       <r>     6.5675     0.0000    64.0000 </r>
       <r>     6.6744     0.0000    64.0000 </r>
       <r>     6.7812     0.0000    64.0000 </r>
       <r>     6.8880     0.0000    64.0000 </r>
       <r>     6.9949     0.0000    64.0000 </r>
       <r>     7.1017     0.0000    64.0000 </r>
       <r>     7.2085     0.0000    64.0000 </r>
       <r>     7.3154     0.0000    64.0000 </r>
       <r>     7.4222     0.0000    64.0000 </r>
       <r>     7.5290     0.0000    64.0000 </r>
       <r>     7.6359     0.0000    64.0000 </r>
       <r>     7.7427     0.0000    64.0000 </r>
       <r>     7.8495     0.0000    64.0000 </r>
       <r>     7.9564     0.0000    64.0000 </r>
       <r>     8.0632     0.0000    64.0000 </r>
       <r>     8.1700     0.0000    64.0000 </r>
       <r>     8.2769     0.0005    64.0001 </r>
       <r>     8.3837     1.1487    64.1228 </r>
       <r>     8.4905     3.4851    64.4951 </r>
       <r>     8.5974     0.0460    64.5000 </r>
       <r>     8.7042     0.0000    64.5000 </r>
       <r>     8.8110     0.0000    64.5000 </r>
       <r>     8.9179     0.0000    64.5000 </r>
       <r>     9.0247     0.0000    64.5000 </r>
       <r>     9.1315     0.0000    64.5000 </r>
       <r>     9.2384     0.0000    64.5000 </r>
       <r>     9.3452     0.0000    64.5000 </r>
       <r>     9.4520     0.0000    64.5000 </r>
       <r>     9.5589     0.0000    64.5000 </r>
       <r>     9.6657     0.0000    64.5000 </r>
       <r>     9.7725     0.0000    64.5000 </r>
       <r>     9.8793     0.0054    64.5006 </r>
       <r>     9.9862     5.1445    65.0502 </r>
       <r>    10.0930     8.8392    65.9945 </r>
       <r>    10.1998     0.0515    66.0000 </r>
       <r>    10.3067     0.0000    66.0000 </r>
       <r>    10.4135     0.0000    66.0000 </r>
       <r>    10.5203     0.0059    66.0006 </r>
       <r>    10.6272     2.3324    66.2498 </r>
       <r>    10.7340     2.3837    66.5045 </r>
       <r>    10.8408     8.7140    67.4354 </r>
       <r>    10.9477     5.2789    67.9994 </r>
       <r>    11.0545     0.0060    68.0000 </r>
       <r>    11.1613     0.0000    68.0000 </r>
       <r>    11.2682     0.0001    68.0000 </r>
       <r>    11.3750     1.4705    68.1571 </r>
       <r>    11.4818    12.0274    69.4420 </r>
       <r>    11.5887     0.5425    69.5000 </r>
       <r>    11.6955     0.0000    69.5000 </r>
       <r>    11.8023     0.0013    69.5001 </r>
       <r>    11.9092     3.2987    69.8525 </r>
       <r>    12.0160    10.5898    70.9839 </r>
       <r>    12.1228     0.1509    71.0000 </r>
       <r>    12.2297     0.9265    71.0990 </r>
       <r>    12.3365    23.8308    73.6449 </r>
       <r>    12.4433     3.4214    74.0104 </r>
       <r>    12.5502     9.9193    75.0701 </r>
       <r>    12.6570     4.0279    75.5005 </r>
       <r>    12.7638     5.4336    76.0809 </r>
       <r>    12.8707     8.5590    76.9953 </r>
       <r>    12.9775     0.0438    77.0000 </r>
       <r>    13.0843     0.0050    77.0005 </r>
       <r>    13.1912     5.0324    77.5382 </r>
       <r>    13.2980     8.9484    78.4942 </r>
       <r>    13.4048     2.1389    78.7227 </r>
       <r>    13.5117    24.6189    81.3528 </r>
       <r>    13.6185    12.8164    82.7220 </r>
       <r>    13.7253     2.6016    82.9999 </r>
       <r>    13.8322     0.0006    83.0000 </r>
       <r>    13.9390     0.0000    83.0000 </r>
       <r>    14.0458     0.0000    83.0000 </r>
       <r>    14.1527     0.0000    83.0000 </r>
       <r>    14.2595     0.0000    83.0000 </r>
       <r>    14.3663     0.0069    83.0007 </r>
       <r>    14.4732    11.7790    84.2591 </r>
       <r>    14.5800    30.0132    87.4655 </r>
       <r>    14.6868     0.3226    87.5000 </r>
       <r>    14.7937     0.0000    87.5000 </r>
       <r>    14.9005     0.0000    87.5000 </r>
       <r>    15.0073     0.0001    87.5000 </r>
       <r>    15.1142     0.6361    87.5680 </r>
       <r>    15.2210     3.9165    87.9864 </r>
       <r>    15.3278     0.1275    88.0000 </r>
       <r>    15.4347     0.0000    88.0000 </r>
       <r>    15.5415     0.0000    88.0000 </r>
       <r>    15.6483     0.0000    88.0000 </r>
       <r>    15.7552     0.0000    88.0000 </r>
       <r>    15.8620     0.0000    88.0000 </r>
       <r>    15.9688     0.0000    88.0000 </r>
       <r>    16.0757     0.0000    88.0000 </r>
       <r>    16.1825     0.0000    88.0000 </r>
       <r>    16.2893     0.0000    88.0000 </r>
       <r>    16.3962     0.0000    88.0000 </r>
       <r>    16.5030     0.0000    88.0000 </r>
       <r>    16.6098     0.0000    88.0000 </r>
      </set>
     </set>
    </array>
   </total>
   <partial>
    <array>
     <dimension dim="1">gridpoints</dimension>
     <dimension dim="2">spin</dimension>
     <dimension dim="3">ion</dimension>
     <field>energy</field>
     <field>  s</field>
     <field> py</field>
     <field> pz</field>
     <field> px</field>
     <field>dxy</field>
     <field>dyz</field>
     <field>dz2</field>
     <field>dxz</field>
     <field>dx2</field>
     <set>
      <set comment="ion 1">
       <set comment="spin 1">
        <r>   -15.4401     0.0000     0.0000     0.0000     0.0000     0.0000     0.0000     0.0000     0.0000     0.0000 </r>
        <r>   -15.3333     0.0000     0.0000     0.0000     0.0000     0.0000     0.0000     0.0000     0.0000     0.0000 </r>
        <r>   -15.2265     0.0000     0.0000     0.0000     0.0000     0.0000     0.0000     0.0000     0.0000     0.0000 </r>
        <r>   -15.1196     0.0000     0.0000     0.0000     0.0000     0.0000     0.0000     0.0000     0.0000     0.0000 </r>
        <r>   -15.0128     0.0000     0.0000     0.0000     0.0000     0.0000     0.0000     0.0000     0.0000     0.0000 </r>
        <r>   -14.9060     0.0000     0.0000     0.0000     0.0000     0.0000     0.0000     0.0000     0.0000     0.0000 </r>
        <r>   -14.7991     0.0000     0.0000     0.0000     0.0000     0.0000     0.0000     0.0000     0.0000     0.0000 </r>
        <r>   -14.6923     0.0000     0.0000     0.0000     0.0000     0.0000     0.0000     0.0000     0.0000     0.0000 </r>
        <r>   -14.5855     0.0000     0.0000     0.0000     0.0000     0.0000     0.0000     0.0000     0.0000     0.0000 </r>
        <r>   -14.4786     0.0000     0.0000     0.0000     0.0000     0.0000     0.0000     0.0000     0.0000     0.0000 </r>
        <r>   -14.3718     0.0000     0.0000     0.0000     0.0000     0.0000     0.0000     0.0000     0.0000     0.0000 </r>
        <r>   -14.2650     0.0000     0.0000     0.0000     0.0000     0.0000     0.0000     0.0000     0.0000     0.0000 </r>
        <r>   -14.1581     0.0000     0.0000     0.0000     0.0000     0.0000     0.0000     0.0000     0.0000     0.0000 </r>
        <r>   -14.0513     0.0006     0.0000     0.0000     0.0000     0.0000     0.0000     0.0000     0.0000     0.0000 </r>
        <r>   -13.9445     0.0180     0.0004     0.0004     0.0004     0.0000     0.0000     0.0000     0.0000     0.0000 </r>
        <r>   -13.8376     0.0029     0.0001     0.0001     0.0001     0.0000     0.0000     0.0000     0.0000     0.0000 </r>
        <r>   -13.7308     0.0000     0.0000     0.0000     0.0000     0.0000     0.0000     0.0000     0.0000     0.0000 </r>
        <r>   -13.6240     0.0197     0.0006     0.0006     0.0039     0.0000     0.0000     0.0001     0.0000     0.0003 </r>
        <r>   -13.5171     0.0252     0.0008     0.0008     0.0050     0.0000     0.0000     0.0001     0.0000     0.0003 </r>
        <r>   -13.4103     0.0004     0.0001     0.0001     0.0000     0.0000     0.0000     0.0000     0.0000     0.0000 </r>
        <r>   -13.3035     0.0206     0.0065     0.0065     0.0011     0.0000     0.0000     0.0002     0.0000     0.0005 </r>
        <r>   -13.1966     0.0071     0.0023     0.0023     0.0004     0.0000     0.0000     0.0001     0.0000     0.0002 </r>
        <r>   -13.0898     0.0140     0.0032     0.0032     0.0076     0.0000     0.0000     0.0007     0.0000     0.0020 </r>
        <r>   -12.9830     0.0125     0.0027     0.0027     0.0060     0.0000     0.0000     0.0010     0.0000     0.0024 </r>
        <r>   -12.8761     0.0164     0.0221     0.0221     0.0085     0.0000     0.0000     0.0038     0.0000     0.0049 </r>
        <r>   -12.7693     0.0021     0.0082     0.0082     0.0044     0.0000     0.0000     0.0015     0.0000     0.0028 </r>
        <r>   -12.6625     0.0086     0.0092     0.0092     0.0138     0.0000     0.0000     0.0154     0.0000     0.0115 </r>
        <r>   -12.5556     0.0016     0.0014     0.0014     0.0063     0.0000     0.0000     0.0055     0.0000     0.0024 </r>
        <r>   -12.4488     0.0000     0.0000     0.0000     0.0000     0.0000     0.0000     0.0000     0.0000     0.0000 </r>
        <r>   -12.3420     0.0000     0.0000     0.0000     0.0000     0.0000     0.0000     0.0000     0.0000     0.0000 </r>
        <r>   -12.2351     0.0000     0.0000     0.0000     0.0000     0.0000     0.0000     0.0000     0.0000     0.0000 </r>
        <r>   -12.1283     0.0000     0.0000     0.0000     0.0000     0.0000     0.0000     0.0000     0.0000     0.0000 </r>
        <r>   -12.0215     0.0000     0.0000     0.0000     0.0000     0.0000     0.0000     0.0000     0.0000     0.0000 </r>
        <r>   -11.9146     0.0000     0.0000     0.0000     0.0000     0.0000     0.0000     0.0000     0.0000     0.0000 </r>
        <r>   -11.8078     0.0000     0.0000     0.0000     0.0000     0.0000     0.0000     0.0000     0.0000     0.0000 </r>
        <r>   -11.7010     0.0000     0.0000     0.0000     0.0000     0.0000     0.0000     0.0000     0.0000     0.0000 </r>
        <r>   -11.5941     0.0000     0.0000     0.0000     0.0000     0.0000     0.0000     0.0000     0.0000     0.0000 </r>
        <r>   -11.4873     0.0000     0.0000     0.0000     0.0000     0.0000     0.0000     0.0000     0.0000     0.0000 </r>
        <r>   -11.3805     0.0000     0.0000     0.0000     0.0000     0.0000     0.0000     0.0000     0.0000     0.0000 </r>
        <r>   -11.2736     0.0000     0.0000     0.0000     0.0000     0.0000     0.0000     0.0000     0.0000     0.0000 </r>
        <r>   -11.1668     0.0000     0.0000     0.0000     0.0000     0.0000     0.0000     0.0000     0.0000     0.0000 </r>
        <r>   -11.0600     0.0000     0.0000     0.0000     0.0000     0.0000     0.0000     0.0000     0.0000     0.0000 </r>
        <r>   -10.9531     0.0000     0.0000     0.0000     0.0000     0.0000     0.0000     0.0000     0.0000     0.0000 </r>
        <r>   -10.8463     0.0000     0.0000     0.0000     0.0000     0.0000     0.0000     0.0000     0.0000     0.0000 </r>
        <r>   -10.7395     0.0000     0.0000     0.0000     0.0000     0.0000     0.0000     0.0000     0.0000     0.0000 </r>
        <r>   -10.6326     0.0000     0.0000     0.0000     0.0000     0.0000     0.0000     0.0000     0.0000     0.0000 </r>
        <r>   -10.5258     0.0000     0.0000     0.0000     0.0000     0.0000     0.0000     0.0000     0.0000     0.0000 </r>
        <r>   -10.4190     0.0000     0.0000     0.0000     0.0000     0.0000     0.0000     0.0000     0.0000     0.0000 </r>
        <r>   -10.3121     0.0000     0.0000     0.0000     0.0000     0.0000     0.0000     0.0000     0.0000     0.0000 </r>
        <r>   -10.2053     0.0000     0.0000     0.0000     0.0000     0.0000     0.0000     0.0000     0.0000     0.0000 </r>
        <r>   -10.0985     0.0000     0.0000     0.0000     0.0000     0.0000     0.0000     0.0000     0.0000     0.0000 </r>
        <r>    -9.9916     0.0000     0.0000     0.0000     0.0000     0.0000     0.0000     0.0000     0.0000     0.0000 </r>
        <r>    -9.8848     0.0000     0.0000     0.0000     0.0000     0.0000     0.0000     0.0000     0.0000     0.0000 </r>
        <r>    -9.7780     0.0000     0.0000     0.0000     0.0000     0.0000     0.0000     0.0000     0.0000     0.0000 </r>
        <r>    -9.6711     0.0000     0.0000     0.0000     0.0000     0.0000     0.0000     0.0000     0.0000     0.0000 </r>
        <r>    -9.5643     0.0000     0.0000     0.0000     0.0000     0.0000     0.0000     0.0000     0.0000     0.0000 </r>
        <r>    -9.4575     0.0000     0.0000     0.0000     0.0000     0.0000     0.0000     0.0000     0.0000     0.0000 </r>
        <r>    -9.3506     0.0000     0.0000     0.0000     0.0000     0.0000     0.0000     0.0000     0.0000     0.0000 </r>
        <r>    -9.2438     0.0000     0.0000     0.0000     0.0000     0.0000     0.0000     0.0000     0.0000     0.0000 </r>
        <r>    -9.1370     0.0000     0.0000     0.0000     0.0000     0.0000     0.0000     0.0000     0.0000     0.0000 </r>
        <r>    -9.0301     0.0000     0.0000     0.0000     0.0000     0.0000     0.0000     0.0000     0.0000     0.0000 </r>
        <r>    -8.9233     0.0000     0.0000     0.0000     0.0000     0.0000     0.0000     0.0000     0.0000     0.0000 </r>
        <r>    -8.8165     0.0000     0.0000     0.0000     0.0000     0.0000     0.0000     0.0000     0.0000     0.0000 </r>
        <r>    -8.7096     0.0000     0.0000     0.0000     0.0000     0.0000     0.0000     0.0000     0.0000     0.0000 </r>
        <r>    -8.6028     0.0000     0.0000     0.0000     0.0000     0.0000     0.0000     0.0000     0.0000     0.0000 </r>
        <r>    -8.4960     0.0000     0.0000     0.0000     0.0000     0.0000     0.0000     0.0000     0.0000     0.0000 </r>
        <r>    -8.3891     0.0000     0.0000     0.0000     0.0000     0.0000     0.0000     0.0000     0.0000     0.0000 </r>
        <r>    -8.2823     0.0000     0.0000     0.0000     0.0000     0.0000     0.0000     0.0000     0.0000     0.0000 </r>
        <r>    -8.1755     0.0000     0.0000     0.0000     0.0000     0.0000     0.0000     0.0000     0.0000     0.0000 </r>
        <r>    -8.0686     0.0000     0.0000     0.0000     0.0000     0.0000     0.0000     0.0000     0.0000     0.0000 </r>
        <r>    -7.9618     0.0000     0.0000     0.0000     0.0000     0.0000     0.0000     0.0000     0.0000     0.0000 </r>
        <r>    -7.8550     0.0000     0.0000     0.0000     0.0000     0.0000     0.0000     0.0000     0.0000     0.0000 </r>
        <r>    -7.7481     0.0000     0.0000     0.0000     0.0000     0.0000     0.0000     0.0000     0.0000     0.0000 </r>
        <r>    -7.6413     0.0000     0.0000     0.0000     0.0000     0.0000     0.0000     0.0000     0.0000     0.0000 </r>
        <r>    -7.5345     0.0000     0.0000     0.0000     0.0000     0.0000     0.0000     0.0000     0.0000     0.0000 </r>
        <r>    -7.4276     0.0000     0.0000     0.0000     0.0000     0.0000     0.0000     0.0000     0.0000     0.0000 </r>
        <r>    -7.3208     0.0000     0.0000     0.0000     0.0000     0.0000     0.0000     0.0000     0.0000     0.0000 </r>
        <r>    -7.2140     0.0000     0.0000     0.0000     0.0000     0.0000     0.0000     0.0000     0.0000     0.0000 </r>
        <r>    -7.1071     0.0000     0.0000     0.0000     0.0000     0.0000     0.0000     0.0000     0.0000     0.0000 </r>
        <r>    -7.0003     0.0000     0.0000     0.0000     0.0000     0.0000     0.0000     0.0000     0.0000     0.0000 </r>
        <r>    -6.8935     0.0000     0.0000     0.0000     0.0000     0.0000     0.0000     0.0000     0.0000     0.0000 </r>
        <r>    -6.7866     0.0000     0.0000     0.0000     0.0000     0.0000     0.0000     0.0000     0.0000     0.0000 </r>
        <r>    -6.6798     0.0000     0.0000     0.0000     0.0000     0.0000     0.0000     0.0000     0.0000     0.0000 </r>
        <r>    -6.5730     0.0000     0.0000     0.0000     0.0000     0.0000     0.0000     0.0000     0.0000     0.0000 </r>
        <r>    -6.4661     0.0000     0.0000     0.0000     0.0000     0.0000     0.0000     0.0000     0.0000     0.0000 </r>
        <r>    -6.3593     0.0000     0.0000     0.0000     0.0000     0.0000     0.0000     0.0000     0.0000     0.0000 </r>
        <r>    -6.2525     0.0000     0.0000     0.0000     0.0000     0.0000     0.0000     0.0000     0.0000     0.0000 </r>
        <r>    -6.1456     0.0000     0.0000     0.0000     0.0000     0.0000     0.0000     0.0000     0.0000     0.0000 </r>
        <r>    -6.0388     0.0000     0.0000     0.0000     0.0000     0.0000     0.0000     0.0000     0.0000     0.0000 </r>
        <r>    -5.9320     0.0000     0.0000     0.0000     0.0000     0.0000     0.0000     0.0000     0.0000     0.0000 </r>
        <r>    -5.8251     0.0000     0.0000     0.0000     0.0000     0.0000     0.0000     0.0000     0.0000     0.0000 </r>
        <r>    -5.7183     0.0000     0.0000     0.0000     0.0000     0.0000     0.0000     0.0000     0.0000     0.0000 </r>
        <r>    -5.6115     0.0000     0.0000     0.0000     0.0000     0.0000     0.0000     0.0000     0.0000     0.0000 </r>
        <r>    -5.5046     0.0000     0.0000     0.0000     0.0000     0.0000     0.0000     0.0000     0.0000     0.0000 </r>
        <r>    -5.3978     0.0000     0.0000     0.0000     0.0000     0.0000     0.0000     0.0000     0.0000     0.0000 </r>
        <r>    -5.2910     0.0000     0.0000     0.0000     0.0000     0.0000     0.0000     0.0000     0.0000     0.0000 </r>
        <r>    -5.1841     0.0000     0.0000     0.0000     0.0000     0.0000     0.0000     0.0000     0.0000     0.0000 </r>
        <r>    -5.0773     0.0000     0.0000     0.0000     0.0000     0.0000     0.0000     0.0000     0.0000     0.0000 </r>
        <r>    -4.9705     0.0000     0.0000     0.0000     0.0000     0.0000     0.0000     0.0000     0.0000     0.0000 </r>
        <r>    -4.8636     0.0000     0.0000     0.0000     0.0000     0.0000     0.0000     0.0000     0.0000     0.0000 </r>
        <r>    -4.7568     0.0000     0.0000     0.0000     0.0000     0.0000     0.0000     0.0000     0.0000     0.0000 </r>
        <r>    -4.6500     0.0000     0.0000     0.0000     0.0000     0.0000     0.0000     0.0000     0.0000     0.0000 </r>
        <r>    -4.5431     0.0000     0.0000     0.0000     0.0000     0.0000     0.0000     0.0000     0.0000     0.0000 </r>
        <r>    -4.4363     0.0000     0.0000     0.0000     0.0000     0.0000     0.0000     0.0000     0.0000     0.0000 </r>
        <r>    -4.3295     0.0000     0.0000     0.0000     0.0000     0.0000     0.0000     0.0000     0.0000     0.0000 </r>
        <r>    -4.2226     0.0000     0.0000     0.0000     0.0000     0.0000     0.0000     0.0000     0.0000     0.0000 </r>
        <r>    -4.1158     0.0000     0.0000     0.0000     0.0000     0.0000     0.0000     0.0000     0.0000     0.0000 </r>
        <r>    -4.0090     0.0000     0.0000     0.0000     0.0000     0.0000     0.0000     0.0000     0.0000     0.0000 </r>
        <r>    -3.9021     0.0000     0.0000     0.0000     0.0000     0.0000     0.0000     0.0000     0.0000     0.0000 </r>
        <r>    -3.7953     0.0000     0.0000     0.0000     0.0000     0.0000     0.0000     0.0000     0.0000     0.0000 </r>
        <r>    -3.6885     0.0000     0.0000     0.0000     0.0000     0.0000     0.0000     0.0000     0.0000     0.0000 </r>
        <r>    -3.5816     0.0000     0.0000     0.0000     0.0000     0.0000     0.0000     0.0000     0.0000     0.0000 </r>
        <r>    -3.4748     0.0000     0.0000     0.0000     0.0000     0.0000     0.0000     0.0000     0.0000     0.0000 </r>
        <r>    -3.3680     0.0000     0.0000     0.0000     0.0000     0.0000     0.0000     0.0000     0.0000     0.0000 </r>
        <r>    -3.2611     0.0000     0.0000     0.0000     0.0000     0.0000     0.0000     0.0000     0.0000     0.0000 </r>
        <r>    -3.1543     0.0000     0.0000     0.0000     0.0000     0.0000     0.0000     0.0000     0.0000     0.0000 </r>
        <r>    -3.0475     0.0000     0.0000     0.0000     0.0000     0.0000     0.0000     0.0000     0.0000     0.0000 </r>
        <r>    -2.9406     0.0000     0.0000     0.0000     0.0000     0.0000     0.0000     0.0000     0.0000     0.0000 </r>
        <r>    -2.8338     0.0000     0.0000     0.0000     0.0000     0.0000     0.0000     0.0000     0.0000     0.0000 </r>
        <r>    -2.7270     0.0000     0.0000     0.0000     0.0000     0.0000     0.0000     0.0000     0.0000     0.0000 </r>
        <r>    -2.6201     0.0000     0.0000     0.0000     0.0000     0.0000     0.0000     0.0000     0.0000     0.0000 </r>
        <r>    -2.5133     0.0000     0.0000     0.0000     0.0000     0.0000     0.0000     0.0000     0.0000     0.0000 </r>
        <r>    -2.4065     0.0000     0.0000     0.0000     0.0000     0.0000     0.0000     0.0000     0.0000     0.0000 </r>
        <r>    -2.2996     0.0000     0.0000     0.0000     0.0000     0.0000     0.0000     0.0000     0.0000     0.0000 </r>
        <r>    -2.1928     0.0000     0.0000     0.0000     0.0000     0.0000     0.0000     0.0000     0.0000     0.0000 </r>
        <r>    -2.0860     0.0000     0.0000     0.0000     0.0000     0.0000     0.0000     0.0000     0.0000     0.0000 </r>
        <r>    -1.9791     0.0000     0.0000     0.0000     0.0000     0.0000     0.0000     0.0000     0.0000     0.0000 </r>
        <r>    -1.8723     0.0000     0.0000     0.0000     0.0000     0.0000     0.0000     0.0000     0.0000     0.0000 </r>
        <r>    -1.7655     0.0000     0.0000     0.0000     0.0000     0.0000     0.0000     0.0000     0.0000     0.0000 </r>
        <r>    -1.6586     0.0000     0.0000     0.0000     0.0000     0.0000     0.0000     0.0000     0.0000     0.0000 </r>
        <r>    -1.5518     0.0000     0.0000     0.0000     0.0000     0.0000     0.0000     0.0000     0.0000     0.0000 </r>
        <r>    -1.4450     0.0000     0.0000     0.0000     0.0000     0.0000     0.0000     0.0000     0.0000     0.0000 </r>
        <r>    -1.3381     0.0012     0.0000     0.0000     0.0000     0.0000     0.0000     0.0000     0.0000     0.0000 </r>
        <r>    -1.2313     0.1146     0.0031     0.0031     0.0031     0.0039     0.0039     0.0000     0.0039     0.0000 </r>
        <r>    -1.1245     0.0445     0.0012     0.0012     0.0012     0.0015     0.0015     0.0000     0.0015     0.0000 </r>
        <r>    -1.0176     0.0089     0.0000     0.0000     0.0000     0.0003     0.0003     0.0000     0.0003     0.0000 </r>
        <r>    -0.9108     0.0450     0.0002     0.0002     0.0002     0.0015     0.0015     0.0000     0.0015     0.0000 </r>
        <r>    -0.8040     0.0059     0.0133     0.0133     0.0133     0.0002     0.0002     0.0004     0.0002     0.0004 </r>
        <r>    -0.6971     0.0384     0.0296     0.0296     0.0327     0.0011     0.0021     0.0011     0.0011     0.0014 </r>
        <r>    -0.5903     0.3000     0.0222     0.0222     0.0292     0.0052     0.0170     0.0035     0.0052     0.0076 </r>
        <r>    -0.4835     0.0456     0.0078     0.0078     0.0024     0.0009     0.0024     0.0007     0.0009     0.0012 </r>
        <r>    -0.3766     0.0748     0.0811     0.0811     0.0022     0.0060     0.0018     0.0014     0.0060     0.0008 </r>
        <r>    -0.2698     0.0767     0.0097     0.0097     0.0345     0.0018     0.0004     0.0030     0.0018     0.0085 </r>
        <r>    -0.1630     0.0288     0.0003     0.0003     0.0074     0.0004     0.0008     0.0007     0.0004     0.0021 </r>
        <r>    -0.0561     0.1202     0.0000     0.0000     0.0037     0.0016     0.0058     0.0011     0.0016     0.0032 </r>
        <r>     0.0507     0.0054     0.0000     0.0000     0.0002     0.0001     0.0003     0.0000     0.0001     0.0001 </r>
        <r>     0.1575     0.0000     0.0000     0.0000     0.0000     0.0000     0.0000     0.0000     0.0000     0.0000 </r>
        <r>     0.2644     0.0000     0.0000     0.0000     0.0000     0.0000     0.0000     0.0000     0.0000     0.0000 </r>
        <r>     0.3712     0.0000     0.0000     0.0000     0.0000     0.0000     0.0000     0.0000     0.0000     0.0000 </r>
        <r>     0.4780     0.0001     0.0002     0.0002     0.0000     0.0000     0.0000     0.0000     0.0000     0.0000 </r>
        <r>     0.5849     0.0261     0.0492     0.0492     0.0025     0.0049     0.0002     0.0041     0.0049     0.0024 </r>
        <r>     0.6917     0.0262     0.0351     0.0351     0.0466     0.0050     0.0020     0.0044     0.0050     0.0067 </r>
        <r>     0.7985     0.0922     0.0040     0.0040     0.0290     0.0028     0.0016     0.0031     0.0028     0.0092 </r>
        <r>     0.9054     0.0209     0.0006     0.0006     0.0001     0.0004     0.0001     0.0005     0.0004     0.0014 </r>
        <r>     1.0122     0.0000     0.0000     0.0000     0.0000     0.0000     0.0000     0.0000     0.0000     0.0000 </r>
        <r>     1.1190     0.0000     0.0000     0.0000     0.0000     0.0000     0.0000     0.0000     0.0000     0.0000 </r>
        <r>     1.2259     0.0001     0.0002     0.0002     0.0007     0.0001     0.0000     0.0000     0.0001     0.0001 </r>
        <r>     1.3327     0.0161     0.0203     0.0203     0.1008     0.0071     0.0019     0.0059     0.0071     0.0092 </r>
        <r>     1.4395     0.0078     0.0100     0.0100     0.0511     0.0036     0.0009     0.0030     0.0036     0.0047 </r>
        <r>     1.5464     0.0001     0.0000     0.0000     0.0001     0.0000     0.0000     0.0000     0.0000     0.0000 </r>
        <r>     1.6532     0.0305     0.0113     0.0113     0.0079     0.0001     0.0003     0.0054     0.0001     0.0159 </r>
        <r>     1.7600     0.0357     0.0215     0.0215     0.0172     0.0002     0.0005     0.0074     0.0002     0.0197 </r>
        <r>     1.8669     0.0035     0.0384     0.0384     0.0241     0.0017     0.0031     0.0093     0.0017     0.0130 </r>
        <r>     1.9737     0.0016     0.0118     0.0118     0.0101     0.0017     0.0018     0.0132     0.0017     0.0142 </r>
        <r>     2.0805     0.0183     0.0207     0.0207     0.0430     0.0058     0.0011     0.0090     0.0058     0.0087 </r>
        <r>     2.1874     0.0152     0.0333     0.0333     0.0107     0.0024     0.0009     0.0683     0.0024     0.0255 </r>
        <r>     2.2942     0.0025     0.0072     0.0072     0.0048     0.0014     0.0013     0.0268     0.0014     0.0199 </r>
        <r>     2.4010     0.0000     0.0008     0.0008     0.0008     0.0003     0.0003     0.0042     0.0003     0.0042 </r>
        <r>     2.5079     0.0000     0.0103     0.0103     0.0008     0.0019     0.0015     0.0145     0.0019     0.0159 </r>
        <r>     2.6147     0.0001     0.0234     0.0234     0.0002     0.0029     0.0014     0.0291     0.0029     0.0175 </r>
        <r>     2.7215     0.0000     0.0003     0.0003     0.0000     0.0001     0.0000     0.0090     0.0001     0.0031 </r>
        <r>     2.8284     0.0000     0.0002     0.0002     0.0002     0.0000     0.0000     0.0001     0.0000     0.0001 </r>
        <r>     2.9352     0.0000     0.0046     0.0046     0.0046     0.0002     0.0002     0.0021     0.0002     0.0021 </r>
        <r>     3.0420     0.0000     0.0007     0.0007     0.0007     0.0000     0.0000     0.0003     0.0000     0.0003 </r>
        <r>     3.1489     0.0000     0.0000     0.0000     0.0000     0.0000     0.0000     0.0000     0.0000     0.0000 </r>
        <r>     3.2557     0.0000     0.0000     0.0000     0.0000     0.0000     0.0000     0.0000     0.0000     0.0000 </r>
        <r>     3.3625     0.0000     0.0000     0.0000     0.0000     0.0000     0.0000     0.0000     0.0000     0.0000 </r>
        <r>     3.4694     0.0000     0.0000     0.0000     0.0000     0.0000     0.0000     0.0000     0.0000     0.0000 </r>
        <r>     3.5762     0.0000     0.0000     0.0000     0.0000     0.0000     0.0000     0.0000     0.0000     0.0000 </r>
        <r>     3.6830     0.0000     0.0000     0.0000     0.0000     0.0000     0.0000     0.0000     0.0000     0.0000 </r>
        <r>     3.7899     0.0000     0.0000     0.0000     0.0000     0.0000     0.0000     0.0000     0.0000     0.0000 </r>
        <r>     3.8967     0.0000     0.0000     0.0000     0.0000     0.0000     0.0000     0.0000     0.0000     0.0000 </r>
        <r>     4.0035     0.0000     0.0000     0.0000     0.0000     0.0000     0.0000     0.0000     0.0000     0.0000 </r>
        <r>     4.1104     0.0000     0.0000     0.0000     0.0000     0.0000     0.0000     0.0000     0.0000     0.0000 </r>
        <r>     4.2172     0.0000     0.0000     0.0000     0.0000     0.0000     0.0000     0.0000     0.0000     0.0000 </r>
        <r>     4.3240     0.0000     0.0000     0.0000     0.0000     0.0000     0.0000     0.0000     0.0000     0.0000 </r>
        <r>     4.4309     0.0000     0.0000     0.0000     0.0000     0.0000     0.0000     0.0000     0.0000     0.0000 </r>
        <r>     4.5377     0.0000     0.0000     0.0000     0.0000     0.0000     0.0000     0.0000     0.0000     0.0000 </r>
        <r>     4.6445     0.0000     0.0000     0.0000     0.0000     0.0000     0.0000     0.0000     0.0000     0.0000 </r>
        <r>     4.7514     0.0000     0.0000     0.0000     0.0000     0.0000     0.0000     0.0000     0.0000     0.0000 </r>
        <r>     4.8582     0.0000     0.0000     0.0000     0.0000     0.0000     0.0000     0.0000     0.0000     0.0000 </r>
        <r>     4.9650     0.0000     0.0000     0.0000     0.0000     0.0000     0.0000     0.0000     0.0000     0.0000 </r>
        <r>     5.0719     0.0000     0.0000     0.0000     0.0000     0.0000     0.0000     0.0000     0.0000     0.0000 </r>
        <r>     5.1787     0.0000     0.0000     0.0000     0.0000     0.0000     0.0000     0.0000     0.0000     0.0000 </r>
        <r>     5.2855     0.0000     0.0000     0.0000     0.0000     0.0000     0.0000     0.0000     0.0000     0.0000 </r>
        <r>     5.3924     0.0000     0.0000     0.0000     0.0000     0.0000     0.0000     0.0000     0.0000     0.0000 </r>
        <r>     5.4992     0.0000     0.0000     0.0000     0.0000     0.0000     0.0000     0.0000     0.0000     0.0000 </r>
        <r>     5.6060     0.0000     0.0000     0.0000     0.0000     0.0000     0.0000     0.0000     0.0000     0.0000 </r>
        <r>     5.7129     0.0000     0.0000     0.0000     0.0000     0.0000     0.0000     0.0000     0.0000     0.0000 </r>
        <r>     5.8197     0.0000     0.0000     0.0000     0.0000     0.0000     0.0000     0.0000     0.0000     0.0000 </r>
        <r>     5.9265     0.0000     0.0000     0.0000     0.0000     0.0000     0.0000     0.0000     0.0000     0.0000 </r>
        <r>     6.0334     0.0000     0.0000     0.0000     0.0000     0.0000     0.0000     0.0000     0.0000     0.0000 </r>
        <r>     6.1402     0.0000     0.0000     0.0000     0.0000     0.0000     0.0000     0.0000     0.0000     0.0000 </r>
        <r>     6.2470     0.0000     0.0000     0.0000     0.0000     0.0000     0.0000     0.0000     0.0000     0.0000 </r>
        <r>     6.3539     0.0000     0.0000     0.0000     0.0000     0.0000     0.0000     0.0000     0.0000     0.0000 </r>
        <r>     6.4607     0.0000     0.0000     0.0000     0.0000     0.0000     0.0000     0.0000     0.0000     0.0000 </r>
        <r>     6.5675     0.0000     0.0000     0.0000     0.0000     0.0000     0.0000     0.0000     0.0000     0.0000 </r>
        <r>     6.6744     0.0000     0.0000     0.0000     0.0000     0.0000     0.0000     0.0000     0.0000     0.0000 </r>
        <r>     6.7812     0.0000     0.0000     0.0000     0.0000     0.0000     0.0000     0.0000     0.0000     0.0000 </r>
        <r>     6.8880     0.0000     0.0000     0.0000     0.0000     0.0000     0.0000     0.0000     0.0000     0.0000 </r>
        <r>     6.9949     0.0000     0.0000     0.0000     0.0000     0.0000     0.0000     0.0000     0.0000     0.0000 </r>
        <r>     7.1017     0.0000     0.0000     0.0000     0.0000     0.0000     0.0000     0.0000     0.0000     0.0000 </r>
        <r>     7.2085     0.0000     0.0000     0.0000     0.0000     0.0000     0.0000     0.0000     0.0000     0.0000 </r>
        <r>     7.3154     0.0000     0.0000     0.0000     0.0000     0.0000     0.0000     0.0000     0.0000     0.0000 </r>
        <r>     7.4222     0.0000     0.0000     0.0000     0.0000     0.0000     0.0000     0.0000     0.0000     0.0000 </r>
        <r>     7.5290     0.0000     0.0000     0.0000     0.0000     0.0000     0.0000     0.0000     0.0000     0.0000 </r>
        <r>     7.6359     0.0000     0.0000     0.0000     0.0000     0.0000     0.0000     0.0000     0.0000     0.0000 </r>
        <r>     7.7427     0.0000     0.0000     0.0000     0.0000     0.0000     0.0000     0.0000     0.0000     0.0000 </r>
        <r>     7.8495     0.0000     0.0000     0.0000     0.0000     0.0000     0.0000     0.0000     0.0000     0.0000 </r>
        <r>     7.9564     0.0000     0.0000     0.0000     0.0000     0.0000     0.0000     0.0000     0.0000     0.0000 </r>
        <r>     8.0632     0.0000     0.0000     0.0000     0.0000     0.0000     0.0000     0.0000     0.0000     0.0000 </r>
        <r>     8.1700     0.0000     0.0000     0.0000     0.0000     0.0000     0.0000     0.0000     0.0000     0.0000 </r>
        <r>     8.2769     0.0000     0.0000     0.0000     0.0000     0.0000     0.0000     0.0000     0.0000     0.0000 </r>
        <r>     8.3837     0.0280     0.0009     0.0009     0.0009     0.0000     0.0000     0.0000     0.0000     0.0000 </r>
        <r>     8.4905     0.0849     0.0026     0.0026     0.0026     0.0001     0.0001     0.0000     0.0001     0.0000 </r>
        <r>     8.5974     0.0011     0.0000     0.0000     0.0000     0.0000     0.0000     0.0000     0.0000     0.0000 </r>
        <r>     8.7042     0.0000     0.0000     0.0000     0.0000     0.0000     0.0000     0.0000     0.0000     0.0000 </r>
        <r>     8.8110     0.0000     0.0000     0.0000     0.0000     0.0000     0.0000     0.0000     0.0000     0.0000 </r>
        <r>     8.9179     0.0000     0.0000     0.0000     0.0000     0.0000     0.0000     0.0000     0.0000     0.0000 </r>
        <r>     9.0247     0.0000     0.0000     0.0000     0.0000     0.0000     0.0000     0.0000     0.0000     0.0000 </r>
        <r>     9.1315     0.0000     0.0000     0.0000     0.0000     0.0000     0.0000     0.0000     0.0000     0.0000 </r>
        <r>     9.2384     0.0000     0.0000     0.0000     0.0000     0.0000     0.0000     0.0000     0.0000     0.0000 </r>
        <r>     9.3452     0.0000     0.0000     0.0000     0.0000     0.0000     0.0000     0.0000     0.0000     0.0000 </r>
        <r>     9.4520     0.0000     0.0000     0.0000     0.0000     0.0000     0.0000     0.0000     0.0000     0.0000 </r>
        <r>     9.5589     0.0000     0.0000     0.0000     0.0000     0.0000     0.0000     0.0000     0.0000     0.0000 </r>
        <r>     9.6657     0.0000     0.0000     0.0000     0.0000     0.0000     0.0000     0.0000     0.0000     0.0000 </r>
        <r>     9.7725     0.0000     0.0000     0.0000     0.0000     0.0000     0.0000     0.0000     0.0000     0.0000 </r>
        <r>     9.8793     0.0001     0.0000     0.0000     0.0000     0.0000     0.0000     0.0000     0.0000     0.0000 </r>
        <r>     9.9862     0.1002     0.0047     0.0047     0.0143     0.0001     0.0002     0.0008     0.0001     0.0025 </r>
        <r>    10.0930     0.1721     0.0080     0.0080     0.0246     0.0002     0.0004     0.0014     0.0002     0.0043 </r>
        <r>    10.1998     0.0010     0.0000     0.0000     0.0001     0.0000     0.0000     0.0000     0.0000     0.0000 </r>
        <r>    10.3067     0.0000     0.0000     0.0000     0.0000     0.0000     0.0000     0.0000     0.0000     0.0000 </r>
        <r>    10.4135     0.0000     0.0000     0.0000     0.0000     0.0000     0.0000     0.0000     0.0000     0.0000 </r>
        <r>    10.5203     0.0000     0.0000     0.0000     0.0000     0.0000     0.0000     0.0000     0.0000     0.0000 </r>
        <r>    10.6272     0.0115     0.0142     0.0142     0.0142     0.0003     0.0003     0.0000     0.0003     0.0000 </r>
        <r>    10.7340     0.0121     0.0145     0.0145     0.0143     0.0003     0.0003     0.0000     0.0003     0.0000 </r>
        <r>    10.8408     0.1086     0.0406     0.0406     0.0113     0.0010     0.0001     0.0009     0.0010     0.0026 </r>
        <r>    10.9477     0.0658     0.0246     0.0246     0.0068     0.0006     0.0001     0.0005     0.0006     0.0016 </r>
        <r>    11.0545     0.0001     0.0000     0.0000     0.0000     0.0000     0.0000     0.0000     0.0000     0.0000 </r>
        <r>    11.1613     0.0000     0.0000     0.0000     0.0000     0.0000     0.0000     0.0000     0.0000     0.0000 </r>
        <r>    11.2682     0.0000     0.0000     0.0000     0.0000     0.0000     0.0000     0.0000     0.0000     0.0000 </r>
        <r>    11.3750     0.0012     0.0097     0.0097     0.0097     0.0003     0.0003     0.0003     0.0003     0.0003 </r>
        <r>    11.4818     0.0100     0.0797     0.0797     0.0797     0.0025     0.0025     0.0026     0.0025     0.0026 </r>
        <r>    11.5887     0.0005     0.0036     0.0036     0.0036     0.0001     0.0001     0.0001     0.0001     0.0001 </r>
        <r>    11.6955     0.0000     0.0000     0.0000     0.0000     0.0000     0.0000     0.0000     0.0000     0.0000 </r>
        <r>    11.8023     0.0000     0.0000     0.0000     0.0000     0.0000     0.0000     0.0000     0.0000     0.0000 </r>
        <r>    11.9092     0.0732     0.0041     0.0041     0.0053     0.0000     0.0021     0.0012     0.0000     0.0037 </r>
        <r>    12.0160     0.2350     0.0132     0.0132     0.0170     0.0000     0.0067     0.0039     0.0000     0.0118 </r>
        <r>    12.1228     0.0033     0.0002     0.0002     0.0002     0.0000     0.0001     0.0001     0.0000     0.0002 </r>
        <r>    12.2297     0.0069     0.0051     0.0051     0.0020     0.0004     0.0002     0.0003     0.0004     0.0005 </r>
        <r>    12.3365     0.1783     0.1301     0.1301     0.0512     0.0111     0.0045     0.0085     0.0111     0.0121 </r>
        <r>    12.4433     0.0255     0.0182     0.0182     0.0072     0.0021     0.0012     0.0012     0.0021     0.0017 </r>
        <r>    12.5502     0.0687     0.0073     0.0073     0.0073     0.0541     0.0541     0.0007     0.0541     0.0007 </r>
        <r>    12.6570     0.0278     0.0030     0.0030     0.0030     0.0219     0.0219     0.0003     0.0219     0.0003 </r>
        <r>    12.7638     0.0000     0.0423     0.0423     0.0093     0.0007     0.0139     0.0007     0.0007     0.0022 </r>
        <r>    12.8707     0.0001     0.0666     0.0666     0.0147     0.0010     0.0219     0.0012     0.0010     0.0035 </r>
        <r>    12.9775     0.0000     0.0003     0.0003     0.0001     0.0000     0.0001     0.0000     0.0000     0.0000 </r>
        <r>    13.0843     0.0002     0.0000     0.0000     0.0000     0.0000     0.0000     0.0000     0.0000     0.0000 </r>
        <r>    13.1912     0.2078     0.0010     0.0010     0.0010     0.0054     0.0054     0.0009     0.0054     0.0009 </r>
        <r>    13.2980     0.3695     0.0018     0.0018     0.0018     0.0095     0.0095     0.0016     0.0095     0.0016 </r>
        <r>    13.4048     0.0105     0.0061     0.0061     0.0080     0.0088     0.0001     0.0005     0.0088     0.0002 </r>
        <r>    13.5117     0.0964     0.0716     0.0716     0.0931     0.1021     0.0045     0.0059     0.1021     0.0020 </r>
        <r>    13.6185     0.0251     0.0099     0.0099     0.0063     0.0078     0.2093     0.0005     0.0078     0.0004 </r>
        <r>    13.7253     0.0044     0.0012     0.0012     0.0000     0.0002     0.0486     0.0000     0.0002     0.0001 </r>
        <r>    13.8322     0.0000     0.0000     0.0000     0.0000     0.0000     0.0000     0.0000     0.0000     0.0000 </r>
        <r>    13.9390     0.0000     0.0000     0.0000     0.0000     0.0000     0.0000     0.0000     0.0000     0.0000 </r>
        <r>    14.0458     0.0000     0.0000     0.0000     0.0000     0.0000     0.0000     0.0000     0.0000     0.0000 </r>
        <r>    14.1527     0.0000     0.0000     0.0000     0.0000     0.0000     0.0000     0.0000     0.0000     0.0000 </r>
        <r>    14.2595     0.0000     0.0000     0.0000     0.0000     0.0000     0.0000     0.0000     0.0000     0.0000 </r>
        <r>    14.3663     0.0001     0.0000     0.0000     0.0000     0.0000     0.0000     0.0000     0.0000     0.0000 </r>
        <r>    14.4732     0.2097     0.0056     0.0050     0.0253     0.0421     0.0021     0.0008     0.0325     0.0006 </r>
        <r>    14.5800     0.5077     0.0135     0.0116     0.0667     0.1124     0.0055     0.0017     0.0918     0.0015 </r>
[...]
        <r>  0.0000  0.0451  0.0451  0.0000  0.0000  0.0000  0.0000  0.0000  0.0000 </r>
        <r>  0.0000  0.0451  0.0451  0.0000  0.0000  0.0000  0.0000  0.0000  0.0000 </r>
        <r>  0.0000  0.0451  0.0451  0.0000  0.0000  0.0000  0.0000  0.0000  0.0000 </r>
        <r>  0.0000  0.0451  0.0451  0.0000  0.0000  0.0000  0.0000  0.0000  0.0000 </r>
        <r>  0.0000  0.0451  0.0451  0.0000  0.0000  0.0000  0.0000  0.0000  0.0000 </r>
        <r>  0.0000  0.0451  0.0451  0.0000  0.0000  0.0000  0.0000  0.0000  0.0000 </r>
        <r>  0.0000  0.0451  0.0451  0.0000  0.0000  0.0000  0.0000  0.0000  0.0000 </r>
       </set>
       <set comment="band 33">
        <r>  0.0195  0.0009  0.0009  0.0028  0.0000  0.0000  0.0002  0.0000  0.0005 </r>
        <r>  0.0195  0.0009  0.0009  0.0028  0.0000  0.0000  0.0002  0.0000  0.0005 </r>
        <r>  0.0195  0.0009  0.0009  0.0028  0.0000  0.0000  0.0002  0.0000  0.0005 </r>
        <r>  0.0195  0.0009  0.0009  0.0028  0.0000  0.0000  0.0002  0.0000  0.0005 </r>
        <r>  0.0195  0.0009  0.0009  0.0028  0.0000  0.0000  0.0002  0.0000  0.0005 </r>
        <r>  0.0195  0.0009  0.0009  0.0028  0.0000  0.0000  0.0002  0.0000  0.0005 </r>
        <r>  0.0195  0.0009  0.0009  0.0028  0.0000  0.0000  0.0002  0.0000  0.0005 </r>
        <r>  0.0195  0.0009  0.0009  0.0028  0.0000  0.0000  0.0002  0.0000  0.0005 </r>
        <r>  0.0197  0.0016  0.0016  0.0221  0.0000  0.0000  0.0000  0.0000  0.0000 </r>
        <r>  0.0197  0.0016  0.0016  0.0221  0.0000  0.0000  0.0000  0.0000  0.0000 </r>
        <r>  0.0197  0.0016  0.0016  0.0221  0.0000  0.0000  0.0000  0.0000  0.0000 </r>
        <r>  0.0197  0.0016  0.0016  0.0221  0.0000  0.0000  0.0000  0.0000  0.0000 </r>
        <r>  0.0197  0.0016  0.0016  0.0221  0.0000  0.0000  0.0000  0.0000  0.0000 </r>
        <r>  0.0197  0.0016  0.0016  0.0221  0.0000  0.0000  0.0000  0.0000  0.0000 </r>
        <r>  0.0197  0.0016  0.0016  0.0221  0.0000  0.0000  0.0000  0.0000  0.0000 </r>
        <r>  0.0197  0.0016  0.0016  0.0221  0.0000  0.0000  0.0000  0.0000  0.0000 </r>
       </set>
       <set comment="band 34">
        <r>  0.0125  0.0047  0.0047  0.0013  0.0001  0.0000  0.0001  0.0001  0.0003 </r>
        <r>  0.0125  0.0047  0.0047  0.0013  0.0001  0.0000  0.0001  0.0001  0.0003 </r>
        <r>  0.0125  0.0047  0.0047  0.0013  0.0001  0.0000  0.0001  0.0001  0.0003 </r>
        <r>  0.0125  0.0047  0.0047  0.0013  0.0001  0.0000  0.0001  0.0001  0.0003 </r>
        <r>  0.0125  0.0047  0.0047  0.0013  0.0001  0.0000  0.0001  0.0001  0.0003 </r>
        <r>  0.0125  0.0047  0.0047  0.0013  0.0001  0.0000  0.0001  0.0001  0.0003 </r>
        <r>  0.0125  0.0047  0.0047  0.0013  0.0001  0.0000  0.0001  0.0001  0.0003 </r>
        <r>  0.0125  0.0047  0.0047  0.0013  0.0001  0.0000  0.0001  0.0001  0.0003 </r>
        <r>  0.0167  0.0114  0.0114  0.0000  0.0000  0.0000  0.0000  0.0000  0.0000 </r>
        <r>  0.0167  0.0114  0.0114  0.0000  0.0000  0.0000  0.0000  0.0000  0.0000 </r>
        <r>  0.0167  0.0114  0.0114  0.0000  0.0000  0.0000  0.0000  0.0000  0.0000 </r>
        <r>  0.0167  0.0114  0.0114  0.0000  0.0000  0.0000  0.0000  0.0000  0.0000 </r>
        <r>  0.0167  0.0114  0.0114  0.0000  0.0000  0.0000  0.0000  0.0000  0.0000 </r>
        <r>  0.0167  0.0114  0.0114  0.0000  0.0000  0.0000  0.0000  0.0000  0.0000 </r>
        <r>  0.0167  0.0114  0.0114  0.0000  0.0000  0.0000  0.0000  0.0000  0.0000 </r>
        <r>  0.0167  0.0114  0.0114  0.0000  0.0000  0.0000  0.0000  0.0000  0.0000 </r>
       </set>
       <set comment="band 35">
        <r>  0.0222  0.0012  0.0012  0.0016  0.0000  0.0006  0.0004  0.0000  0.0011 </r>
        <r>  0.0222  0.0012  0.0012  0.0016  0.0000  0.0006  0.0004  0.0000  0.0011 </r>
        <r>  0.0222  0.0012  0.0012  0.0016  0.0000  0.0006  0.0004  0.0000  0.0011 </r>
        <r>  0.0222  0.0012  0.0012  0.0016  0.0000  0.0006  0.0004  0.0000  0.0011 </r>
        <r>  0.0222  0.0012  0.0012  0.0016  0.0000  0.0006  0.0004  0.0000  0.0011 </r>
        <r>  0.0222  0.0012  0.0012  0.0016  0.0000  0.0006  0.0004  0.0000  0.0011 </r>
        <r>  0.0222  0.0012  0.0012  0.0016  0.0000  0.0006  0.0004  0.0000  0.0011 </r>
        <r>  0.0222  0.0012  0.0012  0.0016  0.0000  0.0006  0.0004  0.0000  0.0011 </r>
        <r>  0.0126  0.0004  0.0004  0.0275  0.0000  0.0000  0.0000  0.0000  0.0000 </r>
        <r>  0.0126  0.0004  0.0004  0.0275  0.0000  0.0000  0.0000  0.0000  0.0000 </r>
        <r>  0.0126  0.0004  0.0004  0.0275  0.0000  0.0000  0.0000  0.0000  0.0000 </r>
        <r>  0.0126  0.0004  0.0004  0.0275  0.0000  0.0000  0.0000  0.0000  0.0000 </r>
        <r>  0.0126  0.0004  0.0004  0.0275  0.0000  0.0000  0.0000  0.0000  0.0000 </r>
        <r>  0.0126  0.0004  0.0004  0.0275  0.0000  0.0000  0.0000  0.0000  0.0000 </r>
        <r>  0.0126  0.0004  0.0004  0.0275  0.0000  0.0000  0.0000  0.0000  0.0000 </r>
        <r>  0.0126  0.0004  0.0004  0.0275  0.0000  0.0000  0.0000  0.0000  0.0000 </r>
       </set>
       <set comment="band 36">
        <r>  0.0074  0.0047  0.0063  0.0021  0.0000  0.0002  0.0000  0.0009  0.0009 </r>
        <r>  0.0075  0.0046  0.0063  0.0022  0.0000  0.0002  0.0000  0.0009  0.0009 </r>
        <r>  0.0075  0.0046  0.0063  0.0022  0.0000  0.0002  0.0000  0.0009  0.0009 </r>
        <r>  0.0074  0.0047  0.0063  0.0021  0.0000  0.0002  0.0000  0.0009  0.0009 </r>
        <r>  0.0074  0.0047  0.0063  0.0021  0.0000  0.0002  0.0000  0.0009  0.0009 </r>
        <r>  0.0075  0.0046  0.0063  0.0022  0.0000  0.0002  0.0000  0.0009  0.0009 </r>
        <r>  0.0075  0.0046  0.0063  0.0022  0.0000  0.0002  0.0000  0.0009  0.0009 </r>
        <r>  0.0074  0.0047  0.0063  0.0021  0.0000  0.0002  0.0000  0.0009  0.0009 </r>
        <r>  0.0108  0.0199  0.0033  0.0013  0.0000  0.0000  0.0000  0.0000  0.0000 </r>
        <r>  0.0110  0.0198  0.0032  0.0013  0.0000  0.0000  0.0000  0.0000  0.0000 </r>
        <r>  0.0110  0.0198  0.0032  0.0013  0.0000  0.0000  0.0000  0.0000  0.0000 </r>
        <r>  0.0108  0.0199  0.0033  0.0013  0.0000  0.0000  0.0000  0.0000  0.0000 </r>
        <r>  0.0108  0.0199  0.0033  0.0013  0.0000  0.0000  0.0000  0.0000  0.0000 </r>
        <r>  0.0110  0.0198  0.0032  0.0013  0.0000  0.0000  0.0000  0.0000  0.0000 </r>
        <r>  0.0110  0.0198  0.0032  0.0013  0.0000  0.0000  0.0000  0.0000  0.0000 </r>
        <r>  0.0108  0.0199  0.0033  0.0013  0.0000  0.0000  0.0000  0.0000  0.0000 </r>
       </set>
       <set comment="band 37">
        <r>  0.0075  0.0063  0.0046  0.0022  0.0009  0.0002  0.0007  0.0000  0.0002 </r>
        <r>  0.0074  0.0063  0.0047  0.0021  0.0009  0.0002  0.0007  0.0000  0.0002 </r>
        <r>  0.0074  0.0063  0.0047  0.0021  0.0009  0.0002  0.0007  0.0000  0.0002 </r>
        <r>  0.0075  0.0063  0.0046  0.0022  0.0009  0.0002  0.0007  0.0000  0.0002 </r>
        <r>  0.0075  0.0063  0.0046  0.0022  0.0009  0.0002  0.0007  0.0000  0.0002 </r>
        <r>  0.0074  0.0063  0.0047  0.0021  0.0009  0.0002  0.0007  0.0000  0.0002 </r>
        <r>  0.0074  0.0063  0.0047  0.0021  0.0009  0.0002  0.0007  0.0000  0.0002 </r>
        <r>  0.0075  0.0063  0.0046  0.0022  0.0009  0.0002  0.0007  0.0000  0.0002 </r>
        <r>  0.0110  0.0032  0.0198  0.0013  0.0000  0.0000  0.0000  0.0000  0.0000 </r>
        <r>  0.0108  0.0033  0.0199  0.0013  0.0000  0.0000  0.0000  0.0000  0.0000 </r>
        <r>  0.0108  0.0033  0.0199  0.0013  0.0000  0.0000  0.0000  0.0000  0.0000 </r>
        <r>  0.0110  0.0032  0.0198  0.0013  0.0000  0.0000  0.0000  0.0000  0.0000 </r>
        <r>  0.0110  0.0032  0.0198  0.0013  0.0000  0.0000  0.0000  0.0000  0.0000 </r>
        <r>  0.0108  0.0033  0.0199  0.0013  0.0000  0.0000  0.0000  0.0000  0.0000 </r>
        <r>  0.0108  0.0033  0.0199  0.0013  0.0000  0.0000  0.0000  0.0000  0.0000 </r>
        <r>  0.0110  0.0032  0.0198  0.0013  0.0000  0.0000  0.0000  0.0000  0.0000 </r>
       </set>
       <set comment="band 38">
        <r>  0.0000  0.0078  0.0078  0.0017  0.0001  0.0026  0.0001  0.0001  0.0004 </r>
        <r>  0.0000  0.0078  0.0078  0.0017  0.0001  0.0026  0.0001  0.0001  0.0004 </r>
        <r>  0.0000  0.0078  0.0078  0.0017  0.0001  0.0026  0.0001  0.0001  0.0004 </r>
        <r>  0.0000  0.0078  0.0078  0.0017  0.0001  0.0026  0.0001  0.0001  0.0004 </r>
        <r>  0.0000  0.0078  0.0078  0.0017  0.0001  0.0026  0.0001  0.0001  0.0004 </r>
        <r>  0.0000  0.0078  0.0078  0.0017  0.0001  0.0026  0.0001  0.0001  0.0004 </r>
        <r>  0.0000  0.0078  0.0078  0.0017  0.0001  0.0026  0.0001  0.0001  0.0004 </r>
        <r>  0.0000  0.0078  0.0078  0.0017  0.0001  0.0026  0.0001  0.0001  0.0004 </r>
        <r>  0.0080  0.0069  0.0069  0.0046  0.0000  0.0000  0.0000  0.0000  0.0000 </r>
        <r>  0.0080  0.0069  0.0069  0.0046  0.0000  0.0000  0.0000  0.0000  0.0000 </r>
        <r>  0.0080  0.0069  0.0069  0.0046  0.0000  0.0000  0.0000  0.0000  0.0000 </r>
        <r>  0.0080  0.0069  0.0069  0.0046  0.0000  0.0000  0.0000  0.0000  0.0000 </r>
        <r>  0.0080  0.0069  0.0069  0.0046  0.0000  0.0000  0.0000  0.0000  0.0000 </r>
        <r>  0.0080  0.0069  0.0069  0.0046  0.0000  0.0000  0.0000  0.0000  0.0000 </r>
        <r>  0.0080  0.0069  0.0069  0.0046  0.0000  0.0000  0.0000  0.0000  0.0000 </r>
        <r>  0.0080  0.0069  0.0069  0.0046  0.0000  0.0000  0.0000  0.0000  0.0000 </r>
       </set>
       <set comment="band 39">
        <r>  0.0040  0.0007  0.0051  0.0039  0.0002  0.0000  0.0003  0.0082  0.0001 </r>
        <r>  0.0039  0.0008  0.0052  0.0038  0.0002  0.0000  0.0003  0.0082  0.0001 </r>
        <r>  0.0039  0.0008  0.0052  0.0038  0.0002  0.0000  0.0003  0.0082  0.0001 </r>
        <r>  0.0040  0.0007  0.0051  0.0039  0.0002  0.0000  0.0003  0.0082  0.0001 </r>
        <r>  0.0040  0.0007  0.0051  0.0039  0.0002  0.0000  0.0003  0.0082  0.0001 </r>
        <r>  0.0039  0.0008  0.0052  0.0038  0.0002  0.0000  0.0003  0.0082  0.0001 </r>
        <r>  0.0039  0.0008  0.0052  0.0038  0.0002  0.0000  0.0003  0.0082  0.0001 </r>
        <r>  0.0040  0.0007  0.0051  0.0039  0.0002  0.0000  0.0003  0.0082  0.0001 </r>
        <r>  0.0033  0.0051  0.0141  0.0000  0.0000  0.0000  0.0000  0.0000  0.0000 </r>
        <r>  0.0032  0.0048  0.0139  0.0000  0.0000  0.0000  0.0000  0.0000  0.0000 </r>
        <r>  0.0032  0.0048  0.0139  0.0000  0.0000  0.0000  0.0000  0.0000  0.0000 </r>
        <r>  0.0033  0.0051  0.0141  0.0000  0.0000  0.0000  0.0000  0.0000  0.0000 </r>
        <r>  0.0033  0.0051  0.0141  0.0000  0.0000  0.0000  0.0000  0.0000  0.0000 </r>
        <r>  0.0032  0.0048  0.0139  0.0000  0.0000  0.0000  0.0000  0.0000  0.0000 </r>
        <r>  0.0032  0.0048  0.0139  0.0000  0.0000  0.0000  0.0000  0.0000  0.0000 </r>
        <r>  0.0033  0.0051  0.0141  0.0000  0.0000  0.0000  0.0000  0.0000  0.0000 </r>
       </set>
       <set comment="band 40">
        <r>  0.0039  0.0052  0.0008  0.0038  0.0082  0.0000  0.0002  0.0002  0.0001 </r>
        <r>  0.0040  0.0051  0.0007  0.0039  0.0082  0.0000  0.0002  0.0002  0.0001 </r>
        <r>  0.0040  0.0051  0.0007  0.0039  0.0082  0.0000  0.0002  0.0002  0.0001 </r>
        <r>  0.0039  0.0052  0.0008  0.0038  0.0082  0.0000  0.0002  0.0002  0.0001 </r>
        <r>  0.0039  0.0052  0.0008  0.0038  0.0082  0.0000  0.0002  0.0002  0.0001 </r>
        <r>  0.0040  0.0051  0.0007  0.0039  0.0082  0.0000  0.0002  0.0002  0.0001 </r>
        <r>  0.0040  0.0051  0.0007  0.0039  0.0082  0.0000  0.0002  0.0002  0.0001 </r>
        <r>  0.0039  0.0052  0.0008  0.0038  0.0082  0.0000  0.0002  0.0002  0.0001 </r>
        <r>  0.0032  0.0139  0.0048  0.0000  0.0000  0.0000  0.0000  0.0000  0.0000 </r>
        <r>  0.0033  0.0141  0.0051  0.0000  0.0000  0.0000  0.0000  0.0000  0.0000 </r>
        <r>  0.0033  0.0141  0.0051  0.0000  0.0000  0.0000  0.0000  0.0000  0.0000 </r>
        <r>  0.0032  0.0139  0.0048  0.0000  0.0000  0.0000  0.0000  0.0000  0.0000 </r>
        <r>  0.0032  0.0139  0.0048  0.0000  0.0000  0.0000  0.0000  0.0000  0.0000 </r>
        <r>  0.0033  0.0141  0.0051  0.0000  0.0000  0.0000  0.0000  0.0000  0.0000 </r>
        <r>  0.0033  0.0141  0.0051  0.0000  0.0000  0.0000  0.0000  0.0000  0.0000 </r>
        <r>  0.0032  0.0139  0.0048  0.0000  0.0000  0.0000  0.0000  0.0000  0.0000 </r>
       </set>
       <set comment="band 41">
        <r>  0.0017  0.0005  0.0005  0.0000  0.0001  0.0187  0.0000  0.0001  0.0000 </r>
        <r>  0.0017  0.0005  0.0005  0.0000  0.0001  0.0187  0.0000  0.0001  0.0000 </r>
        <r>  0.0017  0.0005  0.0005  0.0000  0.0001  0.0187  0.0000  0.0001  0.0000 </r>
        <r>  0.0017  0.0005  0.0005  0.0000  0.0001  0.0187  0.0000  0.0001  0.0000 </r>
        <r>  0.0017  0.0005  0.0005  0.0000  0.0001  0.0187  0.0000  0.0001  0.0000 </r>
        <r>  0.0017  0.0005  0.0005  0.0000  0.0001  0.0187  0.0000  0.0001  0.0000 </r>
        <r>  0.0017  0.0005  0.0005  0.0000  0.0001  0.0187  0.0000  0.0001  0.0000 </r>
        <r>  0.0017  0.0005  0.0005  0.0000  0.0001  0.0187  0.0000  0.0001  0.0000 </r>
        <r>  0.0002  0.0039  0.0039  0.0015  0.0000  0.0000  0.0000  0.0000  0.0000 </r>
        <r>  0.0002  0.0039  0.0039  0.0015  0.0000  0.0000  0.0000  0.0000  0.0000 </r>
        <r>  0.0002  0.0039  0.0039  0.0015  0.0000  0.0000  0.0000  0.0000  0.0000 </r>
        <r>  0.0002  0.0039  0.0039  0.0015  0.0000  0.0000  0.0000  0.0000  0.0000 </r>
        <r>  0.0002  0.0039  0.0039  0.0015  0.0000  0.0000  0.0000  0.0000  0.0000 </r>
        <r>  0.0002  0.0039  0.0039  0.0015  0.0000  0.0000  0.0000  0.0000  0.0000 </r>
        <r>  0.0002  0.0039  0.0039  0.0015  0.0000  0.0000  0.0000  0.0000  0.0000 </r>
        <r>  0.0002  0.0039  0.0039  0.0015  0.0000  0.0000  0.0000  0.0000  0.0000 </r>
       </set>
       <set comment="band 42">
        <r>  0.0112  0.0003  0.0007  0.0004  0.0032  0.0000  0.0001  0.0025  0.0001 </r>
        <r>  0.0381  0.0009  0.0013  0.0014  0.0014  0.0002  0.0000  0.0006  0.0001 </r>
        <r>  0.0382  0.0009  0.0013  0.0014  0.0014  0.0002  0.0000  0.0007  0.0001 </r>
        <r>  0.0111  0.0003  0.0007  0.0004  0.0032  0.0001  0.0001  0.0024  0.0001 </r>
        <r>  0.0113  0.0003  0.0007  0.0004  0.0032  0.0000  0.0001  0.0025  0.0001 </r>
        <r>  0.0383  0.0009  0.0013  0.0014  0.0014  0.0002  0.0000  0.0007  0.0001 </r>
        <r>  0.0384  0.0009  0.0013  0.0014  0.0014  0.0002  0.0000  0.0007  0.0001 </r>
        <r>  0.0112  0.0003  0.0007  0.0004  0.0033  0.0001  0.0001  0.0025  0.0001 </r>
        <r>  0.0006  0.0181  0.0204  0.0050  0.0000  0.0000  0.0000  0.0000  0.0000 </r>
        <r>  0.0022  0.0047  0.0071  0.0176  0.0000  0.0000  0.0000  0.0000  0.0000 </r>
        <r>  0.0022  0.0047  0.0070  0.0174  0.0000  0.0000  0.0000  0.0000  0.0000 </r>
        <r>  0.0006  0.0180  0.0205  0.0050  0.0000  0.0000  0.0000  0.0000  0.0000 </r>
        <r>  0.0006  0.0181  0.0203  0.0053  0.0000  0.0000  0.0000  0.0000  0.0000 </r>
        <r>  0.0022  0.0048  0.0073  0.0176  0.0000  0.0000  0.0000  0.0000  0.0000 </r>
        <r>  0.0022  0.0048  0.0072  0.0173  0.0000  0.0000  0.0000  0.0000  0.0000 </r>
        <r>  0.0006  0.0179  0.0205  0.0053  0.0000  0.0000  0.0000  0.0000  0.0000 </r>
       </set>
       <set comment="band 43">
        <r>  0.0371  0.0010  0.0004  0.0040  0.0023  0.0003  0.0001  0.0001  0.0000 </r>
        <r>  0.0045  0.0006  0.0001  0.0003  0.0069  0.0000  0.0002  0.0040  0.0000 </r>
        <r>  0.0047  0.0007  0.0001  0.0004  0.0067  0.0000  0.0002  0.0041  0.0000 </r>
        <r>  0.0360  0.0010  0.0004  0.0038  0.0024  0.0004  0.0001  0.0001  0.0000 </r>
        <r>  0.0215  0.0009  0.0009  0.0015  0.0012  0.0001  0.0001  0.0039  0.0001 </r>
        <r>  0.0128  0.0004  0.0003  0.0017  0.0007  0.0001  0.0001  0.0037  0.0000 </r>
        <r>  0.0126  0.0004  0.0003  0.0016  0.0007  0.0002  0.0001  0.0039  0.0000 </r>
        <r>  0.0208  0.0009  0.0009  0.0014  0.0012  0.0001  0.0001  0.0038  0.0001 </r>
        <r>  0.0009  0.0034  0.0012  0.0396  0.0000  0.0000  0.0000  0.0000  0.0000 </r>
        <r>  0.0007  0.0277  0.0249  0.0022  0.0000  0.0000  0.0000  0.0000  0.0000 </r>
        <r>  0.0007  0.0281  0.0247  0.0024  0.0000  0.0000  0.0000  0.0000  0.0000 </r>
        <r>  0.0009  0.0036  0.0011  0.0401  0.0000  0.0000  0.0000  0.0000  0.0000 </r>
        <r>  0.0024  0.0083  0.0077  0.0030  0.0000  0.0000  0.0000  0.0000  0.0000 </r>
        <r>  0.0003  0.0057  0.0054  0.0122  0.0000  0.0000  0.0000  0.0000  0.0000 </r>
        <r>  0.0003  0.0057  0.0055  0.0129  0.0000  0.0000  0.0000  0.0000  0.0000 </r>
        <r>  0.0025  0.0087  0.0074  0.0026  0.0000  0.0000  0.0000  0.0000  0.0000 </r>
       </set>
       <set comment="band 44">
        <r>  0.0031  0.0001  0.0001  0.0022  0.0056  0.0002  0.0000  0.0064  0.0000 </r>
        <r>  0.0081  0.0001  0.0001  0.0055  0.0031  0.0004  0.0000  0.0041  0.0000 </r>
        <r>  0.0078  0.0001  0.0001  0.0054  0.0032  0.0004  0.0000  0.0041  0.0000 </r>
        <r>  0.0032  0.0001  0.0001  0.0022  0.0056  0.0002  0.0000  0.0065  0.0000 </r>
        <r>  0.0034  0.0001  0.0001  0.0023  0.0056  0.0002  0.0000  0.0065  0.0000 </r>
        <r>  0.0079  0.0001  0.0001  0.0054  0.0034  0.0004  0.0000  0.0041  0.0000 </r>
        <r>  0.0081  0.0001  0.0001  0.0055  0.0033  0.0004  0.0000  0.0040  0.0000 </r>
        <r>  0.0033  0.0001  0.0001  0.0022  0.0057  0.0002  0.0000  0.0064  0.0000 </r>
        <r>  0.0002  0.0087  0.0089  0.0127  0.0000  0.0000  0.0000  0.0000  0.0000 </r>
        <r>  0.0004  0.0037  0.0037  0.0297  0.0000  0.0000  0.0000  0.0000  0.0000 </r>
        <r>  0.0004  0.0037  0.0038  0.0306  0.0000  0.0000  0.0000  0.0000  0.0000 </r>
        <r>  0.0002  0.0089  0.0086  0.0124  0.0000  0.0000  0.0000  0.0000  0.0000 </r>
        <r>  0.0002  0.0087  0.0085  0.0118  0.0000  0.0000  0.0000  0.0000  0.0000 </r>
        <r>  0.0004  0.0033  0.0034  0.0303  0.0000  0.0000  0.0000  0.0000  0.0000 </r>
        <r>  0.0005  0.0034  0.0033  0.0294  0.0000  0.0000  0.0000  0.0000  0.0000 </r>
        <r>  0.0002  0.0084  0.0087  0.0120  0.0000  0.0000  0.0000  0.0000  0.0000 </r>
       </set>
      </set>
     </set>
    </set>
   </array>
  </projected>
 </calculation>
 <structure name="finalpos" >
  <crystal>
   <varray name="basis" >
    <v>       0.00000000       4.24689300       4.24689300 </v>
    <v>       4.24689300       0.00000000       4.24689300 </v>
    <v>       4.24689300       4.24689300       0.00000000 </v>
   </varray>
   <i name="volume">    153.19477498 </i>
   <varray name="rec_basis" >
    <v>      -0.11773313       0.11773313       0.11773313 </v>
    <v>       0.11773313      -0.11773313       0.11773313 </v>
    <v>       0.11773313       0.11773313      -0.11773313 </v>
   </varray>
  </crystal>
  <varray name="positions" >
   <v>       0.00000000       0.00000000       0.00000000 </v>
   <v>       0.00000000       0.00000000       0.50000000 </v>
   <v>       0.00000000       0.50000000       0.00000000 </v>
   <v>       0.00000000       0.50000000       0.50000000 </v>
   <v>       0.50000000       0.00000000       0.00000000 </v>
   <v>       0.50000000       0.00000000       0.50000000 </v>
   <v>       0.50000000       0.50000000       0.00000000 </v>
   <v>       0.50000000       0.50000000       0.50000000 </v>
   <v>       0.25000000       0.25000000       0.25000000 </v>
   <v>       0.25000000       0.25000000       0.75000000 </v>
   <v>       0.25000000       0.75000000       0.25000000 </v>
   <v>       0.25000000       0.75000000       0.75000000 </v>
   <v>       0.75000000       0.25000000       0.25000000 </v>
   <v>       0.75000000       0.25000000       0.75000000 </v>
   <v>       0.75000000       0.75000000       0.25000000 </v>
   <v>       0.75000000       0.75000000       0.75000000 </v>
  </varray>
 </structure>
</modeling>
