   2   2   1   0
  0.9574674E+01  0.3003007E-09  0.3003007E-09  0.3003007E-09  0.5000000E-15
  1.000000000000000E-004
  CAR 
 unknown system                          
     73.04584770    -18.28623519  301      3.36707946      1.00000000
    -18.286  0.0000E+00  0.0000E+00
    -17.982  0.0000E+00  0.0000E+00
    -17.677  0.0000E+00  0.0000E+00
    -17.373  0.0000E+00  0.0000E+00
    -17.068  0.0000E+00  0.0000E+00
    -16.764  0.0000E+00  0.0000E+00
    -16.460  0.0000E+00  0.0000E+00
    -16.155  0.0000E+00  0.0000E+00
    -15.851  0.0000E+00  0.0000E+00
    -15.546  0.0000E+00  0.0000E+00
    -15.242  0.0000E+00  0.0000E+00
    -14.937  0.0000E+00  0.0000E+00
    -14.633  0.0000E+00  0.0000E+00
    -14.329  0.2734E-09  0.8324E-10
    -14.024  0.2334E-01  0.7106E-02
    -13.720  0.2818E+00  0.9291E-01
    -13.415  0.4938E+00  0.2432E+00
    -13.111  0.1078E+01  0.5713E+00
    -12.806  0.2205E+01  0.1243E+01
    -12.502  0.2487E+01  0.2000E+01
    -12.197  0.0000E+00  0.2000E+01
    -11.893  0.0000E+00  0.2000E+01
    -11.589  0.0000E+00  0.2000E+01
    -11.284  0.0000E+00  0.2000E+01
    -10.980  0.0000E+00  0.2000E+01
    -10.675  0.0000E+00  0.2000E+01
    -10.371  0.0000E+00  0.2000E+01
    -10.066  0.0000E+00  0.2000E+01
     -9.762  0.0000E+00  0.2000E+01
     -9.457  0.0000E+00  0.2000E+01
     -9.153  0.0000E+00  0.2000E+01
     -8.849  0.0000E+00  0.2000E+01
     -8.544  0.0000E+00  0.2000E+01
     -8.240  0.0000E+00  0.2000E+01
     -7.935  0.0000E+00  0.2000E+01
     -7.631  0.0000E+00  0.2000E+01
     -7.326  0.0000E+00  0.2000E+01
     -7.022  0.0000E+00  0.2000E+01
     -6.718  0.0000E+00  0.2000E+01
     -6.413  0.0000E+00  0.2000E+01
     -6.109  0.0000E+00  0.2000E+01
     -5.804  0.0000E+00  0.2000E+01
     -5.500  0.0000E+00  0.2000E+01
     -5.195  0.0000E+00  0.2000E+01
     -4.891  0.0000E+00  0.2000E+01
     -4.586  0.0000E+00  0.2000E+01
     -4.282  0.0000E+00  0.2000E+01
     -3.978  0.0000E+00  0.2000E+01
     -3.673  0.0000E+00  0.2000E+01
     -3.369  0.0000E+00  0.2000E+01
     -3.064  0.0000E+00  0.2000E+01
     -2.760  0.0000E+00  0.2000E+01
     -2.455  0.0000E+00  0.2000E+01
     -2.151  0.0000E+00  0.2000E+01
     -1.846  0.0000E+00  0.2000E+01
     -1.542  0.7756E-02  0.2002E+01
     -1.238  0.2222E+00  0.2070E+01
     -0.933  0.6177E+00  0.2258E+01
     -0.629  0.1571E+01  0.2736E+01
     -0.324  0.2146E+01  0.3390E+01
     -0.020  0.7945E+00  0.3631E+01
      0.285  0.4568E+00  0.3771E+01
      0.589  0.9835E+00  0.4070E+01
      0.894  0.8863E+00  0.4340E+01
      1.198  0.1018E+01  0.4650E+01
      1.502  0.1484E+01  0.5102E+01
      1.807  0.1334E+01  0.5508E+01
      2.111  0.3314E+01  0.6516E+01
      2.416  0.2636E+01  0.7319E+01
      2.720  0.1670E+01  0.7827E+01
      3.025  0.5563E+00  0.7997E+01
      3.329  0.1063E-01  0.8000E+01
      3.633  0.0000E+00  0.8000E+01
      3.938  0.0000E+00  0.8000E+01
      4.242  0.0000E+00  0.8000E+01
      4.547  0.0000E+00  0.8000E+01
      4.851  0.0000E+00  0.8000E+01
      5.156  0.0000E+00  0.8000E+01
      5.460  0.0000E+00  0.8000E+01
      5.765  0.0000E+00  0.8000E+01
      6.069  0.0000E+00  0.8000E+01
      6.373  0.0000E+00  0.8000E+01
      6.678  0.0000E+00  0.8000E+01
      6.982  0.0000E+00  0.8000E+01
      7.287  0.3274E-10  0.8000E+01
      7.591  0.1279E-01  0.8004E+01
      7.896  0.0000E+00  0.8004E+01
      8.200  0.1310E-09  0.8004E+01
      8.505  0.1022E+00  0.8035E+01
      8.809  0.7726E-01  0.8059E+01
      9.113  0.0000E+00  0.8059E+01
      9.418  0.3847E-02  0.8060E+01
      9.722  0.1501E+00  0.8105E+01
     10.027  0.3433E+00  0.8210E+01
     10.331  0.6732E-01  0.8230E+01
     10.636  0.6223E-01  0.8249E+01
     10.940  0.4764E+00  0.8394E+01
     11.244  0.4414E+00  0.8529E+01
     11.549  0.7903E+00  0.8770E+01
     11.853  0.4956E-02  0.8771E+01
     12.158  0.3407E+00  0.8875E+01
     12.462  0.9012E+00  0.9149E+01
     12.767  0.1130E+01  0.9493E+01
     13.071  0.7602E+00  0.9725E+01
     13.376  0.6346E+00  0.9918E+01
     13.680  0.1385E+01  0.1034E+02
     13.984  0.2651E-04  0.1034E+02
     14.289  0.8317E-01  0.1037E+02
     14.593  0.2413E+01  0.1110E+02
     14.898  0.6626E+00  0.1130E+02
     15.202  0.1805E+01  0.1185E+02
     15.507  0.1341E+01  0.1226E+02
     15.811  0.5969E+00  0.1244E+02
     16.116  0.9469E+00  0.1273E+02
     16.420  0.3735E+00  0.1284E+02
     16.724  0.7358E+00  0.1307E+02
     17.029  0.5061E+00  0.1322E+02
     17.333  0.1526E-01  0.1323E+02
     17.638  0.1966E+00  0.1329E+02
     17.942  0.7272E+00  0.1351E+02
     18.247  0.4447E+00  0.1364E+02
     18.551  0.3249E+00  0.1374E+02
     18.855  0.3864E-01  0.1375E+02
     19.160  0.8130E+00  0.1400E+02
     19.464  0.1626E+01  0.1450E+02
     19.769  0.1518E+01  0.1496E+02
     20.073  0.1070E+01  0.1528E+02
     20.378  0.1492E+01  0.1574E+02
     20.682  0.3579E+00  0.1585E+02
     20.987  0.1119E+01  0.1619E+02
     21.291  0.8621E+00  0.1645E+02
     21.595  0.5053E+00  0.1661E+02
     21.900  0.6516E+00  0.1680E+02
     22.204  0.4518E+00  0.1694E+02
     22.509  0.1030E+01  0.1725E+02
     22.813  0.7697E+00  0.1749E+02
     23.118  0.2160E+00  0.1755E+02
     23.422  0.6392E+00  0.1775E+02
     23.727  0.8403E+00  0.1801E+02
     24.031  0.2591E+00  0.1808E+02
     24.335  0.1306E+01  0.1848E+02
     24.640  0.4926E+00  0.1863E+02
     24.944  0.5684E+00  0.1880E+02
     25.249  0.1337E+01  0.1921E+02
     25.553  0.3046E+00  0.1930E+02
     25.858  0.9978E+00  0.1961E+02
     26.162  0.7941E+00  0.1985E+02
     26.466  0.6710E+00  0.2005E+02
     26.771  0.3604E+00  0.2016E+02
     27.075  0.4924E+00  0.2031E+02
     27.380  0.5202E+00  0.2047E+02
     27.684  0.1540E+00  0.2052E+02
     27.989  0.1925E+00  0.2058E+02
     28.293  0.1602E+00  0.2063E+02
     28.598  0.1007E+01  0.2093E+02
     28.902  0.1517E+01  0.2140E+02
     29.206  0.5952E+00  0.2158E+02
     29.511  0.3306E+00  0.2168E+02
     29.815  0.1230E+01  0.2205E+02
     30.120  0.1354E+01  0.2246E+02
     30.424  0.7502E+00  0.2269E+02
     30.729  0.7852E+00  0.2293E+02
     31.033  0.8069E+00  0.2318E+02
     31.338  0.1986E+01  0.2378E+02
     31.642  0.1709E+01  0.2430E+02
     31.946  0.1076E+01  0.2463E+02
     32.251  0.2447E+01  0.2537E+02
     32.555  0.1447E+01  0.2582E+02
     32.860  0.1287E+01  0.2621E+02
     33.164  0.8210E+00  0.2646E+02
     33.469  0.1231E+00  0.2649E+02
     33.773  0.2999E+00  0.2659E+02
     34.077  0.8469E+00  0.2684E+02
     34.382  0.3451E+00  0.2695E+02
     34.686  0.1254E+01  0.2733E+02
     34.991  0.1585E+00  0.2738E+02
     35.295  0.9933E+00  0.2768E+02
     35.600  0.9208E+00  0.2796E+02
     35.904  0.3440E+00  0.2807E+02
     36.209  0.1119E+01  0.2841E+02
     36.513  0.5450E+00  0.2857E+02
     36.817  0.1231E+01  0.2895E+02
     37.122  0.9066E+00  0.2922E+02
     37.426  0.3185E+00  0.2932E+02
     37.731  0.1069E+01  0.2965E+02
     38.035  0.8891E+00  0.2992E+02
     38.340  0.5619E+00  0.3009E+02
     38.644  0.6696E+00  0.3029E+02
     38.949  0.1759E+01  0.3083E+02
     39.253  0.6592E-02  0.3083E+02
     39.557  0.3788E+00  0.3095E+02
     39.862  0.3288E+00  0.3105E+02
     40.166  0.7313E+00  0.3127E+02
     40.471  0.3268E+00  0.3137E+02
     40.775  0.1342E+01  0.3178E+02
     41.080  0.2305E+01  0.3248E+02
     41.384  0.9608E+00  0.3277E+02
     41.688  0.3058E+00  0.3286E+02
     41.993  0.3068E+00  0.3296E+02
     42.297  0.1464E+01  0.3340E+02
     42.602  0.9481E+00  0.3369E+02
     42.906  0.7563E+00  0.3392E+02
     43.211  0.6128E+00  0.3411E+02
     43.515  0.1354E+01  0.3452E+02
     43.820  0.2046E+00  0.3458E+02
     44.124  0.1177E+01  0.3494E+02
     44.428  0.4091E+00  0.3507E+02
     44.733  0.1010E+01  0.3537E+02
     45.037  0.7767E+00  0.3561E+02
     45.342  0.2038E+01  0.3623E+02
     45.646  0.1373E+01  0.3665E+02
     45.951  0.1376E+01  0.3707E+02
     46.255  0.6923E+00  0.3728E+02
     46.560  0.9372E+00  0.3756E+02
     46.864  0.3972E+00  0.3768E+02
     47.168  0.3751E+00  0.3780E+02
     47.473  0.4656E+00  0.3794E+02
     47.777  0.4398E+00  0.3807E+02
     48.082  0.8047E+00  0.3832E+02
     48.386  0.2383E+01  0.3904E+02
     48.691  0.1231E+01  0.3942E+02
     48.995  0.1332E+01  0.3982E+02
     49.300  0.4372E+00  0.3996E+02
     49.604  0.1229E+01  0.4033E+02
     49.908  0.1231E+01  0.4071E+02
     50.213  0.9235E+00  0.4099E+02
     50.517  0.1479E+01  0.4144E+02
     50.822  0.1209E+01  0.4181E+02
     51.126  0.6597E+00  0.4201E+02
     51.431  0.2074E+01  0.4264E+02
     51.735  0.4081E+01  0.4388E+02
     52.039  0.5525E+01  0.4556E+02
     52.344  0.3438E+01  0.4661E+02
     52.648  0.3245E+01  0.4760E+02
     52.953  0.1723E+01  0.4812E+02
     53.257  0.9682E+00  0.4842E+02
     53.562  0.1217E+01  0.4879E+02
     53.866  0.2242E+01  0.4947E+02
     54.171  0.1091E+01  0.4980E+02
     54.475  0.1207E+01  0.5017E+02
     54.779  0.8707E+00  0.5044E+02
     55.084  0.1353E+01  0.5085E+02
     55.388  0.6768E+00  0.5105E+02
     55.693  0.1791E+01  0.5160E+02
     55.997  0.8354E+00  0.5185E+02
     56.302  0.1180E+01  0.5221E+02
     56.606  0.1596E+01  0.5270E+02
     56.911  0.1680E+01  0.5321E+02
     57.215  0.5082E+00  0.5337E+02
     57.519  0.1660E+01  0.5387E+02
     57.824  0.1757E+01  0.5441E+02
     58.128  0.5515E+00  0.5457E+02
     58.433  0.5319E+00  0.5474E+02
     58.737  0.9093E+00  0.5501E+02
     59.042  0.1320E+01  0.5541E+02
     59.346  0.3916E+01  0.5661E+02
     59.650  0.1649E+01  0.5711E+02
     59.955  0.2116E+01  0.5775E+02
     60.259  0.5133E+00  0.5791E+02
     60.564  0.1338E+01  0.5832E+02
     60.868  0.5240E+00  0.5848E+02
     61.173  0.2478E+00  0.5855E+02
     61.477  0.2226E+01  0.5923E+02
     61.782  0.1520E+00  0.5928E+02
     62.086  0.4678E+00  0.5942E+02
     62.390  0.1737E+01  0.5995E+02
     62.695  0.1221E+01  0.6032E+02
     62.999  0.7944E+00  0.6056E+02
     63.304  0.1527E+01  0.6103E+02
     63.608  0.1248E+01  0.6141E+02
     63.913  0.1122E+01  0.6175E+02
     64.217  0.7417E+00  0.6197E+02
     64.522  0.1182E+01  0.6233E+02
     64.826  0.5277E+00  0.6249E+02
     65.130  0.5776E+00  0.6267E+02
     65.435  0.1008E+01  0.6298E+02
     65.739  0.2723E+00  0.6306E+02
     66.044  0.9665E+00  0.6335E+02
     66.348  0.7633E+00  0.6359E+02
     66.653  0.4496E+00  0.6372E+02
     66.957  0.3444E+00  0.6383E+02
     67.261  0.2053E+00  0.6389E+02
     67.566  0.1772E-03  0.6389E+02
     67.870  0.2732E-01  0.6390E+02
     68.175  0.1530E+00  0.6395E+02
     68.479  0.7613E-01  0.6397E+02
     68.784  0.8934E-04  0.6397E+02
     69.088  0.1026E+00  0.6400E+02
     69.393  0.0000E+00  0.6400E+02
     69.697  0.0000E+00  0.6400E+02
     70.001  0.0000E+00  0.6400E+02
     70.306  0.0000E+00  0.6400E+02
     70.610  0.0000E+00  0.6400E+02
     70.915  0.0000E+00  0.6400E+02
     71.219  0.0000E+00  0.6400E+02
     71.524  0.0000E+00  0.6400E+02
     71.828  0.0000E+00  0.6400E+02
     72.133  0.0000E+00  0.6400E+02
     72.437  0.0000E+00  0.6400E+02
     72.741  0.0000E+00  0.6400E+02
     73.046  0.0000E+00  0.6400E+02
     73.04584770    -18.28623519  301      3.36707946      1.00000000
    -18.286  0.0000E+00  0.0000E+00  0.0000E+00  0.0000E+00  0.0000E+00  0.0000E+00  0.0000E+00  0.0000E+00  0.0000E+00
    -17.982  0.0000E+00  0.0000E+00  0.0000E+00  0.0000E+00  0.0000E+00  0.0000E+00  0.0000E+00  0.0000E+00  0.0000E+00
    -17.677  0.0000E+00  0.0000E+00  0.0000E+00  0.0000E+00  0.0000E+00  0.0000E+00  0.0000E+00  0.0000E+00  0.0000E+00
    -17.373  0.0000E+00  0.0000E+00  0.0000E+00  0.0000E+00  0.0000E+00  0.0000E+00  0.0000E+00  0.0000E+00  0.0000E+00
    -17.068  0.0000E+00  0.0000E+00  0.0000E+00  0.0000E+00  0.0000E+00  0.0000E+00  0.0000E+00  0.0000E+00  0.0000E+00
    -16.764  0.0000E+00  0.0000E+00  0.0000E+00  0.0000E+00  0.0000E+00  0.0000E+00  0.0000E+00  0.0000E+00  0.0000E+00
    -16.460  0.0000E+00  0.0000E+00  0.0000E+00  0.0000E+00  0.0000E+00  0.0000E+00  0.0000E+00  0.0000E+00  0.0000E+00
    -16.155  0.0000E+00  0.0000E+00  0.0000E+00  0.0000E+00  0.0000E+00  0.0000E+00  0.0000E+00  0.0000E+00  0.0000E+00
    -15.851  0.0000E+00  0.0000E+00  0.0000E+00  0.0000E+00  0.0000E+00  0.0000E+00  0.0000E+00  0.0000E+00  0.0000E+00
    -15.546  0.0000E+00  0.0000E+00  0.0000E+00  0.0000E+00  0.0000E+00  0.0000E+00  0.0000E+00  0.0000E+00  0.0000E+00
    -15.242  0.0000E+00  0.0000E+00  0.0000E+00  0.0000E+00  0.0000E+00  0.0000E+00  0.0000E+00  0.0000E+00  0.0000E+00
    -14.937  0.0000E+00  0.0000E+00  0.0000E+00  0.0000E+00  0.0000E+00  0.0000E+00  0.0000E+00  0.0000E+00  0.0000E+00
    -14.633  0.0000E+00  0.0000E+00  0.0000E+00  0.0000E+00  0.0000E+00  0.0000E+00  0.0000E+00  0.0000E+00  0.0000E+00
    -14.329  0.1132E-10  0.2125E-33  0.2507E-33  0.1614E-32  0.3431E-24  0.3434E-24  0.2016E-27  0.3438E-24  0.1966E-28
    -14.024  0.9158E-03  0.7971E-05  0.8735E-05  0.7971E-05  0.2890E-08  0.2891E-08  0.3263E-07  0.2890E-08  0.6602E-18
    -13.720  0.9391E-02  0.3841E-03  0.2867E-03  0.3841E-03  0.4393E-06  0.2671E-07  0.2325E-04  0.2670E-07  0.5956E-17
    -13.415  0.1240E-01  0.6506E-03  0.2112E-02  0.6505E-03  0.4567E-06  0.7763E-06  0.2096E-03  0.7760E-06  0.3358E-08
    -13.111  0.1522E-01  0.3625E-02  0.5054E-02  0.2762E-02  0.3050E-05  0.3963E-05  0.1055E-02  0.1731E-05  0.3271E-04
    -12.806  0.1075E-01  0.9599E-02  0.9815E-02  0.6302E-02  0.4467E-05  0.7140E-05  0.5066E-02  0.1516E-05  0.3125E-03
    -12.502  0.3735E-02  0.1048E-01  0.3165E-02  0.5285E-02  0.4776E-05  0.2075E-05  0.1197E-01  0.4768E-06  0.8639E-03
    -12.197  0.0000E+00  0.0000E+00  0.0000E+00  0.0000E+00  0.0000E+00  0.0000E+00  0.0000E+00  0.0000E+00  0.0000E+00
    -11.893  0.0000E+00  0.0000E+00  0.0000E+00  0.0000E+00  0.0000E+00  0.0000E+00  0.0000E+00  0.0000E+00  0.0000E+00
    -11.589  0.0000E+00  0.0000E+00  0.0000E+00  0.0000E+00  0.0000E+00  0.0000E+00  0.0000E+00  0.0000E+00  0.0000E+00
    -11.284  0.0000E+00  0.0000E+00  0.0000E+00  0.0000E+00  0.0000E+00  0.0000E+00  0.0000E+00  0.0000E+00  0.0000E+00
    -10.980  0.0000E+00  0.0000E+00  0.0000E+00  0.0000E+00  0.0000E+00  0.0000E+00  0.0000E+00  0.0000E+00  0.0000E+00
    -10.675  0.0000E+00  0.0000E+00  0.0000E+00  0.0000E+00  0.0000E+00  0.0000E+00  0.0000E+00  0.0000E+00  0.0000E+00
    -10.371  0.0000E+00  0.0000E+00  0.0000E+00  0.0000E+00  0.0000E+00  0.0000E+00  0.0000E+00  0.0000E+00  0.0000E+00
    -10.066  0.0000E+00  0.0000E+00  0.0000E+00  0.0000E+00  0.0000E+00  0.0000E+00  0.0000E+00  0.0000E+00  0.0000E+00
     -9.762  0.0000E+00  0.0000E+00  0.0000E+00  0.0000E+00  0.0000E+00  0.0000E+00  0.0000E+00  0.0000E+00  0.0000E+00
     -9.457  0.0000E+00  0.0000E+00  0.0000E+00  0.0000E+00  0.0000E+00  0.0000E+00  0.0000E+00  0.0000E+00  0.0000E+00
     -9.153  0.0000E+00  0.0000E+00  0.0000E+00  0.0000E+00  0.0000E+00  0.0000E+00  0.0000E+00  0.0000E+00  0.0000E+00
     -8.849  0.0000E+00  0.0000E+00  0.0000E+00  0.0000E+00  0.0000E+00  0.0000E+00  0.0000E+00  0.0000E+00  0.0000E+00
     -8.544  0.0000E+00  0.0000E+00  0.0000E+00  0.0000E+00  0.0000E+00  0.0000E+00  0.0000E+00  0.0000E+00  0.0000E+00
     -8.240  0.0000E+00  0.0000E+00  0.0000E+00  0.0000E+00  0.0000E+00  0.0000E+00  0.0000E+00  0.0000E+00  0.0000E+00
     -7.935  0.0000E+00  0.0000E+00  0.0000E+00  0.0000E+00  0.0000E+00  0.0000E+00  0.0000E+00  0.0000E+00  0.0000E+00
     -7.631  0.0000E+00  0.0000E+00  0.0000E+00  0.0000E+00  0.0000E+00  0.0000E+00  0.0000E+00  0.0000E+00  0.0000E+00
     -7.326  0.0000E+00  0.0000E+00  0.0000E+00  0.0000E+00  0.0000E+00  0.0000E+00  0.0000E+00  0.0000E+00  0.0000E+00
     -7.022  0.0000E+00  0.0000E+00  0.0000E+00  0.0000E+00  0.0000E+00  0.0000E+00  0.0000E+00  0.0000E+00  0.0000E+00
     -6.718  0.0000E+00  0.0000E+00  0.0000E+00  0.0000E+00  0.0000E+00  0.0000E+00  0.0000E+00  0.0000E+00  0.0000E+00
     -6.413  0.0000E+00  0.0000E+00  0.0000E+00  0.0000E+00  0.0000E+00  0.0000E+00  0.0000E+00  0.0000E+00  0.0000E+00
     -6.109  0.0000E+00  0.0000E+00  0.0000E+00  0.0000E+00  0.0000E+00  0.0000E+00  0.0000E+00  0.0000E+00  0.0000E+00
     -5.804  0.0000E+00  0.0000E+00  0.0000E+00  0.0000E+00  0.0000E+00  0.0000E+00  0.0000E+00  0.0000E+00  0.0000E+00
     -5.500  0.0000E+00  0.0000E+00  0.0000E+00  0.0000E+00  0.0000E+00  0.0000E+00  0.0000E+00  0.0000E+00  0.0000E+00
     -5.195  0.0000E+00  0.0000E+00  0.0000E+00  0.0000E+00  0.0000E+00  0.0000E+00  0.0000E+00  0.0000E+00  0.0000E+00
     -4.891  0.0000E+00  0.0000E+00  0.0000E+00  0.0000E+00  0.0000E+00  0.0000E+00  0.0000E+00  0.0000E+00  0.0000E+00
     -4.586  0.0000E+00  0.0000E+00  0.0000E+00  0.0000E+00  0.0000E+00  0.0000E+00  0.0000E+00  0.0000E+00  0.0000E+00
     -4.282  0.0000E+00  0.0000E+00  0.0000E+00  0.0000E+00  0.0000E+00  0.0000E+00  0.0000E+00  0.0000E+00  0.0000E+00
     -3.978  0.0000E+00  0.0000E+00  0.0000E+00  0.0000E+00  0.0000E+00  0.0000E+00  0.0000E+00  0.0000E+00  0.0000E+00
     -3.673  0.0000E+00  0.0000E+00  0.0000E+00  0.0000E+00  0.0000E+00  0.0000E+00  0.0000E+00  0.0000E+00  0.0000E+00
     -3.369  0.0000E+00  0.0000E+00  0.0000E+00  0.0000E+00  0.0000E+00  0.0000E+00  0.0000E+00  0.0000E+00  0.0000E+00
     -3.064  0.0000E+00  0.0000E+00  0.0000E+00  0.0000E+00  0.0000E+00  0.0000E+00  0.0000E+00  0.0000E+00  0.0000E+00
     -2.760  0.0000E+00  0.0000E+00  0.0000E+00  0.0000E+00  0.0000E+00  0.0000E+00  0.0000E+00  0.0000E+00  0.0000E+00
     -2.455  0.0000E+00  0.0000E+00  0.0000E+00  0.0000E+00  0.0000E+00  0.0000E+00  0.0000E+00  0.0000E+00  0.0000E+00
     -2.151  0.0000E+00  0.0000E+00  0.0000E+00  0.0000E+00  0.0000E+00  0.0000E+00  0.0000E+00  0.0000E+00  0.0000E+00
     -1.846  0.0000E+00  0.0000E+00  0.0000E+00  0.0000E+00  0.0000E+00  0.0000E+00  0.0000E+00  0.0000E+00  0.0000E+00
     -1.542  0.7974E-03  0.2672E-26  0.1364E-26  0.1853E-26  0.2717E-04  0.2717E-04  0.8174E-20  0.2717E-04  0.1453E-18
     -1.238  0.2082E-01  0.2731E-03  0.7719E-03  0.2731E-03  0.7096E-03  0.7157E-03  0.9849E-05  0.7157E-03  0.1497E-17
     -0.933  0.5241E-01  0.3646E-03  0.5459E-02  0.9177E-03  0.2060E-02  0.1641E-02  0.2143E-03  0.1580E-02  0.5390E-05
     -0.629  0.7399E-01  0.1906E-02  0.5322E-01  0.5201E-02  0.2459E-02  0.3286E-02  0.2006E-02  0.2001E-02  0.2989E-03
     -0.324  0.1010E+00  0.1944E-02  0.6523E-01  0.6416E-02  0.2748E-02  0.5464E-02  0.4857E-02  0.1997E-02  0.7152E-03
     -0.020  0.4971E-01  0.3125E-03  0.6805E-02  0.6326E-02  0.2467E-02  0.5718E-03  0.3716E-02  0.5328E-03  0.2199E-04
      0.285  0.2046E-01  0.4694E-03  0.6816E-02  0.5106E-02  0.3873E-03  0.1314E-02  0.1873E-02  0.3538E-05  0.3250E-03
      0.589  0.2296E-01  0.2483E-02  0.2365E-01  0.1445E-01  0.2476E-02  0.1724E-02  0.2566E-02  0.7352E-03  0.4888E-08
      0.894  0.2482E-01  0.1512E-02  0.1607E-01  0.1093E-01  0.1831E-02  0.9550E-03  0.4514E-02  0.9063E-03  0.3847E-08
      1.198  0.1071E-01  0.2801E-02  0.1916E-01  0.1594E-01  0.2484E-02  0.1255E-02  0.5804E-02  0.6420E-03  0.8418E-03
      1.502  0.1327E-01  0.8522E-02  0.3503E-02  0.4450E-01  0.4172E-02  0.3083E-03  0.3875E-02  0.1543E-02  0.2330E-02
      1.807  0.1590E-01  0.1466E-01  0.4722E-02  0.1490E-01  0.2884E-03  0.3378E-03  0.3904E-02  0.3326E-03  0.9276E-02
      2.111  0.1471E-01  0.2199E-01  0.2107E-01  0.3686E-01  0.2669E-02  0.2251E-02  0.1628E-01  0.3532E-02  0.1894E-01
      2.416  0.2648E-02  0.1334E-01  0.5757E-02  0.1132E-01  0.8622E-03  0.1848E-02  0.1563E-01  0.1822E-02  0.3441E-01
      2.720  0.1345E-03  0.7910E-02  0.4847E-02  0.6617E-02  0.6315E-03  0.1487E-02  0.7974E-02  0.1369E-02  0.1453E-01
      3.025  0.2410E-13  0.3096E-02  0.1174E-02  0.3096E-02  0.5367E-04  0.1967E-03  0.5980E-03  0.1967E-03  0.2816E-02
      3.329  0.5394E-25  0.5879E-04  0.5879E-04  0.5879E-04  0.4714E-26  0.2968E-26  0.2436E-26  0.1293E-25  0.3864E-26
      3.633  0.0000E+00  0.0000E+00  0.0000E+00  0.0000E+00  0.0000E+00  0.0000E+00  0.0000E+00  0.0000E+00  0.0000E+00
      3.938  0.0000E+00  0.0000E+00  0.0000E+00  0.0000E+00  0.0000E+00  0.0000E+00  0.0000E+00  0.0000E+00  0.0000E+00
      4.242  0.0000E+00  0.0000E+00  0.0000E+00  0.0000E+00  0.0000E+00  0.0000E+00  0.0000E+00  0.0000E+00  0.0000E+00
      4.547  0.0000E+00  0.0000E+00  0.0000E+00  0.0000E+00  0.0000E+00  0.0000E+00  0.0000E+00  0.0000E+00  0.0000E+00
      4.851  0.0000E+00  0.0000E+00  0.0000E+00  0.0000E+00  0.0000E+00  0.0000E+00  0.0000E+00  0.0000E+00  0.0000E+00
      5.156  0.0000E+00  0.0000E+00  0.0000E+00  0.0000E+00  0.0000E+00  0.0000E+00  0.0000E+00  0.0000E+00  0.0000E+00
      5.460  0.0000E+00  0.0000E+00  0.0000E+00  0.0000E+00  0.0000E+00  0.0000E+00  0.0000E+00  0.0000E+00  0.0000E+00
      5.765  0.0000E+00  0.0000E+00  0.0000E+00  0.0000E+00  0.0000E+00  0.0000E+00  0.0000E+00  0.0000E+00  0.0000E+00
      6.069  0.0000E+00  0.0000E+00  0.0000E+00  0.0000E+00  0.0000E+00  0.0000E+00  0.0000E+00  0.0000E+00  0.0000E+00
      6.373  0.0000E+00  0.0000E+00  0.0000E+00  0.0000E+00  0.0000E+00  0.0000E+00  0.0000E+00  0.0000E+00  0.0000E+00
      6.678  0.0000E+00  0.0000E+00  0.0000E+00  0.0000E+00  0.0000E+00  0.0000E+00  0.0000E+00  0.0000E+00  0.0000E+00
      6.982  0.0000E+00  0.0000E+00  0.0000E+00  0.0000E+00  0.0000E+00  0.0000E+00  0.0000E+00  0.0000E+00  0.0000E+00
      7.287  0.7807E-11  0.8715E-35  0.1027E-34  0.6698E-34  0.1860E-24  0.1859E-24  0.2450E-27  0.1858E-24  0.2455E-28
      7.591  0.3051E-02  0.3406E-26  0.4013E-26  0.2618E-25  0.7268E-16  0.7266E-16  0.9575E-19  0.7263E-16  0.9593E-20
      7.896  0.0000E+00  0.0000E+00  0.0000E+00  0.0000E+00  0.0000E+00  0.0000E+00  0.0000E+00  0.0000E+00  0.0000E+00
      8.200  0.2550E-10  0.7838E-12  0.7838E-12  0.7838E-12  0.1788E-13  0.1788E-13  0.2309E-24  0.1788E-13  0.7606E-24
      8.505  0.1990E-01  0.6118E-03  0.6118E-03  0.6118E-03  0.1396E-04  0.1396E-04  0.1317E-11  0.1396E-04  0.5937E-15
      8.809  0.1473E-01  0.2452E-05  0.1119E-02  0.2452E-05  0.5593E-07  0.5593E-07  0.2067E-03  0.5593E-07  0.2444E-17
      9.113  0.0000E+00  0.0000E+00  0.0000E+00  0.0000E+00  0.0000E+00  0.0000E+00  0.0000E+00  0.0000E+00  0.0000E+00
      9.418  0.6183E-03  0.6986E-04  0.1453E-25  0.6986E-04  0.1830E-05  0.2013E-16  0.6718E-05  0.2013E-16  0.1646E-20
      9.722  0.2413E-01  0.2727E-02  0.4687E-07  0.2727E-02  0.7144E-04  0.2048E-08  0.2622E-03  0.2048E-08  0.1161E-18
     10.027  0.5056E-01  0.4091E-02  0.7693E-02  0.4091E-02  0.1925E-03  0.1529E-03  0.1244E-02  0.1529E-03  0.8972E-14
     10.331  0.1047E-01  0.4899E-03  0.1498E-02  0.4899E-03  0.2525E-04  0.1417E-04  0.3480E-03  0.1417E-04  0.1786E-14
     10.636  0.2445E-02  0.3037E-02  0.3037E-02  0.3037E-02  0.7201E-04  0.7201E-04  0.8884E-10  0.7201E-04  0.7276E-15
     10.940  0.4630E-01  0.1652E-01  0.9400E-02  0.1652E-01  0.8201E-04  0.3381E-03  0.1954E-02  0.3381E-03  0.5526E-15
     11.244  0.4260E-01  0.1327E-01  0.1471E-01  0.9893E-02  0.1494E-02  0.7803E-04  0.2455E-02  0.7788E-04  0.8548E-04
     11.549  0.3115E-01  0.3929E-01  0.3024E-01  0.3487E-01  0.1674E-02  0.5671E-03  0.3368E-02  0.5669E-03  0.1118E-03
     11.853  0.8786E-03  0.4919E-04  0.6380E-04  0.4919E-04  0.2492E-04  0.1578E-08  0.5840E-04  0.1580E-08  0.1008E-15
     12.158  0.5375E-01  0.3034E-02  0.3903E-02  0.3032E-02  0.8015E-02  0.1970E-06  0.3573E-02  0.1133E-06  0.8176E-07
     12.462  0.6784E-01  0.4232E-01  0.2464E-01  0.2106E-01  0.7461E-02  0.1255E-02  0.5230E-02  0.1575E-03  0.8209E-03
     12.767  0.5322E-01  0.4038E-01  0.1707E-01  0.3451E-01  0.6788E-01  0.2193E-02  0.3872E-02  0.1806E-03  0.3499E-03
     13.071  0.7277E-01  0.2348E-01  0.4835E-02  0.1837E-01  0.3794E-01  0.4653E-03  0.3164E-02  0.1597E-03  0.2107E-03
     13.376  0.1066E+00  0.1631E-02  0.2922E-03  0.6875E-02  0.4941E-01  0.6988E-04  0.1057E-02  0.2725E-03  0.2379E-04
     13.680  0.9195E-01  0.3857E-01  0.3551E-02  0.4392E-01  0.9588E-01  0.1137E-02  0.2529E-02  0.2630E-03  0.9199E-03
     13.984  0.3300E-17  0.2769E-20  0.4689E-17  0.2769E-20  0.4897E-05  0.5876E-20  0.8093E-19  0.5874E-20  0.2897E-29
     14.289  0.6710E-03  0.2592E-05  0.2364E-04  0.2706E-04  0.1463E-01  0.1467E-04  0.3255E-05  0.2241E-04  0.2096E-10
     14.593  0.2421E+00  0.5196E-02  0.3215E-01  0.3487E-01  0.1212E+00  0.2733E-01  0.4439E-03  0.1051E-01  0.8889E-03
     14.898  0.4892E-01  0.3365E-02  0.1711E-01  0.3460E-02  0.2263E-01  0.1385E-01  0.1637E-03  0.1055E-01  0.3160E-03
     15.202  0.1554E+00  0.4015E-02  0.3176E-01  0.6735E-02  0.5554E-01  0.3346E-01  0.1876E-03  0.2924E-01  0.1432E-03
     15.507  0.2322E+00  0.3914E-02  0.7472E-01  0.1499E-01  0.1479E-01  0.1805E-01  0.1559E-02  0.7034E-02  0.1529E-02
     15.811  0.2990E-01  0.1237E-02  0.5924E-01  0.1407E-02  0.2136E-03  0.1131E-01  0.3387E-03  0.9892E-02  0.1297E-04
     16.116  0.1803E+00  0.6551E-02  0.1091E+00  0.6151E-02  0.2615E-02  0.6005E-02  0.7988E-03  0.4668E-02  0.2737E-03
     16.420  0.8192E-01  0.1776E-04  0.3040E-01  0.1900E-01  0.3117E-02  0.3031E-02  0.2160E-03  0.6567E-03  0.6424E-03
     16.724  0.1559E+00  0.8195E-02  0.8041E-01  0.1045E-01  0.2006E-01  0.7231E-03  0.7322E-03  0.3526E-03  0.2193E-02
     17.029  0.7779E-01  0.6979E-02  0.6817E-01  0.7026E-02  0.5972E-02  0.5402E-02  0.1595E-02  0.5394E-02  0.4619E-04
     17.333  0.4336E-04  0.1357E-03  0.1357E-03  0.1357E-03  0.9364E-03  0.9364E-03  0.5656E-16  0.9364E-03  0.1717E-15
     17.638  0.2661E-01  0.5130E-02  0.3301E-01  0.5130E-02  0.2905E-02  0.7818E-03  0.1564E-04  0.7818E-03  0.7758E-09
     17.942  0.1078E+00  0.2663E-01  0.1081E+00  0.2088E-01  0.1890E-02  0.4433E-02  0.4122E-02  0.2995E-02  0.9894E-03
     18.247  0.4514E-01  0.2547E-01  0.8625E-01  0.1326E-02  0.8053E-02  0.7189E-04  0.4417E-02  0.7190E-04  0.2874E-03
     18.551  0.3640E-01  0.2815E-01  0.1174E-01  0.2682E-01  0.5439E-02  0.1662E-02  0.4637E-02  0.1662E-02  0.1587E-04
     18.855  0.6220E-05  0.1165E-04  0.1226E-07  0.1165E-04  0.3821E-02  0.3800E-02  0.1628E-05  0.3800E-02  0.1072E-08
     19.160  0.2118E-01  0.2846E-01  0.5589E-01  0.2841E-01  0.4656E-01  0.3816E-01  0.6336E-02  0.3816E-01  0.1357E-03
     19.464  0.1114E-01  0.3367E+00  0.4189E-01  0.9031E-01  0.2487E-01  0.1949E-01  0.1361E-01  0.1612E-01  0.3386E-02
     19.769  0.8132E-05  0.2170E+00  0.1549E-01  0.1427E+00  0.4874E-02  0.5809E-01  0.7388E-03  0.5672E-01  0.7908E-02
     20.073  0.4044E-02  0.2455E+00  0.3160E-01  0.5117E-01  0.7106E-06  0.2062E-01  0.6009E-02  0.1306E-01  0.8866E-02
     20.378  0.3260E-02  0.2990E+00  0.2131E-01  0.1451E+00  0.3798E-11  0.2882E-01  0.8154E-02  0.9523E-02  0.7206E-02
     20.682  0.6985E-05  0.4795E-01  0.5469E-04  0.4796E-01  0.1511E-04  0.6737E-02  0.2239E-04  0.6738E-02  0.2535E-02
     20.987  0.8776E-02  0.7208E-01  0.3755E-01  0.1024E+00  0.5603E-01  0.2139E-01  0.2230E-01  0.5843E-01  0.5633E-03
     21.291  0.5001E-02  0.1190E+00  0.5391E-03  0.1190E+00  0.1323E-01  0.5866E-02  0.6670E-02  0.5865E-02  0.1228E-02
     21.595  0.7414E-02  0.4528E-01  0.2051E-01  0.4528E-01  0.3294E-01  0.4201E-02  0.1914E-01  0.4201E-02  0.9854E-02
     21.900  0.2558E-03  0.3576E-01  0.1986E-02  0.8705E-01  0.1255E-01  0.3503E-01  0.1050E-02  0.4110E-01  0.1929E-01
     22.204  0.1069E-02  0.1720E-01  0.6966E-02  0.3905E-01  0.5237E-01  0.1443E-01  0.1159E-01  0.1684E-01  0.1726E-03
     22.509  0.5073E-02  0.1412E-01  0.3816E-03  0.1134E+00  0.1454E+00  0.8986E-02  0.2212E-01  0.3816E-01  0.1217E-02
     22.813  0.2129E-02  0.1955E-02  0.1088E-02  0.1284E+00  0.6998E-01  0.2371E-01  0.1020E-01  0.2523E-01  0.2221E-02
     23.118  0.1736E-04  0.1030E-01  0.1030E-01  0.1134E-01  0.1035E-01  0.1283E-01  0.1279E-01  0.1283E-01  0.1272E-01
     23.422  0.2394E-02  0.1785E-01  0.2462E-01  0.2863E-01  0.6393E-01  0.3868E-01  0.4752E-01  0.3280E-02  0.3338E-01
     23.727  0.2992E-01  0.1626E-01  0.9559E-03  0.5621E-01  0.1622E+00  0.6977E-02  0.7266E-01  0.6977E-02  0.2183E-03
     24.031  0.3061E-01  0.3506E-02  0.2607E-02  0.3506E-02  0.2881E-01  0.1820E-01  0.1082E-01  0.1820E-01  0.2145E-02
     24.335  0.1662E-01  0.8454E-02  0.3775E-01  0.8454E-02  0.1696E+00  0.1205E+00  0.6681E-01  0.7616E-01  0.2135E-01
     24.640  0.1784E-01  0.1852E-01  0.2145E-01  0.2881E-01  0.1558E-01  0.2217E-01  0.6639E-03  0.1129E-01  0.5908E-01
     24.944  0.7601E-02  0.6265E-02  0.2216E-01  0.2749E-01  0.3586E-01  0.4193E-01  0.1592E-02  0.2176E-01  0.8676E-01
     25.249  0.1130E-01  0.2002E-01  0.2811E-01  0.5656E-02  0.1353E-01  0.2615E+00  0.1287E-01  0.6573E-01  0.1869E+00
     25.553  0.3286E-09  0.1830E-02  0.4325E-09  0.1830E-02  0.7039E-03  0.4792E-01  0.2211E-03  0.4791E-01  0.1788E-01
     25.858  0.8613E-01  0.6301E-02  0.7371E-01  0.6301E-02  0.1111E-01  0.1213E+00  0.1139E-01  0.1213E+00  0.2857E-01
     26.162  0.5412E-01  0.2368E-01  0.8650E-01  0.2351E-01  0.3825E-02  0.8377E-01  0.7518E-02  0.4261E-01  0.4578E-01
     26.466  0.1436E-01  0.2555E-02  0.1058E+00  0.2142E-02  0.4412E-02  0.1120E+00  0.1146E-01  0.1330E-01  0.1656E-01
     26.771  0.1806E-01  0.4425E-01  0.3598E-02  0.4425E-01  0.1162E-02  0.1925E-01  0.2751E-02  0.1925E-01  0.1531E-01
     27.075  0.5690E-02  0.1886E-01  0.1831E-01  0.1715E-01  0.4427E-02  0.3795E-01  0.4388E-02  0.1986E-01  0.1379E+00
     27.380  0.3863E-03  0.4663E-02  0.7203E-02  0.1150E-02  0.2921E-03  0.8261E-01  0.9019E-02  0.4543E-01  0.1022E+00
     27.684  0.2164E-07  0.3954E-01  0.5448E-12  0.3954E-01  0.3149E-15  0.8226E-02  0.1885E-06  0.8226E-02  0.1539E-13
     27.989  0.2261E-02  0.1771E-13  0.2806E-22  0.1771E-13  0.1517E-13  0.2894E-01  0.1969E-01  0.2894E-01  0.4970E-06
     28.293  0.1090E-02  0.7600E-03  0.2551E-01  0.8149E-03  0.1081E-02  0.6245E-02  0.3485E-02  0.6279E-02  0.4909E-01
     28.598  0.2532E-01  0.4013E-01  0.5656E-01  0.1579E+00  0.1595E-01  0.1349E-01  0.1217E+00  0.1098E+00  0.4222E-01
     28.902  0.6862E-01  0.1131E-01  0.9615E-01  0.1023E+00  0.8262E-02  0.6042E-01  0.2384E+00  0.2648E+00  0.3843E-01
     29.206  0.5161E-02  0.4228E-02  0.2844E-01  0.4323E-03  0.1209E-03  0.6882E-01  0.5724E-01  0.1507E-01  0.1708E+00