    2    2    1    1
  0.9574674E+01  0.3003007E-09  0.3003007E-09  0.3003007E-09  0.5000000E-15
  1.000000000000000E-004
  CAR 
 unknown system                          
      8     29     32
 
  0.0000000E+00  0.0000000E+00  0.0000000E+00  0.1953125E-02
    1      -14.134777   1.000000
    2        3.003576   1.000000
    3        3.003576   1.000000
    4        3.003582   1.000000
    5        7.493357   0.000000
    6       18.663446   0.000000
    7       18.663446   0.000000
    8       18.663446   0.000000
    9       22.515625   0.000000
   10       24.261575   0.000000
   11       24.261575   0.000000
   12       26.778806   0.000000
   13       26.778806   0.000000
   14       26.778824   0.000000
   15       40.779128   0.000000
   16       40.779128   0.000000
   17       40.779292   0.000000
   18       41.183630   0.000000
   19       52.274559   0.000000
   20       52.274560   0.000000
   21       52.274646   0.000000
   22       52.448065   0.000000
   23       52.448065   0.000000
   24       52.448067   0.000000
   25       57.954941   0.000000
   26       57.954941   0.000000
   27       59.332689   0.000000
   28       59.332707   0.000000
   29       59.332707   0.000000
   30       62.271843   0.000000
   31       67.652970   0.000000
   32       67.652972   0.000000
 
  0.1250000E+00  0.0000000E+00  0.0000000E+00  0.1562500E-01
    1      -13.978726   1.000000
    2        2.058116   1.000000
    3        2.904874   1.000000
    4        2.904878   1.000000
    5        8.410719   0.000000
    6       16.991990   0.000000
    7       19.007301   0.000000
    8       19.007304   0.000000
    9       23.252509   0.000000
   10       23.252509   0.000000
   11       24.589964   0.000000
   12       27.020953   0.000000
   13       28.451733   0.000000
   14       28.451753   0.000000
   15       38.714400   0.000000
   16       40.622803   0.000000
   17       40.622931   0.000000
   18       43.064460   0.000000
   19       49.752278   0.000000
   20       49.752291   0.000000
   21       52.021767   0.000000
   22       52.286556   0.000000
   23       52.286636   0.000000
   24       53.764631   0.000000
   25       56.081476   0.000000
   26       56.081490   0.000000
   27       59.721262   0.000000
   28       62.409607   0.000000
   29       64.861782   0.000000
   30       64.861789   0.000000
   31       67.091367   0.000000
   32       67.091379   0.000000
 
  0.2500000E+00  0.0000000E+00  0.0000000E+00  0.1562500E-01
    1      -13.573909   1.000000
    2        0.390936   1.000000
    3        2.677247   1.000000
    4        2.677250   1.000000
    5        9.867479   0.000000
    6       15.420557   0.000000
    7       19.451535   0.000000
    8       19.451543   0.000000
    9       22.866402   0.000000
   10       22.866402   0.000000
   11       24.589450   0.000000
   12       30.470183   0.000000
   13       31.033257   0.000000
   14       31.033295   0.000000
   15       36.719446   0.000000
   16       39.428216   0.000000
   17       39.428262   0.000000
   18       45.627153   0.000000
   19       46.552671   0.000000
   20       46.552741   0.000000
   21       51.926147   0.000000
   22       52.239531   0.000000
   23       52.239618   0.000000
   24       55.831192   0.000000
   25       56.737409   0.000000
   26       56.737423   0.000000
   27       60.885670   0.000000
   28       61.307401   0.000000
   29       62.646354   0.000000
   30       62.646378   0.000000
   31       66.302616   0.000000
   32       68.894389   0.000000
 
  0.3750000E+00  0.0000000E+00  0.0000000E+00  0.1562500E-01
    1      -13.119459   1.000000
    2       -0.974779   1.000000
    3        2.462875   1.000000
    4        2.462877   1.000000
    5       10.626108   0.000000
    6       15.143883   0.000000
    7       19.238363   0.000000
    8       19.238371   0.000000
    9       23.820911   0.000000
   10       24.166638   0.000000
   11       24.166651   0.000000
   12       31.673237   0.000000
   13       32.994571   0.000000
   14       32.994622   0.000000
   15       36.613088   0.000000
   16       36.613089   0.000000
   17       39.332699   0.000000
   18       47.036971   0.000000
   19       47.037039   0.000000
   20       48.335905   0.000000
   21       51.921765   0.000000
   22       52.238679   0.000000
   23       52.238770   0.000000
   24       53.673811   0.000000
   25       56.810564   0.000000
   26       56.810609   0.000000
   27       58.739639   0.000000
   28       58.739658   0.000000
   29       59.201904   0.000000
   30       62.253019   0.000000
   31       62.814946   0.000000
   32       65.144108   0.000000
 
  0.5000000E+00  0.0000000E+00  0.0000000E+00  0.7812500E-02
    1      -12.912589   1.000000
    2       -1.505547   1.000000
    3        2.377473   1.000000
    4        2.377474   1.000000
    5       10.745024   0.000000
    6       15.328571   0.000000
    7       19.061073   0.000000
    8       19.061081   0.000000
    9       23.525121   0.000000
   10       25.192671   0.000000
   11       25.192697   0.000000
   12       31.108819   0.000000
   13       33.472834   0.000000
   14       33.472835   0.000000
   15       35.185093   0.000000
   16       35.185142   0.000000
   17       44.938360   0.000000
   18       46.588070   0.000000
   19       48.889206   0.000000
   20       48.889219   0.000000
   21       50.954265   0.000000
   22       52.117182   0.000000
   23       52.753238   0.000000
   24       52.753332   0.000000
   25       52.992215   0.000000
   26       52.992317   0.000000
   27       57.902087   0.000000
   28       59.927497   0.000000
   29       59.927503   0.000000
   30       61.954898   0.000000
   31       63.024022   0.000000
   32       63.024056   0.000000
 
  0.1250000E+00  0.1250000E+00  0.0000000E+00  0.1171875E-01
    1      -13.928982   1.000000
    2        1.978930   1.000000
    3        2.778322   1.000000
    4        2.778326   1.000000
    5        8.705671   0.000000
    6       16.514602   0.000000
    7       19.142882   0.000000
    8       19.142886   0.000000
    9       21.548455   0.000000
   10       24.733519   0.000000
   11       25.701552   0.000000
   12       27.545647   0.000000
   13       27.545657   0.000000
   14       28.994773   0.000000
   15       38.858325   0.000000
   16       40.091783   0.000000
   17       40.091876   0.000000
   18       43.896843   0.000000
   19       50.291716   0.000000
   20       50.291748   0.000000
   21       50.960116   0.000000
   22       52.243136   0.000000
   23       52.388406   0.000000
   24       52.388470   0.000000
   25       52.839529   0.000000
   26       58.449594   0.000000
   27       62.367386   0.000000
   28       63.115144   0.000000
   29       63.115151   0.000000
   30       66.222947   0.000000
   31       66.756020   0.000000
   32       68.255702   0.000000
 
  0.2500000E+00  0.1250000E+00  0.0000000E+00  0.4687500E-01
    1      -13.612449   1.000000
    2        0.775564   1.000000
    3        2.534570   1.000000
    4        2.538366   1.000000
    5        9.999242   0.000000
    6       15.172388   0.000000
    7       19.131454   0.000000
    8       19.613335   0.000000
    9       20.787052   0.000000
   10       24.632492   0.000000
   11       26.625180   0.000000
   12       29.721359   0.000000
   13       30.009131   0.000000
   14       30.759348   0.000000
   15       36.982085   0.000000
   16       38.750255   0.000000
   17       40.652243   0.000000
   18       45.372317   0.000000
   19       46.405938   0.000000
   20       47.916468   0.000000
   21       51.414408   0.000000
   22       51.959482   0.000000
   23       52.370869   0.000000
   24       52.506421   0.000000
   25       54.833114   0.000000
   26       58.147332   0.000000
   27       61.286822   0.000000
   28       63.667168   0.000000
   29       63.888166   0.000000
   30       65.215668   0.000000
   31       66.556918   0.000000
   32       66.667844   0.000000
 
  0.3750000E+00  0.1250000E+00  0.0000000E+00  0.4687500E-01
    1      -13.176413   1.000000
    2       -0.513895   1.000000
    3        2.179658   1.000000
    4        2.331840   1.000000
    5       11.092717   0.000000
    6       14.754351   0.000000
    7       18.137319   0.000000
    8       19.649256   0.000000
    9       22.067730   0.000000
   10       25.225980   0.000000
   11       26.074340   0.000000
   12       31.655622   0.000000
   13       32.712863   0.000000
   14       32.739980   0.000000
   15       35.636901   0.000000
   16       37.930314   0.000000
   17       40.820910   0.000000
   18       44.446278   0.000000
   19       45.799060   0.000000
   20       49.204348   0.000000
   21       51.727269   0.000000
   22       52.011948   0.000000
   23       52.715677   0.000000
   24       53.436096   0.000000
   25       54.867756   0.000000
   26       57.023579   0.000000
   27       58.934629   0.000000
   28       59.077740   0.000000
   29       59.344334   0.000000
   30       63.283537   0.000000
   31       64.285076   0.000000
   32       65.803151   0.000000
 
  0.5000000E+00  0.1250000E+00  0.0000000E+00  0.4687500E-01
    1      -12.880631   1.000000
    2       -1.244713   1.000000
    3        1.893150   1.000000
    4        2.267685   1.000000
    5       11.416418   0.000000
    6       15.137786   0.000000
    7       17.626131   0.000000
    8       19.441890   0.000000
    9       23.430224   0.000000
   10       25.680221   0.000000
   11       25.772309   0.000000
   12       32.055939   0.000000
   13       32.651046   0.000000
   14       33.001490   0.000000
   15       35.577328   0.000000
   16       37.288706   0.000000
   17       43.972985   0.000000
   18       47.163850   0.000000
   19       47.914008   0.000000
   20       48.460949   0.000000
   21       50.922158   0.000000
   22       51.480237   0.000000
   23       51.792629   0.000000
   24       52.242504   0.000000
   25       53.679859   0.000000
   26       54.852838   0.000000
   27       55.651351   0.000000
   28       58.434611   0.000000
   29       59.601802   0.000000
   30       59.916007   0.000000
   31       62.794838   0.000000
   32       64.108499   0.000000
 
 -0.3750000E+00  0.1250000E+00  0.0000000E+00  0.4687500E-01
    1      -12.946399   1.000000
    2       -1.079078   1.000000
    3        1.829501   1.000000
    4        2.377239   1.000000
    5       11.397825   0.000000
    6       15.079036   0.000000
    7       17.719935   0.000000
    8       19.511784   0.000000
    9       24.056744   0.000000
   10       24.265390   0.000000
   11       25.752967   0.000000
   12       32.301325   0.000000
   13       32.572071   0.000000
   14       33.949804   0.000000
   15       34.389875   0.000000
   16       38.411163   0.000000
   17       42.038429   0.000000
   18       45.118162   0.000000
   19       48.259032   0.000000
   20       49.499618   0.000000
   21       51.511559   0.000000
   22       51.511666   0.000000
   23       52.138225   0.000000
   24       53.417725   0.000000
   25       53.780313   0.000000
   26       55.600465   0.000000
   27       56.334271   0.000000
   28       58.860120   0.000000
   29       59.164168   0.000000
   30       59.524201   0.000000
   31       62.515344   0.000000
   32       64.507035   0.000000
 
 -0.2500000E+00  0.1250000E+00  0.0000000E+00  0.4687500E-01
    1      -13.320764   1.000000
    2       -0.112414   1.000000
    3        2.044038   1.000000
    4        2.607053   1.000000
    5       10.827240   0.000000
    6       14.930235   0.000000
    7       18.336547   0.000000
    8       20.004927   0.000000
    9       21.826063   0.000000
   10       24.055152   0.000000
   11       26.167184   0.000000
   12       30.827991   0.000000
   13       32.100936   0.000000
   14       32.976725   0.000000
   15       35.350255   0.000000
   16       38.645585   0.000000
   17       41.266076   0.000000
   18       43.392098   0.000000
   19       46.006772   0.000000
   20       48.226522   0.000000
   21       51.739039   0.000000
   22       51.810955   0.000000
   23       52.820317   0.000000
   24       54.286171   0.000000
   25       56.277313   0.000000
   26       57.271941   0.000000
   27       59.523748   0.000000
   28       60.002707   0.000000
   29       61.404635   0.000000
   30       62.963837   0.000000
   31       64.693869   0.000000
   32       66.017260   0.000000
 
 -0.1250000E+00  0.1250000E+00  0.0000000E+00  0.2343750E-01
    1      -13.741267   1.000000
    2        1.158676   1.000000
    3        2.494901   1.000000
    4        2.830503   1.000000
    5        9.487136   0.000000
    6       15.783554   0.000000
    7       18.963701   0.000000
    8       19.693089   0.000000
    9       21.596067   0.000000
   10       23.575377   0.000000
   11       26.150949   0.000000
   12       28.344999   0.000000
   13       29.581731   0.000000
   14       30.510195   0.000000
   15       36.950960   0.000000
   16       39.788095   0.000000
   17       41.298563   0.000000
   18       43.952726   0.000000
   19       47.316435   0.000000
   20       48.028974   0.000000
   21       51.957657   0.000000
   22       51.992792   0.000000
   23       52.505947   0.000000
   24       54.287383   0.000000
   25       54.813716   0.000000
   26       56.081360   0.000000
   27       62.093907   0.000000
   28       63.416924   0.000000
   29       65.575193   0.000000
   30       65.917034   0.000000
   31       66.257186   0.000000
   32       67.950267   0.000000
 
  0.2500000E+00  0.2500000E+00  0.0000000E+00  0.1171875E-01
    1      -13.417821   1.000000
    2        0.419663   1.000000
    3        2.287163   1.000000
    4        2.287165   1.000000
    5       10.822629   0.000000
    6       14.104431   0.000000
    7       18.215491   0.000000
    8       20.204667   0.000000
    9       20.204682   0.000000
   10       26.107043   0.000000
   11       29.841062   0.000000
   12       29.841066   0.000000
   13       30.255717   0.000000
   14       31.220966   0.000000
   15       38.014734   0.000000
   16       38.344808   0.000000
   17       38.344855   0.000000
   18       44.438920   0.000000
   19       48.246445   0.000000
   20       48.331736   0.000000
   21       48.331815   0.000000
   22       52.383401   0.000000
   23       52.412816   0.000000
   24       52.412886   0.000000
   25       53.917373   0.000000
   26       58.066869   0.000000
   27       60.608688   0.000000
   28       60.608706   0.000000
   29       62.437553   0.000000
   30       64.209105   0.000000
   31       65.661458   0.000000
   32       66.683322   0.000000
 
  0.3750000E+00  0.2500000E+00  0.0000000E+00  0.4687500E-01
    1      -13.083202   1.000000
    2       -0.298370   1.000000
    3        1.843738   1.000000
    4        2.076630   1.000000
    5       11.929087   0.000000
    6       13.577057   0.000000
    7       16.880301   0.000000
    8       20.509350   0.000000
    9       20.966237   0.000000
   10       26.812688   0.000000
   11       29.911302   0.000000
   12       30.179159   0.000000
   13       32.093694   0.000000
   14       34.586879   0.000000
   15       36.245141   0.000000
   16       37.657026   0.000000
   17       40.768372   0.000000
   18       43.229647   0.000000
   19       45.451625   0.000000
   20       48.381843   0.000000
   21       50.411319   0.000000
   22       51.776873   0.000000
   23       52.472552   0.000000
   24       53.122907   0.000000
   25       54.495628   0.000000
   26       56.507244   0.000000
   27       56.565797   0.000000
   28       57.465699   0.000000
   29       60.854811   0.000000
   30       62.220160   0.000000
   31       64.450438   0.000000
   32       65.784126   0.000000
 
  0.5000000E+00  0.2500000E+00  0.0000000E+00  0.4687500E-01
    1      -12.797170   1.000000
    2       -0.722303   1.000000
    3        1.141649   1.000000
    4        2.016442   1.000000
    5       12.528930   0.000000
    6       14.363378   0.000000
    7       16.045138   0.000000
    8       20.342504   0.000000
    9       21.476872   0.000000
   10       27.168926   0.000000
   11       29.330780   0.000000
   12       30.576921   0.000000
   13       32.023001   0.000000
   14       34.630311   0.000000
   15       36.601177   0.000000
   16       40.775957   0.000000
   17       43.260653   0.000000
   18       44.539817   0.000000
   19       45.332622   0.000000
   20       48.153404   0.000000
   21       48.856874   0.000000
   22       51.447684   0.000000
   23       51.719009   0.000000
   24       52.536960   0.000000
   25       53.067634   0.000000
   26       53.791775   0.000000
   27       56.318861   0.000000
   28       57.246391   0.000000
   29       59.424195   0.000000
   30       60.371712   0.000000
   31       61.218903   0.000000
   32       64.335357   0.000000
 
 -0.3750000E+00  0.2500000E+00  0.0000000E+00  0.4687500E-01
    1      -12.752057   1.000000
    2       -0.658169   1.000000
    3        0.689724   1.000000
    4        2.135706   1.000000
    5       12.768936   0.000000
    6       14.941606   0.000000
    7       15.843500   0.000000
    8       20.158269   0.000000
    9       22.241391   0.000000
   10       25.268315   0.000000
   11       28.839478   0.000000
   12       31.384084   0.000000
   13       31.807673   0.000000
   14       35.144721   0.000000
   15       37.027273   0.000000
   16       39.905068   0.000000
   17       42.827836   0.000000
   18       45.910009   0.000000
   19       47.692936   0.000000
   20       49.306855   0.000000
   21       49.389263   0.000000
   22       50.661757   0.000000
   23       51.250323   0.000000
   24       51.517252   0.000000
   25       52.822804   0.000000
   26       53.490569   0.000000
   27       56.446366   0.000000
   28       57.318388   0.000000
   29       57.744069   0.000000
   30       59.927205   0.000000
   31       61.214289   0.000000
   32       63.377118   0.000000
 
 -0.2500000E+00  0.2500000E+00  0.0000000E+00  0.2343750E-01
    1      -12.979536   1.000000
    2       -0.417997   1.000000
    3        1.062106   1.000000
    4        2.377061   1.000000
    5       12.255860   0.000000
    6       14.638440   0.000000
    7       16.736780   0.000000
    8       20.220100   0.000000
    9       22.772464   0.000000
   10       23.671262   0.000000
   11       28.295953   0.000000
   12       31.199035   0.000000
   13       32.293950   0.000000
   14       33.766043   0.000000
   15       36.547998   0.000000
   16       40.840289   0.000000
   17       41.128447   0.000000
   18       43.198725   0.000000
   19       44.695088   0.000000
   20       49.898119   0.000000
   21       50.583136   0.000000
   22       51.438644   0.000000
   23       53.782590   0.000000
   24       53.968921   0.000000
   25       55.616377   0.000000
   26       56.018449   0.000000
   27       56.738276   0.000000
   28       57.232342   0.000000
   29       58.846443   0.000000
   30       59.864034   0.000000
   31       62.489724   0.000000
   32       63.259129   0.000000
 
  0.3750000E+00  0.3750000E+00  0.0000000E+00  0.1171875E-01
    1      -12.887715   1.000000
    2       -0.632204   1.000000
    3        1.854781   1.000000
    4        1.854782   1.000000
    5       12.421811   0.000000
    6       12.599554   0.000000
    7       16.140078   0.000000
    8       21.192036   0.000000
    9       21.192062   0.000000
   10       28.139376   0.000000
   11       28.857638   0.000000
   12       32.722271   0.000000
   13       32.722273   0.000000
   14       37.500678   0.000000
   15       37.500689   0.000000
   16       37.898003   0.000000
   17       39.306741   0.000000
   18       39.822904   0.000000
   19       46.529038   0.000000
   20       46.529100   0.000000
   21       51.386735   0.000000
   22       52.407898   0.000000
   23       52.407979   0.000000
   24       53.665701   0.000000
   25       53.701776   0.000000
   26       53.701842   0.000000
   27       54.028140   0.000000
   28       55.883039   0.000000
   29       56.697955   0.000000
   30       64.134387   0.000000
   31       64.746776   0.000000
   32       66.272451   0.000000
 
  0.5000000E+00  0.3750000E+00  0.0000000E+00  0.4687500E-01
    1      -12.704482   1.000000
    2       -0.780186   1.000000
    3        1.325625   1.000000
    4        1.782244   1.000000
    5       12.523376   0.000000
    6       13.198904   0.000000
    7       15.724950   0.000000
    8       21.217949   0.000000
    9       21.229375   0.000000
   10       28.692021   0.000000
   11       29.131651   0.000000
   12       31.712451   0.000000
   13       32.423521   0.000000
   14       37.577407   0.000000
   15       37.954397   0.000000
   16       40.886004   0.000000
   17       42.115667   0.000000
   18       42.965107   0.000000
   19       43.334746   0.000000
   20       45.265196   0.000000
   21       48.805252   0.000000
   22       51.635252   0.000000
   23       51.721516   0.000000
   24       51.927446   0.000000
   25       52.334005   0.000000
   26       52.572431   0.000000
   27       54.728145   0.000000
   28       57.365510   0.000000
   29       58.436793   0.000000
   30       61.464722   0.000000
   31       63.761138   0.000000
   32       65.262834   0.000000
 
 -0.3750000E+00  0.3750000E+00  0.0000000E+00  0.2343750E-01
    1      -12.648647   1.000000
    2       -0.400664   1.000000
    3        0.362452   1.000000
    4        1.893505   1.000000
    5       12.970338   0.000000
    6       14.495230   0.000000
    7       15.309587   0.000000
    8       20.785340   0.000000
    9       20.950872   0.000000
   10       27.839998   0.000000
   11       29.799178   0.000000
   12       30.782134   0.000000
   13       31.118616   0.000000
   14       37.989312   0.000000
   15       38.830040   0.000000
   16       40.120470   0.000000
   17       43.558303   0.000000
   18       45.012242   0.000000
   19       45.088720   0.000000
   20       45.244367   0.000000
   21       50.570131   0.000000
   22       50.636739   0.000000
   23       50.764527   0.000000
   24       51.544310   0.000000
   25       51.963328   0.000000
   26       52.730677   0.000000
   27       54.250226   0.000000
   28       56.412457   0.000000
   29       59.098115   0.000000
   30       60.469833   0.000000
   31       60.766814   0.000000
   32       64.074559   0.000000
 
  0.5000000E+00  0.5000000E+00  0.0000000E+00  0.5859375E-02
    1      -12.663031   1.000000
    2       -0.979377   1.000000
    3        1.689693   1.000000
    4        1.689694   1.000000
    5       12.093278   0.000000
    6       12.706288   0.000000
    7       15.841497   0.000000
    8       21.601541   0.000000
    9       21.601571   0.000000
   10       27.835379   0.000000
   11       29.523308   0.000000
   12       33.377247   0.000000
   13       33.377248   0.000000
   14       36.888749   0.000000
   15       39.667999   0.000000
   16       39.667999   0.000000
   17       41.184961   0.000000
   18       43.554231   0.000000
   19       43.554247   0.000000
   20       45.204982   0.000000
   21       46.070282   0.000000
   22       51.410639   0.000000
   23       51.410773   0.000000
   24       52.164696   0.000000
   25       52.445261   0.000000
   26       52.593466   0.000000
   27       52.593534   0.000000
   28       56.298388   0.000000
   29       60.041685   0.000000
   30       64.404522   0.000000
   31       65.090775   0.000000
   32       65.161738   0.000000
 
  0.3750000E+00  0.2500000E+00  0.1250000E+00  0.4687500E-01
    1      -13.283936   1.000000
    2        0.045647   1.000000
    3        1.885474   1.000000
    4        2.410751   1.000000
    5       11.250402   0.000000
    6       14.387571   0.000000
    7       17.807506   0.000000
    8       20.260629   0.000000
    9       20.884571   0.000000
   10       25.151775   0.000000
   11       28.408106   0.000000
   12       30.092646   0.000000
   13       31.360090   0.000000
   14       33.832552   0.000000
   15       35.218343   0.000000
   16       38.843170   0.000000
   17       40.565142   0.000000
   18       44.174801   0.000000
   19       46.096651   0.000000
   20       48.233625   0.000000
   21       50.083538   0.000000
   22       51.848289   0.000000
   23       51.928358   0.000000
   24       53.665289   0.000000
   25       55.851413   0.000000
   26       57.641427   0.000000
   27       59.250428   0.000000
   28       59.388479   0.000000
   29       61.260268   0.000000
   30       65.124465   0.000000
   31       65.131619   0.000000
   32       66.287147   0.000000
 
  0.5000000E+00  0.2500000E+00  0.1250000E+00  0.9375000E-01
    1      -12.926259   1.000000
    2       -0.619583   1.000000
    3        1.326085   1.000000
    4        2.166071   1.000000
    5       12.288706   0.000000
    6       14.484145   0.000000
    7       16.652240   0.000000
    8       19.846904   0.000000
    9       22.417449   0.000000
   10       25.089647   0.000000
   11       28.620212   0.000000
   12       31.411500   0.000000
   13       31.996255   0.000000
   14       34.660159   0.000000
   15       35.302046   0.000000
   16       40.801633   0.000000
   17       42.041756   0.000000
   18       42.437922   0.000000
   19       46.549617   0.000000
   20       49.842501   0.000000
   21       50.265702   0.000000
   22       51.219820   0.000000
   23       51.907766   0.000000
   24       52.946353   0.000000
   25       54.187019   0.000000
   26       55.287996   0.000000
   27       56.753804   0.000000
   28       59.075953   0.000000
   29       59.232716   0.000000
   30       59.772187   0.000000
   31       63.271881   0.000000
   32       63.560758   0.000000
 
 -0.3750000E+00  0.2500000E+00  0.1250000E+00  0.4687500E-01
    1      -12.767798   1.000000
    2       -0.900663   1.000000
    3        1.123941   1.000000
    4        2.049730   1.000000
    5       12.501385   0.000000
    6       14.962118   0.000000
    7       16.234635   0.000000
    8       19.600476   0.000000
    9       23.239116   0.000000
   10       24.750367   0.000000
   11       28.768851   0.000000
   12       31.336444   0.000000
   13       32.132520   0.000000
   14       34.073907   0.000000
   15       37.597054   0.000000
   16       38.164953   0.000000
   17       45.164579   0.000000
   18       45.743467   0.000000
   19       47.467219   0.000000
   20       48.514433   0.000000
   21       49.562026   0.000000
   22       50.702683   0.000000
   23       51.758614   0.000000
   24       52.029704   0.000000
   25       52.289588   0.000000
   26       53.728141   0.000000
   27       55.729353   0.000000
   28       57.569583   0.000000
   29       58.691947   0.000000
   30       59.759977   0.000000
   31       62.482793   0.000000
   32       63.021088   0.000000
 
  0.5000000E+00  0.3750000E+00  0.1250000E+00  0.4687500E-01
    1      -12.826286   1.000000
    2       -0.562679   1.000000
    3        1.356482   1.000000
    4        1.794260   1.000000
    5       13.016583   0.000000
    6       13.315327   0.000000
    7       15.926490   0.000000
    8       20.148849   0.000000
    9       21.879708   0.000000
   10       27.091182   0.000000
   11       29.898425   0.000000
   12       31.306521   0.000000
   13       32.169784   0.000000
   14       36.124779   0.000000
   15       36.208841   0.000000
   16       40.293017   0.000000
   17       41.123659   0.000000
   18       44.571977   0.000000
   19       45.001753   0.000000
   20       45.893958   0.000000
   21       50.067977   0.000000
   22       51.186250   0.000000
   23       51.721063   0.000000
   24       52.405288   0.000000
   25       52.508256   0.000000
   26       56.172348   0.000000
   27       56.886569   0.000000
   28       57.551239   0.000000
   29       57.919419   0.000000
   30       61.880735   0.000000
   31       62.172664   0.000000
   32       63.887965   0.000000
 
 -0.3750000E+00  0.3750000E+00  0.1250000E+00  0.9375000E-01
    1      -12.667796   1.000000
    2       -0.415893   1.000000
    3        0.583761   1.000000
    4        1.665321   1.000000
    5       13.446888   0.000000
    6       14.481802   0.000000
    7       15.273542   0.000000
    8       19.282708   0.000000
    9       22.728199   0.000000
   10       26.181164   0.000000
   11       29.741441   0.000000
   12       31.166229   0.000000
   13       32.430946   0.000000
   14       36.110262   0.000000
   15       38.675344   0.000000
   16       40.893936   0.000000
   17       42.598661   0.000000
   18       43.986685   0.000000
   19       45.461091   0.000000
   20       48.138884   0.000000
   21       48.779629   0.000000
   22       50.231236   0.000000
   23       51.528375   0.000000
   24       52.005380   0.000000
   25       52.175247   0.000000
   26       54.133078   0.000000
   27       55.448386   0.000000
   28       57.579259   0.000000
   29       59.066183   0.000000
   30       59.139207   0.000000
   31       60.449617   0.000000
   32       62.336987   0.000000
 
 -0.2500000E+00  0.3750000E+00  0.1250000E+00  0.4687500E-01
    1      -12.711557   1.000000
    2       -0.298706   1.000000
    3        0.379379   1.000000
    4        1.855705   1.000000
    5       13.552313   0.000000
    6       14.562056   0.000000
    7       15.433064   0.000000
    8       19.342074   0.000000
    9       23.610858   0.000000
   10       24.239968   0.000000
   11       30.419107   0.000000
   12       31.116161   0.000000
   13       31.635045   0.000000
   14       36.529556   0.000000
   15       36.771593   0.000000
   16       41.464726   0.000000
   17       42.093387   0.000000
   18       45.035793   0.000000
   19       45.179091   0.000000