   15   15   20    2
  0.1021299E+02  0.6006014E-09  0.6006014E-09  0.6006014E-09  0.5000000E-15
  1.000000000000000E-004
  CAR 
 unknown system                          
     52      6     44
 
  0.2500000E+00  0.2500000E+00  0.2500000E+00  0.1250000E+00
    1      -14.953777    -14.953773   1.000000   1.000000
    2      -13.348132    -13.348074   1.000000   1.000000
    3      -12.806535    -12.806462   1.000000   1.000000
    4      -12.707390    -12.707318   1.000000   1.000000
    5      -12.669790    -12.669717   1.000000   1.000000
    6      -12.491880    -12.491802   1.000000   1.000000
    7       -1.759878     -1.759895   1.000000   1.000000
    8       -1.596103     -1.596116   1.000000   1.000000
    9       -1.371954     -1.371981   1.000000   1.000000
   10       -0.646150     -0.646158   1.000000   1.000000
   11       -0.321656     -0.321689   1.000000   1.000000
   12       -0.238574     -0.238486   1.000000   1.000000
   13        0.078179      0.078310   1.000000   1.000000
   14        0.617167      0.617188   1.000000   1.000000
   15        1.101621      1.101652   1.000000   1.000000
   16        1.204988      1.205019   1.000000   1.000000
   17        1.598604      1.598660   1.000000   1.000000
   18        1.673380      1.673441   1.000000   1.000000
   19        1.686960      1.687005   1.000000   1.000000
   20        2.051516      2.051570   1.000000   1.000000
   21        2.280929      2.280996   1.000000   1.000000
   22        2.565408      2.565465   1.000000   1.000000
   23        2.611253      2.611321   1.000000   1.000000
   24        2.636488      2.636556   1.000000   1.000000
   25        3.015988      3.016199   1.000000   1.000000
   26        5.278999      5.279026   1.000000   1.000000
   27        7.912496      7.912945   0.000000   0.000000
   28        8.995621      8.995713   0.000000   0.000000
   29        9.077266      9.077201   0.000000   0.000000
   30        9.843277      9.843347   0.000000   0.000000
   31       10.406908     10.406884   0.000000   0.000000
   32       10.600945     10.601056   0.000000   0.000000
   33       11.431131     11.431075   0.000000   0.000000
   34       11.525181     11.525067   0.000000   0.000000
   35       11.698648     11.698802   0.000000   0.000000
   36       11.843034     11.842964   0.000000   0.000000
   37       11.931861     11.931768   0.000000   0.000000
   38       13.005614     13.005704   0.000000   0.000000
   39       13.166008     13.166029   0.000000   0.000000
   40       13.335307     13.335365   0.000000   0.000000
   41       15.015598     15.015627   0.000000   0.000000
   42       15.071664     15.071661   0.000000   0.000000
   43       15.521548     15.521623   0.000000   0.000000
   44       16.724220     16.724146   0.000000   0.000000
 
  0.2500000E+00  0.0000000E+00  0.0000000E+00  0.1250000E+00
    1      -14.962158    -14.962154   1.000000   1.000000
    2      -13.325708    -13.325650   1.000000   1.000000
    3      -12.818724    -12.818653   1.000000   1.000000
    4      -12.705555    -12.705484   1.000000   1.000000
    5      -12.667224    -12.667147   1.000000   1.000000
    6      -12.491414    -12.491335   1.000000   1.000000
    7       -1.801187     -1.801204   1.000000   1.000000
    8       -1.745601     -1.745621   1.000000   1.000000
    9       -1.474774     -1.474786   1.000000   1.000000
   10       -0.838464     -0.838485   1.000000   1.000000
   11       -0.519238     -0.519243   1.000000   1.000000
   12       -0.020277     -0.020214   1.000000   1.000000
   13        0.583725      0.583871   1.000000   1.000000
   14        0.839894      0.839917   1.000000   1.000000
   15        1.067181      1.067211   1.000000   1.000000
   16        1.174058      1.174107   1.000000   1.000000
   17        1.564901      1.564957   1.000000   1.000000
   18        1.602306      1.602392   1.000000   1.000000
   19        1.861924      1.861970   1.000000   1.000000
   20        1.909340      1.909397   1.000000   1.000000
   21        2.229967      2.230047   1.000000   1.000000
   22        2.587529      2.587584   1.000000   1.000000
   23        2.610032      2.610088   1.000000   1.000000
   24        2.691597      2.691656   1.000000   1.000000
   25        3.166362      3.166537   1.000000   1.000000
   26        5.675360      5.675236   1.000000   1.000000
   27        7.327223      7.327942   0.000000   0.000000
   28        7.871998      7.871966   0.000000   0.000000
   29        9.073852      9.073790   0.000000   0.000000
   30        9.633729      9.633644   0.000000   0.000000
   31       10.361011     10.360959   0.000000   0.000000
   32       11.099097     11.099034   0.000000   0.000000
   33       11.207513     11.207593   0.000000   0.000000
   34       11.556935     11.556893   0.000000   0.000000
   35       11.895762     11.895954   0.000000   0.000000
   36       12.326551     12.326446   0.000000   0.000000
   37       12.568049     12.568038   0.000000   0.000000
   38       12.649203     12.649487   0.000000   0.000000
   39       12.934891     12.934837   0.000000   0.000000
   40       13.738027     13.737968   0.000000   0.000000
   41       15.059599     15.059640   0.000000   0.000000
   42       15.101328     15.101337   0.000000   0.000000
   43       16.401648     16.401841   0.000000   0.000000
   44       16.613887     16.621772   0.000000   0.000000
 
 -0.2500000E+00  0.2500000E+00  0.2500000E+00  0.2500000E+00
    1      -14.931785    -14.931782   1.000000   1.000000
    2      -13.200104    -13.200046   1.000000   1.000000
    3      -12.922429    -12.922359   1.000000   1.000000
    4      -12.745175    -12.745103   1.000000   1.000000
    5      -12.635725    -12.635648   1.000000   1.000000
    6      -12.592950    -12.592874   1.000000   1.000000
    7       -1.571823     -1.571832   1.000000   1.000000
    8       -1.393028     -1.393044   1.000000   1.000000
    9       -1.228555     -1.228559   1.000000   1.000000
   10       -0.797922     -0.797934   1.000000   1.000000
   11       -0.093458     -0.093451   1.000000   1.000000
   12        0.319185      0.319200   1.000000   1.000000
   13        0.508501      0.508547   1.000000   1.000000
   14        0.755424      0.755499   1.000000   1.000000
   15        0.930701      0.930785   1.000000   1.000000
   16        1.026120      1.026202   1.000000   1.000000
   17        1.236646      1.236677   1.000000   1.000000
   18        1.328051      1.328106   1.000000   1.000000
   19        1.377332      1.377405   1.000000   1.000000
   20        1.614183      1.614227   1.000000   1.000000
   21        1.807721      1.807759   1.000000   1.000000
   22        2.080411      2.080451   1.000000   1.000000
   23        2.372208      2.372259   1.000000   1.000000
   24        2.536539      2.536596   1.000000   1.000000
   25        4.334613      4.334874   1.000000   1.000000
   26        5.650633      5.650889   1.000000   1.000000
   27        7.112776      7.112676   0.000000   0.000000
   28        8.014480      8.014697   0.000000   0.000000
   29        8.485611      8.485617   0.000000   0.000000
   30        9.120188      9.120133   0.000000   0.000000
   31       10.312929     10.312961   0.000000   0.000000
   32       11.406978     11.406972   0.000000   0.000000
   33       12.088668     12.088839   0.000000   0.000000
   34       12.456421     12.456408   0.000000   0.000000
   35       12.848729     12.848879   0.000000   0.000000
   36       12.884270     12.884270   0.000000   0.000000
   37       13.268371     13.268411   0.000000   0.000000
   38       13.445810     13.445813   0.000000   0.000000
   39       13.834973     13.835008   0.000000   0.000000
   40       14.125270     14.125303   0.000000   0.000000
   41       14.597912     14.597912   0.000000   0.000000
   42       14.617172     14.617190   0.000000   0.000000
   43       15.024971     15.024964   0.000000   0.000000
   44       15.464463     15.464435   0.000000   0.000000
 
  0.2500000E+00  0.2500000E+00 -0.2500000E+00  0.1250000E+00
    1      -14.918549    -14.918546   1.000000   1.000000
    2      -13.222595    -13.222534   1.000000   1.000000
    3      -12.992624    -12.992558   1.000000   1.000000
    4      -12.722016    -12.721943   1.000000   1.000000
    5      -12.713044    -12.712971   1.000000   1.000000
    6      -12.456779    -12.456701   1.000000   1.000000
    7       -1.369348     -1.369366   1.000000   1.000000
    8       -1.108489     -1.108444   1.000000   1.000000
    9       -1.035427     -1.035454   1.000000   1.000000
   10       -0.898992     -0.898936   1.000000   1.000000
   11       -0.310088     -0.310083   1.000000   1.000000
   12       -0.120695     -0.120684   1.000000   1.000000
   13        0.170805      0.170783   1.000000   1.000000
   14        0.378593      0.378661   1.000000   1.000000
   15        0.730630      0.730649   1.000000   1.000000
   16        0.838790      0.838834   1.000000   1.000000
   17        1.294026      1.294055   1.000000   1.000000
   18        1.383926      1.383976   1.000000   1.000000
   19        1.638157      1.638197   1.000000   1.000000
   20        1.686505      1.686557   1.000000   1.000000
   21        2.297824      2.297872   1.000000   1.000000
   22        2.323752      2.323810   1.000000   1.000000
   23        2.544334      2.544404   1.000000   1.000000
   24        2.626008      2.626081   1.000000   1.000000
   25        4.371183      4.371404   1.000000   1.000000
   26        5.087797      5.088136   1.000000   1.000000
   27        7.364103      7.364095   0.000000   0.000000
   28        8.048126      8.048377   0.000000   0.000000
   29        8.326208      8.326158   0.000000   0.000000
   30       10.135702     10.135600   0.000000   0.000000
   31       10.165358     10.165339   0.000000   0.000000
   32       11.188310     11.188382   0.000000   0.000000
   33       11.956749     11.956743   0.000000   0.000000
   34       12.100619     12.100835   0.000000   0.000000
   35       12.653906     12.653849   0.000000   0.000000
   36       12.826514     12.826486   0.000000   0.000000
   37       13.236195     13.236113   0.000000   0.000000
   38       13.560097     13.560110   0.000000   0.000000
   39       13.841207     13.841283   0.000000   0.000000
   40       14.018428     14.018586   0.000000   0.000000
   41       14.375388     14.375457   0.000000   0.000000
   42       14.520339     14.520376   0.000000   0.000000
   43       15.142216     15.142175   0.000000   0.000000
   44       15.644580     15.644594   0.000000   0.000000
 
  0.2500000E+00  0.0000000E+00  0.5000000E+00  0.2500000E+00
    1      -14.923121    -14.923118   1.000000   1.000000
    2      -13.236353    -13.236295   1.000000   1.000000
    3      -12.898502    -12.898430   1.000000   1.000000
    4      -12.746374    -12.746302   1.000000   1.000000
    5      -12.634926    -12.634851   1.000000   1.000000
    6      -12.595491    -12.595416   1.000000   1.000000
    7       -1.412480     -1.412496   1.000000   1.000000
    8       -1.284716     -1.284731   1.000000   1.000000
    9       -0.996820     -0.996829   1.000000   1.000000
   10       -0.666616     -0.666579   1.000000   1.000000
   11       -0.283892     -0.283882   1.000000   1.000000
   12        0.168960      0.169005   1.000000   1.000000
   13        0.242270      0.242331   1.000000   1.000000
   14        0.468059      0.468100   1.000000   1.000000
   15        0.760168      0.760183   1.000000   1.000000
   16        1.044930      1.044961   1.000000   1.000000
   17        1.209239      1.209268   1.000000   1.000000
   18        1.452636      1.452683   1.000000   1.000000
   19        1.546668      1.546717   1.000000   1.000000
   20        1.580797      1.580840   1.000000   1.000000
   21        1.932600      1.932685   1.000000   1.000000
   22        2.114790      2.114854   1.000000   1.000000
   23        2.346488      2.346543   1.000000   1.000000
   24        2.474889      2.474944   1.000000   1.000000
   25        4.067789      4.068046   1.000000   1.000000
   26        5.194631      5.194876   1.000000   1.000000
   27        8.006467      8.006402   0.000000   0.000000
   28        8.142993      8.142943   0.000000   0.000000
   29        9.242489      9.242592   0.000000   0.000000
   30        9.967215      9.967380   0.000000   0.000000
   31       10.113221     10.113299   0.000000   0.000000
   32       10.784872     10.785214   0.000000   0.000000
   33       11.571881     11.571864   0.000000   0.000000
   34       12.068249     12.068230   0.000000   0.000000
   35       12.528722     12.528646   0.000000   0.000000
   36       12.601338     12.601196   0.000000   0.000000
   37       12.994608     12.994574   0.000000   0.000000
   38       13.529575     13.529528   0.000000   0.000000
   39       13.799826     13.799947   0.000000   0.000000
   40       14.151590     14.151694   0.000000   0.000000
   41       14.412795     14.412790   0.000000   0.000000
   42       14.945496     14.945507   0.000000   0.000000
   43       15.392541     15.392584   0.000000   0.000000
   44       15.615598     15.615590   0.000000   0.000000
 
  0.2500000E+00  0.5000000E+00  0.0000000E+00  0.1250000E+00
    1      -14.927142    -14.927139   1.000000   1.000000
    2      -13.197322    -13.197260   1.000000   1.000000
    3      -12.987160    -12.987096   1.000000   1.000000
    4      -12.740663    -12.740592   1.000000   1.000000
    5      -12.710519    -12.710443   1.000000   1.000000
    6      -12.456293    -12.456214   1.000000   1.000000
    7       -1.472810     -1.472829   1.000000   1.000000
    8       -1.437551     -1.437540   1.000000   1.000000
    9       -1.234019     -1.233999   1.000000   1.000000
   10       -0.752330     -0.752346   1.000000   1.000000
   11       -0.298360     -0.298318   1.000000   1.000000
   12       -0.079355     -0.079358   1.000000   1.000000
   13        0.480508      0.480523   1.000000   1.000000
   14        0.660084      0.660141   1.000000   1.000000
   15        0.794560      0.794568   1.000000   1.000000
   16        1.077378      1.077403   1.000000   1.000000
   17        1.163532      1.163625   1.000000   1.000000
   18        1.277525      1.277572   1.000000   1.000000
   19        1.613530      1.613591   1.000000   1.000000
   20        1.648637      1.648703   1.000000   1.000000
   21        2.233564      2.233641   1.000000   1.000000
   22        2.302039      2.302090   1.000000   1.000000
   23        2.527717      2.527771   1.000000   1.000000
   24        2.635960      2.636017   1.000000   1.000000
   25        4.534673      4.534910   1.000000   1.000000
   26        6.410330      6.411049   0.927797   0.924958
   27        6.513224      6.513126   0.073429   0.073816
   28        6.992210      6.992165   0.000000   0.000000
   29        7.951781      7.951713   0.000000   0.000000
   30        9.320791      9.320650   0.000000   0.000000
   31       10.309386     10.309304   0.000000   0.000000
   32       11.276230     11.276203   0.000000   0.000000
   33       12.487151     12.487211   0.000000   0.000000
   34       12.496346     12.496431   0.000000   0.000000
   35       12.869032     12.869232   0.000000   0.000000
   36       13.206472     13.206414   0.000000   0.000000
   37       13.694553     13.694473   0.000000   0.000000
   38       13.818228     13.818582   0.000000   0.000000
   39       13.930256     13.930202   0.000000   0.000000
   40       14.170306     14.170259   0.000000   0.000000
   41       14.223978     14.224029   0.000000   0.000000
   42       14.660058     14.660067   0.000000   0.000000
   43       14.862709     14.862699   0.000000   0.000000
   44       15.697923     15.697888   0.000000   0.000000
