   15   15   20    2
  0.1021299E+02  0.6006014E-09  0.6006014E-09  0.6006014E-09  0.5000000E-15
  1.000000000000000E-004
  CAR 
 unknown system                          
     52      5     44
 
  0.0000000E+00  0.0000000E+00  0.0000000E+00  0.1250000E+00
    1      -14.972717    -14.955276   1.000000   1.000000
    2      -13.412690    -13.397792   1.000000   1.000000
    3      -12.735791    -12.723339   1.000000   1.000000
    4      -12.701561    -12.691108   1.000000   1.000000
    5      -12.698789    -12.690293   1.000000   1.000000
    6      -12.449782    -12.441048   1.000000   1.000000
    7       -1.985390     -1.978044   1.000000   1.000000
    8       -1.916199     -1.902767   1.000000   1.000000
    9       -1.544430     -1.502884   1.000000   1.000000
   10       -0.961040     -0.930912   1.000000   1.000000
   11       -0.579720     -0.507063   1.000000   1.000000
   12       -0.108048     -0.067325   1.000000   1.000000
   13        0.299761      0.310768   1.000000   1.000000
   14        1.008508      1.019616   1.000000   1.000000
   15        1.259450      1.278660   1.000000   1.000000
   16        1.262254      1.283690   1.000000   1.000000
   17        1.683198      1.812627   1.000000   1.000000
   18        1.805051      1.901700   1.000000   1.000000
   19        1.907514      1.919415   1.000000   1.000000
   20        2.194289      2.205126   1.000000   1.000000
   21        2.576894      2.583636   1.000000   1.000000
   22        2.600889      2.613512   1.000000   1.000000
   23        2.657543      2.676424   1.000000   1.000000
   24        2.670725      2.683745   1.000000   1.000000
   25        2.714985      2.729214   1.000000   1.000000
   26        4.973683      5.355799   1.000000   1.000000
   27        7.866312      7.881096   0.000000   0.000000
   28        9.098688      9.111024   0.000000   0.000000
   29        9.393729      9.675239   0.000000   0.000000
   30        9.541994      9.784993   0.000000   0.000000
   31       10.407073     10.477536   0.000000   0.000000
   32       10.458504     10.568748   0.000000   0.000000
   33       11.204594     11.368973   0.000000   0.000000
   34       11.334352     11.621346   0.000000   0.000000
   35       11.529314     11.633940   0.000000   0.000000
   36       11.554699     11.727277   0.000000   0.000000
   37       11.639621     11.730867   0.000000   0.000000
   38       11.680280     11.732095   0.000000   0.000000
   39       12.004416     12.245868   0.000000   0.000000
   40       12.684139     12.724553   0.000000   0.000000
   41       15.286233     15.294968   0.000000   0.000000
   42       15.336808     15.358100   0.000000   0.000000
   43       16.742834     16.957323   0.000000   0.000000
   44       17.273074     17.453432   0.000000   0.000000
 
  0.5000000E+00  0.0000000E+00  0.0000000E+00  0.2500000E+00
    1      -14.932411    -14.914962   1.000000   1.000000
    2      -13.224224    -13.209575   1.000000   1.000000
    3      -12.998165    -12.986911   1.000000   1.000000
    4      -12.729980    -12.718094   1.000000   1.000000
    5      -12.585568    -12.576967   1.000000   1.000000
    6      -12.581596    -12.572973   1.000000   1.000000
    7       -1.722993     -1.681431   1.000000   1.000000
    8       -1.637024     -1.629860   1.000000   1.000000
    9       -1.255905     -1.181311   1.000000   1.000000
   10       -0.813052     -0.769000   1.000000   1.000000
   11       -0.137746     -0.094896   1.000000   1.000000
   12        0.144267      0.185068   1.000000   1.000000
   13        0.512199      0.554291   1.000000   1.000000
   14        0.871338      0.886362   1.000000   1.000000
   15        1.094109      1.104855   1.000000   1.000000
   16        1.150327      1.183503   1.000000   1.000000
   17        1.177678      1.188286   1.000000   1.000000
   18        1.266721      1.275984   1.000000   1.000000
   19        1.279094      1.298982   1.000000   1.000000
   20        1.445729      1.451522   1.000000   1.000000
   21        1.933831      1.945585   1.000000   1.000000
   22        2.544775      2.559876   1.000000   1.000000
   23        2.566649      2.579993   1.000000   1.000000
   24        2.668355      2.682207   1.000000   1.000000
   25        4.242211      4.358885   1.000000   1.000000
   26        6.272715      6.642154   0.999999   0.000000
   27        6.387881      6.662848   0.935259   0.000000
   28        6.943927      6.969234   0.000000   0.000000
   29        8.642632      8.887413   0.000000   0.000000
   30        8.753384      8.994285   0.000000   0.000000
   31       10.923841     11.032888   0.000000   0.000000
   32       11.029649     11.182572   0.000000   0.000000
   33       11.485341     11.580647   0.000000   0.000000
   34       11.977680     12.061042   0.000000   0.000000
   35       12.189122     12.190384   0.000000   0.000000
   36       13.444138     13.650175   0.000000   0.000000
   37       13.674898     13.761265   0.000000   0.000000
   38       13.686166     13.893662   0.000000   0.000000
   39       13.971424     14.031171   0.000000   0.000000
   40       14.464367     14.536153   0.000000   0.000000
   41       14.469885     14.567908   0.000000   0.000000
   42       14.573864     14.614777   0.000000   0.000000
   43       14.978363     15.094158   0.000000   0.000000
   44       15.774664     15.832069   0.000000   0.000000
 
  0.5000000E+00  0.5000000E+00  0.0000000E+00  0.1250000E+00
    1      -14.901720    -14.884134   1.000000   1.000000
    2      -13.194595    -13.183705   1.000000   1.000000
    3      -13.043691    -13.027861   1.000000   1.000000
    4      -12.765242    -12.754247   1.000000   1.000000
    5      -12.762543    -12.753976   1.000000   1.000000
    6      -12.404171    -12.395506   1.000000   1.000000
    7       -1.339289     -1.321233   1.000000   1.000000
    8       -1.328357     -1.238822   1.000000   1.000000
    9       -0.878050     -0.839672   1.000000   1.000000
   10       -0.757581     -0.748660   1.000000   1.000000
   11       -0.579705     -0.523241   1.000000   1.000000
   12       -0.043353     -0.022213   1.000000   1.000000
   13        0.315697      0.346357   1.000000   1.000000
   14        0.342033      0.350302   1.000000   1.000000
   15        0.641768      0.715868   1.000000   1.000000
   16        1.056417      1.070791   1.000000   1.000000
   17        1.167072      1.188500   1.000000   1.000000
   18        1.192447      1.199835   1.000000   1.000000
   19        1.366416      1.376442   1.000000   1.000000
   20        1.412802      1.423170   1.000000   1.000000
   21        2.498303      2.513364   1.000000   1.000000
   22        2.521633      2.532715   1.000000   1.000000
   23        2.552120      2.560675   1.000000   1.000000
   24        2.667396      2.680943   1.000000   1.000000
   25        4.988305      5.106831   1.000000   1.000000
   26        5.902482      5.939435   1.000000   1.000000
   27        6.481872      6.721196   0.126665   0.000000
   28        6.539357      6.909834   0.002818   0.000000
   29        7.878683      8.137584   0.000000   0.000000
   30        9.538133      9.780154   0.000000   0.000000
   31        9.874163     10.143591   0.000000   0.000000
   32       11.439740     11.478314   0.000000   0.000000
   33       12.750438     12.784199   0.000000   0.000000
   34       12.858332     12.859030   0.000000   0.000000
   35       13.063676     13.216373   0.000000   0.000000
   36       13.385220     13.498157   0.000000   0.000000
   37       13.841305     13.852401   0.000000   0.000000
   38       13.848498     14.092337   0.000000   0.000000
   39       14.108913     14.260320   0.000000   0.000000
   40       14.166166     14.316482   0.000000   0.000000
   41       14.294012     14.328097   0.000000   0.000000
   42       14.295891     14.365597   0.000000   0.000000
   43       14.824776     14.884502   0.000000   0.000000
   44       15.110708     15.187230   0.000000   0.000000
 
  0.0000000E+00  0.0000000E+00  0.5000000E+00  0.2500000E+00
    1      -14.914100    -14.896578   1.000000   1.000000
    2      -13.303349    -13.289020   1.000000   1.000000
    3      -12.941974    -12.931874   1.000000   1.000000
    4      -12.735826    -12.724491   1.000000   1.000000
    5      -12.585502    -12.575776   1.000000   1.000000
    6      -12.584548    -12.574722   1.000000   1.000000
    7       -1.539291     -1.529761   1.000000   1.000000
    8       -1.144918     -1.108010   1.000000   1.000000
    9       -0.900733     -0.878633   1.000000   1.000000
   10       -0.629529     -0.619048   1.000000   1.000000
   11       -0.319917     -0.258634   1.000000   1.000000
   12       -0.141062     -0.091778   1.000000   1.000000
   13       -0.072841      0.002148   1.000000   1.000000
   14        0.363708      0.405015   1.000000   1.000000
   15        0.645185      0.685719   1.000000   1.000000
   16        0.966315      0.984639   1.000000   1.000000
   17        1.238192      1.257668   1.000000   1.000000
   18        1.373339      1.397716   1.000000   1.000000
   19        1.547721      1.563853   1.000000   1.000000
   20        1.643558      1.661307   1.000000   1.000000
   21        2.213998      2.223509   1.000000   1.000000
   22        2.446484      2.459300   1.000000   1.000000
   23        2.570491      2.581459   1.000000   1.000000
   24        2.594070      2.608740   1.000000   1.000000
   25        3.948311      4.078332   1.000000   1.000000
   26        4.622464      4.820581   1.000000   1.000000
   27        7.985942      8.250067   0.000000   0.000000
   28        8.747974      9.027240   0.000000   0.000000
   29        9.654233      9.771140   0.000000   0.000000
   30        9.658033      9.841086   0.000000   0.000000
   31       10.017327     10.230338   0.000000   0.000000
   32       10.536707     10.625728   0.000000   0.000000
   33       11.242279     11.294067   0.000000   0.000000
   34       11.620397     11.717663   0.000000   0.000000
   35       12.168972     12.424731   0.000000   0.000000
   36       12.306367     12.489696   0.000000   0.000000
   37       12.464134     12.551119   0.000000   0.000000
   38       13.431327     13.469456   0.000000   0.000000
   39       14.042191     14.196551   0.000000   0.000000
   40       14.178288     14.246891   0.000000   0.000000
   41       14.582701     14.657402   0.000000   0.000000
   42       14.707138     14.761656   0.000000   0.000000
   43       15.569308     15.646950   0.000000   0.000000
   44       15.940352     15.962803   0.000000   0.000000
 
  0.5000000E+00  0.0000000E+00  0.5000000E+00  0.2500000E+00
    1      -14.910617    -14.893122   1.000000   1.000000
    2      -13.239753    -13.225116   1.000000   1.000000
    3      -12.783441    -12.773014   1.000000   1.000000
    4      -12.765913    -12.756081   1.000000   1.000000
    5      -12.761779    -12.752167   1.000000   1.000000
    6      -12.628730    -12.617955   1.000000   1.000000
    7       -1.471398     -1.431587   1.000000   1.000000
    8       -1.236976     -1.226274   1.000000   1.000000
    9       -0.926698     -0.893153   1.000000   1.000000
   10       -0.914007     -0.823471   1.000000   1.000000
   11       -0.018492     -0.001004   1.000000   1.000000
   12        0.087677      0.114968   1.000000   1.000000
   13        0.717232      0.754160   1.000000   1.000000
   14        0.908765      0.949855   1.000000   1.000000
   15        1.002165      1.024537   1.000000   1.000000
   16        1.009769      1.032610   1.000000   1.000000
   17        1.044050      1.079584   1.000000   1.000000
   18        1.156625      1.177299   1.000000   1.000000
   19        1.226119      1.241660   1.000000   1.000000
   20        1.389227      1.404985   1.000000   1.000000
   21        1.649716      1.666553   1.000000   1.000000
   22        1.668690      1.682107   1.000000   1.000000
   23        2.370063      2.385406   1.000000   1.000000
   24        2.457736      2.469215   1.000000   1.000000
   25        4.542322      4.649104   1.000000   1.000000
   26        4.993146      5.188589   1.000000   1.000000
   27        7.402524      7.719692   0.000000   0.000000
   28        8.237520      8.475090   0.000000   0.000000
   29        8.762058      8.963323   0.000000   0.000000
   30        9.818072      9.998873   0.000000   0.000000
   31        9.996057     10.159879   0.000000   0.000000
   32       10.766093     10.925757   0.000000   0.000000
   33       12.261497     12.296294   0.000000   0.000000
   34       12.403362     12.469383   0.000000   0.000000
   35       12.779876     12.972882   0.000000   0.000000
   36       12.932732     12.986367   0.000000   0.000000
   37       13.040061     13.103914   0.000000   0.000000
   38       13.422949     13.596723   0.000000   0.000000
   39       14.035683     14.129188   0.000000   0.000000
   40       14.092464     14.259566   0.000000   0.000000
   41       14.189195     14.281541   0.000000   0.000000
   42       14.909678     14.965647   0.000000   0.000000
   43       15.033777     15.121026   0.000000   0.000000
   44       15.401182     15.484086   0.000000   0.000000
