Automatically generated mesh
       6
Reciprocal lattice
    0.25000000000000    0.25000000000000    0.25000000000000            48
    0.25000000000000    0.00000000000000    0.00000000000000            48
   -0.25000000000000    0.25000000000000    0.25000000000000            96
    0.25000000000000    0.25000000000000   -0.25000000000000            48
    0.25000000000000    0.00000000000000    0.50000000000000            96
    0.25000000000000    0.50000000000000    0.00000000000000            48
