 vasp.5.4.1 05Feb16 (build Mar 31 2016 13:39:20) complex                        
  
 executed on           IFC91_ompi date 2018.04.28  12:46:00
 running on   16 total cores
 distrk:  each k-point on   16 cores,    1 groups
 distr:  one band on NCORES_PER_BAND=   4 cores,    4 groups


--------------------------------------------------------------------------------------------------------


 INCAR:
 POTCAR:    PAW_PBE Mg 13Apr2007                  
 POTCAR:    PAW_PBE O 08Apr2002                   
 POTCAR:    PAW_PBE Mg 13Apr2007                  
   VRHFIN =Mg: s2p0                                                             
   LEXCH  = PE                                                                  
   EATOM  =    23.0369 eV,    1.6932 Ry                                         
                                                                                
   TITEL  = PAW_PBE Mg 13Apr2007                                                
   LULTRA =        F    use ultrasoft PP ?                                      
   IUNSCR =        1    unscreen: 0-lin 1-nonlin 2-no                           
   RPACOR =    1.500    partial core radius                                     
   POMASS =   24.305; ZVAL   =    2.000    mass and valenz                      
   RCORE  =    2.000    outmost cutoff radius                                   
   RWIGS  =    2.880; RWIGS  =    1.524    wigner-seitz radius (au A)           
   ENMAX  =  126.143; ENMIN  =   94.607 eV                                      
   RCLOC  =    1.506    cutoff for local pot                                    
   LCOR   =        T    correct aug charges                                     
   LPAW   =        T    paw PP                                                  
   EAUG   =  454.734                                                            
   DEXC   =    0.000                                                            
   RMAX   =    2.045    core radius for proj-oper                               
   RAUG   =    1.300    factor for augmentation sphere                          
   RDEP   =    2.025    radius for radial grids                                 
   RDEPT  =    1.942    core radius for aug-charge                              
                                                                                
   Atomic configuration                                                         
    6 entries                                                                   
     n  l   j            E        occ.                                          
     1  0  0.50     -1259.6230   2.0000                                         
     2  0  0.50       -79.8442   2.0000                                         
     2  1  1.50       -46.6121   6.0000                                         
     3  0  0.50        -4.7055   2.0000                                         
     3  1  0.50        -1.3660   0.0000                                         
     3  2  1.50        -1.3606   0.0000                                         
   Description                                                                  
     l       E           TYP  RCUT    TYP  RCUT                                 
     0     -4.7054661     23  2.000                                             
     0     27.2116520     23  2.000                                             
     1      1.3605826     23  2.000                                             
     1     27.2116520     23  2.000                                             
     2     -1.3605826     23  2.000                                             
  local pseudopotential read in
  partial core-charges read in
  partial kinetic energy density read in
  atomic valenz-charges read in
  non local Contribution for L=           0  read in
    real space projection operators read in
  non local Contribution for L=           0  read in
    real space projection operators read in
  non local Contribution for L=           1  read in
    real space projection operators read in
  non local Contribution for L=           1  read in
    real space projection operators read in
  non local Contribution for L=           2  read in
    real space projection operators read in
    PAW grid and wavefunctions read in
 
   number of l-projection  operators is LMAX  =           5
   number of lm-projection operators is LMMAX =          13
 
 POTCAR:    PAW_PBE O 08Apr2002                   
   VRHFIN =O: s2p4                                                              
   LEXCH  = PE                                                                  
   EATOM  =   432.3788 eV,   31.7789 Ry                                         
                                                                                
   TITEL  = PAW_PBE O 08Apr2002                                                 
   LULTRA =        F    use ultrasoft PP ?                                      
   IUNSCR =        1    unscreen: 0-lin 1-nonlin 2-no                           
   RPACOR =    1.200    partial core radius                                     
   POMASS =   16.000; ZVAL   =    6.000    mass and valenz                      
   RCORE  =    1.520    outmost cutoff radius                                   
   RWIGS  =    1.550; RWIGS  =    0.820    wigner-seitz radius (au A)           
   ENMAX  =  400.000; ENMIN  =  300.000 eV                                      
   ICORE  =        2    local potential                                         
   LCOR   =        T    correct aug charges                                     
   LPAW   =        T    paw PP                                                  
   EAUG   =  605.392                                                            
   DEXC   =    0.000                                                            
   RMAX   =    1.553    core radius for proj-oper                               
   RAUG   =    1.300    factor for augmentation sphere                          
   RDEP   =    1.550    radius for radial grids                                 
   RDEPT  =    1.329    core radius for aug-charge                              
                                                                                
   Atomic configuration                                                         
    4 entries                                                                   
     n  l   j            E        occ.                                          
     1  0  0.50      -514.6923   2.0000                                         
     2  0  0.50       -23.9615   2.0000                                         
     2  1  0.50        -9.0305   4.0000                                         
     3  2  1.50        -9.5241   0.0000                                         
   Description                                                                  
     l       E           TYP  RCUT    TYP  RCUT                                 
     0    -23.9615318     23  1.200                                             
     0     -9.5240782     23  1.200                                             
     1     -9.0304911     23  1.520                                             
     1      8.1634956     23  1.520                                             
     2     -9.5240782      7  1.500                                             
  local pseudopotential read in
  partial core-charges read in
  partial kinetic energy density read in
  kinetic energy density of atom read in
  atomic valenz-charges read in
  non local Contribution for L=           0  read in
    real space projection operators read in
  non local Contribution for L=           0  read in
    real space projection operators read in
  non local Contribution for L=           1  read in
    real space projection operators read in
  non local Contribution for L=           1  read in
    real space projection operators read in
    PAW grid and wavefunctions read in
 
   number of l-projection  operators is LMAX  =           4
   number of lm-projection operators is LMMAX =           8
 
 Optimization of the real space projectors (new method)

 maximal supplied QI-value         = 18.90
 optimisation between [QCUT,QGAM] = [ 10.20, 20.41] = [ 29.16,116.64] Ry 
 Optimized for a Real-space Cutoff    1.30 Angstroem

   l    n(q)    QCUT    max X(q) W(low)/X(q) W(high)/X(q)  e(spline) 
   0      8    10.205    28.265    0.22E-03    0.17E-03    0.53E-07
   0      8    10.205    10.429    0.17E-03    0.15E-03    0.43E-07
   1      7    10.205    13.073    0.71E-04    0.41E-03    0.76E-07
   1      7    10.205     9.625    0.71E-04    0.33E-03    0.63E-07
   2      7    10.205     4.652    0.24E-03    0.41E-03    0.55E-07
 Optimization of the real space projectors (new method)

 maximal supplied QI-value         = 24.76
 optimisation between [QCUT,QGAM] = [ 10.15, 20.30] = [ 28.85,115.39] Ry 
 Optimized for a Real-space Cutoff    1.38 Angstroem

   l    n(q)    QCUT    max X(q) W(low)/X(q) W(high)/X(q)  e(spline) 
   0      8    10.150    20.381    0.22E-03    0.32E-03    0.29E-06
   0      8    10.150    15.268    0.23E-03    0.35E-03    0.30E-06
   1      8    10.150     5.964    0.46E-03    0.53E-03    0.21E-06
   1      8    10.150     5.382    0.38E-03    0.45E-03    0.19E-06
  PAW_PBE Mg 13Apr2007                  :
 energy of atom  1       EATOM=  -23.0369
 kinetic energy error for atom=    0.0001 (will be added to EATOM!!)
  PAW_PBE O 08Apr2002                   :
 energy of atom  2       EATOM= -432.3788
 kinetic energy error for atom=    0.1156 (will be added to EATOM!!)
 
 
 POSCAR: Mg O                                    
  positions in direct lattice
  velocities in cartesian coordinates
 exchange correlation table for  LEXCH =        8
   RHO(1)=    0.500       N(1)  =     2000
   RHO(2)=  100.500       N(2)  =     4000
 


--------------------------------------------------------------------------------------------------------


 ion  position               nearest neighbor table
   1  0.997  0.997  0.003-  14 2.10  12 2.12  10 2.12  13 2.12  11 2.12   6 2.96   3 2.96   5 2.96
                             4 2.96   2 3.01   2 3.01   7 3.01   7 3.01   6 3.06   5 3.06   3 3.06
   2  0.978  0.978  0.522-  15 1.93  13 2.13  11 2.13  10 2.13  12 2.13   9 2.31   5 2.73   6 2.73
                             3 2.73   4 2.73   1 3.01   1 3.01   8 3.01   8 3.01   4 3.27   6 3.27
   3  0.972  0.528  0.983-  15 1.93  14 2.09  11 2.13  12 2.13   9 2.31   5 2.67   7 2.73   2 2.73
                             4 2.80   1 2.96   8 2.96   8 3.06   1 3.06   4 3.21   7 3.27   2 3.27
   4  0.972  0.528  0.517-  15 1.93  14 2.09  10 2.13  13 2.13   9 2.31   6 2.67   7 2.73   2 2.73
                             3 2.80   8 2.96   1 2.96   8 3.06   1 3.06   3 3.21   2 3.27   7 3.27
   5  0.528  0.972  0.983-  15 1.93  14 2.09  13 2.13  10 2.13   9 2.31   3 2.67   7 2.73   2 2.73
                             6 2.80   1 2.96   8 2.96   8 3.06   1 3.06   6 3.21   7 3.27   2 3.27
   6  0.528  0.972  0.517-  15 1.93  14 2.09  12 2.13  11 2.13   9 2.31   4 2.67   7 2.73   2 2.73
                             5 2.80   8 2.96   1 2.96   8 3.06   1 3.06   5 3.21   2 3.27   7 3.27
   7  0.522  0.522  0.978-  15 1.93  12 2.13  10 2.13  13 2.13  11 2.13   9 2.31   5 2.73   6 2.73
                             3 2.73   4 2.73   8 3.01   8 3.01   1 3.01   1 3.01   5 3.27   3 3.27
   8  0.503  0.503  0.497-  14 2.10  13 2.12  11 2.12  10 2.12  12 2.12   6 2.96   4 2.96   3 2.96
                             5 2.96   7 3.01   7 3.01   2 3.01   2 3.01   6 3.06   5 3.06   3 3.06
   9  0.250  0.250  0.250-   2 2.31   7 2.31   4 2.31   5 2.31   6 2.31   3 2.31
  10  0.250  0.750  0.250-   1 2.12   8 2.12   7 2.13   2 2.13   4 2.13   5 2.13
  11  0.250  0.750  0.750-   8 2.12   1 2.12   2 2.13   7 2.13   3 2.13   6 2.13
  12  0.750  0.250  0.250-   1 2.12   8 2.12   7 2.13   2 2.13   3 2.13   6 2.13
  13  0.750  0.250  0.750-   8 2.12   1 2.12   2 2.13   7 2.13   5 2.13   4 2.13
  14  0.750  0.750  0.250-   3 2.09   5 2.09   4 2.09   6 2.09   8 2.10   1 2.10
  15  0.750  0.750  0.750-   7 1.93   2 1.93   6 1.93   4 1.93   3 1.93   5 1.93
 
  LATTYP: Found a face centered cubic cell.
 ALAT       =     8.4937860393
  
  Lattice vectors:
  
 A1 = (   0.0000000000,   4.2468930196,   4.2468930196)
 A2 = (   4.2468930196,   0.0000000000,   4.2468930196)
 A3 = (   4.2468930196,   4.2468930196,   0.0000000000)


Analysis of symmetry for initial positions (statically):
=====================================================================
 Subroutine PRICEL returns:
 Original cell was already a primitive cell.
 

 Routine SETGRP: Setting up the symmetry group for a 
 face centered cubic supercell.


 Subroutine GETGRP returns: Found  8 space group operations
 (whereof  4 operations were pure point group operations)
 out of a pool of 48 trial point group operations.


The static configuration has the point symmetry C_2v.
 The point group associated with its full space group is D_2h.


Analysis of symmetry for dynamics (positions and initial velocities):
=====================================================================
 Subroutine PRICEL returns:
 Original cell was already a primitive cell.
 

 Routine SETGRP: Setting up the symmetry group for a 
 face centered cubic supercell.


 Subroutine GETGRP returns: Found  8 space group operations
 (whereof  4 operations were pure point group operations)
 out of a pool of 48 trial point group operations.


The dynamic configuration has the point symmetry C_2v.
 The point group associated with its full space group is D_2h.


Analysis of structural, dynamic, and magnetic symmetry:
=====================================================================
 Subroutine PRICEL returns:
 Original cell was already a primitive cell.
 

 Routine SETGRP: Setting up the symmetry group for a 
 face centered cubic supercell.


 Subroutine GETGRP returns: Found  8 space group operations
 (whereof  4 operations were pure point group operations)
 out of a pool of 48 trial point group operations.


The magnetic configuration has the point symmetry C_2v.
 The point group associated with its full space group is D_2h.


 Subroutine INISYM returns: Found  8 space group operations
 (whereof  4 operations are pure point group operations),
 and found     1 'primitive' translations

 
 
 KPOINTS: k-point mesh                            

Automatic generation of k-mesh.
Space group operators:
 irot       det(A)        alpha          n_x          n_y          n_z        tau_x        tau_y        tau_z
    1     1.000000     0.000000     1.000000     0.000000     0.000000     0.000000     0.000000     0.000000
    2     1.000000   180.000000     0.000000     0.000000     1.000000     0.000000     0.000000     0.000000
    3    -1.000000   180.000000     0.707107     0.707107     0.000000     0.000000     0.000000     0.000000
    4    -1.000000   180.000000     0.707107    -0.707107     0.000000     0.000000     0.000000     0.000000
    5    -1.000000     0.000000     1.000000     0.000000     0.000000     0.500000     0.500000     0.500000
    6    -1.000000   180.000000     0.000000     0.000000     1.000000     0.500000     0.500000     0.500000
    7     1.000000   180.000000     0.707107     0.707107     0.000000     0.500000     0.500000     0.500000
    8     1.000000   180.000000     0.707107    -0.707107     0.000000     0.500000     0.500000     0.500000
 
 Subroutine IBZKPT returns following result:
 ===========================================
 
 Found      5 irreducible k-points:
 
 Following reciprocal coordinates:
            Coordinates               Weight
  0.000000  0.000000  0.000000      1.000000
  0.500000  0.000000  0.000000      2.000000
  0.500000  0.500000  0.000000      1.000000
  0.000000  0.000000  0.500000      2.000000
  0.500000  0.000000  0.500000      2.000000
 
 Following cartesian coordinates:
            Coordinates               Weight
  0.000000  0.000000  0.000000      1.000000
 -0.058867  0.058867  0.058867      2.000000
  0.000000  0.000000  0.117733      1.000000
  0.058867  0.058867 -0.058867      2.000000
  0.000000  0.117733  0.000000      2.000000
 


--------------------------------------------------------------------------------------------------------




 Dimension of arrays:
   k-points           NKPTS =      5   k-points in BZ     NKDIM =      5   number of bands    NBANDS=     44
   number of dos      NEDOS =    301   number of ions     NIONS =     15
   non local maximal  LDIM  =      5   non local SUM 2l+1 LMDIM =     13
   total plane-waves  NPLWV =  27000
   max r-space proj   IRMAX =   1992   max aug-charges    IRDMAX=   7686
   dimension x,y,z NGX =    30 NGY =   30 NGZ =   30
   dimension x,y,z NGXF=    60 NGYF=   60 NGZF=   60
   support grid    NGXF=    60 NGYF=   60 NGZF=   60
   ions per type =               9   6
 NGX,Y,Z   is equivalent  to a cutoff of   8.30,  8.30,  8.30 a.u.
 NGXF,Y,Z  is equivalent  to a cutoff of  16.61, 16.61, 16.61 a.u.


 I would recommend the setting:
   dimension x,y,z NGX =    29 NGY =   29 NGZ =   29
 SYSTEM =  unknown system                          
 POSCAR =  Mg O                                    

 Startparameter for this run:
   NWRITE =      2    write-flag & timer
   PREC   = n         normal or accurate (medium, high low for compatibility)
   ISTART =      0    job   : 0-new  1-cont  2-samecut
   ICHARG =      2    charge: 1-file 2-atom 10-const
   ISPIN  =      2    spin polarized calculation?
   LNONCOLLINEAR =      F non collinear calculations
   LSORBIT =      F    spin-orbit coupling
   INIWAV =      1    electr: 0-lowe 1-rand  2-diag
   LASPH  =      T    aspherical Exc in radial PAW
   METAGGA=      F    non-selfconsistent MetaGGA calc.

 Electronic Relaxation 1
   ENCUT  =  400.0 eV  29.40 Ry    5.42 a.u.   9.79  9.79  9.79*2*pi/ulx,y,z
   ENINI  =  400.0     initial cutoff
   ENAUG  =  605.4 eV  augmentation charge cutoff
   NELM   =    100;   NELMIN=  4; NELMDL=  0     # of ELM steps 
   EDIFF  = 0.1E-05   stopping-criterion for ELM
   LREAL  =      T    real-space projection
   NLSPLINE    = F    spline interpolate recip. space projectors
   LCOMPAT=      F    compatible to vasp.4.4
   GGA_COMPAT  = T    GGA compatible to vasp.4.4-vasp.4.6
   LMAXPAW     = -100 max onsite density
   LMAXMIX     =    2 max onsite mixed and CHGCAR
   VOSKOWN=      0    Vosko Wilk Nusair interpolation
   ROPT   =   -0.00050  -0.00050
 Ionic relaxation
   EDIFFG = -.5E-01   stopping-criterion for IOM
   NSW    =     20    number of steps for IOM
   NBLOCK =      1;   KBLOCK =     20    inner block; outer block 
   IBRION =      2    ionic relax: 0-MD 1-quasi-New 2-CG
   NFREE  =      1    steps in history (QN), initial steepest desc. (CG)
   ISIF   =      2    stress and relaxation
   IWAVPR =     11    prediction:  0-non 1-charg 2-wave 3-comb
   ISYM   =      2    0-nonsym 1-usesym 2-fastsym
   LCORR  =      T    Harris-Foulkes like correction to forces

   POTIM  = 0.5000    time-step for ionic-motion
   TEIN   =    0.0    initial temperature
   TEBEG  =    0.0;   TEEND  =   0.0 temperature during run
   SMASS  =  -3.00    Nose mass-parameter (am)
   estimated Nose-frequenzy (Omega)   =  0.10E-29 period in steps =****** mass=  -0.824E-27a.u.
   SCALEE = 1.0000    scale energy and forces
   NPACO  =    256;   APACO  = 16.0  distance and # of slots for P.C.
   PSTRESS=    0.0 pullay stress

  Mass of Ions in am
   POMASS =  24.30 16.00
  Ionic Valenz
   ZVAL   =   2.00  6.00
  Atomic Wigner-Seitz radii
   RWIGS  =  -1.00 -1.00
  virtual crystal weights 
   VCA    =   1.00  1.00
   NELECT =      52.0000    total number of electrons
   NUPDOWN=      -1.0000    fix difference up-down

 DOS related values:
   EMIN   =  10.00;   EMAX   =-10.00  energy-range for DOS
   EFERMI =   0.00
   ISMEAR =     0;   SIGMA  =   0.05  broadening in eV -4-tet -1-fermi 0-gaus

 Electronic relaxation 2 (details)
   IALGO  =     38    algorithm
   LDIAG  =      T    sub-space diagonalisation (order eigenvalues)
   LSUBROT=      F    optimize rotation matrix (better conditioning)
   TURBO    =      0    0=normal 1=particle mesh
   IRESTART =      0    0=no restart 2=restart with 2 vectors
   NREBOOT  =      0    no. of reboots
   NMIN     =      0    reboot dimension
   EREF     =   0.00    reference energy to select bands
   IMIX   =      4    mixing-type and parameters
     AMIX     =   0.40;   BMIX     =  1.00
     AMIX_MAG =   1.60;   BMIX_MAG =  1.00
     AMIN     =   0.10
     WC   =   100.;   INIMIX=   1;  MIXPRE=   1;  MAXMIX= -45

 Intra band minimization:
   WEIMIN = 0.0010     energy-eigenvalue tresh-hold
   EBREAK =  0.57E-08  absolut break condition
   DEPER  =   0.30     relativ break condition  

   TIME   =   0.40     timestep for ELM

  volume/ion in A,a.u.               =      10.21        68.92
  Fermi-wavevector in a.u.,A,eV,Ry     =   1.141987  2.158043 17.743835  1.304135
  Thomas-Fermi vector in A             =   2.278686
 
 Write flags
   LWAVE  =      F    write WAVECAR
   LCHARG =      F    write CHGCAR
   LVTOT  =      F    write LOCPOT, total local potential
   LVHAR  =      F    write LOCPOT, Hartree potential only
   LELF   =      F    write electronic localiz. function (ELF)
   LORBIT =     12    0 simple, 1 ext, 2 COOP (PROOUT)


 Dipole corrections
   LMONO  =      F    monopole corrections only (constant potential shift)
   LDIPOL =      F    correct potential (dipole corrections)
   IDIPOL =      0    1-x, 2-y, 3-z, 4-all directions 
   EPSILON=  1.0000000 bulk dielectric constant

 Exchange correlation treatment:
   GGA     =    --    GGA type
   LEXCH   =     8    internal setting for exchange type
   VOSKOWN=      0    Vosko Wilk Nusair interpolation
   LHFCALC =     F    Hartree Fock is set to
   LHFONE  =     F    Hartree Fock one center treatment
   AEXX    =    0.0000 exact exchange contribution

 Linear response parameters
   LEPSILON=     F    determine dielectric tensor
   LRPA    =     F    only Hartree local field effects (RPA)
   LNABLA  =     F    use nabla operator in PAW spheres
   LVEL    =     F    velocity operator in full k-point grid
   LINTERFAST=   F  fast interpolation
   KINTER  =     0    interpolate to denser k-point grid
   CSHIFT  =0.1000    complex shift for real part using Kramers Kronig
   OMEGAMAX=  -1.0    maximum frequency
   DEG_THRESHOLD= 0.2000000E-02 threshold for treating states as degnerate
   RTIME   =    0.100 relaxation time in fs

 Orbital magnetization related:
   ORBITALMAG=     F  switch on orbital magnetization
   LCHIMAG   =     F  perturbation theory with respect to B field
   DQ        =  0.001000  dq finite difference perturbation B field



--------------------------------------------------------------------------------------------------------


 conjugate gradient relaxation of ions
 charge density and potential will be updated during run
 spin polarized calculation
 Variant of blocked Davidson
 Davidson routine will perform the subspace rotation
 perform sub-space diagonalisation
    after iterative eigenvector-optimisation
 modified Broyden-mixing scheme, WC =      100.0
 initial mixing is a Kerker type mixing with AMIX =  0.4000 and BMIX =      1.0000
 Hartree-type preconditioning will be used
 using additional bands           18
 real space projection scheme for non local part
 use partial core corrections
 calculate Harris-corrections to forces 
   (improved forces if not selfconsistent)
 use gradient corrections 
 use of overlap-Matrix (Vanderbilt PP)
 Gauss-broadening in eV      SIGMA  =   0.05


--------------------------------------------------------------------------------------------------------


  energy-cutoff  :      400.00
  volume of cell :      153.19
      direct lattice vectors                 reciprocal lattice vectors
     0.000000000  4.246893020  4.246893020    -0.117733128  0.117733128  0.117733128
     4.246893020  0.000000000  4.246893020     0.117733128 -0.117733128  0.117733128
     4.246893020  4.246893020  0.000000000     0.117733128  0.117733128 -0.117733128

  length of vectors
     6.006013706  6.006013706  6.006013706     0.203919760  0.203919760  0.203919760


 
 k-points in units of 2pi/SCALE and weight: k-point mesh                            
   0.00000000  0.00000000  0.00000000       0.125
  -0.05886656  0.05886656  0.05886656       0.250
   0.00000000  0.00000000  0.11773313       0.125
   0.05886656  0.05886656 -0.05886656       0.250
   0.00000000  0.11773313  0.00000000       0.250
 
 k-points in reciprocal lattice and weights: k-point mesh                            
   0.00000000  0.00000000  0.00000000       0.125
   0.50000000  0.00000000  0.00000000       0.250
   0.50000000  0.50000000  0.00000000       0.125
   0.00000000  0.00000000  0.50000000       0.250
   0.50000000  0.00000000  0.50000000       0.250
 
 position of ions in fractional coordinates (direct lattice) 
   0.99737206  0.99737206  0.00262794
   0.97757960  0.97757960  0.52242040
   0.97241486  0.52758514  0.98271593
   0.97241486  0.52758514  0.51728407
   0.52758514  0.97241486  0.98271593
   0.52758514  0.97241486  0.51728407
   0.52242040  0.52242040  0.97757960
   0.50262794  0.50262794  0.49737206
   0.25000000  0.25000000  0.25000000
   0.25000000  0.75000000  0.25000000
   0.25000000  0.75000000  0.75000000
   0.75000000  0.25000000  0.25000000
   0.75000000  0.25000000  0.75000000
   0.75000000  0.75000000  0.25000000
   0.75000000  0.75000000  0.75000000
 
 position of ions in cartesian coordinates  (Angst):
   4.24689302  4.24689302  8.47146484
   6.37033953  6.37033953  8.30335193
   6.41408706  8.30323128  6.37033953
   4.43744778  6.32659199  6.37033953
   8.30323128  6.41408706  6.37033953
   6.32659199  4.43744778  6.37033953
   6.37033953  6.37033953  4.43732712
   4.24689302  4.24689302  4.26921422
   2.12344651  2.12344651  2.12344651
   4.24689302  2.12344651  4.24689302
   6.37033953  4.24689302  4.24689302
   2.12344651  4.24689302  4.24689302
   4.24689302  6.37033953  4.24689302
   4.24689302  4.24689302  6.37033953
   6.37033953  6.37033953  6.37033953
 


--------------------------------------------------------------------------------------------------------


 k-point  1 :   0.0000 0.0000 0.0000  plane waves:    2733
 k-point  2 :   0.5000 0.0000 0.0000  plane waves:    2788
 k-point  3 :   0.5000 0.5000 0.0000  plane waves:    2778
 k-point  4 :   0.0000 0.0000 0.5000  plane waves:    2788
 k-point  5 :   0.5000 0.0000 0.5000  plane waves:    2778

 maximum and minimum number of plane-waves per node :       709      675

 maximum number of plane-waves:      2788
 maximum index in each direction: 
   IXMAX=    9   IYMAX=    9   IZMAX=    9
   IXMIN=  -10   IYMIN=  -10   IZMIN=  -10

 WARNING: aliasing errors must be expected set NGX to  40 to avoid them
 WARNING: aliasing errors must be expected set NGY to  40 to avoid them
 WARNING: aliasing errors must be expected set NGZ to  40 to avoid them
 aliasing errors are usually negligible using standard VASP settings
 and one can safely disregard these warnings

 real space projection operators:
  total allocation   :       2153.27 KBytes
  max/ min on nodes  :        578.93        497.70


 parallel 3D FFT for wavefunctions:
    minimum data exchange during FFTs selected (reduces bandwidth)
 parallel 3D FFT for charge:
    minimum data exchange during FFTs selected (reduces bandwidth)


 total amount of memory used by VASP on root node    35085. kBytes
========================================================================

   base      :      30000. kBytes
   nonlr-proj:       1211. kBytes
   fftplans  :        707. kBytes
   grid      :       1766. kBytes
   one-center:         64. kBytes
   wavefun   :       1337. kBytes
 
     INWAV:  cpu time    0.0000: real time    0.0001
 Broyden mixing: mesh for mixing (old mesh)
   NGX = 19   NGY = 19   NGZ = 19
  (NGX  = 60   NGY  = 60   NGZ  = 60)
  gives a total of   6859 points

 initial charge density was supplied:
 charge density of overlapping atoms calculated
 number of electron      54.0000000 magnetization      15.0000000
 keeping initial charge density in first step


--------------------------------------------------------------------------------------------------------


 Maximum index for non-local projection operator          527
 Maximum index for augmentation-charges          566 (set IRDMAX)


--------------------------------------------------------------------------------------------------------


 First call to EWALD:  gamma=   0.331
 Maximum number of real-space cells 3x 3x 3
 Maximum number of reciprocal cells 3x 3x 3

 FEWALD executed in parallel
    FEWALD:  cpu time    0.0000: real time    0.0017


----------------------------------------- Iteration    1(   1)  ---------------------------------------


    POTLOK:  cpu time    0.0200: real time    0.0209
    SETDIJ:  cpu time    0.6760: real time    0.6782
     EDDAV:  cpu time    0.3000: real time    0.2997
       DOS:  cpu time    0.0000: real time    0.0004
    --------------------------------------------
      LOOP:  cpu time    1.0000: real time    1.0025

 eigenvalue-minimisations  :   912
 total energy-change (2. order) : 0.1975144E+03  (-0.2075668E+04)
 number of electron      54.0000000 magnetization      15.0000000
 augmentation part       54.0000000 magnetization      15.0000000

 Free energy of the ion-electron system (eV)
  ---------------------------------------------------
  alpha Z        PSCENC =       120.36916991
  Ewald energy   TEWEN  =     -2025.83024474
  -Hartree energ DENC   =      -925.49327929
  -exchange      EXHF   =         0.00000000
  -V(xc)+E(xc)   XCENC  =      -264.85728013
  PAW double counting   =      2665.04529735    -2209.04454820
  entropy T*S    EENTRO =        -0.00443966
  eigenvalues    EBANDS =        36.41953975
  atomic energy  EATOM  =      2800.91013741
  Solvation  Ediel_sol  =         0.00000000
  ---------------------------------------------------
  free energy    TOTEN  =       197.51435240 eV

  energy without entropy =      197.51879206  energy(sigma->0) =      197.51657223


--------------------------------------------------------------------------------------------------------




----------------------------------------- Iteration    1(   2)  ---------------------------------------


     EDDAV:  cpu time    0.3360: real time    0.3358
       DOS:  cpu time    0.0000: real time    0.0003
    --------------------------------------------
      LOOP:  cpu time    0.3360: real time    0.3402

 eigenvalue-minimisations  :  1124
 total energy-change (2. order) :-0.2614827E+03  (-0.2500189E+03)
 number of electron      54.0000000 magnetization      15.0000000
 augmentation part       54.0000000 magnetization      15.0000000

 Free energy of the ion-electron system (eV)
  ---------------------------------------------------
  alpha Z        PSCENC =       120.36916991
  Ewald energy   TEWEN  =     -2025.83024474
  -Hartree energ DENC   =      -925.49327929
  -exchange      EXHF   =         0.00000000
  -V(xc)+E(xc)   XCENC  =      -264.85728013
  PAW double counting   =      2665.04529735    -2209.04454820
  entropy T*S    EENTRO =        -0.00000499
  eigenvalues    EBANDS =      -225.06756558
  atomic energy  EATOM  =      2800.91013741
  Solvation  Ediel_sol  =         0.00000000
  ---------------------------------------------------
  free energy    TOTEN  =       -63.96831826 eV

  energy without entropy =      -63.96831327  energy(sigma->0) =      -63.96831576


--------------------------------------------------------------------------------------------------------




----------------------------------------- Iteration    1(   3)  ---------------------------------------


     EDDAV:  cpu time    0.3120: real time    0.3136
       DOS:  cpu time    0.0000: real time    0.0003
    --------------------------------------------
      LOOP:  cpu time    0.3120: real time    0.3165

 eigenvalue-minimisations  :  1036
 total energy-change (2. order) :-0.1768561E+02  (-0.1756639E+02)
 number of electron      54.0000000 magnetization      15.0000000
 augmentation part       54.0000000 magnetization      15.0000000

 Free energy of the ion-electron system (eV)
  ---------------------------------------------------
  alpha Z        PSCENC =       120.36916991
  Ewald energy   TEWEN  =     -2025.83024474
  -Hartree energ DENC   =      -925.49327929
  -exchange      EXHF   =         0.00000000
  -V(xc)+E(xc)   XCENC  =      -264.85728013
  PAW double counting   =      2665.04529735    -2209.04454820
  entropy T*S    EENTRO =        -0.00004360
  eigenvalues    EBANDS =      -242.75313553
  atomic energy  EATOM  =      2800.91013741
  Solvation  Ediel_sol  =         0.00000000
  ---------------------------------------------------
  free energy    TOTEN  =       -81.65392682 eV

  energy without entropy =      -81.65388322  energy(sigma->0) =      -81.65390502


--------------------------------------------------------------------------------------------------------




----------------------------------------- Iteration    1(   4)  ---------------------------------------


     EDDAV:  cpu time    0.3160: real time    0.3151
       DOS:  cpu time    0.0000: real time    0.0003
    --------------------------------------------
      LOOP:  cpu time    0.3160: real time    0.3260

 eigenvalue-minimisations  :  1048
 total energy-change (2. order) :-0.1147986E+00  (-0.1147205E+00)
 number of electron      54.0000000 magnetization      15.0000000
 augmentation part       54.0000000 magnetization      15.0000000

 Free energy of the ion-electron system (eV)
  ---------------------------------------------------
  alpha Z        PSCENC =       120.36916991
  Ewald energy   TEWEN  =     -2025.83024474
  -Hartree energ DENC   =      -925.49327929
  -exchange      EXHF   =         0.00000000
  -V(xc)+E(xc)   XCENC  =      -264.85728013
  PAW double counting   =      2665.04529735    -2209.04454820
  entropy T*S    EENTRO =        -0.00004431
  eigenvalues    EBANDS =      -242.86793344
  atomic energy  EATOM  =      2800.91013741
  Solvation  Ediel_sol  =         0.00000000
  ---------------------------------------------------
  free energy    TOTEN  =       -81.76872545 eV

  energy without entropy =      -81.76868113  energy(sigma->0) =      -81.76870329


--------------------------------------------------------------------------------------------------------




----------------------------------------- Iteration    1(   5)  ---------------------------------------


     EDDAV:  cpu time    0.3120: real time    0.3133
       DOS:  cpu time    0.0000: real time    0.0003
    CHARGE:  cpu time    0.0200: real time    0.0188
    MIXING:  cpu time    0.0000: real time    0.0008
    --------------------------------------------
      LOOP:  cpu time    0.3320: real time    0.3363

 eigenvalue-minimisations  :  1016
 total energy-change (2. order) :-0.6180892E-03  (-0.6180455E-03)
 number of electron      51.9999847 magnetization       1.0795755
 augmentation part        4.7496484 magnetization       0.1342560

 Broyden mixing:
  rms(total) = 0.25052E+01    rms(broyden)= 0.24994E+01
  rms(prec ) = 0.42149E+01
  weight for this iteration     100.00

 Free energy of the ion-electron system (eV)
  ---------------------------------------------------
  alpha Z        PSCENC =       120.36916991
  Ewald energy   TEWEN  =     -2025.83024474
  -Hartree energ DENC   =      -925.49327929
  -exchange      EXHF   =         0.00000000
  -V(xc)+E(xc)   XCENC  =      -264.85728013
  PAW double counting   =      2665.04529735    -2209.04454820
  entropy T*S    EENTRO =        -0.00004431
  eigenvalues    EBANDS =      -242.86855154
  atomic energy  EATOM  =      2800.91013741
  Solvation  Ediel_sol  =         0.00000000
  ---------------------------------------------------
  free energy    TOTEN  =       -81.76934354 eV

  energy without entropy =      -81.76929923  energy(sigma->0) =      -81.76932138


--------------------------------------------------------------------------------------------------------




----------------------------------------- Iteration    1(   6)  ---------------------------------------


    POTLOK:  cpu time    0.0200: real time    0.0206
    SETDIJ:  cpu time    0.6800: real time    0.6812
     EDDAV:  cpu time    0.3040: real time    0.3011
       DOS:  cpu time    0.0000: real time    0.0003
    CHARGE:  cpu time    0.0160: real time    0.0179
    MIXING:  cpu time    0.0000: real time    0.0005
    --------------------------------------------
      LOOP:  cpu time    1.0200: real time    1.0245

 eigenvalue-minimisations  :   984
 total energy-change (2. order) : 0.3630051E+01  (-0.3170525E+01)
 number of electron      51.9999877 magnetization       0.5496854
 augmentation part        3.8984324 magnetization      -0.0429300

 Broyden mixing:
  rms(total) = 0.70359E+00    rms(broyden)= 0.70225E+00
  rms(prec ) = 0.98701E+00
  weight for this iteration     100.00

 eigenvalues of (default mixing * dielectric matrix)
  average eigenvalue GAMMA=   0.8399
  0.8399

 Free energy of the ion-electron system (eV)
  ---------------------------------------------------
  alpha Z        PSCENC =       120.36916991
  Ewald energy   TEWEN  =     -2025.83024474
  -Hartree energ DENC   =     -1045.64385852
  -exchange      EXHF   =         0.00000000
  -V(xc)+E(xc)   XCENC  =      -265.25189537
  PAW double counting   =      3129.09800043    -2674.97495804
  entropy T*S    EENTRO =        -0.00428142
  eigenvalues    EBANDS =      -116.81136178
  atomic energy  EATOM  =      2800.91013741
  Solvation  Ediel_sol  =         0.00000000
  ---------------------------------------------------
  free energy    TOTEN  =       -78.13929211 eV

  energy without entropy =      -78.13501069  energy(sigma->0) =      -78.13715140


--------------------------------------------------------------------------------------------------------




----------------------------------------- Iteration    1(   7)  ---------------------------------------


    POTLOK:  cpu time    0.0200: real time    0.0202
    SETDIJ:  cpu time    0.6840: real time    0.6822
     EDDAV:  cpu time    0.2920: real time    0.2936
       DOS:  cpu time    0.0000: real time    0.0004
    CHARGE:  cpu time    0.0200: real time    0.0179
    MIXING:  cpu time    0.0000: real time    0.0005
    --------------------------------------------
      LOOP:  cpu time    1.0160: real time    1.0180

 eigenvalue-minimisations  :   952
 total energy-change (2. order) :-0.9532244E-01  (-0.1285467E+00)
 number of electron      51.9999876 magnetization       0.4757387
 augmentation part        3.9200601 magnetization      -0.0355605

 Broyden mixing:
  rms(total) = 0.35865E+00    rms(broyden)= 0.35860E+00
  rms(prec ) = 0.56311E+00
  weight for this iteration     100.00

 eigenvalues of (default mixing * dielectric matrix)
  average eigenvalue GAMMA=   0.9999
  0.9999  0.9999

 Free energy of the ion-electron system (eV)
  ---------------------------------------------------
  alpha Z        PSCENC =       120.36916991
  Ewald energy   TEWEN  =     -2025.83024474
  -Hartree energ DENC   =     -1043.61334232
  -exchange      EXHF   =         0.00000000
  -V(xc)+E(xc)   XCENC  =      -265.32496119
  PAW double counting   =      3270.90122249    -2816.52000980
  entropy T*S    EENTRO =        -0.00193777
  eigenvalues    EBANDS =      -119.12464853
  atomic energy  EATOM  =      2800.91013741
  Solvation  Ediel_sol  =         0.00000000
  ---------------------------------------------------
  free energy    TOTEN  =       -78.23461455 eV

  energy without entropy =      -78.23267678  energy(sigma->0) =      -78.23364567


--------------------------------------------------------------------------------------------------------




----------------------------------------- Iteration    1(   8)  ---------------------------------------


    POTLOK:  cpu time    0.0200: real time    0.0202
    SETDIJ:  cpu time    0.6840: real time    0.6836
     EDDAV:  cpu time    0.3160: real time    0.3165
       DOS:  cpu time    0.0000: real time    0.0004
    CHARGE:  cpu time    0.0160: real time    0.0181
    MIXING:  cpu time    0.0040: real time    0.0006
    --------------------------------------------
      LOOP:  cpu time    1.0400: real time    1.0429

 eigenvalue-minimisations  :  1028
 total energy-change (2. order) : 0.9075352E-01  (-0.1888399E-01)
 number of electron      51.9999875 magnetization       0.4839368
 augmentation part        3.9424649 magnetization      -0.0103561

 Broyden mixing:
  rms(total) = 0.12521E+00    rms(broyden)= 0.12519E+00
  rms(prec ) = 0.19799E+00
  weight for this iteration     100.00

 eigenvalues of (default mixing * dielectric matrix)
  average eigenvalue GAMMA=   1.2409
  1.9913  0.9202  0.8113

 Free energy of the ion-electron system (eV)
  ---------------------------------------------------
  alpha Z        PSCENC =       120.36916991
  Ewald energy   TEWEN  =     -2025.83024474
  -Hartree energ DENC   =     -1047.12456744
  -exchange      EXHF   =         0.00000000
  -V(xc)+E(xc)   XCENC  =      -264.78753251
  PAW double counting   =      3452.55854022    -2997.99717149
  entropy T*S    EENTRO =        -0.00146189
  eigenvalues    EBANDS =      -116.24073051
  atomic energy  EATOM  =      2800.91013741
  Solvation  Ediel_sol  =         0.00000000
  ---------------------------------------------------
  free energy    TOTEN  =       -78.14386103 eV

  energy without entropy =      -78.14239914  energy(sigma->0) =      -78.14313009


--------------------------------------------------------------------------------------------------------




----------------------------------------- Iteration    1(   9)  ---------------------------------------


    POTLOK:  cpu time    0.0200: real time    0.0214
    SETDIJ:  cpu time    0.6840: real time    0.6839
     EDDAV:  cpu time    0.3240: real time    0.3247
       DOS:  cpu time    0.0000: real time    0.0004
    CHARGE:  cpu time    0.0160: real time    0.0183
    MIXING:  cpu time    0.0000: real time    0.0007
    --------------------------------------------
      LOOP:  cpu time    1.0440: real time    1.0529

 eigenvalue-minimisations  :  1060
 total energy-change (2. order) : 0.3020618E-02  (-0.3276850E-02)
 number of electron      51.9999875 magnetization       0.4968754
 augmentation part        3.9323024 magnetization       0.0039285

 Broyden mixing:
  rms(total) = 0.47275E-01    rms(broyden)= 0.47268E-01
  rms(prec ) = 0.54486E-01
  weight for this iteration     100.00

 eigenvalues of (default mixing * dielectric matrix)
  average eigenvalue GAMMA=   1.2490
  2.3956  0.9734  0.9734  0.6536

 Free energy of the ion-electron system (eV)
  ---------------------------------------------------
  alpha Z        PSCENC =       120.36916991
  Ewald energy   TEWEN  =     -2025.83024474
  -Hartree energ DENC   =     -1051.26843064
  -exchange      EXHF   =         0.00000000
  -V(xc)+E(xc)   XCENC  =      -264.32882720
  PAW double counting   =      3527.55953329    -3072.98035681
  entropy T*S    EENTRO =        -0.00180213
  eigenvalues    EBANDS =      -112.57001951
  atomic energy  EATOM  =      2800.91013741
  Solvation  Ediel_sol  =         0.00000000
  ---------------------------------------------------
  free energy    TOTEN  =       -78.14084042 eV

  energy without entropy =      -78.13903829  energy(sigma->0) =      -78.13993935


--------------------------------------------------------------------------------------------------------




----------------------------------------- Iteration    1(  10)  ---------------------------------------


    POTLOK:  cpu time    0.0200: real time    0.0204
    SETDIJ:  cpu time    0.6800: real time    0.6805
     EDDAV:  cpu time    0.3080: real time    0.3108
       DOS:  cpu time    0.0000: real time    0.0004
    CHARGE:  cpu time    0.0200: real time    0.0179
    MIXING:  cpu time    0.0000: real time    0.0006
    --------------------------------------------
      LOOP:  cpu time    1.0320: real time    1.0337

 eigenvalue-minimisations  :  1020
 total energy-change (2. order) :-0.8889655E-04  (-0.3093753E-03)
 number of electron      51.9999875 magnetization       0.5013135
 augmentation part        3.9289518 magnetization       0.0066726

 Broyden mixing:
  rms(total) = 0.13583E-01    rms(broyden)= 0.13580E-01
  rms(prec ) = 0.21666E-01
  weight for this iteration     100.00

 eigenvalues of (default mixing * dielectric matrix)
  average eigenvalue GAMMA=   1.2083
  2.4958  1.0909  0.9679  0.8436  0.6431

 Free energy of the ion-electron system (eV)
  ---------------------------------------------------
  alpha Z        PSCENC =       120.36916991
  Ewald energy   TEWEN  =     -2025.83024474
  -Hartree energ DENC   =     -1051.71660899
  -exchange      EXHF   =         0.00000000
  -V(xc)+E(xc)   XCENC  =      -264.26732587
  PAW double counting   =      3525.40809622    -3070.84098600
  entropy T*S    EENTRO =        -0.00200695
  eigenvalues    EBANDS =      -112.17116030
  atomic energy  EATOM  =      2800.91013741
  Solvation  Ediel_sol  =         0.00000000
  ---------------------------------------------------
  free energy    TOTEN  =       -78.14092931 eV

  energy without entropy =      -78.13892236  energy(sigma->0) =      -78.13992584


--------------------------------------------------------------------------------------------------------




----------------------------------------- Iteration    1(  11)  ---------------------------------------


    POTLOK:  cpu time    0.0200: real time    0.0202
    SETDIJ:  cpu time    0.6800: real time    0.6817
     EDDAV:  cpu time    0.3040: real time    0.3035
       DOS:  cpu time    0.0000: real time    0.0004
    CHARGE:  cpu time    0.0200: real time    0.0180
    MIXING:  cpu time    0.0000: real time    0.0007
    --------------------------------------------
      LOOP:  cpu time    1.0240: real time    1.0280

 eigenvalue-minimisations  :   992
 total energy-change (2. order) :-0.2311270E-03  (-0.4710558E-04)
 number of electron      51.9999875 magnetization       0.5011654
 augmentation part        3.9303788 magnetization       0.0050474

 Broyden mixing:
  rms(total) = 0.76939E-02    rms(broyden)= 0.76924E-02
  rms(prec ) = 0.11370E-01
  weight for this iteration     100.00

 eigenvalues of (default mixing * dielectric matrix)
  average eigenvalue GAMMA=   1.3017
  2.5756  1.8746  0.9842  0.9842  0.7590  0.6329

 Free energy of the ion-electron system (eV)
  ---------------------------------------------------
  alpha Z        PSCENC =       120.36916991
  Ewald energy   TEWEN  =     -2025.83024474
  -Hartree energ DENC   =     -1051.52904420
  -exchange      EXHF   =         0.00000000
  -V(xc)+E(xc)   XCENC  =      -264.25741497
  PAW double counting   =      3518.25261685    -3063.69146791
  entropy T*S    EENTRO =        -0.00209572
  eigenvalues    EBANDS =      -112.36281706
  atomic energy  EATOM  =      2800.91013741
  Solvation  Ediel_sol  =         0.00000000
  ---------------------------------------------------
  free energy    TOTEN  =       -78.14116044 eV

  energy without entropy =      -78.13906472  energy(sigma->0) =      -78.14011258


--------------------------------------------------------------------------------------------------------




----------------------------------------- Iteration    1(  12)  ---------------------------------------


    POTLOK:  cpu time    0.0200: real time    0.0203
    SETDIJ:  cpu time    0.6800: real time    0.6817
     EDDAV:  cpu time    0.3160: real time    0.3137
       DOS:  cpu time    0.0000: real time    0.0004
    CHARGE:  cpu time    0.0160: real time    0.0182
    MIXING:  cpu time    0.0000: real time    0.0008
    --------------------------------------------
      LOOP:  cpu time    1.0320: real time    1.0382

 eigenvalue-minimisations  :  1020
 total energy-change (2. order) :-0.7789506E-04  (-0.1501566E-04)
 number of electron      51.9999875 magnetization       0.5000462
 augmentation part        3.9304754 magnetization       0.0039005

 Broyden mixing:
  rms(total) = 0.25875E-02    rms(broyden)= 0.25863E-02
  rms(prec ) = 0.39438E-02
  weight for this iteration     100.00

 eigenvalues of (default mixing * dielectric matrix)
  average eigenvalue GAMMA=   1.3015
  2.5300  2.2916  1.0018  1.0018  0.8271  0.8271  0.6310

 Free energy of the ion-electron system (eV)
  ---------------------------------------------------
  alpha Z        PSCENC =       120.36916991
  Ewald energy   TEWEN  =     -2025.83024474
  -Hartree energ DENC   =     -1051.50002939
  -exchange      EXHF   =         0.00000000
  -V(xc)+E(xc)   XCENC  =      -264.24013448
  PAW double counting   =      3511.32629649    -3056.77351802
  entropy T*S    EENTRO =        -0.00213189
  eigenvalues    EBANDS =      -112.40078363
  atomic energy  EATOM  =      2800.91013741
  Solvation  Ediel_sol  =         0.00000000
  ---------------------------------------------------
  free energy    TOTEN  =       -78.14123833 eV

  energy without entropy =      -78.13910644  energy(sigma->0) =      -78.14017239


--------------------------------------------------------------------------------------------------------




----------------------------------------- Iteration    1(  13)  ---------------------------------------


    POTLOK:  cpu time    0.0200: real time    0.0203
    SETDIJ:  cpu time    0.6800: real time    0.6812
     EDDAV:  cpu time    0.3240: real time    0.3250
       DOS:  cpu time    0.0000: real time    0.0004
    CHARGE:  cpu time    0.0160: real time    0.0180
    MIXING:  cpu time    0.0040: real time    0.0008
    --------------------------------------------
      LOOP:  cpu time    1.0480: real time    1.0488

 eigenvalue-minimisations  :  1080
 total energy-change (2. order) :-0.4742738E-05  (-0.3547905E-05)
 number of electron      51.9999875 magnetization       0.4999578
 augmentation part        3.9300696 magnetization       0.0040971

 Broyden mixing:
  rms(total) = 0.88681E-03    rms(broyden)= 0.88587E-03
  rms(prec ) = 0.11067E-02
  weight for this iteration     100.00

 eigenvalues of (default mixing * dielectric matrix)
  average eigenvalue GAMMA=   1.2942
  2.6946  2.4367  1.1290  0.9618  0.9618  0.8484  0.6925  0.6289

 Free energy of the ion-electron system (eV)
  ---------------------------------------------------
  alpha Z        PSCENC =       120.36916991
  Ewald energy   TEWEN  =     -2025.83024474
  -Hartree energ DENC   =     -1051.53620120
  -exchange      EXHF   =         0.00000000
  -V(xc)+E(xc)   XCENC  =      -264.23507374
  PAW double counting   =      3509.84077431    -3055.29038528
  entropy T*S    EENTRO =        -0.00209653
  eigenvalues    EBANDS =      -112.36732322
  atomic energy  EATOM  =      2800.91013741
  Solvation  Ediel_sol  =         0.00000000
  ---------------------------------------------------
  free energy    TOTEN  =       -78.14124308 eV

  energy without entropy =      -78.13914655  energy(sigma->0) =      -78.14019481


--------------------------------------------------------------------------------------------------------




----------------------------------------- Iteration    1(  14)  ---------------------------------------


    POTLOK:  cpu time    0.0200: real time    0.0202
    SETDIJ:  cpu time    0.6800: real time    0.6823
     EDDAV:  cpu time    0.3040: real time    0.3043
       DOS:  cpu time    0.0000: real time    0.0004
    CHARGE:  cpu time    0.0200: real time    0.0183
    MIXING:  cpu time    0.0000: real time    0.0008
    --------------------------------------------
      LOOP:  cpu time    1.0240: real time    1.0296

 eigenvalue-minimisations  :  1000
 total energy-change (2. order) :-0.1848976E-05  (-0.5610581E-06)
 number of electron      51.9999875 magnetization       0.4999428
 augmentation part        3.9300980 magnetization       0.0041256

 Broyden mixing:
  rms(total) = 0.38688E-03    rms(broyden)= 0.38669E-03
  rms(prec ) = 0.60548E-03
  weight for this iteration     100.00

 eigenvalues of (default mixing * dielectric matrix)
  average eigenvalue GAMMA=   1.2548
  2.7430  2.3954  1.1580  0.9255  0.9255  0.9512  0.8886  0.6280  0.6779

 Free energy of the ion-electron system (eV)
  ---------------------------------------------------
  alpha Z        PSCENC =       120.36916991
  Ewald energy   TEWEN  =     -2025.83024474
  -Hartree energ DENC   =     -1051.53200376
  -exchange      EXHF   =         0.00000000
  -V(xc)+E(xc)   XCENC  =      -264.23471556
  PAW double counting   =      3509.64797926    -3055.09765974
  entropy T*S    EENTRO =        -0.00208036
  eigenvalues    EBANDS =      -112.37182734
  atomic energy  EATOM  =      2800.91013741
  Solvation  Ediel_sol  =         0.00000000
  ---------------------------------------------------
  free energy    TOTEN  =       -78.14124493 eV

  energy without entropy =      -78.13916456  energy(sigma->0) =      -78.14020474


--------------------------------------------------------------------------------------------------------




----------------------------------------- Iteration    1(  15)  ---------------------------------------


    POTLOK:  cpu time    0.0200: real time    0.0202
    SETDIJ:  cpu time    0.6840: real time    0.6819
     EDDAV:  cpu time    0.2080: real time    0.2110
       DOS:  cpu time    0.0000: real time    0.0003
    --------------------------------------------
      LOOP:  cpu time    0.9120: real time    0.9168

 eigenvalue-minimisations  :   560
 total energy-change (2. order) : 0.1389949E-06  (-0.4351208E-07)
 number of electron      51.9999875 magnetization       0.4999428
 augmentation part        3.9300980 magnetization       0.0041256

 Free energy of the ion-electron system (eV)
  ---------------------------------------------------
  alpha Z        PSCENC =       120.36916991
  Ewald energy   TEWEN  =     -2025.83024474
  -Hartree energ DENC   =     -1051.53050669
  -exchange      EXHF   =         0.00000000
  -V(xc)+E(xc)   XCENC  =      -264.23480782
  PAW double counting   =      3509.72337390    -3055.17291973
  entropy T*S    EENTRO =        -0.00207369
  eigenvalues    EBANDS =      -112.37337335
  atomic energy  EATOM  =      2800.91013741
  Solvation  Ediel_sol  =         0.00000000
  ---------------------------------------------------
  free energy    TOTEN  =       -78.14124479 eV

  energy without entropy =      -78.13917110  energy(sigma->0) =      -78.14020794


--------------------------------------------------------------------------------------------------------




 average (electrostatic) potential at core
  the test charge radii are     1.0714  0.7215
  (the norm of the test charge is              1.0000)
       1 -34.5925       2 -35.2431       3 -35.1983       4 -35.1983       5 -35.1983
       6 -35.1983       7 -35.2431       8 -34.5925       9 -36.2077      10 -69.8074
      11 -69.8074      12 -69.8074      13 -69.8074      14 -69.9203      15 -71.1364
 
 
 
 E-fermi :   6.4415     XC(G=0): -10.6417     alpha+bet :-12.8923


 spin component 1

 k-point     1 :       0.0000    0.0000    0.0000
  band No.  band energies     occupation 
      1     -14.9727      1.00000
      2     -13.4127      1.00000
      3     -12.7358      1.00000
      4     -12.7016      1.00000
      5     -12.6988      1.00000
      6     -12.4498      1.00000
      7      -1.9854      1.00000
      8      -1.9162      1.00000
      9      -1.5444      1.00000
     10      -0.9610      1.00000
     11      -0.5797      1.00000
     12      -0.1080      1.00000
     13       0.2998      1.00000
     14       1.0085      1.00000
     15       1.2595      1.00000
     16       1.2623      1.00000
     17       1.6832      1.00000
     18       1.8051      1.00000
     19       1.9075      1.00000
     20       2.1943      1.00000
     21       2.5769      1.00000
     22       2.6009      1.00000
     23       2.6575      1.00000
     24       2.6707      1.00000
     25       2.7150      1.00000
     26       4.9737      1.00000
     27       7.8663      0.00000
     28       9.0987      0.00000
     29       9.3937      0.00000
     30       9.5420      0.00000
     31      10.4071      0.00000
     32      10.4585      0.00000
     33      11.2046      0.00000
     34      11.3344      0.00000
     35      11.5293      0.00000
     36      11.5547      0.00000
     37      11.6396      0.00000
     38      11.6803      0.00000
     39      12.0044      0.00000
     40      12.6841      0.00000
     41      15.2862      0.00000
     42      15.3368      0.00000
     43      16.7428      0.00000
     44      17.2731      0.00000

 k-point     2 :       0.5000    0.0000    0.0000
  band No.  band energies     occupation 
      1     -14.9324      1.00000
      2     -13.2242      1.00000
      3     -12.9982      1.00000
      4     -12.7300      1.00000
      5     -12.5856      1.00000
      6     -12.5816      1.00000
      7      -1.7230      1.00000
      8      -1.6370      1.00000
      9      -1.2559      1.00000
     10      -0.8131      1.00000
     11      -0.1377      1.00000
     12       0.1443      1.00000
     13       0.5122      1.00000
     14       0.8713      1.00000
     15       1.0941      1.00000
     16       1.1503      1.00000
     17       1.1777      1.00000
     18       1.2667      1.00000
     19       1.2791      1.00000
     20       1.4457      1.00000
     21       1.9338      1.00000
     22       2.5448      1.00000
     23       2.5666      1.00000
     24       2.6684      1.00000
     25       4.2422      1.00000
     26       6.2727      1.00000
     27       6.3879      0.93526
     28       6.9439      0.00000
     29       8.6426      0.00000
     30       8.7534      0.00000
     31      10.9238      0.00000
     32      11.0296      0.00000
     33      11.4853      0.00000
     34      11.9777      0.00000
     35      12.1891      0.00000
     36      13.4441      0.00000
     37      13.6749      0.00000
     38      13.6862      0.00000
     39      13.9714      0.00000
     40      14.4644      0.00000
     41      14.4699      0.00000
     42      14.5739      0.00000
     43      14.9784      0.00000
     44      15.7747      0.00000

 k-point     3 :       0.5000    0.5000    0.0000
  band No.  band energies     occupation 
      1     -14.9017      1.00000
      2     -13.1946      1.00000
      3     -13.0437      1.00000
      4     -12.7652      1.00000
      5     -12.7625      1.00000
      6     -12.4042      1.00000
      7      -1.3393      1.00000
      8      -1.3284      1.00000
      9      -0.8781      1.00000
     10      -0.7576      1.00000
     11      -0.5797      1.00000
     12      -0.0434      1.00000
     13       0.3157      1.00000
     14       0.3420      1.00000
     15       0.6418      1.00000
     16       1.0564      1.00000
     17       1.1671      1.00000
     18       1.1924      1.00000
     19       1.3664      1.00000
     20       1.4128      1.00000
     21       2.4983      1.00000
     22       2.5216      1.00000
     23       2.5521      1.00000
     24       2.6674      1.00000
     25       4.9883      1.00000
     26       5.9025      1.00000
     27       6.4819      0.12667
     28       6.5394      0.00282
     29       7.8787      0.00000
     30       9.5381      0.00000
     31       9.8742      0.00000
     32      11.4397      0.00000
     33      12.7504      0.00000
     34      12.8583      0.00000
     35      13.0637      0.00000
     36      13.3852      0.00000
     37      13.8413      0.00000
     38      13.8485      0.00000
     39      14.1089      0.00000
     40      14.1662      0.00000
     41      14.2940      0.00000
     42      14.2959      0.00000
     43      14.8248      0.00000
     44      15.1107      0.00000

 k-point     4 :       0.0000    0.0000    0.5000
  band No.  band energies     occupation 
      1     -14.9141      1.00000
      2     -13.3033      1.00000
      3     -12.9420      1.00000
      4     -12.7358      1.00000
      5     -12.5855      1.00000
      6     -12.5845      1.00000
      7      -1.5393      1.00000
      8      -1.1449      1.00000
      9      -0.9007      1.00000
     10      -0.6295      1.00000
     11      -0.3199      1.00000
     12      -0.1411      1.00000
     13      -0.0728      1.00000
     14       0.3637      1.00000
     15       0.6452      1.00000
     16       0.9663      1.00000
     17       1.2382      1.00000
     18       1.3733      1.00000
     19       1.5477      1.00000
     20       1.6436      1.00000
     21       2.2140      1.00000
     22       2.4465      1.00000
     23       2.5705      1.00000
     24       2.5941      1.00000
     25       3.9483      1.00000
     26       4.6225      1.00000
     27       7.9859      0.00000
     28       8.7480      0.00000
     29       9.6542      0.00000
     30       9.6580      0.00000
     31      10.0173      0.00000
     32      10.5367      0.00000
     33      11.2423      0.00000
     34      11.6204      0.00000
     35      12.1690      0.00000
     36      12.3064      0.00000
     37      12.4641      0.00000
     38      13.4313      0.00000
     39      14.0422      0.00000
     40      14.1783      0.00000
     41      14.5827      0.00000
     42      14.7071      0.00000
     43      15.5693      0.00000
     44      15.9404      0.00000

 k-point     5 :       0.5000    0.0000    0.5000
  band No.  band energies     occupation 
      1     -14.9106      1.00000
      2     -13.2398      1.00000
      3     -12.7834      1.00000
      4     -12.7659      1.00000
      5     -12.7618      1.00000
      6     -12.6287      1.00000
      7      -1.4714      1.00000
      8      -1.2370      1.00000
      9      -0.9267      1.00000
     10      -0.9140      1.00000
     11      -0.0185      1.00000
     12       0.0877      1.00000
     13       0.7172      1.00000
     14       0.9088      1.00000
     15       1.0022      1.00000
     16       1.0098      1.00000
     17       1.0440      1.00000
     18       1.1566      1.00000
     19       1.2261      1.00000
     20       1.3892      1.00000
     21       1.6497      1.00000
     22       1.6687      1.00000
     23       2.3701      1.00000
     24       2.4577      1.00000
     25       4.5423      1.00000
     26       4.9931      1.00000
     27       7.4025      0.00000
     28       8.2375      0.00000
     29       8.7621      0.00000
     30       9.8181      0.00000
     31       9.9961      0.00000
     32      10.7661      0.00000
     33      12.2615      0.00000
     34      12.4034      0.00000
     35      12.7799      0.00000
     36      12.9327      0.00000
     37      13.0401      0.00000
     38      13.4229      0.00000
     39      14.0357      0.00000
     40      14.0925      0.00000
     41      14.1892      0.00000
     42      14.9097      0.00000
     43      15.0338      0.00000
     44      15.4012      0.00000

 spin component 2

 k-point     1 :       0.0000    0.0000    0.0000
  band No.  band energies     occupation 
      1     -14.9553      1.00000
      2     -13.3978      1.00000
      3     -12.7233      1.00000
      4     -12.6911      1.00000
      5     -12.6903      1.00000
      6     -12.4410      1.00000
      7      -1.9780      1.00000
      8      -1.9028      1.00000
      9      -1.5029      1.00000
     10      -0.9309      1.00000
     11      -0.5071      1.00000
     12      -0.0673      1.00000
     13       0.3108      1.00000
     14       1.0196      1.00000
     15       1.2787      1.00000
     16       1.2837      1.00000
     17       1.8126      1.00000
     18       1.9017      1.00000
     19       1.9194      1.00000
     20       2.2051      1.00000
     21       2.5836      1.00000
     22       2.6135      1.00000
     23       2.6764      1.00000
     24       2.6837      1.00000
     25       2.7292      1.00000
     26       5.3558      1.00000
     27       7.8811      0.00000
     28       9.1110      0.00000
     29       9.6752      0.00000
     30       9.7850      0.00000
     31      10.4775      0.00000
     32      10.5687      0.00000
     33      11.3690      0.00000
     34      11.6213      0.00000
     35      11.6339      0.00000
     36      11.7273      0.00000
     37      11.7309      0.00000
     38      11.7321      0.00000
     39      12.2459      0.00000
     40      12.7246      0.00000
     41      15.2950      0.00000
     42      15.3581      0.00000
     43      16.9573      0.00000
     44      17.4534      0.00000

 k-point     2 :       0.5000    0.0000    0.0000
  band No.  band energies     occupation 
      1     -14.9150      1.00000
      2     -13.2096      1.00000
      3     -12.9869      1.00000
      4     -12.7181      1.00000
      5     -12.5770      1.00000
      6     -12.5730      1.00000
      7      -1.6814      1.00000
      8      -1.6299      1.00000
      9      -1.1813      1.00000
     10      -0.7690      1.00000
     11      -0.0949      1.00000
     12       0.1851      1.00000
     13       0.5543      1.00000
     14       0.8864      1.00000
     15       1.1049      1.00000
     16       1.1835      1.00000
     17       1.1883      1.00000
     18       1.2760      1.00000
     19       1.2990      1.00000
     20       1.4515      1.00000
     21       1.9456      1.00000
     22       2.5599      1.00000
     23       2.5800      1.00000
     24       2.6822      1.00000
     25       4.3589      1.00000
     26       6.6422      0.00000
     27       6.6628      0.00000
     28       6.9692      0.00000
     29       8.8874      0.00000
     30       8.9943      0.00000
     31      11.0329      0.00000
     32      11.1826      0.00000
     33      11.5806      0.00000
     34      12.0610      0.00000
     35      12.1904      0.00000
     36      13.6502      0.00000
     37      13.7613      0.00000
     38      13.8937      0.00000
     39      14.0312      0.00000
     40      14.5362      0.00000
     41      14.5679      0.00000
     42      14.6148      0.00000
     43      15.0942      0.00000
     44      15.8321      0.00000

 k-point     3 :       0.5000    0.5000    0.0000
  band No.  band energies     occupation 
      1     -14.8841      1.00000
      2     -13.1837      1.00000
      3     -13.0279      1.00000
      4     -12.7542      1.00000
      5     -12.7540      1.00000
      6     -12.3955      1.00000
      7      -1.3212      1.00000
      8      -1.2388      1.00000
      9      -0.8397      1.00000
     10      -0.7487      1.00000
     11      -0.5232      1.00000
     12      -0.0222      1.00000
     13       0.3464      1.00000
     14       0.3503      1.00000
     15       0.7159      1.00000
     16       1.0708      1.00000
     17       1.1885      1.00000
     18       1.1998      1.00000
     19       1.3764      1.00000
     20       1.4232      1.00000
     21       2.5134      1.00000
     22       2.5327      1.00000
     23       2.5607      1.00000
     24       2.6809      1.00000
     25       5.1068      1.00000
     26       5.9394      1.00000
     27       6.7212      0.00000
     28       6.9098      0.00000
     29       8.1376      0.00000
     30       9.7802      0.00000
     31      10.1436      0.00000
     32      11.4783      0.00000
     33      12.7842      0.00000
     34      12.8590      0.00000
     35      13.2164      0.00000
     36      13.4982      0.00000
     37      13.8524      0.00000
     38      14.0923      0.00000
     39      14.2603      0.00000
     40      14.3165      0.00000
     41      14.3281      0.00000
     42      14.3656      0.00000
     43      14.8845      0.00000
     44      15.1872      0.00000

 k-point     4 :       0.0000    0.0000    0.5000
  band No.  band energies     occupation 
      1     -14.8966      1.00000
      2     -13.2890      1.00000
      3     -12.9319      1.00000
      4     -12.7245      1.00000
      5     -12.5758      1.00000
      6     -12.5747      1.00000
      7      -1.5298      1.00000
      8      -1.1080      1.00000
      9      -0.8786      1.00000
     10      -0.6190      1.00000
     11      -0.2586      1.00000
     12      -0.0918      1.00000
     13       0.0021      1.00000
     14       0.4050      1.00000
     15       0.6857      1.00000
     16       0.9846      1.00000
     17       1.2577      1.00000
     18       1.3977      1.00000
     19       1.5639      1.00000
     20       1.6613      1.00000
     21       2.2235      1.00000
     22       2.4593      1.00000
     23       2.5815      1.00000
     24       2.6087      1.00000
     25       4.0783      1.00000
     26       4.8206      1.00000
     27       8.2501      0.00000
     28       9.0272      0.00000
     29       9.7711      0.00000
     30       9.8411      0.00000
     31      10.2303      0.00000
     32      10.6257      0.00000
     33      11.2941      0.00000
     34      11.7177      0.00000
     35      12.4247      0.00000
     36      12.4897      0.00000
     37      12.5511      0.00000
     38      13.4695      0.00000
     39      14.1966      0.00000
     40      14.2469      0.00000
     41      14.6574      0.00000
     42      14.7617      0.00000
     43      15.6469      0.00000
     44      15.9628      0.00000

 k-point     5 :       0.5000    0.0000    0.5000
  band No.  band energies     occupation 
      1     -14.8931      1.00000
      2     -13.2251      1.00000
      3     -12.7730      1.00000
      4     -12.7561      1.00000
      5     -12.7522      1.00000
      6     -12.6180      1.00000
      7      -1.4316      1.00000
      8      -1.2263      1.00000
      9      -0.8932      1.00000
     10      -0.8235      1.00000
     11      -0.0010      1.00000
     12       0.1150      1.00000
     13       0.7542      1.00000
     14       0.9499      1.00000
     15       1.0245      1.00000
     16       1.0326      1.00000
     17       1.0796      1.00000
     18       1.1773      1.00000
     19       1.2417      1.00000
     20       1.4050      1.00000
     21       1.6666      1.00000
     22       1.6821      1.00000
     23       2.3854      1.00000
     24       2.4692      1.00000
     25       4.6491      1.00000
     26       5.1886      1.00000
     27       7.7197      0.00000
     28       8.4751      0.00000
     29       8.9633      0.00000
     30       9.9989      0.00000
     31      10.1599      0.00000
     32      10.9258      0.00000
     33      12.2963      0.00000
     34      12.4694      0.00000
     35      12.9729      0.00000
     36      12.9864      0.00000
     37      13.1039      0.00000
     38      13.5967      0.00000
     39      14.1292      0.00000
     40      14.2596      0.00000
     41      14.2815      0.00000
     42      14.9656      0.00000
     43      15.1210      0.00000
     44      15.4841      0.00000


--------------------------------------------------------------------------------------------------------


 soft charge-density along one line, spin component           1
         0         1         2         3         4         5         6         7         8         9
 total charge-density along one line
 
 soft charge-density along one line, spin component           2
         0         1         2         3         4         5         6         7         8         9
 total charge-density along one line
 
 pseudopotential strength for first ion, spin component:           1
  2.965   9.409   0.000   0.002   0.000   0.000   0.005   0.000
  9.409  29.707   0.000   0.009   0.000   0.000   0.017   0.000
  0.000   0.000   7.316   0.000  -0.000  10.569   0.000  -0.000
  0.002   0.009   0.000   7.320   0.000   0.000  10.576   0.000
  0.000   0.000  -0.000   0.000   7.316  -0.000   0.000  10.569
  0.000   0.000  10.569   0.000  -0.000  14.498   0.000  -0.000
  0.005   0.017   0.000  10.576   0.000   0.000  14.509   0.000
  0.000   0.000  -0.000   0.000  10.569  -0.000   0.000  14.498
 -0.000  -0.000   0.000  -0.001   0.000   0.000  -0.001   0.000
  0.000   0.000   0.005   0.000  -0.001   0.005   0.000  -0.001
  0.002   0.006   0.000   0.007   0.000   0.000   0.008   0.000
  0.000   0.000  -0.001   0.000   0.005  -0.001   0.000   0.005
  0.000   0.000   0.000   0.000  -0.000   0.000   0.000  -0.000
 pseudopotential strength for first ion, spin component:           2
  2.965   9.408   0.000   0.002   0.000   0.000   0.004   0.000
  9.408  29.702   0.000   0.008   0.000   0.000   0.014   0.000
  0.000   0.000   7.315   0.000  -0.000  10.568   0.000  -0.000
  0.002   0.008   0.000   7.319   0.000   0.000  10.574   0.000
  0.000   0.000  -0.000   0.000   7.315  -0.000   0.000  10.568
  0.000   0.000  10.568   0.000  -0.000  14.496   0.000  -0.000
  0.004   0.014   0.000  10.574   0.000   0.000  14.506   0.000
  0.000   0.000  -0.000   0.000  10.568  -0.000   0.000  14.496
 -0.000  -0.000   0.000  -0.001   0.000   0.000  -0.001   0.000
  0.000   0.000   0.004   0.000  -0.001   0.005   0.000  -0.001
  0.002   0.005   0.000   0.007   0.000   0.000   0.007   0.000
  0.000   0.000  -0.001   0.000   0.004  -0.001   0.000   0.005
  0.000   0.000   0.000  -0.000  -0.000   0.000  -0.000  -0.000
 total augmentation occupancy for first ion, spin component:           1
  0.940  -0.042   0.000  -0.023   0.000   0.000   0.005   0.000  -0.001   0.000  -0.015   0.000   0.000
 -0.042   0.002   0.000   0.003   0.000   0.000  -0.000   0.000   0.000   0.000   0.001   0.000   0.000
  0.000   0.000   0.110   0.000   0.000  -0.012   0.000  -0.000   0.000   0.000   0.000  -0.000   0.000
 -0.023   0.003   0.000   0.090   0.000   0.000  -0.009   0.000  -0.001   0.000  -0.020   0.000   0.000
  0.000   0.000   0.000   0.000   0.110  -0.000   0.000  -0.012   0.000  -0.000   0.000   0.000   0.000
  0.000   0.000  -0.012   0.000  -0.000   0.001   0.000   0.000   0.000   0.000   0.000   0.000   0.000
  0.005  -0.000   0.000  -0.009   0.000   0.000   0.001   0.000   0.000   0.000   0.003   0.000   0.000
  0.000   0.000  -0.000   0.000  -0.012   0.000   0.000   0.001   0.000   0.000   0.000   0.000   0.000
 -0.001   0.000   0.000  -0.001   0.000   0.000   0.000   0.000   0.011   0.000  -0.000   0.000   0.000
  0.000   0.000   0.000   0.000  -0.000   0.000   0.000   0.000   0.000   0.010   0.000   0.000   0.000
 -0.015   0.001   0.000  -0.020   0.000   0.000   0.003   0.000  -0.000   0.000   0.035   0.000   0.000
  0.000   0.000  -0.000   0.000   0.000   0.000   0.000   0.000   0.000   0.000   0.000   0.010   0.000
  0.000   0.000   0.000   0.000   0.000   0.000   0.000   0.000   0.000   0.000   0.000   0.000   0.047
 total augmentation occupancy for first ion, spin component:           2
  0.014  -0.000   0.000   0.008   0.000   0.000  -0.000   0.000  -0.001   0.000   0.005   0.000   0.000
 -0.000   0.000   0.000  -0.000   0.000   0.000   0.000   0.000   0.000   0.000  -0.000   0.000   0.000
  0.000   0.000   0.001   0.000  -0.001  -0.000   0.000   0.000   0.000   0.000   0.000  -0.000   0.000
  0.008  -0.000   0.000   0.004   0.000   0.000  -0.000   0.000  -0.000   0.000   0.003   0.000   0.000
  0.000   0.000  -0.001   0.000   0.001   0.000   0.000  -0.000   0.000  -0.000   0.000   0.000   0.000
  0.000   0.000  -0.000   0.000   0.000   0.000   0.000  -0.000   0.000  -0.000   0.000   0.000   0.000
 -0.000   0.000   0.000  -0.000   0.000   0.000   0.000   0.000   0.000   0.000  -0.000   0.000   0.000
  0.000   0.000   0.000   0.000  -0.000  -0.000   0.000   0.000   0.000   0.000   0.000  -0.000   0.000
 -0.001   0.000   0.000  -0.000   0.000   0.000   0.000   0.000   0.000   0.000  -0.000   0.000   0.000
  0.000   0.000   0.000   0.000  -0.000  -0.000   0.000   0.000   0.000   0.000   0.000  -0.000   0.000
  0.005  -0.000   0.000   0.003   0.000   0.000  -0.000   0.000  -0.000   0.000   0.001   0.000   0.000
  0.000   0.000  -0.000   0.000   0.000   0.000   0.000  -0.000   0.000  -0.000   0.000   0.000   0.000
  0.000   0.000   0.000   0.000   0.000   0.000   0.000   0.000   0.000   0.000   0.000   0.000  -0.000


------------------------ aborting loop because EDIFF is reached ----------------------------------------


 


 total charge     
 
# of ion     s       p       d       tot
----------------------------------------
  1        0.138   0.154   0.062   0.355
  2        0.162   0.187   0.078   0.427
  3        0.182   0.190   0.070   0.442
  4        0.178   0.190   0.070   0.438
  5        0.178   0.190   0.070   0.438
  6        0.182   0.190   0.070   0.442
  7        0.162   0.187   0.078   0.427
  8        0.138   0.154   0.062   0.355
  9        0.441   0.145   0.017   0.603
 10        1.577   3.428   0.000   5.006
 11        1.580   3.455   0.000   5.035
 12        1.578   3.532   0.000   5.110
 13        1.579   3.522   0.000   5.101
 14        1.573   3.524   0.000   5.098
 15        1.579   3.675   0.000   5.253
------------------------------------------------
tot       11.228  22.724   0.578  34.529
 


 magnetization (x)
 
# of ion     s       p       d       tot
----------------------------------------
  1        0.002   0.003   0.001   0.006
  2        0.005   0.004   0.001   0.010
  3        0.005   0.004   0.002   0.010
  4        0.005   0.004   0.002   0.011
  5        0.005   0.004   0.002   0.011
  6        0.005   0.004   0.002   0.010
  7        0.005   0.004   0.001   0.010
  8        0.002   0.003   0.001   0.006
  9        0.019   0.027   0.001   0.047
 10        0.000  -0.002   0.000  -0.002
 11        0.000  -0.001   0.000  -0.001
 12        0.007   0.004   0.000   0.010
 13        0.007   0.003   0.000   0.010
 14        0.004   0.003   0.000   0.007
 15        0.001   0.009   0.000   0.011
------------------------------------------------
tot        0.071   0.072   0.015   0.158
 
    CHARGE:  cpu time    0.0200: real time    0.0180
    FORLOC:  cpu time    0.0000: real time    0.0014
    FORNL :  cpu time    0.0880: real time    0.0862
    STRESS:  cpu time    0.2600: real time    0.2602
    FORCOR:  cpu time    0.0240: real time    0.0215
    FORHAR:  cpu time    0.0000: real time    0.0034
    MIXING:  cpu time    0.0040: real time    0.0016
    OFIELD:  cpu time    0.0000: real time    0.0000

  FORCE on cell =-STRESS in cart. coord.  units (eV):
  Direction    XX          YY          ZZ          XY          YZ          ZX
  --------------------------------------------------------------------------------------
  Alpha Z   120.36917   120.36917   120.36917
  Ewald    -655.54116  -655.54116  -714.75188   116.95323     0.00000     0.00000
  Hartree   371.08761   371.08761   309.35469    92.17874     0.00000     0.00000
  E(xc)    -230.02144  -230.02144  -229.69658    -0.00554    -0.00068    -0.00068
  Local    -426.16444  -426.16444  -301.15569  -208.42181     0.00491     0.00491
  n-local   -82.18861   -82.74682   -84.05149     0.13927    -0.01757     0.32886
  augment    40.49345    40.49345    40.33842    -0.03039     0.00002     0.00002
  Kinetic   863.69547   866.14373   862.67277    -2.41300     0.69877    -1.28879
  Fock        0.00000     0.00000     0.00000     0.00000     0.00000     0.00000
  -------------------------------------------------------------------------------------
  Total       2.67508     2.67508     3.07941    -1.59934     0.00000     0.00000
  in kB      27.97711    27.97711    32.20585   -16.72656     0.00000     0.00000
  external pressure =       29.39 kB  Pullay stress =        0.00 kB


 VOLUME and BASIS-vectors are now :
 -----------------------------------------------------------------------------
  energy-cutoff  :      400.00
  volume of cell :      153.19
      direct lattice vectors                 reciprocal lattice vectors
     0.000000000  4.246893020  4.246893020    -0.117733128  0.117733128  0.117733128
     4.246893020  0.000000000  4.246893020     0.117733128 -0.117733128  0.117733128
     4.246893020  4.246893020  0.000000000     0.117733128  0.117733128 -0.117733128

  length of vectors
     6.006013706  6.006013706  6.006013706     0.203919760  0.203919760  0.203919760


 FORCES acting on ions
    electron-ion (+dipol)            ewald-force                    non-local-force                 convergence-correction
 -----------------------------------------------------------------------------------------------
   -.322E-04 -.322E-04 -.318E+02   -.209E-11 -.209E-11 0.308E+02   0.278E-16 0.278E-16 0.970E+00   0.163E-07 0.163E-07 -.325E-04
   -.374E-04 -.374E-04 -.301E+02   0.222E-11 0.223E-11 0.288E+02   0.000E+00 0.000E+00 0.128E+01   0.212E-07 0.212E-07 -.127E-03
   0.310E+02 -.322E+02 -.404E-05   -.306E+02 0.318E+02 0.640E-12   -.386E+00 0.452E+00 0.694E-17   0.316E-04 -.136E-03 0.565E-08
   0.322E+02 -.310E+02 0.404E-05   -.318E+02 0.306E+02 0.632E-12   -.452E+00 0.386E+00 0.347E-17   0.136E-03 -.316E-04 -.565E-08
   -.322E+02 0.310E+02 -.404E-05   0.318E+02 -.306E+02 0.644E-12   0.452E+00 -.386E+00 0.347E-17   -.136E-03 0.316E-04 0.565E-08
   -.310E+02 0.322E+02 0.404E-05   0.306E+02 -.318E+02 0.634E-12   0.386E+00 -.452E+00 0.694E-17   -.316E-04 0.136E-03 -.565E-08
   0.374E-04 0.374E-04 0.301E+02   0.220E-11 0.221E-11 -.288E+02   0.000E+00 0.000E+00 -.128E+01   -.212E-07 -.212E-07 0.127E-03
   0.322E-04 0.322E-04 0.318E+02   -.210E-11 -.211E-11 -.308E+02   -.208E-16 -.208E-16 -.970E+00   -.163E-07 -.163E-07 0.325E-04
   -.846E-12 -.748E-12 -.177E-11   0.132E-13 0.121E-13 -.380E-13   0.595E-24 0.595E-24 0.414E-24   -.979E-15 -.195E-14 0.458E-14
   -.101E-10 -.188E-10 -.242E-10   0.137E-12 -.293E-12 -.149E-13   0.000E+00 0.331E-23 0.000E+00   -.146E-13 0.163E-12 0.313E-13
   0.285E-10 -.195E-10 0.156E-10   0.339E-11 0.457E-12 -.303E-11   -.331E-23 0.000E+00 0.310E-24   -.196E-12 0.753E-13 0.405E-13
   -.160E-10 -.832E-11 -.244E-10   -.295E-12 0.133E-12 -.287E-13   -.124E-23 -.827E-24 0.165E-23   0.157E-12 -.211E-13 0.497E-13
   -.220E-10 0.254E-10 0.156E-10   0.474E-12 0.340E-11 -.304E-11   0.165E-23 -.331E-23 0.124E-23   0.824E-13 -.189E-12 0.610E-13
   0.151E-10 0.130E-10 0.438E-10   -.790E-12 -.787E-12 0.109E-10   0.000E+00 0.000E+00 -.165E-23   0.647E-13 0.403E-13 -.153E-12
   0.555E-10 0.555E-10 0.424E-10   -.315E-11 -.319E-11 0.135E-10   0.414E-24 0.000E+00 -.724E-24   -.425E-13 -.604E-13 -.640E-13
 -----------------------------------------------------------------------------------------------
   0.569E-10 0.527E-10 0.836E-10   -.417E-14 0.325E-14 -.838E-14   -.208E-16 0.347E-16 -.444E-15   0.476E-13 0.508E-14 -.400E-13
 
 
 POSITION                                       TOTAL-FORCE (eV/Angst)
 -----------------------------------------------------------------------------------
      4.24689      4.24689      8.47146         0.000000      0.000000      0.049970
      6.37034      6.37034      8.30335         0.000000      0.000000      0.004672
      6.41409      8.30323      6.37034        -0.010337      0.004689      0.000000
      4.43745      6.32659      6.37034        -0.004689      0.010337      0.000000
      8.30323      6.41409      6.37034         0.004689     -0.010337      0.000000
      6.32659      4.43745      6.37034         0.010337     -0.004689      0.000000
      6.37034      6.37034      4.43733         0.000000      0.000000     -0.004672
      4.24689      4.24689      4.26921         0.000000      0.000000     -0.049970
      2.12345      2.12345      2.12345         0.000000      0.000000      0.000000
      4.24689      2.12345      4.24689         0.000000      0.000000      0.000000
      6.37034      4.24689      4.24689         0.000000      0.000000      0.000000
      2.12345      4.24689      4.24689         0.000000     -0.000000      0.000000
      4.24689      6.37034      4.24689         0.000000     -0.000000      0.000000
      4.24689      4.24689      6.37034         0.000000      0.000000      0.000000
      6.37034      6.37034      6.37034         0.000000     -0.000000      0.000000
 -----------------------------------------------------------------------------------
    total drift:                                0.000000      0.000000      0.000000


--------------------------------------------------------------------------------------------------------



  FREE ENERGIE OF THE ION-ELECTRON SYSTEM (eV)
  ---------------------------------------------------
  free  energy   TOTEN  =       -78.14124479 eV

  energy  without entropy=      -78.13917110  energy(sigma->0) =      -78.14020794
 


--------------------------------------------------------------------------------------------------------


    POTLOK:  cpu time    0.6960: real time    0.6984


--------------------------------------------------------------------------------------------------------




--------------------------------------------------------------------------------------------------------


  
 reached required accuracy - stopping structural energy minimisation
     LOOP+:  cpu time   14.2600: real time   14.3361
    4ORBIT:  cpu time    0.0000: real time    0.0000
 


 total charge     
 
# of ion     s       p       d       tot
----------------------------------------
  1        0.138   0.154   0.062   0.355
  2        0.162   0.187   0.078   0.427
  3        0.182   0.190   0.070   0.442
  4        0.178   0.190   0.070   0.438
  5        0.178   0.190   0.070   0.438
  6        0.182   0.190   0.070   0.442
  7        0.162   0.187   0.078   0.427
  8        0.138   0.154   0.062   0.355
  9        0.441   0.145   0.017   0.603
 10        1.577   3.428   0.000   5.006
 11        1.580   3.455   0.000   5.035
 12        1.578   3.532   0.000   5.110
 13        1.579   3.522   0.000   5.101
 14        1.573   3.524   0.000   5.098
 15        1.579   3.675   0.000   5.253
------------------------------------------------
tot       11.228  22.724   0.578  34.529
 


 magnetization (x)
 
# of ion     s       p       d       tot
----------------------------------------
  1        0.002   0.003   0.001   0.006
  2        0.005   0.004   0.001   0.010
  3        0.005   0.004   0.002   0.010
  4        0.005   0.004   0.002   0.011
  5        0.005   0.004   0.002   0.011
  6        0.005   0.004   0.002   0.010
  7        0.005   0.004   0.001   0.010
  8        0.002   0.003   0.001   0.006
  9        0.019   0.027   0.001   0.047
 10        0.000  -0.002   0.000  -0.002
 11        0.000  -0.001   0.000  -0.001
 12        0.007   0.004   0.000   0.010
 13        0.007   0.003   0.000   0.010
 14        0.004   0.003   0.000   0.007
 15        0.001   0.009   0.000   0.011
------------------------------------------------
tot        0.071   0.072   0.015   0.158
 

 total amount of memory used by VASP on root node    35085. kBytes
========================================================================

   base      :      30000. kBytes
   nonlr-proj:       1211. kBytes
   fftplans  :        707. kBytes
   grid      :       1766. kBytes
   one-center:         64. kBytes
   wavefun   :       1337. kBytes
 
  
  
 General timing and accounting informations for this job:
 ========================================================
  
                  Total CPU time used (sec):       15.236
                            User time (sec):       15.052
                          System time (sec):        0.184
                         Elapsed time (sec):       15.514
  
                   Maximum memory used (kb):       62576.
                   Average memory used (kb):           0.
  
                          Minor page faults:        13064
                          Major page faults:            7
                 Voluntary context switches:         1387
