 vasp.5.4.1 05Feb16 (build Mar 31 2016 13:39:20) complex                        
  
 executed on           IFC91_ompi date 2018.04.12  14:18:49
 running on   36 total cores
 distrk:  each k-point on   36 cores,    1 groups
 distr:  one band on NCORES_PER_BAND=   9 cores,    4 groups


--------------------------------------------------------------------------------------------------------


 INCAR:
 POTCAR:    PAW_PBE Mg 13Apr2007                  
 POTCAR:    PAW_PBE O 08Apr2002                   
 POTCAR:    PAW_PBE Mg 13Apr2007                  
   VRHFIN =Mg: s2p0                                                             
   LEXCH  = PE                                                                  
   EATOM  =    23.0369 eV,    1.6932 Ry                                         
                                                                                
   TITEL  = PAW_PBE Mg 13Apr2007                                                
   LULTRA =        F    use ultrasoft PP ?                                      
   IUNSCR =        1    unscreen: 0-lin 1-nonlin 2-no                           
   RPACOR =    1.500    partial core radius                                     
   POMASS =   24.305; ZVAL   =    2.000    mass and valenz                      
   RCORE  =    2.000    outmost cutoff radius                                   
   RWIGS  =    2.880; RWIGS  =    1.524    wigner-seitz radius (au A)           
   ENMAX  =  126.143; ENMIN  =   94.607 eV                                      
   RCLOC  =    1.506    cutoff for local pot                                    
   LCOR   =        T    correct aug charges                                     
   LPAW   =        T    paw PP                                                  
   EAUG   =  454.734                                                            
   DEXC   =    0.000                                                            
   RMAX   =    2.045    core radius for proj-oper                               
   RAUG   =    1.300    factor for augmentation sphere                          
   RDEP   =    2.025    radius for radial grids                                 
   RDEPT  =    1.942    core radius for aug-charge                              
                                                                                
   Atomic configuration                                                         
    6 entries                                                                   
     n  l   j            E        occ.                                          
     1  0  0.50     -1259.6230   2.0000                                         
     2  0  0.50       -79.8442   2.0000                                         
     2  1  1.50       -46.6121   6.0000                                         
     3  0  0.50        -4.7055   2.0000                                         
     3  1  0.50        -1.3660   0.0000                                         
     3  2  1.50        -1.3606   0.0000                                         
   Description                                                                  
     l       E           TYP  RCUT    TYP  RCUT                                 
     0     -4.7054661     23  2.000                                             
     0     27.2116520     23  2.000                                             
     1      1.3605826     23  2.000                                             
     1     27.2116520     23  2.000                                             
     2     -1.3605826     23  2.000                                             
  local pseudopotential read in
  partial core-charges read in
  partial kinetic energy density read in
  atomic valenz-charges read in
  non local Contribution for L=           0  read in
    real space projection operators read in
  non local Contribution for L=           0  read in
    real space projection operators read in
  non local Contribution for L=           1  read in
    real space projection operators read in
  non local Contribution for L=           1  read in
    real space projection operators read in
  non local Contribution for L=           2  read in
    real space projection operators read in
    PAW grid and wavefunctions read in
 
   number of l-projection  operators is LMAX  =           5
   number of lm-projection operators is LMMAX =          13
 
 POTCAR:    PAW_PBE O 08Apr2002                   
   VRHFIN =O: s2p4                                                              
   LEXCH  = PE                                                                  
   EATOM  =   432.3788 eV,   31.7789 Ry                                         
                                                                                
   TITEL  = PAW_PBE O 08Apr2002                                                 
   LULTRA =        F    use ultrasoft PP ?                                      
   IUNSCR =        1    unscreen: 0-lin 1-nonlin 2-no                           
   RPACOR =    1.200    partial core radius                                     
   POMASS =   16.000; ZVAL   =    6.000    mass and valenz                      
   RCORE  =    1.520    outmost cutoff radius                                   
   RWIGS  =    1.550; RWIGS  =    0.820    wigner-seitz radius (au A)           
   ENMAX  =  400.000; ENMIN  =  300.000 eV                                      
   ICORE  =        2    local potential                                         
   LCOR   =        T    correct aug charges                                     
   LPAW   =        T    paw PP                                                  
   EAUG   =  605.392                                                            
   DEXC   =    0.000                                                            
   RMAX   =    1.553    core radius for proj-oper                               
   RAUG   =    1.300    factor for augmentation sphere                          
   RDEP   =    1.550    radius for radial grids                                 
   RDEPT  =    1.329    core radius for aug-charge                              
                                                                                
   Atomic configuration                                                         
    4 entries                                                                   
     n  l   j            E        occ.                                          
     1  0  0.50      -514.6923   2.0000                                         
     2  0  0.50       -23.9615   2.0000                                         
     2  1  0.50        -9.0305   4.0000                                         
     3  2  1.50        -9.5241   0.0000                                         
   Description                                                                  
     l       E           TYP  RCUT    TYP  RCUT                                 
     0    -23.9615318     23  1.200                                             
     0     -9.5240782     23  1.200                                             
     1     -9.0304911     23  1.520                                             
     1      8.1634956     23  1.520                                             
     2     -9.5240782      7  1.500                                             
  local pseudopotential read in
  partial core-charges read in
  partial kinetic energy density read in
  kinetic energy density of atom read in
  atomic valenz-charges read in
  non local Contribution for L=           0  read in
    real space projection operators read in
  non local Contribution for L=           0  read in
    real space projection operators read in
  non local Contribution for L=           1  read in
    real space projection operators read in
  non local Contribution for L=           1  read in
    real space projection operators read in
    PAW grid and wavefunctions read in
 
   number of l-projection  operators is LMAX  =           4
   number of lm-projection operators is LMMAX =           8
 
 Optimization of the real space projectors (new method)

 maximal supplied QI-value         = 18.90
 optimisation between [QCUT,QGAM] = [ 10.20, 20.41] = [ 29.16,116.64] Ry 
 Optimized for a Real-space Cutoff    1.30 Angstroem

   l    n(q)    QCUT    max X(q) W(low)/X(q) W(high)/X(q)  e(spline) 
   0      8    10.205    28.265    0.22E-03    0.17E-03    0.53E-07
   0      8    10.205    10.429    0.17E-03    0.15E-03    0.43E-07
   1      7    10.205    13.073    0.71E-04    0.41E-03    0.76E-07
   1      7    10.205     9.625    0.71E-04    0.33E-03    0.63E-07
   2      7    10.205     4.652    0.24E-03    0.41E-03    0.55E-07
 Optimization of the real space projectors (new method)

 maximal supplied QI-value         = 24.76
 optimisation between [QCUT,QGAM] = [ 10.15, 20.30] = [ 28.85,115.39] Ry 
 Optimized for a Real-space Cutoff    1.38 Angstroem

   l    n(q)    QCUT    max X(q) W(low)/X(q) W(high)/X(q)  e(spline) 
   0      8    10.150    20.381    0.22E-03    0.32E-03    0.29E-06
   0      8    10.150    15.268    0.23E-03    0.35E-03    0.30E-06
   1      8    10.150     5.964    0.46E-03    0.53E-03    0.21E-06
   1      8    10.150     5.382    0.38E-03    0.45E-03    0.19E-06
  PAW_PBE Mg 13Apr2007                  :
 energy of atom  1       EATOM=  -23.0369
 kinetic energy error for atom=    0.0001 (will be added to EATOM!!)
  PAW_PBE O 08Apr2002                   :
 energy of atom  2       EATOM= -432.3788
 kinetic energy error for atom=    0.1156 (will be added to EATOM!!)
 
 
 POSCAR: Mg O                                    
  positions in direct lattice
  velocities in cartesian coordinates
 exchange correlation table for  LEXCH =        8
   RHO(1)=    0.500       N(1)  =     2000
   RHO(2)=  100.500       N(2)  =     4000
 


--------------------------------------------------------------------------------------------------------


 ion  position               nearest neighbor table
   1  0.998  0.998  0.002-  14 2.11  12 2.12  10 2.12  13 2.12  11 2.12   6 2.98   3 2.98   5 2.98
                             4 2.98   2 3.01   2 3.01   7 3.01   7 3.01   6 3.04   5 3.04   3 3.04
   2  0.977  0.977  0.523-  15 1.93  13 2.13  11 2.13  10 2.13  12 2.13   9 2.32   5 2.73   6 2.73
                             3 2.73   4 2.73   1 3.01   1 3.01   8 3.01   8 3.01   5 3.28   4 3.28
   3  0.974  0.526  0.981-  15 1.93  14 2.11  11 2.13  12 2.13   9 2.32   5 2.70   7 2.73   2 2.73
                             4 2.77   1 2.98   8 2.98   8 3.04   1 3.04   4 3.24   2 3.28   7 3.28
   4  0.974  0.526  0.519-  15 1.93  14 2.11  10 2.13  13 2.13   9 2.32   6 2.70   7 2.73   2 2.73
                             3 2.77   8 2.98   1 2.98   8 3.04   1 3.04   3 3.24   7 3.28   2 3.28
   5  0.526  0.974  0.981-  15 1.93  14 2.11  13 2.13  10 2.13   9 2.32   3 2.70   7 2.73   2 2.73
                             6 2.77   1 2.98   8 2.98   8 3.04   1 3.04   6 3.24   2 3.28   7 3.28
   6  0.526  0.974  0.519-  15 1.93  14 2.11  12 2.13  11 2.13   9 2.32   4 2.70   7 2.73   2 2.73
                             5 2.77   8 2.98   1 2.98   8 3.04   1 3.04   5 3.24   7 3.28   2 3.28
   7  0.523  0.523  0.977-  15 1.93  12 2.13  10 2.13  13 2.13  11 2.13   9 2.32   5 2.73   6 2.73
                             3 2.73   4 2.73   8 3.01   8 3.01   1 3.01   1 3.01   5 3.28   4 3.28
   8  0.502  0.502  0.498-  14 2.11  13 2.12  11 2.12  10 2.12  12 2.12   6 2.98   4 2.98   3 2.98
                             5 2.98   7 3.01   7 3.01   2 3.01   2 3.01   6 3.04   5 3.04   3 3.04
   9  0.250  0.250  0.250-   3 2.32   4 2.32   5 2.32   6 2.32   2 2.32   7 2.32
  10  0.250  0.750  0.250-   1 2.12   8 2.12   5 2.13   4 2.13   7 2.13   2 2.13
  11  0.250  0.750  0.750-   8 2.12   1 2.12   3 2.13   6 2.13   2 2.13   7 2.13
  12  0.750  0.250  0.250-   1 2.12   8 2.12   6 2.13   3 2.13   7 2.13   2 2.13
  13  0.750  0.250  0.750-   8 2.12   1 2.12   5 2.13   4 2.13   2 2.13   7 2.13
  14  0.750  0.750  0.250-   3 2.11   5 2.11   4 2.11   6 2.11   8 2.11   1 2.11
  15  0.750  0.750  0.750-   7 1.93   2 1.93   6 1.93   4 1.93   3 1.93   5 1.93
 
  LATTYP: Found a face centered cubic cell.
 ALAT       =     8.4937860393
  
  Lattice vectors:
  
 A1 = (   0.0000000000,   4.2468930196,   4.2468930196)
 A2 = (   4.2468930196,   0.0000000000,   4.2468930196)
 A3 = (   4.2468930196,   4.2468930196,   0.0000000000)


Analysis of symmetry for initial positions (statically):
=====================================================================
 Subroutine PRICEL returns:
 Original cell was already a primitive cell.
 

 Routine SETGRP: Setting up the symmetry group for a 
 face centered cubic supercell.


 Subroutine GETGRP returns: Found  8 space group operations
 (whereof  4 operations were pure point group operations)
 out of a pool of 48 trial point group operations.


The static configuration has the point symmetry C_2v.
 The point group associated with its full space group is D_2h.


Analysis of symmetry for dynamics (positions and initial velocities):
=====================================================================
 Subroutine PRICEL returns:
 Original cell was already a primitive cell.
 

 Routine SETGRP: Setting up the symmetry group for a 
 face centered cubic supercell.


 Subroutine GETGRP returns: Found  8 space group operations
 (whereof  4 operations were pure point group operations)
 out of a pool of 48 trial point group operations.


The dynamic configuration has the point symmetry C_2v.
 The point group associated with its full space group is D_2h.


Analysis of structural, dynamic, and magnetic symmetry:
=====================================================================
 Subroutine PRICEL returns:
 Original cell was already a primitive cell.
 

 Routine SETGRP: Setting up the symmetry group for a 
 face centered cubic supercell.


 Subroutine GETGRP returns: Found  8 space group operations
 (whereof  4 operations were pure point group operations)
 out of a pool of 48 trial point group operations.


The magnetic configuration has the point symmetry C_2v.
 The point group associated with its full space group is D_2h.


 Subroutine INISYM returns: Found  8 space group operations
 (whereof  4 operations are pure point group operations),
 and found     1 'primitive' translations

 
 
 KPOINTS: k-point mesh                            

Automatic generation of k-mesh.
Space group operators:
 irot       det(A)        alpha          n_x          n_y          n_z        tau_x        tau_y        tau_z
    1     1.000000     0.000000     1.000000     0.000000     0.000000     0.000000     0.000000     0.000000
    2     1.000000   180.000000     0.000000     0.000000     1.000000     0.000000     0.000000     0.000000
    3    -1.000000   180.000000     0.707107     0.707107     0.000000     0.000000     0.000000     0.000000
    4    -1.000000   180.000000     0.707107    -0.707107     0.000000     0.000000     0.000000     0.000000
    5    -1.000000     0.000000     1.000000     0.000000     0.000000     0.500000     0.500000     0.500000
    6    -1.000000   180.000000     0.000000     0.000000     1.000000     0.500000     0.500000     0.500000
    7     1.000000   180.000000     0.707107     0.707107     0.000000     0.500000     0.500000     0.500000
    8     1.000000   180.000000     0.707107    -0.707107     0.000000     0.500000     0.500000     0.500000
 
 Subroutine IBZKPT returns following result:
 ===========================================
 
 Found      6 irreducible k-points:
 
 Following reciprocal coordinates:
            Coordinates               Weight
  0.250000  0.250000  0.250000     48.000000
  0.250000  0.000000  0.000000     48.000000
 -0.250000  0.250000  0.250000     96.000000
  0.250000  0.250000 -0.250000     48.000000
  0.250000  0.000000  0.500000     96.000000
  0.250000  0.500000  0.000000     48.000000
 
 Following cartesian coordinates:
            Coordinates               Weight
  0.029433  0.029433  0.029433     48.000000
 -0.029433  0.029433  0.029433     48.000000
  0.088300 -0.029433 -0.029433     96.000000
 -0.029433 -0.029433  0.088300     48.000000
  0.029433  0.088300 -0.029433     96.000000
  0.029433 -0.029433  0.088300     48.000000
 


--------------------------------------------------------------------------------------------------------




 Dimension of arrays:
   k-points           NKPTS =      6   k-points in BZ     NKDIM =      6   number of bands    NBANDS=     44
   number of dos      NEDOS =    301   number of ions     NIONS =     15
   non local maximal  LDIM  =      5   non local SUM 2l+1 LMDIM =     13
   total plane-waves  NPLWV =  27000
   max r-space proj   IRMAX =   1992   max aug-charges    IRDMAX=   7686
   dimension x,y,z NGX =    30 NGY =   30 NGZ =   30
   dimension x,y,z NGXF=    60 NGYF=   60 NGZF=   60
   support grid    NGXF=    60 NGYF=   60 NGZF=   60
   ions per type =               9   6
 NGX,Y,Z   is equivalent  to a cutoff of   8.30,  8.30,  8.30 a.u.
 NGXF,Y,Z  is equivalent  to a cutoff of  16.61, 16.61, 16.61 a.u.


 I would recommend the setting:
   dimension x,y,z NGX =    29 NGY =   29 NGZ =   29
 SYSTEM =  unknown system                          
 POSCAR =  Mg O                                    

 Startparameter for this run:
   NWRITE =      2    write-flag & timer
   PREC   = n         normal or accurate (medium, high low for compatibility)
   ISTART =      0    job   : 0-new  1-cont  2-samecut
   ICHARG =      2    charge: 1-file 2-atom 10-const
   ISPIN  =      2    spin polarized calculation?
   LNONCOLLINEAR =      F non collinear calculations
   LSORBIT =      F    spin-orbit coupling
   INIWAV =      1    electr: 0-lowe 1-rand  2-diag
   LASPH  =      T    aspherical Exc in radial PAW
   METAGGA=      F    non-selfconsistent MetaGGA calc.

 Electronic Relaxation 1
   ENCUT  =  400.0 eV  29.40 Ry    5.42 a.u.   9.79  9.79  9.79*2*pi/ulx,y,z
   ENINI  =  400.0     initial cutoff
   ENAUG  =  605.4 eV  augmentation charge cutoff
   NELM   =    100;   NELMIN=  4; NELMDL=  0     # of ELM steps 
   EDIFF  = 0.1E-05   stopping-criterion for ELM
   LREAL  =      T    real-space projection
   NLSPLINE    = F    spline interpolate recip. space projectors
   LCOMPAT=      F    compatible to vasp.4.4
   GGA_COMPAT  = T    GGA compatible to vasp.4.4-vasp.4.6
   LMAXPAW     = -100 max onsite density
   LMAXMIX     =    2 max onsite mixed and CHGCAR
   VOSKOWN=      0    Vosko Wilk Nusair interpolation
   ROPT   =   -0.00050  -0.00050
 Ionic relaxation
   EDIFFG = -.5E-01   stopping-criterion for IOM
   NSW    =     20    number of steps for IOM
   NBLOCK =      1;   KBLOCK =     20    inner block; outer block 
   IBRION =      2    ionic relax: 0-MD 1-quasi-New 2-CG
   NFREE  =      1    steps in history (QN), initial steepest desc. (CG)
   ISIF   =      2    stress and relaxation
   IWAVPR =     11    prediction:  0-non 1-charg 2-wave 3-comb
   ISYM   =      2    0-nonsym 1-usesym 2-fastsym
   LCORR  =      T    Harris-Foulkes like correction to forces

   POTIM  = 0.5000    time-step for ionic-motion
   TEIN   =    0.0    initial temperature
   TEBEG  =    0.0;   TEEND  =   0.0 temperature during run
   SMASS  =  -3.00    Nose mass-parameter (am)
   estimated Nose-frequenzy (Omega)   =  0.10E-29 period in steps =****** mass=  -0.824E-27a.u.
   SCALEE = 1.0000    scale energy and forces
   NPACO  =    256;   APACO  = 16.0  distance and # of slots for P.C.
   PSTRESS=    0.0 pullay stress

  Mass of Ions in am
   POMASS =  24.30 16.00
  Ionic Valenz
   ZVAL   =   2.00  6.00
  Atomic Wigner-Seitz radii
   RWIGS  =  -1.00 -1.00
  virtual crystal weights 
   VCA    =   1.00  1.00
   NELECT =      52.0000    total number of electrons
   NUPDOWN=      -1.0000    fix difference up-down

 DOS related values:
   EMIN   =  10.00;   EMAX   =-10.00  energy-range for DOS
   EFERMI =   0.00
   ISMEAR =     0;   SIGMA  =   0.05  broadening in eV -4-tet -1-fermi 0-gaus

 Electronic relaxation 2 (details)
   IALGO  =     38    algorithm
   LDIAG  =      T    sub-space diagonalisation (order eigenvalues)
   LSUBROT=      F    optimize rotation matrix (better conditioning)
   TURBO    =      0    0=normal 1=particle mesh
   IRESTART =      0    0=no restart 2=restart with 2 vectors
   NREBOOT  =      0    no. of reboots
   NMIN     =      0    reboot dimension
   EREF     =   0.00    reference energy to select bands
   IMIX   =      4    mixing-type and parameters
     AMIX     =   0.40;   BMIX     =  1.00
     AMIX_MAG =   1.60;   BMIX_MAG =  1.00
     AMIN     =   0.10
     WC   =   100.;   INIMIX=   1;  MIXPRE=   1;  MAXMIX= -45

 Intra band minimization:
   WEIMIN = 0.0010     energy-eigenvalue tresh-hold
   EBREAK =  0.57E-08  absolut break condition
   DEPER  =   0.30     relativ break condition  

   TIME   =   0.40     timestep for ELM

  volume/ion in A,a.u.               =      10.21        68.92
  Fermi-wavevector in a.u.,A,eV,Ry     =   1.141987  2.158043 17.743835  1.304135
  Thomas-Fermi vector in A             =   2.278686
 
 Write flags
   LWAVE  =      F    write WAVECAR
   LCHARG =      F    write CHGCAR
   LVTOT  =      F    write LOCPOT, total local potential
   LVHAR  =      F    write LOCPOT, Hartree potential only
   LELF   =      F    write electronic localiz. function (ELF)
   LORBIT =     12    0 simple, 1 ext, 2 COOP (PROOUT)


 Dipole corrections
   LMONO  =      F    monopole corrections only (constant potential shift)
   LDIPOL =      F    correct potential (dipole corrections)
   IDIPOL =      0    1-x, 2-y, 3-z, 4-all directions 
   EPSILON=  1.0000000 bulk dielectric constant

 Exchange correlation treatment:
   GGA     =    --    GGA type
   LEXCH   =     8    internal setting for exchange type
   VOSKOWN=      0    Vosko Wilk Nusair interpolation
   LHFCALC =     F    Hartree Fock is set to
   LHFONE  =     F    Hartree Fock one center treatment
   AEXX    =    0.0000 exact exchange contribution

 Linear response parameters
   LEPSILON=     F    determine dielectric tensor
   LRPA    =     F    only Hartree local field effects (RPA)
   LNABLA  =     F    use nabla operator in PAW spheres
   LVEL    =     F    velocity operator in full k-point grid
   LINTERFAST=   F  fast interpolation
   KINTER  =     0    interpolate to denser k-point grid
   CSHIFT  =0.1000    complex shift for real part using Kramers Kronig
   OMEGAMAX=  -1.0    maximum frequency
   DEG_THRESHOLD= 0.2000000E-02 threshold for treating states as degnerate
   RTIME   =    0.100 relaxation time in fs

 Orbital magnetization related:
   ORBITALMAG=     F  switch on orbital magnetization
   LCHIMAG   =     F  perturbation theory with respect to B field
   DQ        =  0.001000  dq finite difference perturbation B field



--------------------------------------------------------------------------------------------------------


 conjugate gradient relaxation of ions
 charge density and potential will be updated during run
 spin polarized calculation
 Variant of blocked Davidson
 Davidson routine will perform the subspace rotation
 perform sub-space diagonalisation
    after iterative eigenvector-optimisation
 modified Broyden-mixing scheme, WC =      100.0
 initial mixing is a Kerker type mixing with AMIX =  0.4000 and BMIX =      1.0000
 Hartree-type preconditioning will be used
 using additional bands           18
 real space projection scheme for non local part
 use partial core corrections
 calculate Harris-corrections to forces 
   (improved forces if not selfconsistent)
 use gradient corrections 
 use of overlap-Matrix (Vanderbilt PP)
 Gauss-broadening in eV      SIGMA  =   0.05


--------------------------------------------------------------------------------------------------------


  energy-cutoff  :      400.00
  volume of cell :      153.19
      direct lattice vectors                 reciprocal lattice vectors
     0.000000000  4.246893020  4.246893020    -0.117733128  0.117733128  0.117733128
     4.246893020  0.000000000  4.246893020     0.117733128 -0.117733128  0.117733128
     4.246893020  4.246893020  0.000000000     0.117733128  0.117733128 -0.117733128

  length of vectors
     6.006013706  6.006013706  6.006013706     0.203919760  0.203919760  0.203919760


 
 k-points in units of 2pi/SCALE and weight: k-point mesh                            
   0.02943328  0.02943328  0.02943328       0.125
  -0.02943328  0.02943328  0.02943328       0.125
   0.08829985 -0.02943328 -0.02943328       0.250
  -0.02943328 -0.02943328  0.08829985       0.125
   0.02943328  0.08829985 -0.02943328       0.250
   0.02943328 -0.02943328  0.08829985       0.125
 
 k-points in reciprocal lattice and weights: k-point mesh                            
   0.25000000  0.25000000  0.25000000       0.125
   0.25000000  0.00000000  0.00000000       0.125
  -0.25000000  0.25000000  0.25000000       0.250
   0.25000000  0.25000000 -0.25000000       0.125
   0.25000000  0.00000000  0.50000000       0.250
   0.25000000  0.50000000  0.00000000       0.125
 
 position of ions in fractional coordinates (direct lattice) 
   0.99849222  0.99849222  0.00150778
   0.97700712  0.97700712  0.52299288
   0.97439408  0.52560592  0.98053312
   0.97439408  0.52560592  0.51946688
   0.52560592  0.97439408  0.98053312
   0.52560592  0.97439408  0.51946688
   0.52299288  0.52299288  0.97700712
   0.50150778  0.50150778  0.49849222
   0.25000000  0.25000000  0.25000000
   0.25000000  0.75000000  0.25000000
   0.25000000  0.75000000  0.75000000
   0.75000000  0.25000000  0.25000000
   0.75000000  0.25000000  0.75000000
   0.75000000  0.75000000  0.25000000
   0.75000000  0.75000000  0.75000000
 
 position of ions in cartesian coordinates  (Angst):
   4.24689302  4.24689302  8.48097926
   6.37033953  6.37033953  8.29848943
   6.39641139  8.30236671  6.37033953
   4.43831235  6.34426767  6.37033953
   8.30236671  6.39641139  6.37033953
   6.34426767  4.43831235  6.37033953
   6.37033953  6.37033953  4.44218962
   4.24689302  4.24689302  4.25969980
   2.12344651  2.12344651  2.12344651
   4.24689302  2.12344651  4.24689302
   6.37033953  4.24689302  4.24689302
   2.12344651  4.24689302  4.24689302
   4.24689302  6.37033953  4.24689302
   4.24689302  4.24689302  6.37033953
   6.37033953  6.37033953  6.37033953
 


--------------------------------------------------------------------------------------------------------


 k-point  1 :   0.2500 0.2500 0.2500  plane waves:    2782
 k-point  2 :   0.2500 0.0000 0.0000  plane waves:    2782
 k-point  3 :  -0.2500 0.2500 0.2500  plane waves:    2788
 k-point  4 :   0.2500 0.2500-0.2500  plane waves:    2788
 k-point  5 :   0.2500 0.0000 0.5000  plane waves:    2788
 k-point  6 :   0.2500 0.5000 0.0000  plane waves:    2788

 maximum and minimum number of plane-waves per node :       320      294

 maximum number of plane-waves:      2788
 maximum index in each direction: 
   IXMAX=   10   IYMAX=    9   IZMAX=   10
   IXMIN=  -10   IYMIN=  -10   IZMIN=  -10

 WARNING: aliasing errors must be expected set NGX to  42 to avoid them
 WARNING: aliasing errors must be expected set NGY to  40 to avoid them
 WARNING: aliasing errors must be expected set NGZ to  42 to avoid them
 aliasing errors are usually negligible using standard VASP settings
 and one can safely disregard these warnings

 real space projection operators:
  total allocation   :       2155.70 KBytes
  max/ min on nodes  :        304.90        199.37


 parallel 3D FFT for wavefunctions:
    minimum data exchange during FFTs selected (reduces bandwidth)
 parallel 3D FFT for charge:
    minimum data exchange during FFTs selected (reduces bandwidth)


 total amount of memory used by VASP on root node    32851. kBytes
========================================================================

   base      :      30000. kBytes
   nonlr-proj:        875. kBytes
   fftplans  :        352. kBytes
   grid      :        883. kBytes
   one-center:         32. kBytes
   wavefun   :        709. kBytes
 
     INWAV:  cpu time    0.0000: real time    0.0002
 Broyden mixing: mesh for mixing (old mesh)
   NGX = 19   NGY = 19   NGZ = 19
  (NGX  = 60   NGY  = 60   NGZ  = 60)
  gives a total of   6859 points

 initial charge density was supplied:
 charge density of overlapping atoms calculated
 number of electron      54.0000000 magnetization      15.0000000
 keeping initial charge density in first step


--------------------------------------------------------------------------------------------------------


 Maximum index for non-local projection operator          284
 Maximum index for augmentation-charges          421 (set IRDMAX)


--------------------------------------------------------------------------------------------------------


 First call to EWALD:  gamma=   0.331
 Maximum number of real-space cells 3x 3x 3
 Maximum number of reciprocal cells 3x 3x 3

 FEWALD executed in parallel
    FEWALD:  cpu time    0.0000: real time    0.0013


----------------------------------------- Iteration    1(   1)  ---------------------------------------


    POTLOK:  cpu time    0.0080: real time    0.0102
    SETDIJ:  cpu time    0.3560: real time    0.3569
     EDDAV:  cpu time    0.2800: real time    0.2935
       DOS:  cpu time    0.0000: real time    0.0013
    --------------------------------------------
      LOOP:  cpu time    0.6480: real time    0.6643

 eigenvalue-minimisations  :  1088
 total energy-change (2. order) : 0.2008488E+03  (-0.2093811E+04)
 number of electron      54.0000000 magnetization      15.0000000
 augmentation part       54.0000000 magnetization      15.0000000

 Free energy of the ion-electron system (eV)
  ---------------------------------------------------
  alpha Z        PSCENC =       120.36916991
  Ewald energy   TEWEN  =     -2028.16625693
  -Hartree energ DENC   =      -924.04344399
  -exchange      EXHF   =         0.00000000
  -V(xc)+E(xc)   XCENC  =      -264.88710142
  PAW double counting   =      2665.04529735    -2209.04454820
  entropy T*S    EENTRO =        -0.00119236
  eigenvalues    EBANDS =        40.66669173
  atomic energy  EATOM  =      2800.91013741
  Solvation  Ediel_sol  =         0.00000000
  ---------------------------------------------------
  free energy    TOTEN  =       200.84875350 eV

  energy without entropy =      200.84994586  energy(sigma->0) =      200.84934968


--------------------------------------------------------------------------------------------------------




----------------------------------------- Iteration    1(   2)  ---------------------------------------


     EDDAV:  cpu time    0.2480: real time    0.2510
       DOS:  cpu time    0.0000: real time    0.0004
    --------------------------------------------
      LOOP:  cpu time    0.2480: real time    0.2569

 eigenvalue-minimisations  :  1288
 total energy-change (2. order) :-0.2644991E+03  (-0.2541591E+03)
 number of electron      54.0000000 magnetization      15.0000000
 augmentation part       54.0000000 magnetization      15.0000000

 Free energy of the ion-electron system (eV)
  ---------------------------------------------------
  alpha Z        PSCENC =       120.36916991
  Ewald energy   TEWEN  =     -2028.16625693
  -Hartree energ DENC   =      -924.04344399
  -exchange      EXHF   =         0.00000000
  -V(xc)+E(xc)   XCENC  =      -264.88710142
  PAW double counting   =      2665.04529735    -2209.04454820
  entropy T*S    EENTRO =        -0.00305134
  eigenvalues    EBANDS =      -223.83059430
  atomic energy  EATOM  =      2800.91013741
  Solvation  Ediel_sol  =         0.00000000
  ---------------------------------------------------
  free energy    TOTEN  =       -63.65039152 eV

  energy without entropy =      -63.64734017  energy(sigma->0) =      -63.64886584


--------------------------------------------------------------------------------------------------------




----------------------------------------- Iteration    1(   3)  ---------------------------------------


     EDDAV:  cpu time    0.2400: real time    0.2386
       DOS:  cpu time    0.0000: real time    0.0003
    --------------------------------------------
      LOOP:  cpu time    0.2400: real time    0.2433

 eigenvalue-minimisations  :  1248
 total energy-change (2. order) :-0.1793542E+02  (-0.1780794E+02)
 number of electron      54.0000000 magnetization      15.0000000
 augmentation part       54.0000000 magnetization      15.0000000

 Free energy of the ion-electron system (eV)
  ---------------------------------------------------
  alpha Z        PSCENC =       120.36916991
  Ewald energy   TEWEN  =     -2028.16625693
  -Hartree energ DENC   =      -924.04344399
  -exchange      EXHF   =         0.00000000
  -V(xc)+E(xc)   XCENC  =      -264.88710142
  PAW double counting   =      2665.04529735    -2209.04454820
  entropy T*S    EENTRO =        -0.00019175
  eigenvalues    EBANDS =      -241.76887838
  atomic energy  EATOM  =      2800.91013741
  Solvation  Ediel_sol  =         0.00000000
  ---------------------------------------------------
  free energy    TOTEN  =       -81.58581600 eV

  energy without entropy =      -81.58562425  energy(sigma->0) =      -81.58572013


--------------------------------------------------------------------------------------------------------




----------------------------------------- Iteration    1(   4)  ---------------------------------------


     EDDAV:  cpu time    0.2320: real time    0.2332
       DOS:  cpu time    0.0000: real time    0.0003
    --------------------------------------------
      LOOP:  cpu time    0.2320: real time    0.2365

 eigenvalue-minimisations  :  1232
 total energy-change (2. order) :-0.1166523E+00  (-0.1165552E+00)
 number of electron      54.0000000 magnetization      15.0000000
 augmentation part       54.0000000 magnetization      15.0000000

 Free energy of the ion-electron system (eV)
  ---------------------------------------------------
  alpha Z        PSCENC =       120.36916991
  Ewald energy   TEWEN  =     -2028.16625693
  -Hartree energ DENC   =      -924.04344399
  -exchange      EXHF   =         0.00000000
  -V(xc)+E(xc)   XCENC  =      -264.88710142
  PAW double counting   =      2665.04529735    -2209.04454820
  entropy T*S    EENTRO =        -0.00019827
  eigenvalues    EBANDS =      -241.88552413
  atomic energy  EATOM  =      2800.91013741
  Solvation  Ediel_sol  =         0.00000000
  ---------------------------------------------------
  free energy    TOTEN  =       -81.70246827 eV

  energy without entropy =      -81.70227000  energy(sigma->0) =      -81.70236914


--------------------------------------------------------------------------------------------------------




----------------------------------------- Iteration    1(   5)  ---------------------------------------


     EDDAV:  cpu time    0.2280: real time    0.2306
       DOS:  cpu time    0.0000: real time    0.0004
    CHARGE:  cpu time    0.0160: real time    0.0136
    MIXING:  cpu time    0.0000: real time    0.0008
    --------------------------------------------
      LOOP:  cpu time    0.2480: real time    0.2478

 eigenvalue-minimisations  :  1216
 total energy-change (2. order) :-0.6299145E-03  (-0.6298716E-03)
 number of electron      51.9999847 magnetization       1.0815608
 augmentation part        4.7482044 magnetization       0.1455313

 Broyden mixing:
  rms(total) = 0.24971E+01    rms(broyden)= 0.24913E+01
  rms(prec ) = 0.42080E+01
  weight for this iteration     100.00

 Free energy of the ion-electron system (eV)
  ---------------------------------------------------
  alpha Z        PSCENC =       120.36916991
  Ewald energy   TEWEN  =     -2028.16625693
  -Hartree energ DENC   =      -924.04344399
  -exchange      EXHF   =         0.00000000
  -V(xc)+E(xc)   XCENC  =      -264.88710142
  PAW double counting   =      2665.04529735    -2209.04454820
  entropy T*S    EENTRO =        -0.00019847
  eigenvalues    EBANDS =      -241.88615384
  atomic energy  EATOM  =      2800.91013741
  Solvation  Ediel_sol  =         0.00000000
  ---------------------------------------------------
  free energy    TOTEN  =       -81.70309818 eV

  energy without entropy =      -81.70289972  energy(sigma->0) =      -81.70299895


--------------------------------------------------------------------------------------------------------




----------------------------------------- Iteration    1(   6)  ---------------------------------------


    POTLOK:  cpu time    0.0080: real time    0.0092
    SETDIJ:  cpu time    0.3680: real time    0.3672
     EDDAV:  cpu time    0.2280: real time    0.2297
       DOS:  cpu time    0.0000: real time    0.0004
    CHARGE:  cpu time    0.0120: real time    0.0128
    MIXING:  cpu time    0.0040: real time    0.0003
    --------------------------------------------
      LOOP:  cpu time    0.6200: real time    0.6224

 eigenvalue-minimisations  :  1196
 total energy-change (2. order) : 0.3385206E+01  (-0.3216300E+01)
 number of electron      51.9999876 magnetization       0.3160501
 augmentation part        3.9035794 magnetization      -0.0212870

 Broyden mixing:
  rms(total) = 0.69592E+00    rms(broyden)= 0.69459E+00
  rms(prec ) = 0.97875E+00
  weight for this iteration     100.00

 eigenvalues of (default mixing * dielectric matrix)
  average eigenvalue GAMMA=   0.8480
  0.8480

 Free energy of the ion-electron system (eV)
  ---------------------------------------------------
  alpha Z        PSCENC =       120.36916991
  Ewald energy   TEWEN  =     -2028.16625693
  -Hartree energ DENC   =     -1044.07693192
  -exchange      EXHF   =         0.00000000
  -V(xc)+E(xc)   XCENC  =      -265.30640938
  PAW double counting   =      3127.41094314    -2673.28810164
  entropy T*S    EENTRO =        -0.00032479
  eigenvalues    EBANDS =      -116.17011770
  atomic energy  EATOM  =      2800.91013741
  Solvation  Ediel_sol  =         0.00000000
  ---------------------------------------------------
  free energy    TOTEN  =       -78.31789190 eV

  energy without entropy =      -78.31756711  energy(sigma->0) =      -78.31772951


--------------------------------------------------------------------------------------------------------




----------------------------------------- Iteration    1(   7)  ---------------------------------------


    POTLOK:  cpu time    0.0080: real time    0.0090
    SETDIJ:  cpu time    0.3760: real time    0.3786
     EDDAV:  cpu time    0.2440: real time    0.2440
       DOS:  cpu time    0.0040: real time    0.0004
    CHARGE:  cpu time    0.0120: real time    0.0127
    MIXING:  cpu time    0.0000: real time    0.0007
    --------------------------------------------
      LOOP:  cpu time    0.6440: real time    0.6480

 eigenvalue-minimisations  :  1200
 total energy-change (2. order) :-0.1312854E+00  (-0.1300103E+00)
 number of electron      51.9999875 magnetization       0.0550644
 augmentation part        3.9238153 magnetization      -0.1201816

 Broyden mixing:
  rms(total) = 0.35967E+00    rms(broyden)= 0.35962E+00
  rms(prec ) = 0.56431E+00
  weight for this iteration     100.00

 eigenvalues of (default mixing * dielectric matrix)
  average eigenvalue GAMMA=   1.0169
  1.0169  1.0169

 Free energy of the ion-electron system (eV)
  ---------------------------------------------------
  alpha Z        PSCENC =       120.36916991
  Ewald energy   TEWEN  =     -2028.16625693
  -Hartree energ DENC   =     -1041.67020537
  -exchange      EXHF   =         0.00000000
  -V(xc)+E(xc)   XCENC  =      -265.38872381
  PAW double counting   =      3268.67794155    -2814.30982174
  entropy T*S    EENTRO =        -0.00330084
  eigenvalues    EBANDS =      -118.86811749
  atomic energy  EATOM  =      2800.91013741
  Solvation  Ediel_sol  =         0.00000000
  ---------------------------------------------------
  free energy    TOTEN  =       -78.44917731 eV

  energy without entropy =      -78.44587646  energy(sigma->0) =      -78.44752688


--------------------------------------------------------------------------------------------------------




----------------------------------------- Iteration    1(   8)  ---------------------------------------


    POTLOK:  cpu time    0.0080: real time    0.0090
    SETDIJ:  cpu time    0.3760: real time    0.3751
     EDDAV:  cpu time    0.2360: real time    0.2360
       DOS:  cpu time    0.0000: real time    0.0004
    CHARGE:  cpu time    0.0120: real time    0.0128
    MIXING:  cpu time    0.0000: real time    0.0003
    --------------------------------------------
      LOOP:  cpu time    0.6320: real time    0.6365

 eigenvalue-minimisations  :  1216
 total energy-change (2. order) : 0.7750774E-01  (-0.2167591E-01)
 number of electron      51.9999875 magnetization      -0.0455308
 augmentation part        3.9477174 magnetization      -0.0584459

 Broyden mixing:
  rms(total) = 0.12240E+00    rms(broyden)= 0.12237E+00
  rms(prec ) = 0.19766E+00
  weight for this iteration     100.00

 eigenvalues of (default mixing * dielectric matrix)
  average eigenvalue GAMMA=   1.2432
  2.0007  0.9196  0.8092

 Free energy of the ion-electron system (eV)
  ---------------------------------------------------
  alpha Z        PSCENC =       120.36916991
  Ewald energy   TEWEN  =     -2028.16625693
  -Hartree energ DENC   =     -1044.87968477
  -exchange      EXHF   =         0.00000000
  -V(xc)+E(xc)   XCENC  =      -264.83037729
  PAW double counting   =      3455.57790722    -3001.03728242
  entropy T*S    EENTRO =        -0.00129542
  eigenvalues    EBANDS =      -116.31398728
  atomic energy  EATOM  =      2800.91013741
  Solvation  Ediel_sol  =         0.00000000
  ---------------------------------------------------
  free energy    TOTEN  =       -78.37166957 eV

  energy without entropy =      -78.37037415  energy(sigma->0) =      -78.37102186


--------------------------------------------------------------------------------------------------------




----------------------------------------- Iteration    1(   9)  ---------------------------------------


    POTLOK:  cpu time    0.0120: real time    0.0090
    SETDIJ:  cpu time    0.3760: real time    0.3776
     EDDAV:  cpu time    0.2560: real time    0.2579
       DOS:  cpu time    0.0000: real time    0.0004
    CHARGE:  cpu time    0.0200: real time    0.0184
    MIXING:  cpu time    0.0000: real time    0.0008
    --------------------------------------------
      LOOP:  cpu time    0.6640: real time    0.6668

 eigenvalue-minimisations  :  1244
 total energy-change (2. order) : 0.3904993E-02  (-0.3650439E-02)
 number of electron      51.9999875 magnetization      -0.0241013
 augmentation part        3.9360668 magnetization      -0.0074754

 Broyden mixing:
  rms(total) = 0.45135E-01    rms(broyden)= 0.45128E-01
  rms(prec ) = 0.57596E-01
  weight for this iteration     100.00

 eigenvalues of (default mixing * dielectric matrix)
  average eigenvalue GAMMA=   1.2501
  2.3869  0.9780  0.9780  0.6574

 Free energy of the ion-electron system (eV)
  ---------------------------------------------------
  alpha Z        PSCENC =       120.36916991
  Ewald energy   TEWEN  =     -2028.16625693
  -Hartree energ DENC   =     -1048.73797230
  -exchange      EXHF   =         0.00000000
  -V(xc)+E(xc)   XCENC  =      -264.40209517
  PAW double counting   =      3522.17258234    -3067.62668997
  entropy T*S    EENTRO =        -0.00181930
  eigenvalues    EBANDS =      -112.88482055
  atomic energy  EATOM  =      2800.91013741
  Solvation  Ediel_sol  =         0.00000000
  ---------------------------------------------------
  free energy    TOTEN  =       -78.36776457 eV

  energy without entropy =      -78.36594528  energy(sigma->0) =      -78.36685493


--------------------------------------------------------------------------------------------------------




----------------------------------------- Iteration    1(  10)  ---------------------------------------


    POTLOK:  cpu time    0.0120: real time    0.0107
    SETDIJ:  cpu time    0.3760: real time    0.3780
     EDDAV:  cpu time    0.2280: real time    0.2288
       DOS:  cpu time    0.0000: real time    0.0004
    CHARGE:  cpu time    0.0160: real time    0.0141
    MIXING:  cpu time    0.0000: real time    0.0003
    --------------------------------------------
      LOOP:  cpu time    0.6320: real time    0.6354

 eigenvalue-minimisations  :  1180
 total energy-change (2. order) :-0.2074952E-03  (-0.4637344E-03)
 number of electron      51.9999875 magnetization      -0.0054822
 augmentation part        3.9318753 magnetization       0.0040061

 Broyden mixing:
  rms(total) = 0.15073E-01    rms(broyden)= 0.15069E-01
  rms(prec ) = 0.24270E-01
  weight for this iteration     100.00

 eigenvalues of (default mixing * dielectric matrix)
  average eigenvalue GAMMA=   1.2153
  2.4925  1.1359  0.9032  0.9032  0.6419

 Free energy of the ion-electron system (eV)
  ---------------------------------------------------
  alpha Z        PSCENC =       120.36916991
  Ewald energy   TEWEN  =     -2028.16625693
  -Hartree energ DENC   =     -1049.29977603
  -exchange      EXHF   =         0.00000000
  -V(xc)+E(xc)   XCENC  =      -264.32608506
  PAW double counting   =      3520.56721667    -3066.03418839
  entropy T*S    EENTRO =        -0.00213103
  eigenvalues    EBANDS =      -112.38605861
  atomic energy  EATOM  =      2800.91013741
  Solvation  Ediel_sol  =         0.00000000
  ---------------------------------------------------
  free energy    TOTEN  =       -78.36797207 eV

  energy without entropy =      -78.36584104  energy(sigma->0) =      -78.36690655


--------------------------------------------------------------------------------------------------------




----------------------------------------- Iteration    1(  11)  ---------------------------------------


    POTLOK:  cpu time    0.0080: real time    0.0090
    SETDIJ:  cpu time    0.3800: real time    0.3786
     EDDAV:  cpu time    0.2280: real time    0.2309
       DOS:  cpu time    0.0000: real time    0.0005
    CHARGE:  cpu time    0.0120: real time    0.0132
    MIXING:  cpu time    0.0000: real time    0.0004
    --------------------------------------------
      LOOP:  cpu time    0.6320: real time    0.6354

 eigenvalue-minimisations  :  1212
 total energy-change (2. order) :-0.1111221E-03  (-0.6682067E-04)
 number of electron      51.9999875 magnetization      -0.0013890
 augmentation part        3.9339222 magnetization       0.0034484

 Broyden mixing:
  rms(total) = 0.76790E-02    rms(broyden)= 0.76772E-02
  rms(prec ) = 0.10994E-01
  weight for this iteration     100.00

 eigenvalues of (default mixing * dielectric matrix)
  average eigenvalue GAMMA=   1.2958
  2.5677  1.8177  0.9862  0.9862  0.7842  0.6326

 Free energy of the ion-electron system (eV)
  ---------------------------------------------------
  alpha Z        PSCENC =       120.36916991
  Ewald energy   TEWEN  =     -2028.16625693
  -Hartree energ DENC   =     -1049.08229084
  -exchange      EXHF   =         0.00000000
  -V(xc)+E(xc)   XCENC  =      -264.31793292
  PAW double counting   =      3514.53225190    -3060.00116810
  entropy T*S    EENTRO =        -0.00236976
  eigenvalues    EBANDS =      -112.60962386
  atomic energy  EATOM  =      2800.91013741
  Solvation  Ediel_sol  =         0.00000000
  ---------------------------------------------------
  free energy    TOTEN  =       -78.36808319 eV

  energy without entropy =      -78.36571344  energy(sigma->0) =      -78.36689831


--------------------------------------------------------------------------------------------------------




----------------------------------------- Iteration    1(  12)  ---------------------------------------


    POTLOK:  cpu time    0.0080: real time    0.0090
    SETDIJ:  cpu time    0.3800: real time    0.3778
     EDDAV:  cpu time    0.2400: real time    0.2395
       DOS:  cpu time    0.0000: real time    0.0004
    CHARGE:  cpu time    0.0120: real time    0.0131
    MIXING:  cpu time    0.0000: real time    0.0004
    --------------------------------------------
      LOOP:  cpu time    0.6400: real time    0.6436

 eigenvalue-minimisations  :  1204
 total energy-change (2. order) :-0.5931777E-04  (-0.1502964E-04)
 number of electron      51.9999875 magnetization       0.0005248
 augmentation part        3.9338297 magnetization       0.0015255

 Broyden mixing:
  rms(total) = 0.32045E-02    rms(broyden)= 0.32036E-02
  rms(prec ) = 0.50004E-02
  weight for this iteration     100.00

 eigenvalues of (default mixing * dielectric matrix)
  average eigenvalue GAMMA=   1.2724
  2.5458  2.1340  0.9933  0.9933  0.8045  0.8045  0.6316

 Free energy of the ion-electron system (eV)
  ---------------------------------------------------
  alpha Z        PSCENC =       120.36916991
  Ewald energy   TEWEN  =     -2028.16625693
  -Hartree energ DENC   =     -1049.10368435
  -exchange      EXHF   =         0.00000000
  -V(xc)+E(xc)   XCENC  =      -264.30339584
  PAW double counting   =      3509.70440018    -3055.17849178
  entropy T*S    EENTRO =        -0.00249292
  eigenvalues    EBANDS =      -112.59752820
  atomic energy  EATOM  =      2800.91013741
  Solvation  Ediel_sol  =         0.00000000
  ---------------------------------------------------
  free energy    TOTEN  =       -78.36814251 eV

  energy without entropy =      -78.36564959  energy(sigma->0) =      -78.36689605


--------------------------------------------------------------------------------------------------------




----------------------------------------- Iteration    1(  13)  ---------------------------------------


    POTLOK:  cpu time    0.0120: real time    0.0106
    SETDIJ:  cpu time    0.3760: real time    0.3774
     EDDAV:  cpu time    0.2440: real time    0.2430
       DOS:  cpu time    0.0000: real time    0.0004
    CHARGE:  cpu time    0.0120: real time    0.0127
    MIXING:  cpu time    0.0000: real time    0.0005
    --------------------------------------------
      LOOP:  cpu time    0.6440: real time    0.6473

 eigenvalue-minimisations  :  1256
 total energy-change (2. order) :-0.1213811E-04  (-0.6682089E-05)
 number of electron      51.9999875 magnetization       0.0007634
 augmentation part        3.9332475 magnetization       0.0003402

 Broyden mixing:
  rms(total) = 0.14639E-02    rms(broyden)= 0.14629E-02
  rms(prec ) = 0.22330E-02
  weight for this iteration     100.00

 eigenvalues of (default mixing * dielectric matrix)
  average eigenvalue GAMMA=   1.3071
  2.6972  2.4356  1.1930  1.0259  0.8963  0.8963  0.6837  0.6285

 Free energy of the ion-electron system (eV)
  ---------------------------------------------------
  alpha Z        PSCENC =       120.36916991
  Ewald energy   TEWEN  =     -2028.16625693
  -Hartree energ DENC   =     -1049.14248707
  -exchange      EXHF   =         0.00000000
  -V(xc)+E(xc)   XCENC  =      -264.29643708
  PAW double counting   =      3507.13219390    -3052.60949534
  entropy T*S    EENTRO =        -0.00248641
  eigenvalues    EBANDS =      -112.56249303
  atomic energy  EATOM  =      2800.91013741
  Solvation  Ediel_sol  =         0.00000000
  ---------------------------------------------------
  free energy    TOTEN  =       -78.36815465 eV

  energy without entropy =      -78.36566824  energy(sigma->0) =      -78.36691144


--------------------------------------------------------------------------------------------------------




----------------------------------------- Iteration    1(  14)  ---------------------------------------


    POTLOK:  cpu time    0.0080: real time    0.0089
    SETDIJ:  cpu time    0.3800: real time    0.3769
     EDDAV:  cpu time    0.2240: real time    0.2241
       DOS:  cpu time    0.0000: real time    0.0004
    CHARGE:  cpu time    0.0120: real time    0.0126
    MIXING:  cpu time    0.0000: real time    0.0005
    --------------------------------------------
      LOOP:  cpu time    0.6240: real time    0.6258

 eigenvalue-minimisations  :  1164
 total energy-change (2. order) :-0.4015358E-05  (-0.1256626E-05)
 number of electron      51.9999875 magnetization       0.0003035
 augmentation part        3.9334225 magnetization      -0.0002112

 Broyden mixing:
  rms(total) = 0.69098E-03    rms(broyden)= 0.69071E-03
  rms(prec ) = 0.11869E-02
  weight for this iteration     100.00

 eigenvalues of (default mixing * dielectric matrix)
  average eigenvalue GAMMA=   1.2491
  2.7236  2.4047  1.2474  0.9396  0.9396  0.8377  0.8377  0.6283  0.6836

 Free energy of the ion-electron system (eV)
  ---------------------------------------------------
  alpha Z        PSCENC =       120.36916991
  Ewald energy   TEWEN  =     -2028.16625693
  -Hartree energ DENC   =     -1049.12291453
  -exchange      EXHF   =         0.00000000
  -V(xc)+E(xc)   XCENC  =      -264.29552998
  PAW double counting   =      3506.33913940    -3051.81674899
  entropy T*S    EENTRO =        -0.00247498
  eigenvalues    EBANDS =      -112.58267997
  atomic energy  EATOM  =      2800.91013741
  Solvation  Ediel_sol  =         0.00000000
  ---------------------------------------------------
  free energy    TOTEN  =       -78.36815866 eV

  energy without entropy =      -78.36568368  energy(sigma->0) =      -78.36692117


--------------------------------------------------------------------------------------------------------




----------------------------------------- Iteration    1(  15)  ---------------------------------------


    POTLOK:  cpu time    0.0080: real time    0.0087
    SETDIJ:  cpu time    0.3800: real time    0.3775
     EDDAV:  cpu time    0.2040: real time    0.2073
       DOS:  cpu time    0.0000: real time    0.0004
    --------------------------------------------
      LOOP:  cpu time    0.5920: real time    0.5968

 eigenvalue-minimisations  :  1060
 total energy-change (2. order) : 0.4967455E-06  (-0.2392615E-06)
 number of electron      51.9999875 magnetization       0.0003035
 augmentation part        3.9334225 magnetization      -0.0002112

 Free energy of the ion-electron system (eV)
  ---------------------------------------------------
  alpha Z        PSCENC =       120.36916991
  Ewald energy   TEWEN  =     -2028.16625693
  -Hartree energ DENC   =     -1049.11794225
  -exchange      EXHF   =         0.00000000
  -V(xc)+E(xc)   XCENC  =      -264.29557107
  PAW double counting   =      3506.37708124    -3051.85458225
  entropy T*S    EENTRO =        -0.00246714
  eigenvalues    EBANDS =      -112.58772709
  atomic energy  EATOM  =      2800.91013741
  Solvation  Ediel_sol  =         0.00000000
  ---------------------------------------------------
  free energy    TOTEN  =       -78.36815817 eV

  energy without entropy =      -78.36569103  energy(sigma->0) =      -78.36692460


--------------------------------------------------------------------------------------------------------




 average (electrostatic) potential at core
  the test charge radii are     1.0714  0.7215
  (the norm of the test charge is              1.0000)
       1 -34.5548       2 -35.2954       3 -35.1926       4 -35.1926       5 -35.1926
       6 -35.1926       7 -35.2954       8 -34.5548       9 -36.3552      10 -69.8078
      11 -69.8078      12 -69.8078      13 -69.8078      14 -69.9351      15 -71.1549
 
 
 
 E-fermi :   6.4619     XC(G=0): -10.6461     alpha+bet :-12.8923


 spin component 1

 k-point     1 :       0.2500    0.2500    0.2500
  band No.  band energies     occupation 
      1     -14.9538      1.00000
      2     -13.3481      1.00000
      3     -12.8065      1.00000
      4     -12.7074      1.00000
      5     -12.6698      1.00000
      6     -12.4919      1.00000
      7      -1.7599      1.00000
      8      -1.5961      1.00000
      9      -1.3720      1.00000
     10      -0.6461      1.00000
     11      -0.3217      1.00000
     12      -0.2386      1.00000
     13       0.0782      1.00000
     14       0.6172      1.00000
     15       1.1016      1.00000
     16       1.2050      1.00000
     17       1.5986      1.00000
     18       1.6734      1.00000
     19       1.6870      1.00000
     20       2.0515      1.00000
     21       2.2809      1.00000
     22       2.5654      1.00000
     23       2.6113      1.00000
     24       2.6365      1.00000
     25       3.0160      1.00000
     26       5.2790      1.00000
     27       7.9125      0.00000
     28       8.9956      0.00000
     29       9.0773      0.00000
     30       9.8433      0.00000
     31      10.4069      0.00000
     32      10.6009      0.00000
     33      11.4311      0.00000
     34      11.5252      0.00000
     35      11.6986      0.00000
     36      11.8430      0.00000
     37      11.9319      0.00000
     38      13.0056      0.00000
     39      13.1660      0.00000
     40      13.3353      0.00000
     41      15.0156      0.00000
     42      15.0717      0.00000
     43      15.5215      0.00000
     44      16.7242      0.00000

 k-point     2 :       0.2500    0.0000    0.0000
  band No.  band energies     occupation 
      1     -14.9622      1.00000
      2     -13.3257      1.00000
      3     -12.8187      1.00000
      4     -12.7056      1.00000
      5     -12.6672      1.00000
      6     -12.4914      1.00000
      7      -1.8012      1.00000
      8      -1.7456      1.00000
      9      -1.4748      1.00000
     10      -0.8385      1.00000
     11      -0.5192      1.00000
     12      -0.0203      1.00000
     13       0.5837      1.00000
     14       0.8399      1.00000
     15       1.0672      1.00000
     16       1.1741      1.00000
     17       1.5649      1.00000
     18       1.6023      1.00000
     19       1.8619      1.00000
     20       1.9093      1.00000
     21       2.2300      1.00000
     22       2.5875      1.00000
     23       2.6100      1.00000
     24       2.6916      1.00000
     25       3.1664      1.00000
     26       5.6754      1.00000
     27       7.3272      0.00000
     28       7.8720      0.00000
     29       9.0739      0.00000
     30       9.6337      0.00000
     31      10.3610      0.00000
     32      11.0991      0.00000
     33      11.2075      0.00000
     34      11.5569      0.00000
     35      11.8958      0.00000
     36      12.3266      0.00000
     37      12.5680      0.00000
     38      12.6492      0.00000
     39      12.9349      0.00000
     40      13.7380      0.00000
     41      15.0596      0.00000
     42      15.1013      0.00000
     43      16.4016      0.00000
     44      16.6139      0.00000

 k-point     3 :      -0.2500    0.2500    0.2500
  band No.  band energies     occupation 
      1     -14.9318      1.00000
      2     -13.2001      1.00000
      3     -12.9224      1.00000
      4     -12.7452      1.00000
      5     -12.6357      1.00000
      6     -12.5929      1.00000
      7      -1.5718      1.00000
      8      -1.3930      1.00000
      9      -1.2286      1.00000
     10      -0.7979      1.00000
     11      -0.0935      1.00000
     12       0.3192      1.00000
     13       0.5085      1.00000
     14       0.7554      1.00000
     15       0.9307      1.00000
     16       1.0261      1.00000
     17       1.2366      1.00000
     18       1.3281      1.00000
     19       1.3773      1.00000
     20       1.6142      1.00000
     21       1.8077      1.00000
     22       2.0804      1.00000
     23       2.3722      1.00000
     24       2.5365      1.00000
     25       4.3346      1.00000
     26       5.6506      1.00000
     27       7.1128      0.00000
     28       8.0145      0.00000
     29       8.4856      0.00000
     30       9.1202      0.00000
     31      10.3129      0.00000
     32      11.4070      0.00000
     33      12.0887      0.00000
     34      12.4564      0.00000
     35      12.8487      0.00000
     36      12.8843      0.00000
     37      13.2684      0.00000
     38      13.4458      0.00000
     39      13.8350      0.00000
     40      14.1253      0.00000
     41      14.5979      0.00000
     42      14.6172      0.00000
     43      15.0250      0.00000
     44      15.4645      0.00000

 k-point     4 :       0.2500    0.2500   -0.2500
  band No.  band energies     occupation 
      1     -14.9185      1.00000
      2     -13.2226      1.00000
      3     -12.9926      1.00000
      4     -12.7220      1.00000
      5     -12.7130      1.00000
      6     -12.4568      1.00000
      7      -1.3693      1.00000
      8      -1.1085      1.00000
      9      -1.0354      1.00000
     10      -0.8990      1.00000
     11      -0.3101      1.00000
     12      -0.1207      1.00000
     13       0.1708      1.00000
     14       0.3786      1.00000
     15       0.7306      1.00000
     16       0.8388      1.00000
     17       1.2940      1.00000
     18       1.3839      1.00000
     19       1.6382      1.00000
     20       1.6865      1.00000
     21       2.2978      1.00000
     22       2.3238      1.00000
     23       2.5443      1.00000
     24       2.6260      1.00000
     25       4.3712      1.00000
     26       5.0878      1.00000
     27       7.3641      0.00000
     28       8.0481      0.00000
     29       8.3262      0.00000
     30      10.1357      0.00000
     31      10.1654      0.00000
     32      11.1883      0.00000
     33      11.9567      0.00000
     34      12.1006      0.00000
     35      12.6539      0.00000
     36      12.8265      0.00000
     37      13.2362      0.00000
     38      13.5601      0.00000
     39      13.8412      0.00000
     40      14.0184      0.00000
     41      14.3754      0.00000
     42      14.5203      0.00000
     43      15.1422      0.00000
     44      15.6446      0.00000

 k-point     5 :       0.2500    0.0000    0.5000
  band No.  band energies     occupation 
      1     -14.9231      1.00000
      2     -13.2364      1.00000
      3     -12.8985      1.00000
      4     -12.7464      1.00000
      5     -12.6349      1.00000
      6     -12.5955      1.00000
      7      -1.4125      1.00000
      8      -1.2847      1.00000
      9      -0.9968      1.00000
     10      -0.6666      1.00000
     11      -0.2839      1.00000
     12       0.1690      1.00000
     13       0.2423      1.00000
     14       0.4681      1.00000
     15       0.7602      1.00000
     16       1.0449      1.00000
     17       1.2092      1.00000
     18       1.4526      1.00000
     19       1.5467      1.00000
     20       1.5808      1.00000
     21       1.9326      1.00000
     22       2.1148      1.00000
     23       2.3465      1.00000
     24       2.4749      1.00000
     25       4.0678      1.00000
     26       5.1946      1.00000
     27       8.0065      0.00000
     28       8.1430      0.00000
     29       9.2425      0.00000
     30       9.9672      0.00000
     31      10.1132      0.00000
     32      10.7849      0.00000
     33      11.5719      0.00000
     34      12.0682      0.00000
     35      12.5287      0.00000
     36      12.6013      0.00000
     37      12.9946      0.00000
     38      13.5296      0.00000
     39      13.7998      0.00000
     40      14.1516      0.00000
     41      14.4128      0.00000
     42      14.9455      0.00000
     43      15.3925      0.00000
     44      15.6156      0.00000

 k-point     6 :       0.2500    0.5000    0.0000
  band No.  band energies     occupation 
      1     -14.9271      1.00000
      2     -13.1973      1.00000
      3     -12.9872      1.00000
      4     -12.7407      1.00000
      5     -12.7105      1.00000
      6     -12.4563      1.00000
      7      -1.4728      1.00000
      8      -1.4376      1.00000
      9      -1.2340      1.00000
     10      -0.7523      1.00000
     11      -0.2984      1.00000
     12      -0.0794      1.00000
     13       0.4805      1.00000
     14       0.6601      1.00000
     15       0.7946      1.00000
     16       1.0774      1.00000
     17       1.1635      1.00000
     18       1.2775      1.00000
     19       1.6135      1.00000
     20       1.6486      1.00000
     21       2.2336      1.00000
     22       2.3020      1.00000
     23       2.5277      1.00000
     24       2.6360      1.00000
     25       4.5347      1.00000
     26       6.4103      0.92780
     27       6.5132      0.07343
     28       6.9922      0.00000
     29       7.9518      0.00000
     30       9.3208      0.00000
     31      10.3094      0.00000
     32      11.2762      0.00000
     33      12.4872      0.00000
     34      12.4963      0.00000
     35      12.8690      0.00000
     36      13.2065      0.00000
     37      13.6946      0.00000
     38      13.8182      0.00000
     39      13.9303      0.00000
     40      14.1703      0.00000
     41      14.2240      0.00000
     42      14.6601      0.00000
     43      14.8627      0.00000
     44      15.6979      0.00000

 spin component 2

 k-point     1 :       0.2500    0.2500    0.2500
  band No.  band energies     occupation 
      1     -14.9538      1.00000
      2     -13.3481      1.00000
      3     -12.8065      1.00000
      4     -12.7073      1.00000
      5     -12.6697      1.00000
      6     -12.4918      1.00000
      7      -1.7599      1.00000
      8      -1.5961      1.00000
      9      -1.3720      1.00000
     10      -0.6462      1.00000
     11      -0.3217      1.00000
     12      -0.2385      1.00000
     13       0.0783      1.00000
     14       0.6172      1.00000
     15       1.1017      1.00000
     16       1.2050      1.00000
     17       1.5987      1.00000
     18       1.6734      1.00000
     19       1.6870      1.00000
     20       2.0516      1.00000
     21       2.2810      1.00000
     22       2.5655      1.00000
     23       2.6113      1.00000
     24       2.6366      1.00000
     25       3.0162      1.00000
     26       5.2790      1.00000
     27       7.9129      0.00000
     28       8.9957      0.00000
     29       9.0772      0.00000
     30       9.8433      0.00000
     31      10.4069      0.00000
     32      10.6011      0.00000
     33      11.4311      0.00000
     34      11.5251      0.00000
     35      11.6988      0.00000
     36      11.8430      0.00000
     37      11.9318      0.00000
     38      13.0057      0.00000
     39      13.1660      0.00000
     40      13.3354      0.00000
     41      15.0156      0.00000
     42      15.0717      0.00000
     43      15.5216      0.00000
     44      16.7241      0.00000

 k-point     2 :       0.2500    0.0000    0.0000
  band No.  band energies     occupation 
      1     -14.9622      1.00000
      2     -13.3257      1.00000
      3     -12.8187      1.00000
      4     -12.7055      1.00000
      5     -12.6671      1.00000
      6     -12.4913      1.00000
      7      -1.8012      1.00000
      8      -1.7456      1.00000
      9      -1.4748      1.00000
     10      -0.8385      1.00000
     11      -0.5192      1.00000
     12      -0.0202      1.00000
     13       0.5839      1.00000
     14       0.8399      1.00000
     15       1.0672      1.00000
     16       1.1741      1.00000
     17       1.5650      1.00000
     18       1.6024      1.00000
     19       1.8620      1.00000
     20       1.9094      1.00000
     21       2.2300      1.00000
     22       2.5876      1.00000
     23       2.6101      1.00000
     24       2.6917      1.00000
     25       3.1665      1.00000
     26       5.6752      1.00000
     27       7.3279      0.00000
     28       7.8720      0.00000
     29       9.0738      0.00000
     30       9.6336      0.00000
     31      10.3610      0.00000
     32      11.0990      0.00000
     33      11.2076      0.00000
     34      11.5569      0.00000
     35      11.8960      0.00000
     36      12.3264      0.00000
     37      12.5680      0.00000
     38      12.6495      0.00000
     39      12.9348      0.00000
     40      13.7380      0.00000
     41      15.0596      0.00000
     42      15.1013      0.00000
     43      16.4018      0.00000
     44      16.6218      0.00000

 k-point     3 :      -0.2500    0.2500    0.2500
  band No.  band energies     occupation 
      1     -14.9318      1.00000
      2     -13.2000      1.00000
      3     -12.9224      1.00000
      4     -12.7451      1.00000
      5     -12.6356      1.00000
      6     -12.5929      1.00000
      7      -1.5718      1.00000
      8      -1.3930      1.00000
      9      -1.2286      1.00000
     10      -0.7979      1.00000
     11      -0.0935      1.00000
     12       0.3192      1.00000
     13       0.5085      1.00000
     14       0.7555      1.00000
     15       0.9308      1.00000
     16       1.0262      1.00000
     17       1.2367      1.00000
     18       1.3281      1.00000
     19       1.3774      1.00000
     20       1.6142      1.00000
     21       1.8078      1.00000
     22       2.0805      1.00000
     23       2.3723      1.00000
     24       2.5366      1.00000
     25       4.3349      1.00000
     26       5.6509      1.00000
     27       7.1127      0.00000
     28       8.0147      0.00000
     29       8.4856      0.00000
     30       9.1201      0.00000
     31      10.3130      0.00000
     32      11.4070      0.00000
     33      12.0888      0.00000
     34      12.4564      0.00000
     35      12.8489      0.00000
     36      12.8843      0.00000
     37      13.2684      0.00000
     38      13.4458      0.00000
     39      13.8350      0.00000
     40      14.1253      0.00000
     41      14.5979      0.00000
     42      14.6172      0.00000
     43      15.0250      0.00000
     44      15.4644      0.00000

 k-point     4 :       0.2500    0.2500   -0.2500
  band No.  band energies     occupation 
      1     -14.9185      1.00000
      2     -13.2225      1.00000
      3     -12.9926      1.00000
      4     -12.7219      1.00000
      5     -12.7130      1.00000
      6     -12.4567      1.00000
      7      -1.3694      1.00000
      8      -1.1084      1.00000
      9      -1.0355      1.00000
     10      -0.8989      1.00000
     11      -0.3101      1.00000
     12      -0.1207      1.00000
     13       0.1708      1.00000
     14       0.3787      1.00000
     15       0.7306      1.00000
     16       0.8388      1.00000
     17       1.2941      1.00000
     18       1.3840      1.00000
     19       1.6382      1.00000
     20       1.6866      1.00000
     21       2.2979      1.00000
     22       2.3238      1.00000
     23       2.5444      1.00000
     24       2.6261      1.00000
     25       4.3714      1.00000
     26       5.0881      1.00000
     27       7.3641      0.00000
     28       8.0484      0.00000
     29       8.3262      0.00000
     30      10.1356      0.00000
     31      10.1653      0.00000
     32      11.1884      0.00000
     33      11.9567      0.00000
     34      12.1008      0.00000
     35      12.6538      0.00000
     36      12.8265      0.00000
     37      13.2361      0.00000
     38      13.5601      0.00000
     39      13.8413      0.00000
     40      14.0186      0.00000
     41      14.3755      0.00000
     42      14.5204      0.00000
     43      15.1422      0.00000
     44      15.6446      0.00000

 k-point     5 :       0.2500    0.0000    0.5000
  band No.  band energies     occupation 
      1     -14.9231      1.00000
      2     -13.2363      1.00000
      3     -12.8984      1.00000
      4     -12.7463      1.00000
      5     -12.6349      1.00000
      6     -12.5954      1.00000
      7      -1.4125      1.00000
      8      -1.2847      1.00000
      9      -0.9968      1.00000
     10      -0.6666      1.00000
     11      -0.2839      1.00000
     12       0.1690      1.00000
     13       0.2423      1.00000
     14       0.4681      1.00000
     15       0.7602      1.00000
     16       1.0450      1.00000
     17       1.2093      1.00000
     18       1.4527      1.00000
     19       1.5467      1.00000
     20       1.5808      1.00000
     21       1.9327      1.00000
     22       2.1149      1.00000
     23       2.3465      1.00000
     24       2.4749      1.00000
     25       4.0680      1.00000
     26       5.1949      1.00000
     27       8.0064      0.00000
     28       8.1429      0.00000
     29       9.2426      0.00000
     30       9.9674      0.00000
     31      10.1133      0.00000
     32      10.7852      0.00000
     33      11.5719      0.00000
     34      12.0682      0.00000
     35      12.5286      0.00000
     36      12.6012      0.00000
     37      12.9946      0.00000
     38      13.5295      0.00000
     39      13.7999      0.00000
     40      14.1517      0.00000
     41      14.4128      0.00000
     42      14.9455      0.00000
     43      15.3926      0.00000
     44      15.6156      0.00000

 k-point     6 :       0.2500    0.5000    0.0000
  band No.  band energies     occupation 
      1     -14.9271      1.00000
      2     -13.1973      1.00000
      3     -12.9871      1.00000
      4     -12.7406      1.00000
      5     -12.7104      1.00000
      6     -12.4562      1.00000
      7      -1.4728      1.00000
      8      -1.4375      1.00000
      9      -1.2340      1.00000
     10      -0.7523      1.00000
     11      -0.2983      1.00000
     12      -0.0794      1.00000
     13       0.4805      1.00000
     14       0.6601      1.00000
     15       0.7946      1.00000
     16       1.0774      1.00000
     17       1.1636      1.00000
     18       1.2776      1.00000
     19       1.6136      1.00000
     20       1.6487      1.00000
     21       2.2336      1.00000
     22       2.3021      1.00000
     23       2.5278      1.00000
     24       2.6360      1.00000
     25       4.5349      1.00000
     26       6.4110      0.92496
     27       6.5131      0.07382
     28       6.9922      0.00000
     29       7.9517      0.00000
     30       9.3207      0.00000
     31      10.3093      0.00000
     32      11.2762      0.00000
     33      12.4872      0.00000
     34      12.4964      0.00000
     35      12.8692      0.00000
     36      13.2064      0.00000
     37      13.6945      0.00000
     38      13.8186      0.00000
     39      13.9302      0.00000
     40      14.1703      0.00000
     41      14.2240      0.00000
     42      14.6601      0.00000
     43      14.8627      0.00000
     44      15.6979      0.00000


--------------------------------------------------------------------------------------------------------


 soft charge-density along one line, spin component           1
         0         1         2         3         4         5         6         7         8         9
 total charge-density along one line
 
 soft charge-density along one line, spin component           2
         0         1         2         3         4         5         6         7         8         9
 total charge-density along one line
 
 pseudopotential strength for first ion, spin component:           1
  2.965   9.407   0.000   0.002   0.000   0.000   0.004   0.000
  9.407  29.698   0.000   0.007   0.000   0.000   0.014   0.000
  0.000   0.000   7.318   0.000  -0.000  10.570   0.000  -0.001
  0.002   0.007   0.000   7.321   0.000   0.000  10.576   0.000
  0.000   0.000  -0.000   0.000   7.318  -0.001   0.000  10.570
  0.000   0.000  10.570   0.000  -0.001  14.497   0.000  -0.001
  0.004   0.014   0.000  10.576   0.000   0.000  14.506   0.000
  0.000   0.000  -0.001   0.000  10.570  -0.001   0.000  14.497
 -0.000  -0.001   0.000  -0.001   0.000   0.000  -0.001   0.000
  0.000   0.000   0.004   0.000  -0.001   0.004   0.000  -0.001
  0.002   0.005   0.000   0.006   0.000   0.000   0.007   0.000
  0.000   0.000  -0.001   0.000   0.004  -0.001   0.000   0.004
  0.000   0.000   0.000  -0.000  -0.000   0.000   0.000  -0.000
 pseudopotential strength for first ion, spin component:           2
  2.965   9.407   0.000   0.002   0.000   0.000   0.004   0.000
  9.407  29.698   0.000   0.007   0.000   0.000   0.014   0.000
  0.000   0.000   7.318   0.000  -0.000  10.570   0.000  -0.001
  0.002   0.007   0.000   7.321   0.000   0.000  10.576   0.000
  0.000   0.000  -0.000   0.000   7.318  -0.001   0.000  10.570
  0.000   0.000  10.570   0.000  -0.001  14.497   0.000  -0.001
  0.004   0.014   0.000  10.576   0.000   0.000  14.506   0.000
  0.000   0.000  -0.001   0.000  10.570  -0.001   0.000  14.497
 -0.000  -0.001   0.000  -0.001   0.000   0.000  -0.001   0.000
  0.000   0.000   0.004   0.000  -0.001   0.004   0.000  -0.001
  0.002   0.005   0.000   0.006   0.000   0.000   0.007   0.000
  0.000   0.000  -0.001   0.000   0.004  -0.001   0.000   0.004
  0.000   0.000   0.000  -0.000  -0.000   0.000   0.000  -0.000
 total augmentation occupancy for first ion, spin component:           1
  0.940  -0.041   0.000  -0.019   0.000   0.000   0.005   0.000  -0.000   0.000  -0.015   0.000   0.000
 -0.041   0.002   0.000   0.002   0.000   0.000  -0.000   0.000   0.000   0.000   0.001   0.000   0.000
  0.000   0.000   0.109   0.000   0.000  -0.012   0.000  -0.000   0.000  -0.000   0.000  -0.000   0.000
 -0.019   0.002   0.000   0.091   0.000   0.000  -0.009   0.000  -0.001   0.000  -0.017   0.000   0.000
  0.000   0.000   0.000   0.000   0.109  -0.000   0.000  -0.012   0.000  -0.000   0.000  -0.000   0.000
  0.000   0.000  -0.012   0.000  -0.000   0.001   0.000   0.000   0.000   0.000   0.000   0.000   0.000
  0.005  -0.000   0.000  -0.009   0.000   0.000   0.001   0.000   0.000   0.000   0.002   0.000   0.000
  0.000   0.000  -0.000   0.000  -0.012   0.000   0.000   0.001   0.000   0.000   0.000   0.000   0.000
 -0.000   0.000   0.000  -0.001   0.000   0.000   0.000   0.000   0.011   0.000   0.000   0.000   0.000
  0.000   0.000  -0.000   0.000  -0.000   0.000   0.000   0.000   0.000   0.010   0.000   0.000   0.000
 -0.015   0.001   0.000  -0.017   0.000   0.000   0.002   0.000   0.000   0.000   0.035   0.000   0.000
  0.000   0.000  -0.000   0.000  -0.000   0.000   0.000   0.000   0.000   0.000   0.000   0.010   0.000
  0.000   0.000   0.000   0.000   0.000   0.000   0.000   0.000   0.000   0.000   0.000   0.000   0.047
 total augmentation occupancy for first ion, spin component:           2
 -0.000  -0.000   0.000  -0.000   0.000   0.000  -0.000   0.000   0.000   0.000  -0.000   0.000   0.000
 -0.000   0.000   0.000   0.000   0.000   0.000   0.000   0.000  -0.000   0.000   0.000   0.000   0.000
  0.000   0.000  -0.000   0.000   0.000   0.000   0.000  -0.000   0.000   0.000   0.000   0.000   0.000
 -0.000   0.000   0.000  -0.000   0.000   0.000  -0.000   0.000   0.000   0.000  -0.000   0.000   0.000
  0.000   0.000   0.000   0.000  -0.000  -0.000   0.000   0.000   0.000   0.000   0.000   0.000   0.000
  0.000   0.000   0.000   0.000  -0.000  -0.000   0.000   0.000   0.000  -0.000   0.000  -0.000   0.000
 -0.000   0.000   0.000  -0.000   0.000   0.000   0.000   0.000   0.000   0.000  -0.000   0.000   0.000
  0.000   0.000  -0.000   0.000   0.000   0.000   0.000  -0.000   0.000  -0.000   0.000  -0.000   0.000
  0.000  -0.000   0.000   0.000   0.000   0.000   0.000   0.000  -0.000   0.000   0.000   0.000   0.000
  0.000   0.000   0.000   0.000   0.000  -0.000   0.000  -0.000   0.000   0.000   0.000   0.000   0.000
 -0.000   0.000   0.000  -0.000   0.000   0.000  -0.000   0.000   0.000   0.000  -0.000   0.000   0.000
  0.000   0.000   0.000   0.000   0.000  -0.000   0.000  -0.000   0.000   0.000   0.000   0.000   0.000
  0.000   0.000   0.000   0.000   0.000   0.000   0.000   0.000   0.000   0.000   0.000   0.000   0.000


------------------------ aborting loop because EDIFF is reached ----------------------------------------


 


 total charge     
 
# of ion     s       p       d       tot
----------------------------------------
  1        0.138   0.154   0.062   0.354
  2        0.161   0.187   0.078   0.426
  3        0.178   0.190   0.070   0.437
  4        0.180   0.190   0.069   0.439
  5        0.180   0.190   0.069   0.439
  6        0.178   0.190   0.070   0.437
  7        0.161   0.187   0.078   0.426
  8        0.138   0.154   0.062   0.354
  9        0.445   0.136   0.016   0.597
 10        1.577   3.466   0.000   5.043
 11        1.578   3.473   0.000   5.051
 12        1.574   3.497   0.000   5.072
 13        1.576   3.512   0.000   5.088
 14        1.571   3.514   0.000   5.085
 15        1.579   3.675   0.000   5.254
------------------------------------------------
tot       11.214  22.716   0.573  34.503
 


 magnetization (x)
 
# of ion     s       p       d       tot
----------------------------------------
  1       -0.000  -0.000  -0.000  -0.000
  2       -0.000  -0.000  -0.000  -0.000
  3        0.000   0.000   0.000   0.000
  4        0.000   0.000   0.000   0.000
  5        0.000   0.000   0.000   0.000
  6        0.000   0.000   0.000   0.000
  7       -0.000  -0.000  -0.000  -0.000
  8       -0.000  -0.000  -0.000  -0.000
  9       -0.000   0.000   0.000   0.000
 10        0.000   0.000   0.000   0.000
 11        0.000   0.000   0.000   0.000
 12        0.000   0.000   0.000   0.000
 13        0.000   0.000   0.000   0.000
 14        0.000   0.000   0.000   0.000
 15        0.000   0.000   0.000   0.000
------------------------------------------------
tot        0.000   0.000  -0.000   0.000
 
    CHARGE:  cpu time    0.0160: real time    0.0136
    FORLOC:  cpu time    0.0000: real time    0.0006
    FORNL :  cpu time    0.0440: real time    0.0461
    STRESS:  cpu time    0.1400: real time    0.1378
    FORCOR:  cpu time    0.0080: real time    0.0082
    FORHAR:  cpu time    0.0000: real time    0.0014
    MIXING:  cpu time    0.0000: real time    0.0005
    OFIELD:  cpu time    0.0000: real time    0.0000

  FORCE on cell =-STRESS in cart. coord.  units (eV):
  Direction    XX          YY          ZZ          XY          YZ          ZX
  --------------------------------------------------------------------------------------
  Alpha Z   120.36917   120.36917   120.36917
  Ewald    -656.91594  -656.91594  -714.33833   113.98387     0.00000     0.00000
  Hartree   370.03153   370.03153   309.05860    90.69787     0.00000     0.00000
  E(xc)    -229.92183  -229.92183  -229.59832     0.00051    -0.00069    -0.00069
  Local    -423.55836  -423.55836  -301.59399  -203.73327     0.00497     0.00497
  n-local   -82.72402   -82.42027   -84.53322     0.23384     0.12608     0.17344
  augment    40.49660    40.49660    40.48146    -0.04208     0.00002     0.00002
  Kinetic   864.32863   863.34967   862.99176    -1.75193    -0.84705    -0.75845
  Fock        0.00000     0.00000     0.00000     0.00000     0.00000     0.00000
  -------------------------------------------------------------------------------------
  Total       1.76817     1.76817     2.83715    -0.61120     0.00000     0.00000
  in kB      18.49233    18.49233    29.67212    -6.39216     0.00000     0.00000
  external pressure =       22.22 kB  Pullay stress =        0.00 kB


 VOLUME and BASIS-vectors are now :
 -----------------------------------------------------------------------------
  energy-cutoff  :      400.00
  volume of cell :      153.19
      direct lattice vectors                 reciprocal lattice vectors
     0.000000000  4.246893020  4.246893020    -0.117733128  0.117733128  0.117733128
     4.246893020  0.000000000  4.246893020     0.117733128 -0.117733128  0.117733128
     4.246893020  4.246893020  0.000000000     0.117733128  0.117733128 -0.117733128

  length of vectors
     6.006013706  6.006013706  6.006013706     0.203919760  0.203919760  0.203919760


 FORCES acting on ions
    electron-ion (+dipol)            ewald-force                    non-local-force                 convergence-correction
 -----------------------------------------------------------------------------------------------
   -.249E-04 -.249E-04 -.311E+02   -.171E-13 -.944E-14 0.304E+02   0.000E+00 0.000E+00 0.812E+00   0.109E-07 0.109E-07 -.667E-04
   -.376E-04 -.376E-04 -.305E+02   0.225E-11 0.224E-11 0.290E+02   0.000E+00 0.000E+00 0.146E+01   0.103E-07 0.103E-07 -.162E-03
   0.301E+02 -.325E+02 -.130E-04   -.300E+02 0.320E+02 0.368E-12   -.798E-01 0.551E+00 0.000E+00   0.673E-04 -.144E-03 -.393E-10
   0.325E+02 -.301E+02 0.130E-04   -.320E+02 0.300E+02 0.370E-12   -.551E+00 0.798E-01 0.000E+00   0.144E-03 -.673E-04 0.393E-10
   -.325E+02 0.301E+02 -.130E-04   0.320E+02 -.300E+02 0.365E-12   0.551E+00 -.798E-01 0.000E+00   -.144E-03 0.673E-04 -.393E-10
   -.301E+02 0.325E+02 0.130E-04   0.300E+02 -.320E+02 0.371E-12   0.798E-01 -.551E+00 0.000E+00   -.673E-04 0.144E-03 0.393E-10
   0.376E-04 0.376E-04 0.305E+02   0.223E-11 0.222E-11 -.290E+02   0.000E+00 0.000E+00 -.146E+01   -.103E-07 -.103E-07 0.162E-03
   0.249E-04 0.249E-04 0.311E+02   -.199E-13 -.132E-13 -.304E+02   0.000E+00 0.000E+00 -.812E+00   -.109E-07 -.109E-07 0.667E-04
   -.821E-12 -.721E-12 -.174E-11   0.123E-13 0.136E-13 -.379E-13   0.000E+00 0.827E-24 -.165E-23   -.150E-14 -.131E-14 0.420E-14
   -.102E-10 -.188E-10 -.242E-10   0.133E-12 -.300E-12 -.492E-13   0.827E-24 0.414E-24 0.496E-23   -.608E-14 0.158E-12 0.250E-13
   0.285E-10 -.194E-10 0.156E-10   -.114E-11 0.461E-12 -.154E-11   0.000E+00 0.000E+00 0.165E-23   -.187E-12 0.654E-13 0.360E-13
   -.161E-10 -.835E-11 -.244E-10   -.295E-12 0.143E-12 -.574E-13   0.827E-24 -.827E-24 -.827E-24   0.154E-12 -.146E-13 0.484E-13
   -.219E-10 0.254E-10 0.156E-10   0.456E-12 -.115E-11 -.155E-11   0.145E-23 0.103E-23 -.124E-23   0.801E-13 -.181E-12 0.587E-13
   0.150E-10 0.130E-10 0.437E-10   0.748E-12 0.745E-12 0.130E-11   -.165E-23 0.827E-24 0.000E+00   0.664E-13 0.353E-13 -.144E-12
   0.556E-10 0.556E-10 0.423E-10   -.435E-11 -.434E-11 0.124E-10   -.414E-24 -.414E-24 0.000E+00   -.385E-13 -.578E-13 -.535E-13
 -----------------------------------------------------------------------------------------------
   0.559E-10 0.517E-10 0.813E-10   0.235E-14 0.832E-14 -.259E-13   0.167E-15 0.186E-23 0.777E-15   0.654E-13 0.276E-14 -.334E-13
 
 
 POSITION                                       TOTAL-FORCE (eV/Angst)
 -----------------------------------------------------------------------------------
      4.24689      4.24689      8.48098         0.000000      0.000000      0.035005
      6.37034      6.37034      8.29849         0.000000      0.000000      0.019542
      6.39641      8.30237      6.37034         0.011083     -0.008391     -0.000000
      4.43831      6.34427      6.37034         0.008391     -0.011083     -0.000000
      8.30237      6.39641      6.37034        -0.008391      0.011083     -0.000000
      6.34427      4.43831      6.37034        -0.011083      0.008391     -0.000000
      6.37034      6.37034      4.44219         0.000000      0.000000     -0.019542
      4.24689      4.24689      4.25970        -0.000000     -0.000000     -0.035005
      2.12345      2.12345      2.12345         0.000000      0.000000     -0.000000
      4.24689      2.12345      4.24689         0.000000      0.000000     -0.000000
      6.37034      4.24689      4.24689        -0.000000      0.000000      0.000000
      2.12345      4.24689      4.24689         0.000000      0.000000     -0.000000
      4.24689      6.37034      4.24689         0.000000      0.000000     -0.000000
      4.24689      4.24689      6.37034         0.000000      0.000000      0.000000
      6.37034      6.37034      6.37034         0.000000      0.000000     -0.000000
 -----------------------------------------------------------------------------------
    total drift:                                0.000000      0.000000      0.000000


--------------------------------------------------------------------------------------------------------



  FREE ENERGIE OF THE ION-ELECTRON SYSTEM (eV)
  ---------------------------------------------------
  free  energy   TOTEN  =       -78.36815817 eV

  energy  without entropy=      -78.36569103  energy(sigma->0) =      -78.36692460
 


--------------------------------------------------------------------------------------------------------


    POTLOK:  cpu time    0.3880: real time    0.3857


--------------------------------------------------------------------------------------------------------




--------------------------------------------------------------------------------------------------------


  
 reached required accuracy - stopping structural energy minimisation
     LOOP+:  cpu time    8.9160: real time    8.9894
    4ORBIT:  cpu time    0.0000: real time    0.0000
 


 total charge     
 
# of ion     s       p       d       tot
----------------------------------------
  1        0.138   0.154   0.062   0.354
  2        0.161   0.187   0.078   0.426
  3        0.178   0.190   0.070   0.437
  4        0.180   0.190   0.069   0.439
  5        0.180   0.190   0.069   0.439
  6        0.178   0.190   0.070   0.437
  7        0.161   0.187   0.078   0.426
  8        0.138   0.154   0.062   0.354
  9        0.445   0.136   0.016   0.597
 10        1.577   3.466   0.000   5.043
 11        1.578   3.473   0.000   5.051
 12        1.574   3.497   0.000   5.072
 13        1.576   3.512   0.000   5.088
 14        1.571   3.514   0.000   5.085
 15        1.579   3.675   0.000   5.254
------------------------------------------------
tot       11.214  22.716   0.573  34.503
 


 magnetization (x)
 
# of ion     s       p       d       tot
----------------------------------------
  1       -0.000  -0.000  -0.000  -0.000
  2       -0.000  -0.000  -0.000  -0.000
  3        0.000   0.000   0.000   0.000
  4        0.000   0.000   0.000   0.000
  5        0.000   0.000   0.000   0.000
  6        0.000   0.000   0.000   0.000
  7       -0.000  -0.000  -0.000  -0.000
  8       -0.000  -0.000  -0.000  -0.000
  9       -0.000   0.000   0.000   0.000
 10        0.000   0.000   0.000   0.000
 11        0.000   0.000   0.000   0.000
 12        0.000   0.000   0.000   0.000
 13        0.000   0.000   0.000   0.000
 14        0.000   0.000   0.000   0.000
 15        0.000   0.000   0.000   0.000
------------------------------------------------
tot        0.000   0.000  -0.000   0.000
 

 total amount of memory used by VASP on root node    32851. kBytes
========================================================================

   base      :      30000. kBytes
   nonlr-proj:        875. kBytes
   fftplans  :        352. kBytes
   grid      :        883. kBytes
   one-center:         32. kBytes
   wavefun   :        709. kBytes
 
  
  
 General timing and accounting informations for this job:
 ========================================================
  
                  Total CPU time used (sec):        9.732
                            User time (sec):        9.524
                          System time (sec):        0.208
                         Elapsed time (sec):       10.072
  
                   Maximum memory used (kb):       70824.
                   Average memory used (kb):           0.
  
                          Minor page faults:        12545
                          Major page faults:           10
                 Voluntary context switches:         2239
