PROCAR lm decomposed + phase
# of k-points:    5         # of bands:  44         # of ions:  15

 k-point    1 :    0.00000000 0.00000000 0.00000000     weight = 0.12500000

band   1 # energy  -14.97271661 # occ.  1.00000000
 
ion      s     py     pz     px    dxy    dyz    dz2    dxz    dx2    tot
  1  0.000  0.000  0.000  0.000  0.000  0.000  0.000  0.000  0.000  0.000
  2  0.004  0.000  0.003  0.000  0.000  0.000  0.001  0.000  0.000  0.008
  3  0.004  0.003  0.000  0.000  0.000  0.000  0.000  0.000  0.001  0.008
  4  0.004  0.000  0.000  0.003  0.000  0.000  0.000  0.000  0.001  0.008
  5  0.004  0.000  0.000  0.003  0.000  0.000  0.000  0.000  0.001  0.008
  6  0.004  0.003  0.000  0.000  0.000  0.000  0.000  0.000  0.001  0.008
  7  0.004  0.000  0.003  0.000  0.000  0.000  0.001  0.000  0.000  0.008
  8  0.000  0.000  0.000  0.000  0.000  0.000  0.000  0.000  0.000  0.000
  9  0.000  0.000  0.000  0.000  0.000  0.000  0.000  0.000  0.000  0.000
 10  0.008  0.000  0.000  0.000  0.000  0.000  0.000  0.000  0.000  0.008
 11  0.008  0.000  0.000  0.000  0.000  0.000  0.000  0.000  0.000  0.008
 12  0.008  0.000  0.000  0.000  0.000  0.000  0.000  0.000  0.000  0.008
 13  0.008  0.000  0.000  0.000  0.000  0.000  0.000  0.000  0.000  0.008
 14  0.011  0.000  0.000  0.000  0.000  0.000  0.000  0.000  0.000  0.011
 15  0.713  0.000  0.000  0.000  0.000  0.000  0.000  0.000  0.000  0.713
tot  0.782  0.006  0.006  0.006  0.000  0.000  0.003  0.000  0.003  0.805
ion      s     py     pz     px    dxy    dyz    dz2    dxz    dx2
  1 -0.051  0.000  0.005  0.000 -0.000 -0.000  0.002 -0.000  0.000
  1 -0.018  0.000  0.002  0.000 -0.000 -0.000  0.001 -0.000 -0.000
  2 -0.167  0.000  0.065  0.000 -0.000 -0.000 -0.037 -0.000  0.000
  2 -0.058  0.000  0.023  0.000 -0.000 -0.000 -0.013 -0.000  0.000
  3 -0.163  0.066  0.000 -0.004 -0.002 -0.000  0.018 -0.000  0.034
  3 -0.057  0.023  0.000 -0.001 -0.001 -0.000  0.006 -0.000  0.012
  4 -0.163  0.004 -0.000 -0.066 -0.002 -0.000  0.018 -0.000 -0.034
  4 -0.057  0.001 -0.000 -0.023 -0.001 -0.000  0.006 -0.000 -0.012
  5 -0.163 -0.004  0.000  0.066 -0.002 -0.000  0.018 -0.000 -0.034
  5 -0.057 -0.001  0.000  0.023 -0.001 -0.000  0.006 -0.000 -0.012
  6 -0.163 -0.066 -0.000  0.004 -0.002 -0.000  0.018 -0.000  0.034
  6 -0.057 -0.023 -0.000  0.001 -0.001 -0.000  0.006 -0.000  0.012
  7 -0.167 -0.000 -0.065 -0.000 -0.000 -0.000 -0.037 -0.000  0.000
  7 -0.058 -0.000 -0.023 -0.000 -0.000 -0.000 -0.013 -0.000  0.000
  8 -0.051 -0.000 -0.005 -0.000 -0.000 -0.000  0.002 -0.000  0.000
  8 -0.018 -0.000 -0.002 -0.000 -0.000 -0.000  0.001 -0.000 -0.000
  9 -0.025 -0.000 -0.000  0.000  0.001 -0.000 -0.000 -0.000  0.000
  9 -0.009  0.000  0.000  0.000  0.000 -0.000 -0.000 -0.000 -0.000
 10 -0.154  0.000  0.000  0.000  0.000  0.000  0.000  0.000  0.000
 10 -0.054 -0.000 -0.000  0.000  0.000  0.000  0.000  0.000  0.000
 11 -0.154 -0.000  0.000 -0.000  0.000  0.000  0.000  0.000  0.000
 11 -0.054  0.000 -0.000  0.000  0.000  0.000  0.000  0.000  0.000
 12 -0.154  0.000  0.000  0.000  0.000  0.000  0.000  0.000  0.000
 12 -0.054  0.000 -0.000 -0.000  0.000  0.000  0.000  0.000  0.000
 13 -0.154 -0.000  0.000  0.000  0.000  0.000  0.000  0.000  0.000
 13 -0.054  0.000 -0.000  0.000  0.000  0.000  0.000  0.000  0.000
 14 -0.181  0.000 -0.000 -0.000  0.000  0.000  0.000  0.000  0.000
 14 -0.063  0.000  0.000  0.000  0.000  0.000  0.000  0.000  0.000
 15 -1.337 -0.000  0.000  0.000  0.000  0.000  0.000  0.000  0.000
 15 -0.468 -0.000 -0.000 -0.000  0.000  0.000  0.000  0.000  0.000
 
band   2 # energy  -13.41269025 # occ.  1.00000000
 
ion      s     py     pz     px    dxy    dyz    dz2    dxz    dx2    tot
  1  0.005  0.000  0.001  0.000  0.000  0.000  0.000  0.000  0.000  0.006
  2  0.001  0.000  0.001  0.000  0.000  0.000  0.001  0.000  0.000  0.003
  3  0.001  0.001  0.000  0.001  0.000  0.000  0.000  0.000  0.000  0.003
  4  0.001  0.001  0.000  0.001  0.000  0.000  0.000  0.000  0.000  0.003
  5  0.001  0.001  0.000  0.001  0.000  0.000  0.000  0.000  0.000  0.003
  6  0.001  0.001  0.000  0.001  0.000  0.000  0.000  0.000  0.000  0.003
  7  0.001  0.000  0.001  0.000  0.000  0.000  0.001  0.000  0.000  0.003
  8  0.005  0.000  0.001  0.000  0.000  0.000  0.000  0.000  0.000  0.006
  9  0.001  0.000  0.000  0.000  0.000  0.000  0.000  0.000  0.000  0.001
 10  0.098  0.000  0.000  0.000  0.000  0.000  0.000  0.000  0.000  0.098
 11  0.098  0.000  0.000  0.000  0.000  0.000  0.000  0.000  0.000  0.098
 12  0.098  0.000  0.000  0.000  0.000  0.000  0.000  0.000  0.000  0.098
 13  0.098  0.000  0.000  0.000  0.000  0.000  0.000  0.000  0.000  0.098
 14  0.284  0.000  0.000  0.000  0.000  0.000  0.000  0.000  0.000  0.284
 15  0.062  0.000  0.000  0.000  0.000  0.000  0.000  0.000  0.000  0.062
tot  0.758  0.002  0.002  0.002  0.000  0.000  0.002  0.000  0.002  0.768
ion      s     py     pz     px    dxy    dyz    dz2    dxz    dx2
  1 -0.183  0.000  0.028  0.000 -0.000 -0.000  0.001 -0.000  0.000
  1 -0.064  0.000  0.010  0.000 -0.000 -0.000  0.001 -0.000  0.000
  2 -0.097 -0.000 -0.027 -0.000 -0.000 -0.000  0.031 -0.000  0.000
  2 -0.034 -0.000 -0.010 -0.000 -0.000 -0.000  0.011 -0.000  0.000
  3 -0.095 -0.027 -0.000 -0.030 -0.002  0.000 -0.016 -0.000 -0.026
  3 -0.033 -0.010 -0.000 -0.011 -0.001  0.000 -0.005 -0.000 -0.009
  4 -0.095  0.030  0.000  0.027 -0.002 -0.000 -0.016  0.000  0.026
  4 -0.033  0.011  0.000  0.010 -0.001 -0.000 -0.005  0.000  0.009
  5 -0.095 -0.030 -0.000 -0.027 -0.002 -0.000 -0.016  0.000  0.026
  5 -0.033 -0.011 -0.000 -0.010 -0.001 -0.000 -0.005  0.000  0.009
  6 -0.095  0.027  0.000  0.030 -0.002  0.000 -0.016 -0.000 -0.026
  6 -0.033  0.010  0.000  0.011 -0.001  0.000 -0.005 -0.000 -0.009
  7 -0.097  0.000  0.027  0.000 -0.000 -0.000  0.031 -0.000  0.000
  7 -0.034  0.000  0.010  0.000 -0.000 -0.000  0.011 -0.000  0.000
  8 -0.183 -0.000 -0.028 -0.000 -0.000 -0.000  0.001 -0.000  0.000
  8 -0.064 -0.000 -0.010 -0.000 -0.000 -0.000  0.001 -0.000  0.000
  9 -0.063  0.000  0.000 -0.000  0.004  0.000 -0.000  0.000 -0.000
  9 -0.022 -0.000 -0.000 -0.000  0.002  0.000 -0.000  0.000  0.000
 10 -0.486 -0.000 -0.000 -0.000  0.000  0.000  0.000  0.000  0.000
 10 -0.170  0.000  0.000  0.000  0.000  0.000  0.000  0.000  0.000
 11 -0.486  0.000 -0.000  0.000  0.000  0.000  0.000  0.000  0.000
 11 -0.170 -0.000  0.000 -0.000  0.000  0.000  0.000  0.000  0.000
 12 -0.486 -0.000 -0.000 -0.000  0.000  0.000  0.000  0.000  0.000
 12 -0.170 -0.000  0.000  0.000  0.000  0.000  0.000  0.000  0.000
 13 -0.486  0.000 -0.000  0.000  0.000  0.000  0.000  0.000  0.000
 13 -0.170 -0.000  0.000 -0.000  0.000  0.000  0.000  0.000  0.000
 14 -0.821 -0.000  0.000  0.000  0.000  0.000  0.000  0.000  0.000
 14 -0.287 -0.000 -0.000 -0.000  0.000  0.000  0.000  0.000  0.000
 15  0.352 -0.000  0.000 -0.000  0.000  0.000  0.000  0.000  0.000
 15  0.123  0.000 -0.000  0.000  0.000  0.000  0.000  0.000  0.000
 
band   3 # energy  -12.73579126 # occ.  1.00000000
 
ion      s     py     pz     px    dxy    dyz    dz2    dxz    dx2    tot
  1  0.000  0.000  0.001  0.000  0.000  0.000  0.001  0.000  0.000  0.002
  2  0.002  0.000  0.000  0.000  0.000  0.000  0.000  0.000  0.000  0.002
  3  0.000  0.000  0.000  0.001  0.000  0.000  0.001  0.000  0.000  0.002
  4  0.000  0.001  0.000  0.000  0.000  0.000  0.001  0.000  0.000  0.002
  5  0.000  0.001  0.000  0.000  0.000  0.000  0.001  0.000  0.000  0.002
  6  0.000  0.000  0.000  0.001  0.000  0.000  0.001  0.000  0.000  0.002
  7  0.002  0.000  0.000  0.000  0.000  0.000  0.000  0.000  0.000  0.002
  8  0.000  0.000  0.001  0.000  0.000  0.000  0.001  0.000  0.000  0.002
  9  0.000  0.000  0.000  0.000  0.000  0.000  0.000  0.000  0.000  0.000
 10  0.077  0.000  0.000  0.000  0.000  0.000  0.000  0.000  0.000  0.077
 11  0.077  0.000  0.000  0.000  0.000  0.000  0.000  0.000  0.000  0.077
 12  0.077  0.000  0.000  0.000  0.000  0.000  0.000  0.000  0.000  0.077
 13  0.077  0.000  0.000  0.000  0.000  0.000  0.000  0.000  0.000  0.077
 14  0.475  0.000  0.000  0.000  0.000  0.000  0.000  0.000  0.000  0.475
 15  0.002  0.000  0.000  0.000  0.000  0.000  0.000  0.000  0.000  0.002
tot  0.791  0.002  0.002  0.002  0.000  0.000  0.005  0.000  0.001  0.803
ion      s     py     pz     px    dxy    dyz    dz2    dxz    dx2
  1 -0.041  0.000 -0.039  0.000  0.000  0.000  0.040  0.000  0.000
  1 -0.014  0.000 -0.014  0.000  0.000  0.000  0.014  0.000  0.000
  2 -0.106 -0.000 -0.010 -0.000  0.000 -0.000  0.019 -0.000  0.000
  2 -0.037 -0.000 -0.003 -0.000  0.000 -0.000  0.007 -0.000  0.000
  3  0.023 -0.003 -0.000  0.042  0.004 -0.000 -0.031  0.000  0.019
  3  0.008 -0.001 -0.000  0.015  0.001 -0.000 -0.011  0.000  0.007
  4  0.023 -0.042  0.000  0.003  0.004  0.000 -0.031 -0.000 -0.019
  4  0.008 -0.015  0.000  0.001  0.001  0.000 -0.011 -0.000 -0.007
  5  0.023  0.042 -0.000 -0.003  0.004  0.000 -0.031 -0.000 -0.019
  5  0.008  0.015 -0.000 -0.001  0.001  0.000 -0.011 -0.000 -0.007
  6  0.023  0.003  0.000 -0.042  0.004 -0.000 -0.031  0.000  0.019
  6  0.008  0.001  0.000 -0.015  0.001 -0.000 -0.011  0.000  0.007
  7 -0.106  0.000  0.010  0.000  0.000 -0.000  0.019 -0.000  0.000
  7 -0.037  0.000  0.003  0.000  0.000 -0.000  0.007 -0.000  0.000
  8 -0.041 -0.000  0.039 -0.000  0.000  0.000  0.040  0.000  0.000
  8 -0.014 -0.000  0.014 -0.000  0.000  0.000  0.014  0.000  0.000
  9 -0.016  0.000  0.000 -0.000 -0.006  0.000 -0.006  0.000 -0.000
  9 -0.006 -0.000 -0.000 -0.000 -0.002  0.000 -0.002  0.000  0.000
 10 -0.411  0.000  0.000  0.000  0.000  0.000  0.000  0.000  0.000
 10 -0.144 -0.000 -0.000 -0.000  0.000  0.000  0.000  0.000  0.000
 11 -0.411 -0.000  0.000 -0.000  0.000  0.000  0.000  0.000  0.000
 11 -0.144  0.000  0.000  0.000  0.000  0.000  0.000  0.000  0.000
 12 -0.411  0.000  0.000  0.000  0.000  0.000  0.000  0.000  0.000
 12 -0.144 -0.000 -0.000 -0.000  0.000  0.000  0.000  0.000  0.000
 13 -0.411 -0.000  0.000 -0.000  0.000  0.000  0.000  0.000  0.000
 13 -0.144  0.000 -0.000  0.000  0.000  0.000  0.000  0.000  0.000
 14  1.009 -0.000 -0.000  0.000  0.000  0.000  0.000  0.000  0.000
 14  0.353  0.000  0.000 -0.000  0.000  0.000  0.000  0.000  0.000
 15  0.058  0.000  0.000 -0.000  0.000  0.000  0.000  0.000  0.000
 15  0.020 -0.000 -0.000  0.000  0.000  0.000  0.000  0.000  0.000
 
band   4 # energy  -12.70156076 # occ.  1.00000000
 
ion      s     py     pz     px    dxy    dyz    dz2    dxz    dx2    tot
  1  0.000  0.001  0.000  0.001  0.000  0.000  0.000  0.000  0.000  0.003
  2  0.000  0.001  0.000  0.001  0.000  0.000  0.000  0.000  0.000  0.003
  3  0.000  0.000  0.001  0.000  0.000  0.000  0.000  0.000  0.000  0.001
  4  0.000  0.000  0.001  0.000  0.000  0.000  0.000  0.000  0.000  0.001
  5  0.000  0.000  0.001  0.000  0.000  0.000  0.000  0.000  0.000  0.001
  6  0.000  0.000  0.001  0.000  0.000  0.000  0.000  0.000  0.000  0.001
  7  0.000  0.001  0.000  0.001  0.000  0.000  0.000  0.000  0.000  0.003
  8  0.000  0.001  0.000  0.001  0.000  0.000  0.000  0.000  0.000  0.003
  9  0.000  0.000  0.000  0.000  0.000  0.000  0.000  0.000  0.000  0.000
 10  0.194  0.000  0.000  0.000  0.000  0.000  0.000  0.000  0.000  0.194
 11  0.194  0.000  0.000  0.000  0.000  0.000  0.000  0.000  0.000  0.194
 12  0.194  0.000  0.000  0.000  0.000  0.000  0.000  0.000  0.000  0.194
 13  0.194  0.000  0.000  0.000  0.000  0.000  0.000  0.000  0.000  0.194
 14  0.000  0.000  0.000  0.000  0.000  0.000  0.000  0.000  0.000  0.000
 15  0.000  0.000  0.000  0.000  0.000  0.000  0.000  0.000  0.000  0.000
tot  0.775  0.006  0.006  0.006  0.000  0.000  0.000  0.000  0.000  0.793
ion      s     py     pz     px    dxy    dyz    dz2    dxz    dx2
  1 -0.000  0.038 -0.000 -0.038 -0.000  0.000  0.000 -0.000  0.000
  1 -0.000 -0.031  0.000  0.031 -0.000 -0.000  0.000  0.000 -0.000
  2 -0.000  0.038 -0.000 -0.038 -0.000  0.003  0.000 -0.003 -0.000
  2 -0.000 -0.031 -0.000  0.031 -0.000 -0.003  0.000  0.003  0.000
  3  0.000  0.000  0.038  0.000 -0.000  0.003  0.000 -0.001  0.000
  3 -0.000 -0.000 -0.031 -0.000  0.000 -0.003 -0.000  0.001 -0.000
  4 -0.000  0.000  0.038  0.000  0.000  0.001 -0.000 -0.003  0.000
  4  0.000 -0.000 -0.031 -0.000 -0.000 -0.001  0.000  0.003 -0.000
  5 -0.000 -0.000 -0.038 -0.000  0.000  0.001 -0.000 -0.003  0.000
  5  0.000  0.000  0.031  0.000 -0.000 -0.001  0.000  0.003 -0.000
  6  0.000 -0.000 -0.038 -0.000 -0.000  0.003  0.000 -0.001  0.000
  6 -0.000  0.000  0.031  0.000  0.000 -0.003 -0.000  0.001 -0.000
  7 -0.000 -0.038  0.000  0.038  0.000  0.003  0.000 -0.003 -0.000
  7  0.000  0.031 -0.000 -0.031  0.000 -0.003  0.000  0.003  0.000
  8 -0.000 -0.038  0.000  0.038 -0.000  0.000  0.000 -0.000  0.000
  8 -0.000  0.031  0.000 -0.031 -0.000 -0.000  0.000  0.000 -0.000
  9 -0.000 -0.000 -0.000 -0.000  0.000 -0.006  0.000  0.006 -0.000
  9 -0.000 -0.000 -0.000 -0.000  0.000  0.005  0.000 -0.005  0.000
 10  0.530  0.000  0.000  0.000  0.000  0.000  0.000  0.000  0.000
 10 -0.435 -0.000  0.000 -0.000  0.000  0.000  0.000  0.000  0.000
 11  0.530  0.000 -0.000 -0.000  0.000  0.000  0.000  0.000  0.000
 11 -0.435  0.000 -0.000  0.000  0.000  0.000  0.000  0.000  0.000
 12 -0.530  0.000 -0.000 -0.000  0.000  0.000  0.000  0.000  0.000
 12  0.435 -0.000  0.000 -0.000  0.000  0.000  0.000  0.000  0.000
 13 -0.530 -0.000  0.000 -0.000  0.000  0.000  0.000  0.000  0.000
 13  0.435 -0.000  0.000  0.000  0.000  0.000  0.000  0.000  0.000
 14 -0.000 -0.000  0.000  0.000  0.000  0.000  0.000  0.000  0.000
 14 -0.000  0.000  0.000  0.000  0.000  0.000  0.000  0.000  0.000
 15 -0.000 -0.000 -0.000 -0.000  0.000  0.000  0.000  0.000  0.000
 15 -0.000  0.000  0.000 -0.000  0.000  0.000  0.000  0.000  0.000
 
band   5 # energy  -12.69878863 # occ.  1.00000000
 
ion      s     py     pz     px    dxy    dyz    dz2    dxz    dx2    tot
  1  0.000  0.001  0.000  0.001  0.000  0.000  0.000  0.000  0.000  0.003
  2  0.000  0.001  0.000  0.001  0.000  0.000  0.000  0.000  0.000  0.003
  3  0.000  0.000  0.001  0.000  0.000  0.000  0.000  0.000  0.000  0.002
  4  0.000  0.000  0.001  0.000  0.000  0.000  0.000  0.000  0.000  0.002
  5  0.000  0.000  0.001  0.000  0.000  0.000  0.000  0.000  0.000  0.002
  6  0.000  0.000  0.001  0.000  0.000  0.000  0.000  0.000  0.000  0.002
  7  0.000  0.001  0.000  0.001  0.000  0.000  0.000  0.000  0.000  0.003
  8  0.000  0.001  0.000  0.001  0.000  0.000  0.000  0.000  0.000  0.003
  9  0.000  0.000  0.000  0.000  0.000  0.000  0.000  0.000  0.000  0.000
 10  0.194  0.000  0.000  0.000  0.000  0.000  0.000  0.000  0.000  0.194
 11  0.194  0.000  0.000  0.000  0.000  0.000  0.000  0.000  0.000  0.194
 12  0.194  0.000  0.000  0.000  0.000  0.000  0.000  0.000  0.000  0.194
 13  0.194  0.000  0.000  0.000  0.000  0.000  0.000  0.000  0.000  0.194
 14  0.000  0.000  0.000  0.000  0.000  0.000  0.000  0.000  0.000  0.000
 15  0.000  0.000  0.000  0.000  0.000  0.000  0.000  0.000  0.000  0.000
tot  0.775  0.006  0.006  0.006  0.000  0.000  0.000  0.000  0.000  0.793
ion      s     py     pz     px    dxy    dyz    dz2    dxz    dx2
  1 -0.000 -0.046 -0.000 -0.046 -0.000 -0.000  0.000 -0.000 -0.000
  1 -0.000 -0.016 -0.000 -0.016 -0.000 -0.000  0.000 -0.000  0.000
  2 -0.000  0.047 -0.000  0.047  0.000  0.004  0.000  0.004  0.000
  2 -0.000  0.016 -0.000  0.016  0.000  0.001  0.000  0.001 -0.000
  3 -0.000 -0.000  0.047  0.000  0.000  0.004 -0.000 -0.000  0.000
  3 -0.000 -0.000  0.016  0.000  0.000  0.001 -0.000 -0.000  0.000
  4 -0.000 -0.000 -0.047  0.000  0.000 -0.000 -0.000  0.004 -0.000
  4 -0.000 -0.000 -0.016  0.000  0.000 -0.000 -0.000  0.001 -0.000
  5 -0.000  0.000  0.047 -0.000  0.000 -0.000 -0.000  0.004 -0.000
  5 -0.000  0.000  0.016 -0.000  0.000 -0.000 -0.000  0.001 -0.000
  6 -0.000  0.000 -0.047 -0.000  0.000  0.004 -0.000 -0.000  0.000
  6 -0.000  0.000 -0.016 -0.000  0.000  0.001 -0.000 -0.000  0.000
  7 -0.000 -0.047  0.000 -0.047  0.000  0.004  0.000  0.004  0.000
  7 -0.000 -0.016  0.000 -0.016  0.000  0.001  0.000  0.001 -0.000
  8 -0.000  0.046  0.000  0.046 -0.000 -0.000  0.000 -0.000 -0.000
  8 -0.000  0.016  0.000  0.016 -0.000 -0.000  0.000 -0.000 -0.000
  9 -0.000 -0.000 -0.000 -0.000  0.000 -0.007 -0.000 -0.007 -0.000
  9 -0.000 -0.000  0.000 -0.000  0.000 -0.003 -0.000 -0.003  0.000
 10 -0.647 -0.000 -0.000 -0.000  0.000  0.000  0.000  0.000  0.000
 10 -0.226 -0.000  0.000 -0.000  0.000  0.000  0.000  0.000  0.000
 11  0.647  0.000 -0.000 -0.000  0.000  0.000  0.000  0.000  0.000
 11  0.226 -0.000 -0.000 -0.000  0.000  0.000  0.000  0.000  0.000
 12 -0.647 -0.000 -0.000 -0.000  0.000  0.000  0.000  0.000  0.000
 12 -0.226  0.000  0.000 -0.000  0.000  0.000  0.000  0.000  0.000
 13  0.647 -0.000 -0.000  0.000  0.000  0.000  0.000  0.000  0.000
 13  0.226 -0.000  0.000 -0.000  0.000  0.000  0.000  0.000  0.000
 14  0.000  0.000  0.000 -0.000  0.000  0.000  0.000  0.000  0.000
 14  0.000 -0.000 -0.000  0.000  0.000  0.000  0.000  0.000  0.000
 15 -0.000 -0.000  0.000  0.000  0.000  0.000  0.000  0.000  0.000
 15 -0.000  0.000 -0.000 -0.000  0.000  0.000  0.000  0.000  0.000
 
band   6 # energy  -12.44978232 # occ.  1.00000000
 
ion      s     py     pz     px    dxy    dyz    dz2    dxz    dx2    tot
  1  0.000  0.000  0.000  0.000  0.000  0.000  0.000  0.000  0.001  0.001
  2  0.000  0.000  0.000  0.000  0.000  0.000  0.000  0.000  0.002  0.002
  3  0.001  0.000  0.000  0.000  0.000  0.000  0.000  0.000  0.000  0.002
  4  0.001  0.000  0.000  0.000  0.000  0.000  0.000  0.000  0.000  0.002
  5  0.001  0.000  0.000  0.000  0.000  0.000  0.000  0.000  0.000  0.002
  6  0.001  0.000  0.000  0.000  0.000  0.000  0.000  0.000  0.000  0.002
  7  0.000  0.000  0.000  0.000  0.000  0.000  0.000  0.000  0.002  0.002
  8  0.000  0.000  0.000  0.000  0.000  0.000  0.000  0.000  0.001  0.001
  9  0.000  0.000  0.000  0.000  0.000  0.000  0.000  0.000  0.000  0.000
 10  0.199  0.000  0.000  0.000  0.000  0.000  0.000  0.000  0.000  0.199
 11  0.199  0.000  0.000  0.000  0.000  0.000  0.000  0.000  0.000  0.199
 12  0.199  0.000  0.000  0.000  0.000  0.000  0.000  0.000  0.000  0.199
 13  0.199  0.000  0.000  0.000  0.000  0.000  0.000  0.000  0.000  0.199
 14  0.000  0.000  0.000  0.000  0.000  0.000  0.000  0.000  0.000  0.000
 15  0.000  0.000  0.000  0.000  0.000  0.000  0.000  0.000  0.000  0.000
tot  0.802  0.000  0.000  0.000  0.000  0.000  0.002  0.000  0.006  0.810
ion      s     py     pz     px    dxy    dyz    dz2    dxz    dx2
  1 -0.000 -0.000 -0.000  0.000  0.000 -0.000  0.000  0.000  0.047
  1  0.000  0.000  0.000 -0.000 -0.000  0.000 -0.000 -0.000 -0.022
  2  0.000 -0.000  0.000  0.000 -0.000  0.000 -0.000 -0.000 -0.047
  2 -0.000  0.000  0.000 -0.000  0.000 -0.000  0.000  0.000  0.022
  3  0.084  0.005 -0.000 -0.001 -0.000  0.000  0.027  0.000 -0.001
  3 -0.040 -0.002  0.000  0.000  0.000 -0.000 -0.013 -0.000  0.000
  4 -0.084 -0.001 -0.000  0.005  0.000 -0.000 -0.027 -0.000 -0.001
  4  0.040  0.000  0.000 -0.002 -0.000  0.000  0.013  0.000  0.000
  5 -0.084  0.001  0.000 -0.005  0.000 -0.000 -0.027 -0.000 -0.001
  5  0.040 -0.000 -0.000  0.002 -0.000  0.000  0.013  0.000  0.000
  6  0.084 -0.005  0.000  0.001 -0.000  0.000  0.027  0.000 -0.001
  6 -0.040  0.002 -0.000 -0.000  0.000 -0.000 -0.013 -0.000  0.000
  7  0.000  0.000 -0.000 -0.000 -0.000  0.000 -0.000 -0.000 -0.047
  7 -0.000 -0.000 -0.000  0.000  0.000 -0.000  0.000  0.000  0.022
  8 -0.000  0.000  0.000 -0.000  0.000 -0.000  0.000  0.000  0.047
  8  0.000 -0.000  0.000  0.000 -0.000  0.000 -0.000 -0.000 -0.022
  9  0.000 -0.000  0.000 -0.000  0.000  0.000 -0.000 -0.000 -0.007
  9  0.000 -0.000 -0.000 -0.000  0.000 -0.000 -0.000  0.000  0.003
 10 -0.618 -0.000  0.000 -0.000  0.000  0.000  0.000  0.000  0.000
 10  0.292  0.000  0.000 -0.000  0.000  0.000  0.000  0.000  0.000
 11  0.618 -0.000  0.000  0.000  0.000  0.000  0.000  0.000  0.000
 11 -0.292 -0.000 -0.000 -0.000  0.000  0.000  0.000  0.000  0.000
 12  0.618 -0.000  0.000 -0.000  0.000  0.000  0.000  0.000  0.000
 12 -0.292 -0.000 -0.000  0.000  0.000  0.000  0.000  0.000  0.000
 13 -0.618  0.000 -0.000 -0.000  0.000  0.000  0.000  0.000  0.000
 13  0.292 -0.000 -0.000 -0.000  0.000  0.000  0.000  0.000  0.000
 14  0.000  0.000  0.000  0.000  0.000  0.000  0.000  0.000  0.000
 14 -0.000  0.000  0.000  0.000  0.000  0.000  0.000  0.000  0.000
 15  0.000 -0.000 -0.000 -0.000  0.000  0.000  0.000  0.000  0.000
 15  0.000 -0.000 -0.000 -0.000  0.000  0.000  0.000  0.000  0.000
 
band   7 # energy   -1.98538953 # occ.  1.00000000
 
ion      s     py     pz     px    dxy    dyz    dz2    dxz    dx2    tot
  1  0.000  0.001  0.000  0.001  0.000  0.000  0.000  0.000  0.000  0.002
  2  0.000  0.002  0.000  0.002  0.000  0.001  0.000  0.001  0.000  0.006
  3  0.021  0.005  0.000  0.003  0.001  0.000  0.000  0.000  0.000  0.029
  4  0.021  0.003  0.000  0.005  0.001  0.000  0.000  0.000  0.000  0.029
  5  0.021  0.003  0.000  0.005  0.001  0.000  0.000  0.000  0.000  0.029
  6  0.021  0.005  0.000  0.003  0.001  0.000  0.000  0.000  0.000  0.029
  7  0.000  0.002  0.000  0.002  0.000  0.001  0.000  0.001  0.000  0.006
  8  0.000  0.001  0.000  0.001  0.000  0.000  0.000  0.000  0.000  0.002
  9  0.000  0.000  0.000  0.000  0.000  0.000  0.000  0.000  0.000  0.001
 10  0.000  0.003  0.014  0.005  0.000  0.000  0.000  0.000  0.000  0.023
 11  0.000  0.005  0.015  0.003  0.000  0.000  0.000  0.000  0.000  0.023
 12  0.000  0.005  0.014  0.003  0.000  0.000  0.000  0.000  0.000  0.023
 13  0.000  0.003  0.015  0.005  0.000  0.000  0.000  0.000  0.000  0.023
 14  0.000  0.044  0.000  0.044  0.000  0.000  0.000  0.000  0.000  0.089
 15  0.000  0.143  0.000  0.143  0.000  0.000  0.000  0.000  0.000  0.287
tot  0.083  0.226  0.058  0.226  0.003  0.002  0.000  0.002  0.001  0.601
ion      s     py     pz     px    dxy    dyz    dz2    dxz    dx2
  1  0.000 -0.026 -0.000 -0.026  0.000  0.017  0.000  0.017  0.000
  1  0.000 -0.026 -0.000 -0.026  0.000  0.018  0.000  0.018 -0.000
  2  0.000  0.042 -0.000  0.042  0.000 -0.027  0.000 -0.027 -0.000
  2  0.000  0.043 -0.000  0.043  0.000 -0.027  0.000 -0.027  0.000
  3  0.251 -0.060  0.000  0.047 -0.024 -0.000 -0.009  0.000 -0.017
  3  0.259 -0.062  0.000  0.048 -0.025 -0.000 -0.010  0.000 -0.017
  4 -0.251  0.047  0.000 -0.060  0.024 -0.000  0.009  0.000 -0.017
  4 -0.259  0.048  0.000 -0.062  0.025 -0.000  0.010  0.000 -0.017
  5  0.251  0.047  0.000 -0.060 -0.024  0.000 -0.009 -0.000  0.017
  5  0.259  0.048  0.000 -0.062 -0.025  0.000 -0.010 -0.000  0.017
  6 -0.251 -0.060  0.000  0.047  0.024  0.000  0.009 -0.000  0.017
  6 -0.259 -0.062  0.000  0.048  0.025  0.000  0.010 -0.000  0.017
  7 -0.000  0.042 -0.000  0.042 -0.000  0.027 -0.000  0.027 -0.000
  7 -0.000  0.043 -0.000  0.043 -0.000  0.027 -0.000  0.027  0.000
  8 -0.000 -0.026 -0.000 -0.026 -0.000 -0.017 -0.000 -0.017  0.000
  8 -0.000 -0.026 -0.000 -0.026 -0.000 -0.018 -0.000 -0.018 -0.000
  9  0.000 -0.015 -0.000 -0.015 -0.000 -0.000  0.000 -0.000 -0.000
  9 -0.000 -0.015 -0.000 -0.015 -0.000  0.000 -0.000 -0.000  0.000
 10 -0.000  0.073  0.153 -0.090  0.000  0.000  0.000  0.000  0.000
 10 -0.000  0.075  0.158 -0.093  0.000  0.000  0.000  0.000  0.000
 11  0.000 -0.090 -0.153  0.073  0.000  0.000  0.000  0.000  0.000
 11 -0.000 -0.093 -0.158  0.075  0.000  0.000  0.000  0.000  0.000
 12  0.000 -0.090  0.153  0.073  0.000  0.000  0.000  0.000  0.000
 12 -0.000 -0.093  0.158  0.075  0.000  0.000  0.000  0.000  0.000
 13 -0.000  0.073 -0.153 -0.090  0.000  0.000  0.000  0.000  0.000
 13 -0.000  0.075 -0.158 -0.093  0.000  0.000  0.000  0.000  0.000
 14  0.000 -0.266  0.000 -0.266  0.000  0.000  0.000  0.000  0.000
 14 -0.000 -0.274  0.000 -0.274  0.000  0.000  0.000  0.000  0.000
 15  0.000  0.451  0.000  0.451  0.000  0.000  0.000  0.000  0.000
 15 -0.000  0.465  0.000  0.465  0.000  0.000  0.000  0.000  0.000
 
band   8 # energy   -1.91619889 # occ.  1.00000000
 
ion      s     py     pz     px    dxy    dyz    dz2    dxz    dx2    tot
  1  0.000  0.000  0.001  0.000  0.001  0.000  0.000  0.000  0.000  0.002
  2  0.044  0.000  0.007  0.000  0.000  0.000  0.001  0.000  0.000  0.052
  3  0.000  0.000  0.004  0.000  0.000  0.002  0.000  0.000  0.000  0.006
  4  0.000  0.000  0.004  0.000  0.000  0.000  0.000  0.002  0.000  0.006
  5  0.000  0.000  0.004  0.000  0.000  0.000  0.000  0.002  0.000  0.006
  6  0.000  0.000  0.004  0.000  0.000  0.002  0.000  0.000  0.000  0.006
  7  0.044  0.000  0.007  0.000  0.000  0.000  0.001  0.000  0.000  0.052
  8  0.000  0.000  0.001  0.000  0.001  0.000  0.000  0.000  0.000  0.002
  9  0.000  0.000  0.001  0.000  0.000  0.000  0.000  0.000  0.000  0.001
 10  0.000  0.000  0.008  0.035  0.000  0.000  0.000  0.000  0.000  0.043
 11  0.000  0.035  0.008  0.000  0.000  0.000  0.000  0.000  0.000  0.043
 12  0.000  0.035  0.008  0.000  0.000  0.000  0.000  0.000  0.000  0.043
 13  0.000  0.000  0.008  0.035  0.000  0.000  0.000  0.000  0.000  0.043
 14  0.000  0.000  0.008  0.000  0.000  0.000  0.000  0.000  0.000  0.008
 15  0.000  0.000  0.282  0.000  0.000  0.000  0.000  0.000  0.000  0.282
tot  0.089  0.071  0.353  0.071  0.002  0.004  0.001  0.004  0.000  0.594
ion      s     py     pz     px    dxy    dyz    dz2    dxz    dx2
  1 -0.033 -0.000  0.022 -0.000 -0.024  0.000 -0.002  0.000  0.000
  1  0.043  0.000 -0.028  0.000  0.031 -0.000  0.003 -0.000 -0.000
  2 -0.325  0.000  0.065  0.000 -0.003 -0.000 -0.022 -0.000  0.000
  2  0.414 -0.000 -0.083 -0.000  0.003  0.000  0.029  0.000 -0.000
  3  0.000 -0.000 -0.048  0.000 -0.000  0.035 -0.000 -0.003 -0.000
  3 -0.000  0.000  0.061 -0.000  0.000 -0.045  0.000  0.004  0.000
  4 -0.000  0.000 -0.048 -0.000  0.000  0.003  0.000 -0.035 -0.000
  4  0.000 -0.000  0.061  0.000 -0.000 -0.004 -0.000  0.045  0.000
  5  0.000  0.000 -0.048 -0.000 -0.000 -0.003 -0.000  0.035  0.000
  5 -0.000 -0.000  0.061  0.000  0.000  0.004  0.000 -0.045 -0.000
  6 -0.000 -0.000 -0.048  0.000  0.000 -0.035  0.000  0.003  0.000
  6  0.000  0.000  0.061 -0.000 -0.000  0.045 -0.000 -0.004 -0.000
  7  0.325  0.000  0.065  0.000  0.003  0.000  0.022  0.000 -0.000
  7 -0.414 -0.000 -0.083 -0.000 -0.003 -0.000 -0.029 -0.000  0.000
  8  0.033 -0.000  0.022 -0.000  0.024 -0.000  0.002 -0.000 -0.000
  8 -0.043  0.000 -0.028  0.000 -0.031  0.000 -0.003  0.000  0.000
  9  0.000 -0.000  0.029 -0.000 -0.000  0.000 -0.000  0.000 -0.000
  9 -0.000  0.000 -0.037  0.000 -0.000 -0.000 -0.000 -0.000  0.000
 10 -0.000  0.022  0.099 -0.210  0.000  0.000  0.000  0.000  0.000
 10 -0.000 -0.029 -0.126  0.268  0.000  0.000  0.000  0.000  0.000
 11 -0.000  0.210  0.099 -0.022  0.000  0.000  0.000  0.000  0.000
 11 -0.000 -0.268 -0.126  0.028  0.000  0.000  0.000  0.000  0.000
 12 -0.000 -0.210  0.099  0.022  0.000  0.000  0.000  0.000  0.000
 12 -0.000  0.268 -0.126 -0.029  0.000  0.000  0.000  0.000  0.000
 13 -0.000 -0.022  0.099  0.210  0.000  0.000  0.000  0.000  0.000
 13 -0.000  0.028 -0.126 -0.268  0.000  0.000  0.000  0.000  0.000
 14  0.000 -0.000 -0.100 -0.000  0.000  0.000  0.000  0.000  0.000
 14  0.000  0.000  0.127  0.000  0.000  0.000  0.000  0.000  0.000
 15  0.000  0.000 -0.560  0.000  0.000  0.000  0.000  0.000  0.000
 15  0.000 -0.000  0.713 -0.000  0.000  0.000  0.000  0.000  0.000
 
band   9 # energy   -1.54443014 # occ.  1.00000000
 
ion      s     py     pz     px    dxy    dyz    dz2    dxz    dx2    tot
  1  0.000  0.000  0.000  0.000  0.000  0.000  0.000  0.000  0.000  0.001
  2  0.000  0.002  0.000  0.002  0.000  0.001  0.000  0.001  0.000  0.006
  3  0.021  0.004  0.000  0.001  0.001  0.000  0.000  0.000  0.001  0.027
  4  0.021  0.001  0.000  0.004  0.001  0.000  0.000  0.000  0.001  0.027
  5  0.021  0.001  0.000  0.004  0.001  0.000  0.000  0.000  0.001  0.027
  6  0.021  0.004  0.000  0.001  0.001  0.000  0.000  0.000  0.001  0.027
  7  0.000  0.002  0.000  0.002  0.000  0.001  0.000  0.001  0.000  0.006
  8  0.000  0.000  0.000  0.000  0.000  0.000  0.000  0.000  0.000  0.001
  9  0.000  0.001  0.000  0.001  0.000  0.000  0.000  0.000  0.000  0.002
 10  0.000  0.001  0.021  0.005  0.000  0.000  0.000  0.000  0.000  0.027
 11  0.000  0.005  0.021  0.001  0.000  0.000  0.000  0.000  0.000  0.027
 12  0.000  0.005  0.021  0.001  0.000  0.000  0.000  0.000  0.000  0.027
 13  0.000  0.001  0.021  0.005  0.000  0.000  0.000  0.000  0.000  0.027
 14  0.000  0.010  0.000  0.010  0.000  0.000  0.000  0.000  0.000  0.019
 15  0.000  0.179  0.000  0.179  0.000  0.000  0.000  0.000  0.000  0.358
tot  0.085  0.214  0.084  0.214  0.005  0.003  0.000  0.003  0.003  0.610
ion      s     py     pz     px    dxy    dyz    dz2    dxz    dx2
  1 -0.000 -0.009 -0.000  0.009 -0.000 -0.012 -0.000  0.012 -0.000
  1  0.000  0.015  0.000 -0.015  0.000  0.022  0.000 -0.022  0.000
  2 -0.000  0.028  0.000 -0.028  0.000 -0.022  0.000  0.022 -0.000
  2  0.000 -0.051  0.000  0.051 -0.000  0.039 -0.000 -0.039  0.000
  3  0.178 -0.037  0.000 -0.015  0.023  0.000 -0.004  0.000 -0.018
  3 -0.317  0.066 -0.000  0.027 -0.040 -0.000  0.006 -0.000  0.033
  4  0.178  0.015 -0.000  0.037  0.023  0.000 -0.004  0.000  0.018
  4 -0.317 -0.027  0.000 -0.066 -0.040 -0.000  0.006 -0.000 -0.033
  5 -0.178  0.015 -0.000  0.037 -0.023 -0.000  0.004 -0.000 -0.018
  5  0.317 -0.027  0.000 -0.066  0.040  0.000 -0.006  0.000  0.033
  6 -0.178 -0.037  0.000 -0.015 -0.023 -0.000  0.004 -0.000  0.018
  6  0.317  0.066 -0.000  0.027  0.040  0.000 -0.006  0.000 -0.033
  7  0.000  0.028 -0.000 -0.028 -0.000  0.022 -0.000 -0.022  0.000
  7 -0.000 -0.051 -0.000  0.051  0.000 -0.039  0.000  0.039 -0.000
  8  0.000 -0.009 -0.000  0.009  0.000  0.012  0.000 -0.012  0.000
  8 -0.000  0.015  0.000 -0.015 -0.000 -0.022 -0.000  0.022 -0.000
  9 -0.000 -0.019  0.000  0.019  0.000  0.000 -0.000 -0.000 -0.000
  9 -0.000  0.034 -0.000 -0.034  0.000  0.000 -0.000  0.000  0.000
 10 -0.000  0.030 -0.127  0.059  0.000  0.000  0.000  0.000  0.000