PROCAR lm decomposed + phase
# of k-points:    6         # of bands:  44         # of ions:  15

 k-point    1 :    0.25000000 0.25000000 0.25000000     weight = 0.12500000

band   1 # energy  -14.95377650 # occ.  1.00000000
 
ion      s     py     pz     px    dxy    dyz    dz2    dxz    dx2    tot
  1  0.000  0.000  0.000  0.000  0.000  0.000  0.000  0.000  0.000  0.000
  2  0.004  0.000  0.003  0.000  0.000  0.000  0.001  0.000  0.000  0.008
  3  0.004  0.003  0.000  0.000  0.000  0.000  0.000  0.000  0.001  0.008
  4  0.004  0.000  0.000  0.003  0.000  0.000  0.000  0.000  0.001  0.008
  5  0.004  0.000  0.000  0.003  0.000  0.000  0.000  0.000  0.001  0.008
  6  0.004  0.003  0.000  0.000  0.000  0.000  0.000  0.000  0.001  0.008
  7  0.004  0.000  0.003  0.000  0.000  0.000  0.001  0.000  0.000  0.008
  8  0.000  0.000  0.000  0.000  0.000  0.000  0.000  0.000  0.000  0.000
  9  0.000  0.000  0.000  0.000  0.000  0.000  0.000  0.000  0.000  0.000
 10  0.007  0.000  0.000  0.000  0.000  0.000  0.000  0.000  0.000  0.007
 11  0.004  0.000  0.000  0.000  0.000  0.000  0.000  0.000  0.000  0.004
 12  0.007  0.000  0.000  0.000  0.000  0.000  0.000  0.000  0.000  0.007
 13  0.004  0.000  0.000  0.000  0.000  0.000  0.000  0.000  0.000  0.004
 14  0.005  0.000  0.000  0.000  0.000  0.000  0.000  0.000  0.000  0.005
 15  0.734  0.000  0.000  0.000  0.000  0.000  0.000  0.000  0.000  0.734
tot  0.785  0.006  0.006  0.006  0.000  0.000  0.003  0.000  0.003  0.810
ion      s     py     pz     px    dxy    dyz    dz2    dxz    dx2
  1 -0.021  0.003  0.004  0.003 -0.000 -0.000  0.000 -0.000  0.000
  1 -0.034 -0.003  0.001 -0.003  0.000  0.001  0.002  0.001  0.000
  2 -0.125  0.003  0.056  0.003 -0.000  0.000 -0.033  0.000  0.000
  2 -0.116 -0.001  0.045 -0.001  0.000 -0.000 -0.026 -0.000  0.000
  3 -0.120  0.056  0.003  0.000 -0.001  0.000  0.016  0.000  0.030
  3 -0.111  0.045 -0.001 -0.003 -0.001 -0.000  0.012  0.000  0.023
  4 -0.036  0.003  0.002 -0.011 -0.000  0.000  0.003 -0.000 -0.005
  4 -0.160  0.001 -0.002 -0.071 -0.001  0.000  0.020  0.000 -0.037
  5 -0.120  0.000  0.003  0.056 -0.001  0.000  0.016  0.000 -0.030
  5 -0.111 -0.003 -0.001  0.045 -0.001  0.000  0.012 -0.000 -0.023
  6 -0.036 -0.011  0.002  0.003 -0.000 -0.000  0.003  0.000  0.005
  6 -0.160 -0.071 -0.002  0.001 -0.001  0.000  0.020  0.000  0.037
  7 -0.037  0.002 -0.011  0.002  0.000 -0.000 -0.006 -0.000  0.000
  7 -0.166 -0.002 -0.071 -0.002 -0.000  0.000 -0.042  0.000  0.000
  8 -0.019  0.004  0.001  0.004  0.001  0.001  0.002  0.001  0.000
  8 -0.035 -0.001 -0.004 -0.001 -0.000 -0.000  0.001 -0.000  0.000
  9 -0.009  0.002  0.002  0.002  0.000  0.000 -0.000  0.000  0.000
  9 -0.016 -0.001 -0.001 -0.001  0.001  0.000 -0.000  0.000 -0.000
 10 -0.075  0.002  0.001  0.001  0.000  0.000  0.000  0.000  0.000
 10 -0.129 -0.001 -0.000 -0.000  0.000  0.000  0.000  0.000  0.000
 11 -0.059  0.012  0.011  0.001  0.000  0.000  0.000  0.000  0.000
 11 -0.102 -0.007 -0.006 -0.001  0.000  0.000  0.000  0.000  0.000
 12 -0.075  0.001  0.001  0.002  0.000  0.000  0.000  0.000  0.000
 12 -0.129 -0.000 -0.000 -0.001  0.000  0.000  0.000  0.000  0.000
 13 -0.059  0.001  0.011  0.012  0.000  0.000  0.000  0.000  0.000
 13 -0.102 -0.001 -0.006 -0.007  0.000  0.000  0.000  0.000  0.000
 14 -0.067  0.012  0.002  0.012  0.000  0.000  0.000  0.000  0.000
 14 -0.116 -0.007 -0.001 -0.007  0.000  0.000  0.000  0.000  0.000
 15 -0.715  0.001  0.001  0.001  0.000  0.000  0.000  0.000  0.000
 15 -1.239 -0.000 -0.000 -0.000  0.000  0.000  0.000  0.000  0.000
 
band   2 # energy  -13.34813176 # occ.  1.00000000
 
ion      s     py     pz     px    dxy    dyz    dz2    dxz    dx2    tot
  1  0.005  0.000  0.001  0.000  0.000  0.000  0.000  0.000  0.000  0.005
  2  0.002  0.000  0.000  0.000  0.000  0.000  0.000  0.000  0.000  0.003
  3  0.002  0.000  0.000  0.001  0.000  0.000  0.000  0.000  0.000  0.003
  4  0.002  0.001  0.000  0.000  0.000  0.000  0.000  0.000  0.000  0.003
  5  0.002  0.001  0.000  0.000  0.000  0.000  0.000  0.000  0.000  0.003
  6  0.002  0.000  0.000  0.001  0.000  0.000  0.000  0.000  0.000  0.003
  7  0.002  0.000  0.000  0.000  0.000  0.000  0.000  0.000  0.000  0.003
  8  0.005  0.000  0.001  0.000  0.000  0.000  0.000  0.000  0.000  0.005
  9  0.001  0.000  0.000  0.000  0.000  0.000  0.000  0.000  0.000  0.001
 10  0.077  0.000  0.000  0.000  0.000  0.000  0.000  0.000  0.000  0.077
 11  0.125  0.000  0.000  0.000  0.000  0.000  0.000  0.000  0.000  0.125
 12  0.077  0.000  0.000  0.000  0.000  0.000  0.000  0.000  0.000  0.077
 13  0.125  0.000  0.000  0.000  0.000  0.000  0.000  0.000  0.000  0.125
 14  0.294  0.000  0.000  0.000  0.000  0.000  0.000  0.000  0.000  0.294
 15  0.037  0.000  0.000  0.000  0.000  0.000  0.000  0.000  0.000  0.037
tot  0.755  0.002  0.002  0.002  0.000  0.000  0.001  0.000  0.001  0.765
ion      s     py     pz     px    dxy    dyz    dz2    dxz    dx2
  1  0.116 -0.013 -0.024 -0.013 -0.000 -0.000  0.004 -0.000 -0.000
  1  0.143  0.003 -0.018  0.003  0.000  0.000 -0.004  0.000 -0.000
  2  0.030 -0.011  0.016 -0.011  0.000 -0.000 -0.016 -0.000 -0.000
  2  0.102  0.010  0.017  0.010 -0.000  0.000 -0.022  0.000 -0.000
  3  0.011  0.015 -0.011  0.002  0.000 -0.001  0.011  0.000  0.009
  3  0.109  0.017  0.010  0.032  0.002  0.000  0.010 -0.000  0.021
  4  0.089 -0.027 -0.014 -0.007  0.002 -0.000  0.003  0.001 -0.013
  4  0.064 -0.018  0.004 -0.021  0.001 -0.000  0.015 -0.000 -0.018
  5  0.011  0.002 -0.011  0.015  0.000  0.000  0.011 -0.001 -0.009
  5  0.109  0.032  0.010  0.017  0.002 -0.000  0.010  0.000 -0.021
  6  0.089 -0.007 -0.014 -0.027  0.002  0.001  0.003 -0.000  0.013
  6  0.064 -0.021  0.004 -0.018  0.001 -0.000  0.015 -0.000  0.018
  7  0.073 -0.014 -0.007 -0.014 -0.000  0.000 -0.011  0.000 -0.000
  7  0.078  0.004 -0.022  0.004  0.000 -0.000 -0.025 -0.000 -0.000
  8  0.066 -0.009  0.004 -0.009  0.000  0.000 -0.006  0.000 -0.000
  8  0.172  0.010  0.030  0.010 -0.000 -0.000  0.001 -0.000 -0.000
  9  0.032 -0.002 -0.004 -0.002 -0.002 -0.001  0.000 -0.001 -0.000
  9  0.055  0.001  0.002  0.001 -0.004 -0.001  0.000 -0.001 -0.000
 10  0.227 -0.014 -0.009 -0.006  0.000  0.000  0.000  0.000  0.000
 10  0.394  0.008  0.005  0.004  0.000  0.000  0.000  0.000  0.000
 11  0.288 -0.001  0.003 -0.004  0.000  0.000  0.000  0.000  0.000
 11  0.500  0.001 -0.002  0.002  0.000  0.000  0.000  0.000  0.000
 12  0.227 -0.006 -0.009 -0.014  0.000  0.000  0.000  0.000  0.000
 12  0.394  0.004  0.005  0.008  0.000  0.000  0.000  0.000  0.000
 13  0.288 -0.004  0.003 -0.001  0.000  0.000  0.000  0.000  0.000
 13  0.500  0.002 -0.002  0.001  0.000  0.000  0.000  0.000  0.000
 14  0.438 -0.000 -0.007 -0.000  0.000  0.000  0.000  0.000  0.000
 14  0.760  0.000  0.004  0.000  0.000  0.000  0.000  0.000  0.000
 15 -0.141 -0.016 -0.013 -0.016  0.000  0.000  0.000  0.000  0.000
 15 -0.244  0.009  0.007  0.009  0.000  0.000  0.000  0.000  0.000
 
band   3 # energy  -12.80653529 # occ.  1.00000000
 
ion      s     py     pz     px    dxy    dyz    dz2    dxz    dx2    tot
  1  0.001  0.001  0.000  0.001  0.000  0.000  0.000  0.000  0.000  0.003
  2  0.001  0.001  0.000  0.001  0.000  0.000  0.000  0.000  0.000  0.003
  3  0.000  0.000  0.001  0.000  0.000  0.000  0.000  0.000  0.000  0.002
  4  0.000  0.000  0.001  0.000  0.000  0.000  0.000  0.000  0.000  0.002
  5  0.000  0.000  0.001  0.000  0.000  0.000  0.000  0.000  0.000  0.002
  6  0.000  0.000  0.001  0.000  0.000  0.000  0.000  0.000  0.000  0.002
  7  0.001  0.001  0.000  0.001  0.000  0.000  0.000  0.000  0.000  0.003
  8  0.001  0.001  0.000  0.001  0.000  0.000  0.000  0.000  0.000  0.003
  9  0.000  0.000  0.000  0.000  0.000  0.000  0.000  0.000  0.000  0.000
 10  0.292  0.000  0.000  0.000  0.000  0.000  0.000  0.000  0.000  0.292
 11  0.043  0.000  0.000  0.000  0.000  0.000  0.000  0.000  0.000  0.043
 12  0.292  0.000  0.000  0.000  0.000  0.000  0.000  0.000  0.000  0.292
 13  0.043  0.000  0.000  0.000  0.000  0.000  0.000  0.000  0.000  0.043
 14  0.093  0.000  0.000  0.000  0.000  0.000  0.000  0.000  0.000  0.093
 15  0.004  0.000  0.000  0.000  0.000  0.000  0.000  0.000  0.000  0.004
tot  0.772  0.004  0.005  0.004  0.000  0.000  0.002  0.000  0.000  0.787
ion      s     py     pz     px    dxy    dyz    dz2    dxz    dx2
  1 -0.051  0.013  0.014  0.013  0.000  0.000 -0.005  0.000  0.000
  1  0.071  0.037  0.011  0.037 -0.000  0.000 -0.020  0.000 -0.000
  2  0.083 -0.024  0.009 -0.024 -0.001 -0.003 -0.015 -0.003 -0.000
  2  0.021 -0.031  0.005 -0.031  0.000 -0.002 -0.007 -0.002 -0.000
  3  0.038  0.005 -0.025 -0.002 -0.001 -0.003  0.015 -0.001  0.001
  3 -0.026  0.003 -0.031 -0.019 -0.001 -0.002  0.011  0.000 -0.007
  4 -0.042  0.015  0.014  0.000 -0.001  0.001  0.002 -0.001  0.007
  4  0.019  0.011  0.037 -0.006 -0.001 -0.001  0.018 -0.004  0.003
  5  0.038 -0.002 -0.025  0.005 -0.001 -0.001  0.015 -0.003 -0.001
  5 -0.026 -0.019 -0.031  0.003 -0.001  0.000  0.011 -0.002  0.007
  6 -0.042  0.000  0.014  0.015 -0.001 -0.001  0.002  0.001 -0.007
  6  0.019 -0.006  0.037  0.011 -0.001 -0.004  0.018 -0.001 -0.003
  7 -0.023  0.015  0.000  0.015  0.000 -0.001  0.002 -0.001  0.000
  7  0.082  0.036 -0.010  0.036 -0.000 -0.003 -0.016 -0.003 -0.000
  8  0.087 -0.025 -0.002 -0.025 -0.000 -0.000 -0.015 -0.000 -0.000
  8 -0.009 -0.029 -0.018 -0.029  0.000  0.000 -0.014  0.000 -0.000
  9  0.000 -0.004 -0.009 -0.004  0.001  0.003  0.001  0.003 -0.000
  9  0.001  0.003  0.005  0.003  0.002  0.004  0.002  0.004 -0.000
 10  0.422  0.010  0.006  0.005  0.000  0.000  0.000  0.000  0.000
 10  0.732 -0.006 -0.004 -0.003  0.000  0.000  0.000  0.000  0.000
 11 -0.162 -0.010 -0.002 -0.011  0.000  0.000  0.000  0.000  0.000
 11 -0.280  0.006  0.001  0.006  0.000  0.000  0.000  0.000  0.000
 12  0.422  0.005  0.006  0.010  0.000  0.000  0.000  0.000  0.000
 12  0.732 -0.003 -0.004 -0.006  0.000  0.000  0.000  0.000  0.000
 13 -0.162 -0.011 -0.002 -0.010  0.000  0.000  0.000  0.000  0.000
 13 -0.280  0.006  0.001  0.006  0.000  0.000  0.000  0.000  0.000
 14 -0.236 -0.009 -0.018 -0.009  0.000  0.000  0.000  0.000  0.000
 14 -0.409  0.005  0.010  0.005  0.000  0.000  0.000  0.000  0.000
 15 -0.043  0.010  0.008  0.010  0.000  0.000  0.000  0.000  0.000
 15 -0.075 -0.006 -0.005 -0.006  0.000  0.000  0.000  0.000  0.000
 
band   4 # energy  -12.70738990 # occ.  1.00000000
 
ion      s     py     pz     px    dxy    dyz    dz2    dxz    dx2    tot
  1  0.000  0.000  0.001  0.000  0.000  0.000  0.001  0.000  0.000  0.002
  2  0.001  0.000  0.000  0.000  0.000  0.000  0.000  0.000  0.000  0.002
  3  0.000  0.000  0.000  0.001  0.000  0.000  0.000  0.000  0.000  0.002
  4  0.000  0.001  0.000  0.000  0.000  0.000  0.000  0.000  0.000  0.002
  5  0.000  0.001  0.000  0.000  0.000  0.000  0.000  0.000  0.000  0.002
  6  0.000  0.000  0.000  0.001  0.000  0.000  0.000  0.000  0.000  0.002
  7  0.001  0.000  0.000  0.000  0.000  0.000  0.000  0.000  0.000  0.002
  8  0.000  0.000  0.001  0.000  0.000  0.000  0.001  0.000  0.000  0.002
  9  0.000  0.000  0.000  0.000  0.000  0.000  0.000  0.000  0.000  0.000
 10  0.000  0.000  0.000  0.000  0.000  0.000  0.000  0.000  0.000  0.000
 11  0.203  0.000  0.000  0.000  0.000  0.000  0.000  0.000  0.000  0.203
 12  0.000  0.000  0.000  0.000  0.000  0.000  0.000  0.000  0.000  0.000
 13  0.203  0.000  0.000  0.000  0.000  0.000  0.000  0.000  0.000  0.203
 14  0.375  0.000  0.000  0.000  0.000  0.000  0.000  0.000  0.000  0.375
 15  0.000  0.000  0.000  0.000  0.000  0.000  0.000  0.000  0.000  0.001
tot  0.786  0.003  0.003  0.003  0.000  0.000  0.003  0.000  0.001  0.799
ion      s     py     pz     px    dxy    dyz    dz2    dxz    dx2
  1 -0.024  0.020 -0.028  0.020  0.000  0.000  0.029  0.000  0.000
  1 -0.020  0.015 -0.022  0.015  0.000  0.000  0.022  0.000  0.000
  2 -0.003 -0.003 -0.003 -0.003  0.000  0.000  0.003  0.000  0.000
  2 -0.099 -0.024 -0.005 -0.024  0.000 -0.003  0.015 -0.003  0.000
  3  0.002 -0.001 -0.001  0.004  0.000 -0.001 -0.003 -0.000  0.001
  3  0.022 -0.001 -0.026  0.037  0.004 -0.002 -0.026  0.000  0.018
  4  0.018 -0.030  0.022  0.000  0.003  0.000 -0.021 -0.001 -0.015
  4  0.013 -0.022  0.014  0.001  0.002 -0.000 -0.016 -0.001 -0.010
  5  0.002  0.004 -0.001 -0.001  0.000 -0.000 -0.003 -0.001 -0.001
  5  0.022  0.037 -0.026 -0.001  0.004  0.000 -0.026 -0.002 -0.018
  6  0.018  0.000  0.022 -0.030  0.003 -0.001 -0.021  0.000  0.015
  6  0.013  0.001  0.014 -0.022  0.002 -0.001 -0.016 -0.000  0.010
  7 -0.084  0.019  0.003  0.019 -0.000 -0.002  0.011 -0.002  0.000
  7 -0.052  0.015  0.005  0.015  0.000 -0.001  0.010 -0.001  0.000
  8 -0.005 -0.003  0.005 -0.003 -0.000  0.000  0.005  0.000  0.000
  8 -0.030 -0.025  0.036 -0.025  0.000  0.000  0.036  0.000  0.000
  9 -0.006  0.000 -0.000  0.000 -0.003  0.002 -0.003  0.002 -0.000
  9 -0.010 -0.000  0.000 -0.000 -0.005  0.003 -0.005  0.003 -0.000
 10 -0.004 -0.001 -0.009  0.009  0.000  0.000  0.000  0.000  0.000
 10 -0.006  0.001  0.005 -0.005  0.000  0.000  0.000  0.000  0.000
 11 -0.350 -0.001 -0.001 -0.000  0.000  0.000  0.000  0.000  0.000
 11 -0.607  0.001  0.000  0.000  0.000  0.000  0.000  0.000  0.000
 12 -0.004  0.009 -0.009 -0.001  0.000  0.000  0.000  0.000  0.000
 12 -0.006 -0.005  0.005  0.001  0.000  0.000  0.000  0.000  0.000
 13 -0.350 -0.000 -0.001 -0.001  0.000  0.000  0.000  0.000  0.000
 13 -0.607  0.000  0.000  0.001  0.000  0.000  0.000  0.000  0.000
 14  0.472  0.000  0.001  0.000  0.000  0.000  0.000  0.000  0.000
 14  0.818 -0.000 -0.000 -0.000  0.000  0.000  0.000  0.000  0.000
 15  0.015 -0.003  0.018 -0.003  0.000  0.000  0.000  0.000  0.000
 15  0.026  0.002 -0.010  0.002  0.000  0.000  0.000  0.000  0.000
 
band   5 # energy  -12.66979027 # occ.  1.00000000
 
ion      s     py     pz     px    dxy    dyz    dz2    dxz    dx2    tot
  1  0.000  0.001  0.000  0.001  0.000  0.000  0.000  0.000  0.000  0.003
  2  0.000  0.001  0.000  0.001  0.000  0.000  0.000  0.000  0.000  0.003
  3  0.000  0.000  0.001  0.000  0.000  0.000  0.000  0.000  0.000  0.002
  4  0.000  0.000  0.001  0.000  0.000  0.000  0.000  0.000  0.000  0.002
  5  0.000  0.000  0.001  0.000  0.000  0.000  0.000  0.000  0.000  0.002
  6  0.000  0.000  0.001  0.000  0.000  0.000  0.000  0.000  0.000  0.002
  7  0.000  0.001  0.000  0.001  0.000  0.000  0.000  0.000  0.000  0.003
  8  0.000  0.001  0.000  0.001  0.000  0.000  0.000  0.000  0.000  0.003
  9  0.000  0.000  0.000  0.000  0.000  0.000  0.000  0.000  0.000  0.000
 10  0.194  0.000  0.000  0.000  0.000  0.000  0.000  0.000  0.000  0.194
 11  0.195  0.000  0.000  0.000  0.000  0.000  0.000  0.000  0.000  0.195
 12  0.194  0.000  0.000  0.000  0.000  0.000  0.000  0.000  0.000  0.194
 13  0.195  0.000  0.000  0.000  0.000  0.000  0.000  0.000  0.000  0.195
 14  0.000  0.000  0.000  0.000  0.000  0.000  0.000  0.000  0.000  0.000
 15  0.000  0.000  0.000  0.000  0.000  0.000  0.000  0.000  0.000  0.000
tot  0.777  0.005  0.005  0.005  0.000  0.000  0.000  0.000  0.001  0.794
ion      s     py     pz     px    dxy    dyz    dz2    dxz    dx2
  1  0.000 -0.024  0.000  0.024  0.000 -0.000 -0.000  0.000 -0.016
  1 -0.000 -0.039  0.000  0.039  0.000 -0.000 -0.000  0.000  0.010
  2  0.000 -0.023  0.000  0.023  0.000 -0.002 -0.000  0.002 -0.017
  2 -0.000 -0.040  0.000  0.040  0.000 -0.003 -0.000  0.003  0.010
  3  0.034  0.002 -0.023 -0.000  0.001 -0.001  0.009  0.001 -0.000
  3 -0.021 -0.000 -0.039  0.001 -0.001 -0.004 -0.006  0.001  0.000
  4  0.033  0.001 -0.025 -0.001  0.001 -0.000  0.009  0.003  0.000
  4 -0.022  0.000 -0.038  0.001 -0.000 -0.001 -0.006  0.003 -0.000
  5 -0.034  0.000  0.023 -0.002 -0.001 -0.001 -0.009  0.001 -0.000
  5  0.021 -0.001  0.039  0.000  0.001 -0.001  0.006  0.004  0.000
  6 -0.033  0.001  0.025 -0.001 -0.001 -0.003 -0.009  0.000  0.000
  6  0.022 -0.001  0.038 -0.000  0.000 -0.003  0.006  0.001 -0.000
  7 -0.000  0.026 -0.000 -0.026  0.000 -0.002  0.000  0.002  0.016
  7  0.000  0.038 -0.000 -0.038  0.000 -0.004 -0.000  0.004 -0.011
  8 -0.000  0.024 -0.000 -0.024  0.000 -0.000  0.000  0.000  0.016
  8  0.000  0.038 -0.000 -0.038  0.000 -0.000 -0.000  0.000 -0.010
  9  0.000 -0.004  0.000  0.004  0.000  0.004 -0.000 -0.004  0.001
  9  0.000  0.002 -0.000 -0.002  0.000  0.006 -0.000 -0.006  0.001
 10 -0.364  0.005 -0.002  0.005  0.000  0.000  0.000  0.000  0.000
 10 -0.576 -0.003  0.001 -0.003  0.000  0.000  0.000  0.000  0.000
 11 -0.365  0.005 -0.002  0.005  0.000  0.000  0.000  0.000  0.000
 11 -0.578 -0.003  0.001 -0.003  0.000  0.000  0.000  0.000  0.000
 12  0.364 -0.005  0.002 -0.005  0.000  0.000  0.000  0.000  0.000
 12  0.576  0.003 -0.001  0.003  0.000  0.000  0.000  0.000  0.000
 13  0.365 -0.005  0.002 -0.005  0.000  0.000  0.000  0.000  0.000
 13  0.578  0.003 -0.001  0.003  0.000  0.000  0.000  0.000  0.000
 14 -0.000  0.007  0.000 -0.007  0.000  0.000  0.000  0.000  0.000
 14 -0.000 -0.005 -0.000  0.005  0.000  0.000  0.000  0.000  0.000
 15  0.000  0.009 -0.000 -0.009  0.000  0.000  0.000  0.000  0.000
 15  0.000 -0.005  0.000  0.005  0.000  0.000  0.000  0.000  0.000
 
band   6 # energy  -12.49188032 # occ.  1.00000000
 
ion      s     py     pz     px    dxy    dyz    dz2    dxz    dx2    tot
  1  0.000  0.000  0.000  0.000  0.000  0.000  0.000  0.000  0.001  0.002
  2  0.000  0.000  0.000  0.000  0.000  0.000  0.000  0.000  0.001  0.002
  3  0.001  0.000  0.000  0.000  0.000  0.000  0.000  0.000  0.000  0.002
  4  0.001  0.000  0.000  0.000  0.000  0.000  0.000  0.000  0.000  0.002
  5  0.001  0.000  0.000  0.000  0.000  0.000  0.000  0.000  0.000  0.002
  6  0.001  0.000  0.000  0.000  0.000  0.000  0.000  0.000  0.000  0.002
  7  0.000  0.000  0.000  0.000  0.000  0.000  0.000  0.000  0.001  0.002
  8  0.000  0.000  0.000  0.000  0.000  0.000  0.000  0.000  0.001  0.002
  9  0.000  0.000  0.000  0.000  0.000  0.000  0.000  0.000  0.000  0.000
 10  0.199  0.000  0.000  0.000  0.000  0.000  0.000  0.000  0.000  0.199
 11  0.198  0.000  0.000  0.000  0.000  0.000  0.000  0.000  0.000  0.198
 12  0.199  0.000  0.000  0.000  0.000  0.000  0.000  0.000  0.000  0.199
 13  0.198  0.000  0.000  0.000  0.000  0.000  0.000  0.000  0.000  0.198
 14  0.000  0.000  0.000  0.000  0.000  0.000  0.000  0.000  0.000  0.000
 15  0.000  0.000  0.000  0.000  0.000  0.000  0.000  0.000  0.000  0.000
tot  0.797  0.001  0.001  0.001  0.000  0.000  0.002  0.000  0.005  0.807
ion      s     py     pz     px    dxy    dyz    dz2    dxz    dx2
  1 -0.000  0.015 -0.000 -0.015 -0.000  0.000  0.000 -0.000  0.029
  1 -0.000 -0.012 -0.000  0.012 -0.000 -0.000  0.000  0.000  0.038
  2  0.000 -0.016 -0.000  0.016 -0.000 -0.001 -0.000  0.001 -0.028
  2  0.000  0.012 -0.000 -0.012 -0.000  0.001 -0.000 -0.001 -0.039
  3  0.051  0.004 -0.015  0.001  0.000 -0.001  0.016  0.000 -0.000
  3  0.071  0.003  0.011 -0.001  0.000  0.001  0.022  0.000 -0.001
  4 -0.057 -0.002  0.014  0.002 -0.000  0.000 -0.018 -0.002 -0.001
  4 -0.067  0.000 -0.012  0.005 -0.000 -0.000 -0.021  0.001 -0.001
  5 -0.051 -0.001  0.015 -0.004 -0.000 -0.000 -0.016  0.001 -0.000
  5 -0.071  0.001 -0.011 -0.003 -0.000 -0.000 -0.022 -0.001 -0.001
  6  0.057 -0.002 -0.014  0.002  0.000  0.002  0.018 -0.000 -0.001
  6  0.067 -0.005  0.012 -0.000  0.000 -0.001  0.021  0.000 -0.001
  7  0.000 -0.015  0.000  0.015 -0.000  0.001 -0.000 -0.001 -0.031
  7  0.000  0.013  0.000 -0.013 -0.000 -0.001 -0.000  0.001 -0.037
  8 -0.000  0.016  0.000 -0.016 -0.000 -0.000  0.000  0.000  0.030
  8 -0.000 -0.012  0.000  0.012 -0.000  0.000  0.000 -0.000  0.037
  9 -0.000 -0.003 -0.000  0.003  0.000 -0.001  0.000  0.001 -0.004
  9 -0.000  0.003  0.000 -0.003  0.000 -0.001  0.000  0.001 -0.005
 10 -0.423 -0.006  0.001 -0.006  0.000  0.000  0.000  0.000  0.000
 10 -0.536  0.004 -0.001  0.005  0.000  0.000  0.000  0.000  0.000
 11  0.421  0.006 -0.001  0.006  0.000  0.000  0.000  0.000  0.000
 11  0.535 -0.005  0.001 -0.005  0.000  0.000  0.000  0.000  0.000
 12  0.423  0.006 -0.001  0.006  0.000  0.000  0.000  0.000  0.000
 12  0.536 -0.005  0.001 -0.004  0.000  0.000  0.000  0.000  0.000
 13 -0.421 -0.006  0.001 -0.006  0.000  0.000  0.000  0.000  0.000
 13 -0.535  0.005 -0.001  0.005  0.000  0.000  0.000  0.000  0.000
 14  0.000  0.007 -0.000 -0.007  0.000  0.000  0.000  0.000  0.000
 14  0.000 -0.005  0.000  0.005  0.000  0.000  0.000  0.000  0.000
 15  0.000 -0.008 -0.000  0.008  0.000  0.000  0.000  0.000  0.000
 15 -0.000  0.006  0.000 -0.006  0.000  0.000  0.000  0.000  0.000
 
band   7 # energy   -1.75987785 # occ.  1.00000000
 
ion      s     py     pz     px    dxy    dyz    dz2    dxz    dx2    tot
  1  0.000  0.000  0.000  0.000  0.000  0.000  0.000  0.000  0.000  0.002
  2  0.025  0.001  0.005  0.001  0.000  0.000  0.001  0.000  0.000  0.034
  3  0.007  0.002  0.002  0.001  0.000  0.001  0.000  0.000  0.000  0.014
  4  0.007  0.001  0.002  0.002  0.000  0.000  0.000  0.001  0.000  0.014
  5  0.007  0.001  0.002  0.002  0.000  0.000  0.000  0.001  0.000  0.014
  6  0.007  0.002  0.002  0.001  0.000  0.001  0.000  0.000  0.000  0.014
  7  0.025  0.001  0.005  0.001  0.000  0.000  0.001  0.000  0.000  0.034
  8  0.000  0.000  0.000  0.000  0.000  0.000  0.000  0.000  0.000  0.002
  9  0.000  0.000  0.001  0.000  0.000  0.000  0.000  0.000  0.000  0.001
 10  0.000  0.003  0.021  0.038  0.000  0.000  0.000  0.000  0.000  0.062
 11  0.000  0.006  0.000  0.000  0.000  0.000  0.000  0.000  0.000  0.007
 12  0.000  0.038  0.021  0.003  0.000  0.000  0.000  0.000  0.000  0.062
 13  0.000  0.000  0.000  0.006  0.000  0.000  0.000  0.000  0.000  0.007
 14  0.002  0.012  0.002  0.012  0.000  0.000  0.000  0.000  0.000  0.027
 15  0.000  0.065  0.187  0.065  0.000  0.000  0.000  0.000  0.000  0.318
tot  0.081  0.133  0.252  0.133  0.002  0.003  0.002  0.003  0.001  0.610
ion      s     py     pz     px    dxy    dyz    dz2    dxz    dx2
  1 -0.033 -0.020  0.021 -0.020 -0.026  0.012  0.003  0.012  0.000
  1  0.007  0.006 -0.008  0.006  0.009 -0.006  0.006 -0.006 -0.000
  2 -0.281  0.023  0.053  0.023 -0.001 -0.016 -0.019 -0.016  0.000
  2  0.275 -0.042 -0.073 -0.042  0.004  0.017  0.029  0.017 -0.000
  3  0.160 -0.035 -0.038  0.033 -0.016  0.030 -0.007 -0.003 -0.008
  3 -0.139  0.048  0.046 -0.016  0.016 -0.031 -0.000  0.001  0.022
  4 -0.201  0.030 -0.059 -0.060  0.022  0.002  0.003 -0.042 -0.023
  4  0.069 -0.020  0.010  0.006 -0.006 -0.002 -0.006  0.010 -0.004
  5  0.160  0.033 -0.038 -0.035 -0.016 -0.003 -0.007  0.030  0.008
  5 -0.139 -0.016  0.046  0.048  0.016  0.001 -0.000 -0.031 -0.022
  6 -0.201 -0.060 -0.059  0.030  0.022 -0.042  0.003  0.002  0.023
  6  0.069  0.006  0.010 -0.020 -0.006  0.010 -0.006 -0.002  0.004
  7  0.379  0.048  0.089  0.048  0.004  0.023  0.034  0.023 -0.000
  7 -0.105  0.001 -0.009  0.001  0.001 -0.005 -0.002 -0.005  0.000
  8  0.023 -0.016  0.017 -0.016  0.021 -0.011  0.003 -0.011 -0.000
  8 -0.025  0.015 -0.014  0.015 -0.018  0.008  0.006  0.008  0.000
  9  0.009 -0.010  0.025 -0.010 -0.000  0.001  0.005  0.001 -0.000
  9  0.016  0.006 -0.014  0.006 -0.000  0.002  0.009  0.002 -0.000
 10 -0.000  0.079  0.226 -0.305  0.000  0.000  0.000  0.000  0.000
 10 -0.001 -0.046 -0.130  0.176  0.000  0.000  0.000  0.000  0.000
 11 -0.002  0.123 -0.018  0.030  0.000  0.000  0.000  0.000  0.000
 11 -0.003 -0.071  0.010 -0.018  0.000  0.000  0.000  0.000  0.000
 12 -0.000 -0.305  0.226  0.079  0.000  0.000  0.000  0.000  0.000
 12 -0.001  0.176 -0.130 -0.046  0.000  0.000  0.000  0.000  0.000
 13 -0.002  0.030 -0.018  0.123  0.000  0.000  0.000  0.000  0.000
 13 -0.003 -0.018  0.010 -0.071  0.000  0.000  0.000  0.000  0.000
 14  0.004 -0.167 -0.075 -0.167  0.000  0.000  0.000  0.000  0.000
 14  0.006  0.096  0.043  0.096  0.000  0.000  0.000  0.000  0.000
 15  0.000  0.373 -0.634  0.373  0.000  0.000  0.000  0.000  0.000
 15  0.000 -0.215  0.365 -0.215  0.000  0.000  0.000  0.000  0.000
 
band   8 # energy   -1.59610320 # occ.  1.00000000
 
ion      s     py     pz     px    dxy    dyz    dz2    dxz    dx2    tot
  1  0.001  0.000  0.000  0.000  0.000  0.000  0.000  0.000  0.000  0.003
  2  0.016  0.001  0.003  0.001  0.000  0.000  0.001  0.000  0.000  0.023
  3  0.011  0.002  0.001  0.001  0.000  0.001  0.000  0.000  0.001  0.018
  4  0.011  0.001  0.001  0.002  0.000  0.000  0.000  0.001  0.001  0.018
  5  0.011  0.001  0.001  0.002  0.000  0.000  0.000  0.001  0.001  0.018
  6  0.011  0.002  0.001  0.001  0.000  0.001  0.000  0.000  0.001  0.018
  7  0.016  0.001  0.003  0.001  0.000  0.000  0.001  0.000  0.000  0.023
  8  0.001  0.000  0.000  0.000  0.000  0.000  0.000  0.000  0.000  0.003
  9  0.001  0.000  0.000  0.000  0.000  0.000  0.000  0.000  0.000  0.002
 10  0.000  0.000  0.002  0.004  0.000  0.000  0.000  0.000  0.000  0.007
 11  0.002  0.026  0.022  0.005  0.000  0.000  0.000  0.000  0.000  0.054
 12  0.000  0.004  0.002  0.000  0.000  0.000  0.000  0.000  0.000  0.007
 13  0.002  0.005  0.022  0.026  0.000  0.000  0.000  0.000  0.000  0.054
 14  0.001  0.024  0.005  0.024  0.000  0.000  0.000  0.000  0.000  0.056
 15  0.002  0.093  0.122  0.093  0.000  0.000  0.000  0.000  0.000  0.311
tot  0.087  0.165  0.186  0.165  0.002  0.003  0.002  0.003  0.002  0.614
ion      s     py     pz     px    dxy    dyz    dz2    dxz    dx2
  1 -0.030  0.017  0.014  0.017 -0.016 -0.012 -0.002 -0.012  0.000
  1  0.055 -0.021 -0.022 -0.021  0.015  0.014 -0.001  0.014 -0.000
  2 -0.260 -0.041  0.046 -0.041 -0.007  0.022 -0.008  0.022  0.000
  2  0.180  0.011 -0.049  0.011 -0.001 -0.021  0.036 -0.021 -0.000
  3 -0.226  0.045 -0.043 -0.044  0.020  0.026  0.004 -0.007  0.005
  3  0.141 -0.044  0.017  0.018 -0.018 -0.024 -0.016 -0.001 -0.032
  4  0.235 -0.038 -0.036  0.061 -0.026  0.003 -0.015 -0.034  0.030
  4 -0.125  0.029  0.029 -0.017  0.008 -0.006 -0.005  0.010  0.011
  5 -0.226 -0.044 -0.043  0.045  0.020 -0.007  0.004  0.026 -0.005
  5  0.141  0.018  0.017 -0.044 -0.018 -0.001 -0.016 -0.024  0.032
  6  0.235  0.061 -0.036 -0.038 -0.026 -0.034 -0.015  0.003 -0.030
  6 -0.125 -0.017  0.029  0.029  0.008  0.010 -0.005 -0.006 -0.011
  7  0.286 -0.030  0.065 -0.030  0.002 -0.029  0.035 -0.029 -0.000
  7 -0.135  0.030 -0.016  0.030 -0.006  0.008  0.011  0.008  0.000
  8  0.062  0.026  0.026  0.026  0.021  0.018  0.000  0.018 -0.000
  8  0.002 -0.004 -0.001 -0.004 -0.007 -0.003 -0.002 -0.003  0.000
  9  0.043  0.013  0.020  0.013  0.000  0.002  0.001  0.002 -0.000
  9  0.075 -0.007 -0.011 -0.007  0.000  0.003  0.002  0.003 -0.000
 10  0.000 -0.031 -0.063 -0.104  0.000  0.000  0.000  0.000  0.000
 10  0.000  0.018  0.037  0.060  0.000  0.000  0.000  0.000  0.000
 11 -0.003  0.251  0.227 -0.111  0.000  0.000  0.000  0.000  0.000
 11 -0.006 -0.144 -0.131  0.064  0.000  0.000  0.000  0.000  0.000
 12  0.000 -0.104 -0.063 -0.031  0.000  0.000  0.000  0.000  0.000
 12  0.000  0.060  0.037  0.018  0.000  0.000  0.000  0.000  0.000
 13 -0.003 -0.111  0.227  0.251  0.000  0.000  0.000  0.000  0.000
 13 -0.006  0.064 -0.131 -0.144  0.000  0.000  0.000  0.000  0.000
 14 -0.003  0.240 -0.114  0.240  0.000  0.000  0.000  0.000  0.000
 14 -0.005 -0.138  0.066 -0.138  0.000  0.000  0.000  0.000  0.000
 15 -0.002 -0.443 -0.507 -0.443  0.000  0.000  0.000  0.000  0.000
 15 -0.004  0.255  0.292  0.255  0.000  0.000  0.000  0.000  0.000
 
band   9 # energy   -1.37195423 # occ.  1.00000000
 
ion      s     py     pz     px    dxy    dyz    dz2    dxz    dx2    tot
  1  0.000  0.000  0.000  0.000  0.000  0.000  0.000  0.000  0.000  0.001
  2  0.000  0.002  0.000  0.002  0.000  0.001  0.000  0.001  0.000  0.006
  3  0.018  0.005  0.000  0.001  0.001  0.000  0.000  0.000  0.001  0.027
  4  0.018  0.001  0.000  0.005  0.001  0.000  0.000  0.000  0.001  0.027
  5  0.018  0.001  0.000  0.005  0.001  0.000  0.000  0.000  0.001  0.027
  6  0.018  0.005  0.000  0.001  0.001  0.000  0.000  0.000  0.001  0.027
  7  0.000  0.002  0.000  0.002  0.000  0.001  0.000  0.001  0.000  0.006
  8  0.000  0.000  0.000  0.000  0.000  0.000  0.000  0.000  0.000  0.001
  9  0.000  0.001  0.000  0.001  0.000  0.000  0.000  0.000  0.000  0.001
 10  0.000  0.002  0.020  0.006  0.000  0.000  0.000  0.000  0.000  0.027
 11  0.001  0.003  0.013  0.001  0.000  0.000  0.000  0.000  0.000  0.018
 12  0.000  0.006  0.020  0.002  0.000  0.000  0.000  0.000  0.000  0.027
 13  0.001  0.001  0.013  0.003  0.000  0.000  0.000  0.000  0.000  0.018
 14  0.000  0.006  0.000  0.006  0.000  0.000  0.000  0.000  0.000  0.011
 15  0.000  0.203  0.000  0.203  0.000  0.000  0.000  0.000  0.000  0.406
tot  0.075  0.237  0.067  0.237  0.004  0.003  0.000  0.003  0.004  0.629
ion      s     py     pz     px    dxy    dyz    dz2    dxz    dx2
  1  0.000  0.017 -0.000 -0.017  0.000  0.018 -0.000 -0.018 -0.005
  1  0.000 -0.007 -0.000  0.007  0.000 -0.011 -0.000  0.011 -0.003
  2 -0.000 -0.039  0.000  0.039  0.000  0.028 -0.000 -0.028  0.003
  2  0.000  0.041 -0.000 -0.041  0.000 -0.034  0.000  0.034  0.012
  3 -0.229  0.044 -0.007  0.015 -0.028  0.000  0.003  0.001  0.023
  3  0.248 -0.079 -0.017 -0.036  0.033  0.000 -0.014  0.002 -0.037
  4 -0.308 -0.039 -0.014 -0.089 -0.040 -0.001  0.014  0.000 -0.043
  4  0.136  0.002 -0.012  0.016  0.015 -0.002  0.002 -0.000  0.010
  5  0.229 -0.015  0.007 -0.044  0.028 -0.001 -0.003 -0.000  0.023
  5 -0.248  0.036  0.017  0.079 -0.033 -0.002  0.014 -0.000 -0.037
  6  0.308  0.089  0.014  0.039  0.040 -0.000 -0.014  0.001 -0.043
  6 -0.136 -0.016  0.012 -0.002 -0.015  0.000 -0.002  0.002  0.010
  7  0.000 -0.052  0.000  0.052  0.000 -0.041  0.000  0.041  0.010
  7 -0.000  0.023 -0.000 -0.023  0.000  0.015 -0.000 -0.015  0.007
  8  0.000  0.012  0.000 -0.012  0.000 -0.016 -0.000  0.016 -0.001
  8 -0.000 -0.013 -0.000  0.013  0.000  0.013 -0.000 -0.013 -0.006
  9  0.000  0.023 -0.000 -0.023 -0.000  0.001 -0.000 -0.001 -0.006
  9  0.000 -0.017 -0.000  0.017 -0.000  0.002 -0.000 -0.002 -0.008
 10  0.000 -0.058  0.201 -0.108  0.000  0.000  0.000  0.000  0.000