<?xml version="1.0" encoding="ISO-8859-1"?>
<modeling>
 <generator>
  <i name="program" type="string">vasp </i>
  <i name="version" type="string">5.4.1  </i>
  <i name="subversion" type="string">05Feb16 (build Mar 31 2016 13:39:20) complex                          parallel </i>
  <i name="platform" type="string">IFC91_ompi </i>
  <i name="date" type="string">2018 04 28 </i>
  <i name="time" type="string">12:46:00 </i>
 </generator>
 <incar>
  <i type="string" name="PREC">n</i>
  <i type="string" name="ALGO"> N</i>
  <i type="int" name="ISPIN">     2</i>
  <i type="int" name="NELM">   100</i>
  <i type="int" name="NELMIN">     4</i>
  <i type="int" name="IBRION">     2</i>
  <i name="EDIFF">      0.00000100</i>
  <i name="EDIFFG">     -0.05000000</i>
  <i type="int" name="NSW">    20</i>
  <i type="int" name="ISIF">     2</i>
  <i name="ENCUT">    400.00000000</i>
  <i name="NELECT">     52.00000000</i>
  <i type="string" name="LREAL"> A</i>
  <i type="int" name="ISMEAR">     0</i>
  <i name="SIGMA">      0.05000000</i>
  <i type="logical" name="LWAVE"> F  </i>
  <i type="logical" name="LCHARG"> F  </i>
  <i type="logical" name="LORBIT"> F  </i>
  <i type="logical" name="LASPH"> T  </i>
  <v type="int" name="KPOINT_BSE">    -1     0     0     0</v>
  <i type="int" name="NELM">   100</i>
  <i type="logical" name="LASPH"> T  </i>
 </incar>
 <kpoints>
  <generation param="Gamma">
   <v type="int" name="divisions">       2        2        2 </v>
   <v name="usershift">      0.00000000       0.00000000       0.00000000 </v>
   <v name="genvec1">      0.50000000       0.00000000       0.00000000 </v>
   <v name="genvec2">      0.00000000       0.50000000       0.00000000 </v>
   <v name="genvec3">      0.00000000       0.00000000       0.50000000 </v>
   <v name="shift">      0.00000000       0.00000000       0.00000000 </v>
  </generation>
  <varray name="kpointlist" >
   <v>       0.00000000       0.00000000       0.00000000 </v>
   <v>       0.50000000       0.00000000       0.00000000 </v>
   <v>       0.50000000       0.50000000       0.00000000 </v>
   <v>       0.00000000       0.00000000       0.50000000 </v>
   <v>       0.50000000       0.00000000       0.50000000 </v>
  </varray>
  <varray name="weights" >
   <v>       0.12500000 </v>
   <v>       0.25000000 </v>
   <v>       0.12500000 </v>
   <v>       0.25000000 </v>
   <v>       0.25000000 </v>
  </varray>
 </kpoints>
 <parameters>
  <separator name="general" >
   <i type="string" name="SYSTEM">unknown system</i>
   <i type="logical" name="LCOMPAT"> F  </i>
  </separator>
  <separator name="electronic" >
   <i type="string" name="PREC">n</i>
   <i name="ENMAX">    400.00000000</i>
   <i name="ENAUG">    605.39200000</i>
   <i name="EDIFF">      0.00000100</i>
   <i type="int" name="IALGO">    38</i>
   <i type="int" name="IWAVPR">    11</i>
   <i type="int" name="NBANDS">    44</i>
   <i name="NELECT">     52.00000000</i>
   <i type="int" name="TURBO">     0</i>
   <i type="int" name="IRESTART">     0</i>
   <i type="int" name="NREBOOT">     0</i>
   <i type="int" name="NMIN">     0</i>
   <i name="EREF">      0.00000000</i>
   <separator name="electronic smearing" >
    <i type="int" name="ISMEAR">     0</i>
    <i name="SIGMA">      0.05000000</i>
    <i name="KSPACING">      0.50000000</i>
    <i type="logical" name="KGAMMA"> T  </i>
   </separator>
   <separator name="electronic projectors" >
    <i type="logical" name="LREAL"> T  </i>
    <v name="ROPT">     -0.00050000     -0.00050000</v>
    <i type="int" name="LMAXPAW">  -100</i>
    <i type="int" name="LMAXMIX">     2</i>
    <i type="logical" name="NLSPLINE"> F  </i>
   </separator>
   <separator name="electronic startup" >
    <i type="int" name="ISTART">     0</i>
    <i type="int" name="ICHARG">     2</i>
    <i type="int" name="INIWAV">     1</i>
   </separator>
   <separator name="electronic spin" >
    <i type="int" name="ISPIN">     2</i>
    <i type="logical" name="LNONCOLLINEAR"> F  </i>
    <v name="MAGMOM">      1.00000000      1.00000000      1.00000000      1.00000000      1.00000000      1.00000000      1.00000000      1.00000000      1.00000000      1.00000000      1.00000000      1.00000000      1.00000000      1.00000000      1.00000000</v>
    <i name="NUPDOWN">     -1.00000000</i>
    <i type="logical" name="LSORBIT"> F  </i>
    <v name="SAXIS">      0.00000000      0.00000000      1.00000000</v>
    <i type="logical" name="LSPIRAL"> F  </i>
    <v name="QSPIRAL">      0.00000000      0.00000000      0.00000000</v>
    <i type="logical" name="LZEROZ"> F  </i>
   </separator>
   <separator name="electronic exchange-correlation" >
    <i type="logical" name="LASPH"> T  </i>
    <i type="logical" name="LMETAGGA"> F  </i>
   </separator>
   <separator name="electronic convergence" >
    <i type="int" name="NELM">   100</i>
    <i type="int" name="NELMDL">     0</i>
    <i type="int" name="NELMIN">     4</i>
    <i name="ENINI">    400.00000000</i>
    <separator name="electronic convergence detail" >
     <i type="logical" name="LDIAG"> T  </i>
     <i type="logical" name="LSUBROT"> F  </i>
     <i name="WEIMIN">      0.00100000</i>
     <i name="EBREAK">      0.00000001</i>
     <i name="DEPER">      0.30000000</i>
     <i type="int" name="NRMM">     4</i>
     <i name="TIME">      0.40000000</i>
    </separator>
   </separator>
   <separator name="electronic mixer" >
    <i name="AMIX">      0.40000000</i>
    <i name="BMIX">      1.00000000</i>
    <i name="AMIN">      0.10000000</i>
    <i name="AMIX_MAG">      1.60000000</i>
    <i name="BMIX_MAG">      1.00000000</i>
    <separator name="electronic mixer details" >
     <i type="int" name="IMIX">     4</i>
     <i type="logical" name="MIXFIRST"> F  </i>
     <i type="int" name="MAXMIX">   -45</i>
     <i name="WC">    100.00000000</i>
     <i type="int" name="INIMIX">     1</i>
     <i type="int" name="MIXPRE">     1</i>
     <i type="int" name="MREMOVE">     5</i>
    </separator>
   </separator>
   <separator name="electronic dipolcorrection" >
    <i type="logical" name="LDIPOL"> F  </i>
    <i type="logical" name="LMONO"> F  </i>
    <i type="int" name="IDIPOL">     0</i>
    <i name="EPSILON">      1.00000000</i>
    <v name="DIPOL">   -100.00000000   -100.00000000   -100.00000000</v>
    <i name="EFIELD">      0.00000000</i>
   </separator>
  </separator>
  <separator name="grids" >
   <i type="int" name="NGX">    30</i>
   <i type="int" name="NGY">    30</i>
   <i type="int" name="NGZ">    30</i>
   <i type="int" name="NGXF">    60</i>
   <i type="int" name="NGYF">    60</i>
   <i type="int" name="NGZF">    60</i>
   <i type="logical" name="ADDGRID"> F  </i>
  </separator>
  <separator name="ionic" >
   <i type="int" name="NSW">    20</i>
   <i type="int" name="IBRION">     2</i>
   <i type="int" name="ISIF">     2</i>
   <i name="PSTRESS">      0.00000000</i>
   <i name="EDIFFG">     -0.05000000</i>
   <i type="int" name="NFREE">     1</i>
   <i name="POTIM">      0.50000000</i>
   <i name="SMASS">     -3.00000000</i>
   <i name="SCALEE">      1.00000000</i>
  </separator>
  <separator name="ionic md" >
   <i name="TEBEG">      0.00010000</i>
   <i name="TEEND">      0.00010000</i>
   <i type="int" name="NBLOCK">     1</i>
   <i type="int" name="KBLOCK">    20</i>
   <i type="int" name="NPACO">   256</i>
   <i name="APACO">     16.00000000</i>
  </separator>
  <separator name="symmetry" >
   <i type="int" name="ISYM">     2</i>
   <i name="SYMPREC">      0.00001000</i>
  </separator>
  <separator name="dos" >
   <i type="logical" name="LORBIT"> F  </i>
   <v name="RWIGS">     -1.00000000     -1.00000000</v>
   <i type="int" name="NEDOS">   301</i>
   <i name="EMIN">     10.00000000</i>
   <i name="EMAX">    -10.00000000</i>
   <i name="EFERMI">      0.00000000</i>
  </separator>
  <separator name="writing" >
   <i type="int" name="NWRITE">     2</i>
   <i type="logical" name="LWAVE"> F  </i>
   <i type="logical" name="LCHARG"> F  </i>
   <i type="logical" name="LPARD"> F  </i>
   <i type="logical" name="LVTOT"> F  </i>
   <i type="logical" name="LVHAR"> F  </i>
   <i type="logical" name="LELF"> F  </i>
   <i type="logical" name="LOPTICS"> F  </i>
   <v name="STM">      0.00000000      0.00000000      0.00000000      0.00000000      0.00000000      0.00000000      0.00000000</v>
  </separator>
  <separator name="performance" >
   <i type="int" name="NPAR">     4</i>
   <i type="int" name="NSIM">     4</i>
   <i type="int" name="NBLK">    -1</i>
   <i type="logical" name="LPLANE"> T  </i>
   <i type="logical" name="LSCALAPACK"> T  </i>
   <i type="logical" name="LSCAAWARE"> F  </i>
   <i type="logical" name="LSCALU"> F  </i>
   <i type="logical" name="LASYNC"> F  </i>
   <i type="logical" name="LORBITALREAL"> F  </i>
  </separator>
  <separator name="miscellaneous" >
   <i type="int" name="IDIOT">     3</i>
   <i type="logical" name="LMUSIC"> F  </i>
   <v name="POMASS">     24.30500000     16.00000000</v>
   <v name="DARWINR">      0.00000000      0.00000000</v>
   <v name="DARWINV">      1.00000000      1.00000000</v>
   <i type="logical" name="LCORR"> T  </i>
  </separator>
  <i type="logical" name="GGA_COMPAT"> T  </i>
  <i type="logical" name="LBERRY"> F  </i>
  <i type="int" name="ICORELEVEL">     0</i>
  <i type="logical" name="LDAU"> F  </i>
  <i type="int" name="I_CONSTRAINED_M">     0</i>
  <separator name="electronic exchange-correlation" >
   <i type="string" name="GGA">--</i>
   <i type="int" name="VOSKOWN">     0</i>
   <i type="logical" name="LHFCALC"> F  </i>
   <i type="string" name="PRECFOCK"></i>
   <i type="logical" name="LSYMGRAD"> F  </i>
   <i type="logical" name="LHFONE"> F  </i>
   <i type="logical" name="LRHFCALC"> F  </i>
   <i type="logical" name="LTHOMAS"> F  </i>
   <i type="logical" name="LMODELHF"> F  </i>
   <i name="ENCUT4O">     -1.00000000</i>
   <i type="int" name="EXXOEP">     0</i>
   <i type="int" name="FOURORBIT">     0</i>
   <i name="AEXX">      0.00000000</i>
   <i name="HFALPHA">      0.00000000</i>
   <i name="MCALPHA">      0.00000000</i>
   <i name="ALDAX">      1.00000000</i>
   <i name="AGGAX">      1.00000000</i>
   <i name="ALDAC">      1.00000000</i>
   <i name="AGGAC">      1.00000000</i>
   <i type="int" name="NKREDX">     1</i>
   <i type="int" name="NKREDY">     1</i>
   <i type="int" name="NKREDZ">     1</i>
   <i type="logical" name="SHIFTRED"> F  </i>
   <i type="logical" name="ODDONLY"> F  </i>
   <i type="logical" name="EVENONLY"> F  </i>
   <i type="int" name="LMAXFOCK">     0</i>
   <i type="int" name="NMAXFOCKAE">     0</i>
   <i type="logical" name="LFOCKAEDFT"> F  </i>
   <i name="HFSCREEN">      0.00000000</i>
   <i name="HFSCREENC">      0.00000000</i>
   <i type="int" name="NBANDSGWLOW">     0</i>
  </separator>
  <separator name="vdW DFT" >
   <i type="logical" name="LUSE_VDW"> F  </i>
   <i name="Zab_VDW">     -0.84910000</i>
   <i name="PARAM1">      0.12340000</i>
   <i name="PARAM2">      1.00000000</i>
   <i name="PARAM3">      0.00000000</i>
  </separator>
  <separator name="model GW" >
   <i type="int" name="MODEL_GW">     0</i>
   <i name="MODEL_EPS0">      6.12779108</i>
   <i name="MODEL_ALPHA">      1.00000000</i>
  </separator>
  <separator name="linear response parameters" >
   <i type="logical" name="LEPSILON"> F  </i>
   <i type="logical" name="LRPA"> F  </i>
   <i type="logical" name="LNABLA"> F  </i>
   <i type="logical" name="LVEL"> F  </i>
   <i type="int" name="KINTER">     0</i>
   <i name="CSHIFT">      0.10000000</i>
   <i name="OMEGAMAX">     -1.00000000</i>
   <i name="DEG_THRESHOLD">      0.00200000</i>
  </separator>
  <separator name="orbital magnetization" >
   <i type="logical" name="NUCIND"> F  </i>
   <v name="MAGPOS">      0.00000000      0.00000000      0.00000000</v>
   <i type="logical" name="LNICSALL"> T  </i>
   <i type="logical" name="ORBITALMAG"> F  </i>
   <i type="logical" name="LMAGBLOCH"> F  </i>
   <i type="logical" name="LCHIMAG"> F  </i>
   <i type="logical" name="LGAUGE"> T  </i>
   <i type="int" name="MAGATOM">     0</i>
   <v name="MAGDIPOL">      0.00000000      0.00000000      0.00000000</v>
   <v name="AVECCONST">      0.00000000      0.00000000      0.00000000</v>
  </separator>
  <separator name="response functions" >
   <i type="logical" name="LADDER"> F  </i>
   <i type="logical" name="LFXC"> F  </i>
   <i type="logical" name="LHARTREE"> T  </i>
   <i type="int" name="IBSE">     0</i>
   <v type="int" name="KPOINT">    -1     0     0     0</v>
   <i type="logical" name="LTCTE"> F  </i>
   <i type="logical" name="LTETE"> F  </i>
   <i type="logical" name="LTRIPLET"> F  </i>
   <i type="logical" name="LFXCEPS"> F  </i>
   <i type="logical" name="LFXHEG"> F  </i>
   <i type="int" name="NATURALO">     0</i>
   <i type="logical" name="L2ORDER"> F  </i>
   <i type="logical" name="LUSEW"> F  </i>
   <i name="ENCUTGW">     -2.00000000</i>
   <i name="ENCUTGWSOFT">     -2.00000000</i>
   <i name="ENCUTLF">     -1.00000000</i>
   <i type="int" name="LMAXMP2">    -1</i>
   <i name="SCISSOR">      0.00000000</i>
   <i type="int" name="NOMEGA">     0</i>
   <i type="int" name="NOMEGAR">     0</i>
   <i type="int" name="NBANDSGW">    -1</i>
   <i type="int" name="NBANDSO">    -1</i>
   <i type="int" name="NBANDSV">    -1</i>
   <i type="int" name="NELM">   100</i>
   <i type="int" name="NELMHF">     1</i>
   <i type="int" name="DIM">     3</i>
   <i type="int" name="ANTIRES">     0</i>
   <i name="OMEGAMAX">    -30.00000000</i>
   <i name="OMEGAMIN">    -30.00000000</i>
   <i name="OMEGATL">   -200.00000000</i>
   <i type="int" name="OMEGAGRID">     0</i>
   <i name="CSHIFT">     -0.10000000</i>
   <i type="logical" name="SELFENERGY"> F  </i>
   <i type="logical" name="LSPECTRAL"> F  </i>
   <i type="logical" name="LSPECTRALGW"> F  </i>
   <i type="logical" name="LSINGLES"> F  </i>
   <i type="logical" name="LFERMIGW"> F  </i>
   <i type="logical" name="ODDONLYGW"> F  </i>
   <i type="logical" name="EVENONLYGW"> F  </i>
   <i type="int" name="NKREDLFX">     1</i>
   <i type="int" name="NKREDLFY">     1</i>
   <i type="int" name="NKREDLFZ">     1</i>
   <i type="int" name="MAXMEM">  1800</i>
   <i type="int" name="TELESCOPE">     0</i>
   <i type="int" name="TAUPAR">     1</i>
   <i type="int" name="OMEGAPAR">    -1</i>
   <i name="LAMBDA">      1.00000000</i>
  </separator>
  <separator name="External order field" >
   <i name="OFIELD_KAPPA">      0.00000000</i>
   <v name="OFIELD_K">      0.00000000      0.00000000      0.00000000</v>
   <i name="OFIELD_Q6_NEAR">      0.00000000</i>
   <i name="OFIELD_Q6_FAR">      0.00000000</i>
   <i name="OFIELD_A">      0.00000000</i>
  </separator>
 </parameters>
 <atominfo>
  <atoms>      15 </atoms>
  <types>       2 </types>
  <array name="atoms" >
   <dimension dim="1">ion</dimension>
   <field type="string">element</field>
   <field type="int">atomtype</field>
   <set>
    <rc><c>Mg</c><c>   1</c></rc>
    <rc><c>Mg</c><c>   1</c></rc>
    <rc><c>Mg</c><c>   1</c></rc>
    <rc><c>Mg</c><c>   1</c></rc>
    <rc><c>Mg</c><c>   1</c></rc>
    <rc><c>Mg</c><c>   1</c></rc>
    <rc><c>Mg</c><c>   1</c></rc>
    <rc><c>Mg</c><c>   1</c></rc>
    <rc><c>Mg</c><c>   1</c></rc>
    <rc><c>O </c><c>   2</c></rc>
    <rc><c>O </c><c>   2</c></rc>
    <rc><c>O </c><c>   2</c></rc>
    <rc><c>O </c><c>   2</c></rc>
    <rc><c>O </c><c>   2</c></rc>
    <rc><c>O </c><c>   2</c></rc>
   </set>
  </array>
  <array name="atomtypes" >
   <dimension dim="1">type</dimension>
   <field type="int">atomspertype</field>
   <field type="string">element</field>
   <field>mass</field>
   <field>valence</field>
   <field type="string">pseudopotential</field>
   <set>
    <rc><c>   9</c><c>Mg</c><c>     24.30500000</c><c>      2.00000000</c><c>  PAW_PBE Mg 13Apr2007                  </c></rc>
    <rc><c>   6</c><c>O </c><c>     16.00000000</c><c>      6.00000000</c><c>  PAW_PBE O 08Apr2002                   </c></rc>
   </set>
  </array>
 </atominfo>
 <structure name="initialpos" >
  <crystal>
   <varray name="basis" >
    <v>       0.00000000       4.24689302       4.24689302 </v>
    <v>       4.24689302       0.00000000       4.24689302 </v>
    <v>       4.24689302       4.24689302       0.00000000 </v>
   </varray>
   <i name="volume">    153.19477710 </i>
   <varray name="rec_basis" >
    <v>      -0.11773313       0.11773313       0.11773313 </v>
    <v>       0.11773313      -0.11773313       0.11773313 </v>
    <v>       0.11773313       0.11773313      -0.11773313 </v>
   </varray>
  </crystal>
  <varray name="positions" >
   <v>       0.99737206       0.99737206       0.00262794 </v>
   <v>       0.97757960       0.97757960       0.52242040 </v>
   <v>       0.97241486       0.52758514       0.98271593 </v>
   <v>       0.97241486       0.52758514       0.51728407 </v>
   <v>       0.52758514       0.97241486       0.98271593 </v>
   <v>       0.52758514       0.97241486       0.51728407 </v>
   <v>       0.52242040       0.52242040       0.97757960 </v>
   <v>       0.50262794       0.50262794       0.49737206 </v>
   <v>       0.25000000       0.25000000       0.25000000 </v>
   <v>       0.25000000       0.75000000       0.25000000 </v>
   <v>       0.25000000       0.75000000       0.75000000 </v>
   <v>       0.75000000       0.25000000       0.25000000 </v>
   <v>       0.75000000       0.25000000       0.75000000 </v>
   <v>       0.75000000       0.75000000       0.25000000 </v>
   <v>       0.75000000       0.75000000       0.75000000 </v>
  </varray>
 </structure>
 <calculation>
  <scstep>
   <time name="dav">    0.30    0.30</time>
   <time name="total">    1.00    1.00</time>
   <energy>
    <i name="alphaZ">    120.36916991 </i>
    <i name="ewald">  -2025.83024474 </i>
    <i name="hartreedc">   -925.49327929 </i>
    <i name="XCdc">   -264.85728013 </i>
    <i name="pawpsdc">   2665.04529735 </i>
    <i name="pawaedc">  -2209.04454820 </i>
    <i name="eentropy">     -0.00443966 </i>
    <i name="bandstr">     36.41953975 </i>
    <i name="atom">   2800.91013741 </i>
    <i name="e_fr_energy">    197.51435240 </i>
    <i name="e_wo_entrp">    197.51879206 </i>
    <i name="e_0_energy">    197.51657223 </i>
   </energy>
  </scstep>
  <scstep>
   <time name="dav">    0.34    0.34</time>
   <time name="total">    0.34    0.34</time>
   <energy>
    <i name="e_fr_energy">    -63.96831826 </i>
    <i name="e_wo_entrp">    -63.96831327 </i>
    <i name="e_0_energy">    -63.96831576 </i>
   </energy>
  </scstep>
  <scstep>
   <time name="dav">    0.31    0.31</time>
   <time name="total">    0.31    0.32</time>
   <energy>
    <i name="e_fr_energy">    -81.65392682 </i>
    <i name="e_wo_entrp">    -81.65388322 </i>
    <i name="e_0_energy">    -81.65390502 </i>
   </energy>
  </scstep>
  <scstep>
   <time name="dav">    0.32    0.32</time>
   <time name="total">    0.32    0.33</time>
   <energy>
    <i name="e_fr_energy">    -81.76872545 </i>
    <i name="e_wo_entrp">    -81.76868113 </i>
    <i name="e_0_energy">    -81.76870329 </i>
   </energy>
  </scstep>
  <scstep>
   <time name="dav">    0.31    0.31</time>
   <time name="total">    0.33    0.34</time>
   <energy>
    <i name="e_fr_energy">    -81.76934354 </i>
    <i name="e_wo_entrp">    -81.76929923 </i>
    <i name="e_0_energy">    -81.76932138 </i>
   </energy>
  </scstep>
  <scstep>
   <time name="dav">    0.30    0.30</time>
   <time name="total">    1.02    1.02</time>
   <energy>
    <i name="e_fr_energy">    -78.13929211 </i>
    <i name="e_wo_entrp">    -78.13501069 </i>
    <i name="e_0_energy">    -78.13715140 </i>
   </energy>
  </scstep>
  <scstep>
   <time name="dav">    0.29    0.29</time>
   <time name="total">    1.02    1.02</time>
   <energy>
    <i name="e_fr_energy">    -78.23461455 </i>
    <i name="e_wo_entrp">    -78.23267678 </i>
    <i name="e_0_energy">    -78.23364567 </i>
   </energy>
  </scstep>
  <scstep>
   <time name="dav">    0.32    0.32</time>
   <time name="total">    1.04    1.04</time>
   <energy>
    <i name="e_fr_energy">    -78.14386103 </i>
    <i name="e_wo_entrp">    -78.14239914 </i>
    <i name="e_0_energy">    -78.14313009 </i>
   </energy>
  </scstep>
  <scstep>
   <time name="dav">    0.32    0.32</time>
   <time name="total">    1.04    1.05</time>
   <energy>
    <i name="e_fr_energy">    -78.14084042 </i>
    <i name="e_wo_entrp">    -78.13903829 </i>
    <i name="e_0_energy">    -78.13993935 </i>
   </energy>
  </scstep>
  <scstep>
   <time name="dav">    0.31    0.31</time>
   <time name="total">    1.03    1.03</time>
   <energy>
    <i name="e_fr_energy">    -78.14092931 </i>
    <i name="e_wo_entrp">    -78.13892236 </i>
    <i name="e_0_energy">    -78.13992584 </i>
   </energy>
  </scstep>
  <scstep>
   <time name="dav">    0.30    0.30</time>
   <time name="total">    1.02    1.03</time>
   <energy>
    <i name="e_fr_energy">    -78.14116044 </i>
    <i name="e_wo_entrp">    -78.13906472 </i>
    <i name="e_0_energy">    -78.14011258 </i>
   </energy>
  </scstep>
  <scstep>
   <time name="dav">    0.32    0.31</time>
   <time name="total">    1.03    1.04</time>
   <energy>
    <i name="e_fr_energy">    -78.14123833 </i>
    <i name="e_wo_entrp">    -78.13910644 </i>
    <i name="e_0_energy">    -78.14017239 </i>
   </energy>
  </scstep>
  <scstep>
   <time name="dav">    0.32    0.33</time>
   <time name="total">    1.05    1.05</time>
   <energy>
    <i name="e_fr_energy">    -78.14124308 </i>
    <i name="e_wo_entrp">    -78.13914655 </i>
    <i name="e_0_energy">    -78.14019481 </i>
   </energy>
  </scstep>
  <scstep>
   <time name="dav">    0.30    0.30</time>
   <time name="total">    1.02    1.03</time>
   <energy>
    <i name="e_fr_energy">    -78.14124493 </i>
    <i name="e_wo_entrp">    -78.13916456 </i>
    <i name="e_0_energy">    -78.14020474 </i>
   </energy>
  </scstep>
  <scstep>
   <time name="dav">    0.21    0.21</time>
   <time name="total">    0.91    0.92</time>
   <energy>
    <i name="alphaZ">    120.36916991 </i>
    <i name="ewald">  -2025.83024474 </i>
    <i name="hartreedc">  -1051.53050669 </i>
    <i name="XCdc">   -264.23480782 </i>
    <i name="pawpsdc">   3509.72337390 </i>
    <i name="pawaedc">  -3055.17291973 </i>
    <i name="eentropy">     -0.00207369 </i>
    <i name="bandstr">   -112.37337335 </i>
    <i name="atom">   2800.91013741 </i>
    <i name="e_fr_energy">    -78.14124479 </i>
    <i name="e_wo_entrp">    -78.13917110 </i>
    <i name="e_0_energy">    -78.14020794 </i>
   </energy>
  </scstep>
  <structure>
   <crystal>
    <varray name="basis" >
     <v>       0.00000000       4.24689302       4.24689302 </v>
     <v>       4.24689302       0.00000000       4.24689302 </v>
     <v>       4.24689302       4.24689302       0.00000000 </v>
    </varray>
    <i name="volume">    153.19477710 </i>
    <varray name="rec_basis" >
     <v>      -0.11773313       0.11773313       0.11773313 </v>
     <v>       0.11773313      -0.11773313       0.11773313 </v>
     <v>       0.11773313       0.11773313      -0.11773313 </v>
    </varray>
   </crystal>
   <varray name="positions" >
    <v>       0.99737206       0.99737206       0.00262794 </v>
    <v>       0.97757960       0.97757960       0.52242040 </v>
    <v>       0.97241486       0.52758514       0.98271593 </v>
    <v>       0.97241486       0.52758514       0.51728407 </v>
    <v>       0.52758514       0.97241486       0.98271593 </v>
    <v>       0.52758514       0.97241486       0.51728407 </v>
    <v>       0.52242040       0.52242040       0.97757960 </v>
    <v>       0.50262794       0.50262794       0.49737206 </v>
    <v>       0.25000000       0.25000000       0.25000000 </v>
    <v>       0.25000000       0.75000000       0.25000000 </v>
    <v>       0.25000000       0.75000000       0.75000000 </v>
    <v>       0.75000000       0.25000000       0.25000000 </v>
    <v>       0.75000000       0.25000000       0.75000000 </v>
    <v>       0.75000000       0.75000000       0.25000000 </v>
    <v>       0.75000000       0.75000000       0.75000000 </v>
   </varray>
  </structure>
  <varray name="forces" >
   <v>       0.00000000       0.00000000       0.04997048 </v>
   <v>       0.00000000       0.00000000       0.00467196 </v>
   <v>      -0.01033686       0.00468885       0.00000000 </v>
   <v>      -0.00468885       0.01033686       0.00000000 </v>
   <v>       0.00468885      -0.01033686       0.00000000 </v>
   <v>       0.01033686      -0.00468885       0.00000000 </v>
   <v>       0.00000000       0.00000000      -0.00467196 </v>
   <v>       0.00000000       0.00000000      -0.04997048 </v>
   <v>       0.00000000       0.00000000       0.00000000 </v>
   <v>       0.00000000       0.00000000       0.00000000 </v>
   <v>       0.00000000       0.00000000       0.00000000 </v>
   <v>       0.00000000      -0.00000000       0.00000000 </v>
   <v>       0.00000000      -0.00000000       0.00000000 </v>
   <v>       0.00000000       0.00000000       0.00000000 </v>
   <v>       0.00000000      -0.00000000       0.00000000 </v>
  </varray>
  <varray name="stress" >
   <v>      27.97710818     -16.72656205       0.00000000 </v>
   <v>     -16.72656205      27.97710818       0.00000000 </v>
   <v>       0.00000000       0.00000000      32.20584685 </v>
  </varray>
  <energy>
   <i name="e_fr_energy">    -78.14124479 </i>
   <i name="e_wo_entrp">    -78.14020794 </i>
   <i name="e_0_energy">     -0.00207369 </i>
  </energy>
  <time name="totalsc">   14.26   14.34</time>
  <eigenvalues>
   <array>
    <dimension dim="1">band</dimension>
    <dimension dim="2">kpoint</dimension>
    <dimension dim="3">spin</dimension>
    <field>eigene</field>
    <field>occ</field>
    <set>
     <set comment="spin 1">
      <set comment="kpoint 1">
       <r>  -14.9727    1.0000 </r>
       <r>  -13.4127    1.0000 </r>
       <r>  -12.7358    1.0000 </r>
       <r>  -12.7016    1.0000 </r>
       <r>  -12.6988    1.0000 </r>
       <r>  -12.4498    1.0000 </r>
       <r>   -1.9854    1.0000 </r>
       <r>   -1.9162    1.0000 </r>
       <r>   -1.5444    1.0000 </r>
       <r>   -0.9610    1.0000 </r>
       <r>   -0.5797    1.0000 </r>
       <r>   -0.1080    1.0000 </r>
       <r>    0.2998    1.0000 </r>
       <r>    1.0085    1.0000 </r>
       <r>    1.2595    1.0000 </r>
       <r>    1.2623    1.0000 </r>
       <r>    1.6832    1.0000 </r>
       <r>    1.8051    1.0000 </r>
       <r>    1.9075    1.0000 </r>
       <r>    2.1943    1.0000 </r>
       <r>    2.5769    1.0000 </r>
       <r>    2.6009    1.0000 </r>
       <r>    2.6575    1.0000 </r>
       <r>    2.6707    1.0000 </r>
       <r>    2.7150    1.0000 </r>
       <r>    4.9737    1.0000 </r>
       <r>    7.8663    0.0000 </r>
       <r>    9.0987    0.0000 </r>
       <r>    9.3937    0.0000 </r>
       <r>    9.5420    0.0000 </r>
       <r>   10.4071    0.0000 </r>
       <r>   10.4585    0.0000 </r>
       <r>   11.2046    0.0000 </r>
       <r>   11.3344    0.0000 </r>
       <r>   11.5293    0.0000 </r>
       <r>   11.5547    0.0000 </r>
       <r>   11.6396    0.0000 </r>
       <r>   11.6803    0.0000 </r>
       <r>   12.0044    0.0000 </r>
       <r>   12.6841    0.0000 </r>
       <r>   15.2862    0.0000 </r>
       <r>   15.3368    0.0000 </r>
       <r>   16.7428    0.0000 </r>
       <r>   17.2731    0.0000 </r>
      </set>
      <set comment="kpoint 2">
       <r>  -14.9324    1.0000 </r>
       <r>  -13.2242    1.0000 </r>
       <r>  -12.9982    1.0000 </r>
       <r>  -12.7300    1.0000 </r>
       <r>  -12.5856    1.0000 </r>
       <r>  -12.5816    1.0000 </r>
       <r>   -1.7230    1.0000 </r>
       <r>   -1.6370    1.0000 </r>
       <r>   -1.2559    1.0000 </r>
       <r>   -0.8131    1.0000 </r>
       <r>   -0.1377    1.0000 </r>
       <r>    0.1443    1.0000 </r>
       <r>    0.5122    1.0000 </r>
       <r>    0.8713    1.0000 </r>
       <r>    1.0941    1.0000 </r>
       <r>    1.1503    1.0000 </r>
       <r>    1.1777    1.0000 </r>
       <r>    1.2667    1.0000 </r>
       <r>    1.2791    1.0000 </r>
       <r>    1.4457    1.0000 </r>
       <r>    1.9338    1.0000 </r>
       <r>    2.5448    1.0000 </r>
       <r>    2.5666    1.0000 </r>
       <r>    2.6684    1.0000 </r>
       <r>    4.2422    1.0000 </r>
       <r>    6.2727    1.0000 </r>
       <r>    6.3879    0.9353 </r>
       <r>    6.9439    0.0000 </r>
       <r>    8.6426    0.0000 </r>
       <r>    8.7534    0.0000 </r>
       <r>   10.9238    0.0000 </r>
       <r>   11.0296    0.0000 </r>
       <r>   11.4853    0.0000 </r>
       <r>   11.9777    0.0000 </r>
       <r>   12.1891    0.0000 </r>
       <r>   13.4441    0.0000 </r>
       <r>   13.6749    0.0000 </r>
       <r>   13.6862    0.0000 </r>
       <r>   13.9714    0.0000 </r>
       <r>   14.4644    0.0000 </r>
       <r>   14.4699    0.0000 </r>
       <r>   14.5739    0.0000 </r>
       <r>   14.9784    0.0000 </r>
       <r>   15.7747    0.0000 </r>
      </set>
      <set comment="kpoint 3">
       <r>  -14.9017    1.0000 </r>
       <r>  -13.1946    1.0000 </r>
       <r>  -13.0437    1.0000 </r>
       <r>  -12.7652    1.0000 </r>
       <r>  -12.7625    1.0000 </r>
       <r>  -12.4042    1.0000 </r>
       <r>   -1.3393    1.0000 </r>
       <r>   -1.3284    1.0000 </r>
       <r>   -0.8781    1.0000 </r>
       <r>   -0.7576    1.0000 </r>
       <r>   -0.5797    1.0000 </r>
       <r>   -0.0434    1.0000 </r>
       <r>    0.3157    1.0000 </r>
       <r>    0.3420    1.0000 </r>
       <r>    0.6418    1.0000 </r>
       <r>    1.0564    1.0000 </r>
       <r>    1.1671    1.0000 </r>
       <r>    1.1924    1.0000 </r>
       <r>    1.3664    1.0000 </r>
       <r>    1.4128    1.0000 </r>
       <r>    2.4983    1.0000 </r>
       <r>    2.5216    1.0000 </r>
       <r>    2.5521    1.0000 </r>
       <r>    2.6674    1.0000 </r>
       <r>    4.9883    1.0000 </r>
       <r>    5.9025    1.0000 </r>
       <r>    6.4819    0.1267 </r>
       <r>    6.5394    0.0028 </r>
       <r>    7.8787    0.0000 </r>
       <r>    9.5381    0.0000 </r>
       <r>    9.8742    0.0000 </r>
       <r>   11.4397    0.0000 </r>
       <r>   12.7504    0.0000 </r>
       <r>   12.8583    0.0000 </r>
       <r>   13.0637    0.0000 </r>
       <r>   13.3852    0.0000 </r>
       <r>   13.8413    0.0000 </r>
       <r>   13.8485    0.0000 </r>
       <r>   14.1089    0.0000 </r>
       <r>   14.1662    0.0000 </r>
       <r>   14.2940    0.0000 </r>
       <r>   14.2959    0.0000 </r>
       <r>   14.8248    0.0000 </r>
       <r>   15.1107    0.0000 </r>
      </set>
      <set comment="kpoint 4">
       <r>  -14.9141    1.0000 </r>
       <r>  -13.3033    1.0000 </r>
       <r>  -12.9420    1.0000 </r>
       <r>  -12.7358    1.0000 </r>
       <r>  -12.5855    1.0000 </r>
       <r>  -12.5845    1.0000 </r>
       <r>   -1.5393    1.0000 </r>
       <r>   -1.1449    1.0000 </r>
       <r>   -0.9007    1.0000 </r>
       <r>   -0.6295    1.0000 </r>
       <r>   -0.3199    1.0000 </r>
       <r>   -0.1411    1.0000 </r>
       <r>   -0.0728    1.0000 </r>
       <r>    0.3637    1.0000 </r>
       <r>    0.6452    1.0000 </r>
       <r>    0.9663    1.0000 </r>
       <r>    1.2382    1.0000 </r>
       <r>    1.3733    1.0000 </r>
       <r>    1.5477    1.0000 </r>
       <r>    1.6436    1.0000 </r>
       <r>    2.2140    1.0000 </r>
       <r>    2.4465    1.0000 </r>
       <r>    2.5705    1.0000 </r>
       <r>    2.5941    1.0000 </r>
       <r>    3.9483    1.0000 </r>
       <r>    4.6225    1.0000 </r>
       <r>    7.9859    0.0000 </r>
       <r>    8.7480    0.0000 </r>
       <r>    9.6542    0.0000 </r>
       <r>    9.6580    0.0000 </r>
       <r>   10.0173    0.0000 </r>
       <r>   10.5367    0.0000 </r>
       <r>   11.2423    0.0000 </r>
       <r>   11.6204    0.0000 </r>
       <r>   12.1690    0.0000 </r>
       <r>   12.3064    0.0000 </r>
       <r>   12.4641    0.0000 </r>
       <r>   13.4313    0.0000 </r>
       <r>   14.0422    0.0000 </r>
       <r>   14.1783    0.0000 </r>
       <r>   14.5827    0.0000 </r>
       <r>   14.7071    0.0000 </r>
       <r>   15.5693    0.0000 </r>
       <r>   15.9404    0.0000 </r>
      </set>
      <set comment="kpoint 5">
       <r>  -14.9106    1.0000 </r>
       <r>  -13.2398    1.0000 </r>
       <r>  -12.7834    1.0000 </r>
       <r>  -12.7659    1.0000 </r>
       <r>  -12.7618    1.0000 </r>
       <r>  -12.6287    1.0000 </r>
       <r>   -1.4714    1.0000 </r>
       <r>   -1.2370    1.0000 </r>
       <r>   -0.9267    1.0000 </r>
       <r>   -0.9140    1.0000 </r>
       <r>   -0.0185    1.0000 </r>
       <r>    0.0877    1.0000 </r>
       <r>    0.7172    1.0000 </r>
       <r>    0.9088    1.0000 </r>
       <r>    1.0022    1.0000 </r>
       <r>    1.0098    1.0000 </r>
       <r>    1.0440    1.0000 </r>
       <r>    1.1566    1.0000 </r>
       <r>    1.2261    1.0000 </r>
       <r>    1.3892    1.0000 </r>
       <r>    1.6497    1.0000 </r>
       <r>    1.6687    1.0000 </r>
       <r>    2.3701    1.0000 </r>
       <r>    2.4577    1.0000 </r>
       <r>    4.5423    1.0000 </r>
       <r>    4.9931    1.0000 </r>
       <r>    7.4025    0.0000 </r>
       <r>    8.2375    0.0000 </r>
       <r>    8.7621    0.0000 </r>
       <r>    9.8181    0.0000 </r>
       <r>    9.9961    0.0000 </r>
       <r>   10.7661    0.0000 </r>
       <r>   12.2615    0.0000 </r>
       <r>   12.4034    0.0000 </r>
       <r>   12.7799    0.0000 </r>
       <r>   12.9327    0.0000 </r>
       <r>   13.0401    0.0000 </r>
       <r>   13.4229    0.0000 </r>
       <r>   14.0357    0.0000 </r>
       <r>   14.0925    0.0000 </r>
       <r>   14.1892    0.0000 </r>
       <r>   14.9097    0.0000 </r>
       <r>   15.0338    0.0000 </r>
       <r>   15.4012    0.0000 </r>
      </set>
     </set>
     <set comment="spin 2">
      <set comment="kpoint 1">
       <r>  -14.9553    1.0000 </r>
       <r>  -13.3978    1.0000 </r>
       <r>  -12.7233    1.0000 </r>
       <r>  -12.6911    1.0000 </r>
       <r>  -12.6903    1.0000 </r>
       <r>  -12.4410    1.0000 </r>
       <r>   -1.9780    1.0000 </r>
       <r>   -1.9028    1.0000 </r>
       <r>   -1.5029    1.0000 </r>
       <r>   -0.9309    1.0000 </r>
       <r>   -0.5071    1.0000 </r>
       <r>   -0.0673    1.0000 </r>
       <r>    0.3108    1.0000 </r>
       <r>    1.0196    1.0000 </r>
       <r>    1.2787    1.0000 </r>
       <r>    1.2837    1.0000 </r>
       <r>    1.8126    1.0000 </r>
       <r>    1.9017    1.0000 </r>
       <r>    1.9194    1.0000 </r>
       <r>    2.2051    1.0000 </r>
       <r>    2.5836    1.0000 </r>
       <r>    2.6135    1.0000 </r>
       <r>    2.6764    1.0000 </r>
       <r>    2.6837    1.0000 </r>
       <r>    2.7292    1.0000 </r>
       <r>    5.3558    1.0000 </r>
       <r>    7.8811    0.0000 </r>
       <r>    9.1110    0.0000 </r>
       <r>    9.6752    0.0000 </r>
       <r>    9.7850    0.0000 </r>
       <r>   10.4775    0.0000 </r>
       <r>   10.5687    0.0000 </r>
       <r>   11.3690    0.0000 </r>
       <r>   11.6213    0.0000 </r>
       <r>   11.6339    0.0000 </r>
       <r>   11.7273    0.0000 </r>
       <r>   11.7309    0.0000 </r>
       <r>   11.7321    0.0000 </r>
       <r>   12.2459    0.0000 </r>
       <r>   12.7246    0.0000 </r>
       <r>   15.2950    0.0000 </r>
       <r>   15.3581    0.0000 </r>
       <r>   16.9573    0.0000 </r>
       <r>   17.4534    0.0000 </r>
      </set>
      <set comment="kpoint 2">
       <r>  -14.9150    1.0000 </r>
       <r>  -13.2096    1.0000 </r>
       <r>  -12.9869    1.0000 </r>
       <r>  -12.7181    1.0000 </r>
       <r>  -12.5770    1.0000 </r>
       <r>  -12.5730    1.0000 </r>
       <r>   -1.6814    1.0000 </r>
       <r>   -1.6299    1.0000 </r>
       <r>   -1.1813    1.0000 </r>
       <r>   -0.7690    1.0000 </r>
       <r>   -0.0949    1.0000 </r>
       <r>    0.1851    1.0000 </r>
       <r>    0.5543    1.0000 </r>
       <r>    0.8864    1.0000 </r>
       <r>    1.1049    1.0000 </r>
       <r>    1.1835    1.0000 </r>
       <r>    1.1883    1.0000 </r>
       <r>    1.2760    1.0000 </r>
       <r>    1.2990    1.0000 </r>
       <r>    1.4515    1.0000 </r>
       <r>    1.9456    1.0000 </r>
       <r>    2.5599    1.0000 </r>
       <r>    2.5800    1.0000 </r>
       <r>    2.6822    1.0000 </r>
       <r>    4.3589    1.0000 </r>
       <r>    6.6422    0.0000 </r>
       <r>    6.6628    0.0000 </r>
       <r>    6.9692    0.0000 </r>
       <r>    8.8874    0.0000 </r>
       <r>    8.9943    0.0000 </r>
       <r>   11.0329    0.0000 </r>
       <r>   11.1826    0.0000 </r>
       <r>   11.5806    0.0000 </r>
       <r>   12.0610    0.0000 </r>
       <r>   12.1904    0.0000 </r>
       <r>   13.6502    0.0000 </r>
       <r>   13.7613    0.0000 </r>
       <r>   13.8937    0.0000 </r>
       <r>   14.0312    0.0000 </r>
       <r>   14.5362    0.0000 </r>
       <r>   14.5679    0.0000 </r>
       <r>   14.6148    0.0000 </r>
       <r>   15.0942    0.0000 </r>
       <r>   15.8321    0.0000 </r>
      </set>
      <set comment="kpoint 3">
       <r>  -14.8841    1.0000 </r>
       <r>  -13.1837    1.0000 </r>
       <r>  -13.0279    1.0000 </r>
       <r>  -12.7542    1.0000 </r>
       <r>  -12.7540    1.0000 </r>
       <r>  -12.3955    1.0000 </r>
       <r>   -1.3212    1.0000 </r>
       <r>   -1.2388    1.0000 </r>
       <r>   -0.8397    1.0000 </r>
       <r>   -0.7487    1.0000 </r>
       <r>   -0.5232    1.0000 </r>
       <r>   -0.0222    1.0000 </r>
       <r>    0.3464    1.0000 </r>
       <r>    0.3503    1.0000 </r>
       <r>    0.7159    1.0000 </r>
       <r>    1.0708    1.0000 </r>
       <r>    1.1885    1.0000 </r>
       <r>    1.1998    1.0000 </r>
       <r>    1.3764    1.0000 </r>
       <r>    1.4232    1.0000 </r>
       <r>    2.5134    1.0000 </r>
       <r>    2.5327    1.0000 </r>
       <r>    2.5607    1.0000 </r>
       <r>    2.6809    1.0000 </r>
       <r>    5.1068    1.0000 </r>
       <r>    5.9394    1.0000 </r>
       <r>    6.7212    0.0000 </r>
       <r>    6.9098    0.0000 </r>
       <r>    8.1376    0.0000 </r>
       <r>    9.7802    0.0000 </r>
       <r>   10.1436    0.0000 </r>
       <r>   11.4783    0.0000 </r>
       <r>   12.7842    0.0000 </r>
       <r>   12.8590    0.0000 </r>
       <r>   13.2164    0.0000 </r>
       <r>   13.4982    0.0000 </r>
       <r>   13.8524    0.0000 </r>
       <r>   14.0923    0.0000 </r>
       <r>   14.2603    0.0000 </r>
       <r>   14.3165    0.0000 </r>
       <r>   14.3281    0.0000 </r>
       <r>   14.3656    0.0000 </r>
       <r>   14.8845    0.0000 </r>
       <r>   15.1872    0.0000 </r>
      </set>
      <set comment="kpoint 4">
       <r>  -14.8966    1.0000 </r>
       <r>  -13.2890    1.0000 </r>
       <r>  -12.9319    1.0000 </r>
       <r>  -12.7245    1.0000 </r>
       <r>  -12.5758    1.0000 </r>
       <r>  -12.5747    1.0000 </r>
       <r>   -1.5298    1.0000 </r>
       <r>   -1.1080    1.0000 </r>
       <r>   -0.8786    1.0000 </r>
       <r>   -0.6190    1.0000 </r>
       <r>   -0.2586    1.0000 </r>
       <r>   -0.0918    1.0000 </r>
       <r>    0.0021    1.0000 </r>
       <r>    0.4050    1.0000 </r>
       <r>    0.6857    1.0000 </r>
       <r>    0.9846    1.0000 </r>
       <r>    1.2577    1.0000 </r>
       <r>    1.3977    1.0000 </r>
       <r>    1.5639    1.0000 </r>
       <r>    1.6613    1.0000 </r>
       <r>    2.2235    1.0000 </r>
       <r>    2.4593    1.0000 </r>
       <r>    2.5815    1.0000 </r>
       <r>    2.6087    1.0000 </r>
       <r>    4.0783    1.0000 </r>
       <r>    4.8206    1.0000 </r>
       <r>    8.2501    0.0000 </r>
       <r>    9.0272    0.0000 </r>
       <r>    9.7711    0.0000 </r>
       <r>    9.8411    0.0000 </r>
       <r>   10.2303    0.0000 </r>
       <r>   10.6257    0.0000 </r>
       <r>   11.2941    0.0000 </r>
       <r>   11.7177    0.0000 </r>
       <r>   12.4247    0.0000 </r>
       <r>   12.4897    0.0000 </r>
       <r>   12.5511    0.0000 </r>
       <r>   13.4695    0.0000 </r>
       <r>   14.1966    0.0000 </r>
       <r>   14.2469    0.0000 </r>
       <r>   14.6574    0.0000 </r>
       <r>   14.7617    0.0000 </r>
       <r>   15.6469    0.0000 </r>
       <r>   15.9628    0.0000 </r>
      </set>
      <set comment="kpoint 5">
       <r>  -14.8931    1.0000 </r>
       <r>  -13.2251    1.0000 </r>
       <r>  -12.7730    1.0000 </r>
       <r>  -12.7561    1.0000 </r>
       <r>  -12.7522    1.0000 </r>
       <r>  -12.6180    1.0000 </r>
       <r>   -1.4316    1.0000 </r>
       <r>   -1.2263    1.0000 </r>
       <r>   -0.8932    1.0000 </r>
       <r>   -0.8235    1.0000 </r>
       <r>   -0.0010    1.0000 </r>
       <r>    0.1150    1.0000 </r>
       <r>    0.7542    1.0000 </r>
       <r>    0.9499    1.0000 </r>
       <r>    1.0245    1.0000 </r>
       <r>    1.0326    1.0000 </r>
       <r>    1.0796    1.0000 </r>
       <r>    1.1773    1.0000 </r>
       <r>    1.2417    1.0000 </r>
       <r>    1.4050    1.0000 </r>
       <r>    1.6666    1.0000 </r>
       <r>    1.6821    1.0000 </r>
       <r>    2.3854    1.0000 </r>
       <r>    2.4692    1.0000 </r>
       <r>    4.6491    1.0000 </r>
       <r>    5.1886    1.0000 </r>
       <r>    7.7197    0.0000 </r>
       <r>    8.4751    0.0000 </r>
       <r>    8.9633    0.0000 </r>
       <r>    9.9989    0.0000 </r>
       <r>   10.1599    0.0000 </r>
       <r>   10.9258    0.0000 </r>
       <r>   12.2963    0.0000 </r>
       <r>   12.4694    0.0000 </r>
       <r>   12.9729    0.0000 </r>
       <r>   12.9864    0.0000 </r>
       <r>   13.1039    0.0000 </r>
       <r>   13.5967    0.0000 </r>
       <r>   14.1292    0.0000 </r>
       <r>   14.2596    0.0000 </r>
       <r>   14.2815    0.0000 </r>
       <r>   14.9656    0.0000 </r>
       <r>   15.1210    0.0000 </r>
       <r>   15.4841    0.0000 </r>
      </set>
     </set>
    </set>
   </array>
  </eigenvalues>
  <separator name="orbital magnetization" >
   <v name="MAGDIPOLOUT">      0.00000000      0.00000000      0.00000000</v>
  </separator>
  <dos>
   <i name="efermi">      6.44148542 </i>
   <total>
    <array>
     <dimension dim="1">gridpoints</dimension>
     <dimension dim="2">spin</dimension>
     <field>energy</field>
     <field>total</field>
     <field>integrated</field>
     <set>
      <set comment="spin 1">
       <r>   -16.5940     0.0000     0.0000 </r>
       <r>   -16.4751     0.0000     0.0000 </r>
       <r>   -16.3562     0.0000     0.0000 </r>
       <r>   -16.2373     0.0000     0.0000 </r>
       <r>   -16.1184     0.0000     0.0000 </r>
       <r>   -15.9995     0.0000     0.0000 </r>
       <r>   -15.8806     0.0000     0.0000 </r>
       <r>   -15.7618     0.0000     0.0000 </r>
       <r>   -15.6429     0.0000     0.0000 </r>
       <r>   -15.5240     0.0000     0.0000 </r>
       <r>   -15.4051     0.0000     0.0000 </r>
       <r>   -15.2862     0.0000     0.0000 </r>
       <r>   -15.1673     0.0000     0.0000 </r>
       <r>   -15.0484     0.0184     0.0022 </r>
       <r>   -14.9295     3.5863     0.4286 </r>
       <r>   -14.8106     4.7917     0.9983 </r>
       <r>   -14.6917     0.0143     1.0000 </r>
       <r>   -14.5728     0.0000     1.0000 </r>
       <r>   -14.4539     0.0000     1.0000 </r>
       <r>   -14.3350     0.0000     1.0000 </r>
       <r>   -14.2161     0.0000     1.0000 </r>
       <r>   -14.0972     0.0000     1.0000 </r>
       <r>   -13.9783     0.0000     1.0000 </r>
       <r>   -13.8594     0.0000     1.0000 </r>
       <r>   -13.7405     0.0000     1.0000 </r>
       <r>   -13.6216     0.0000     1.0000 </r>
       <r>   -13.5027     0.0057     1.0007 </r>
       <r>   -13.3838     0.8518     1.1020 </r>
       <r>   -13.2649     2.7924     1.4340 </r>
       <r>   -13.1460     4.6368     1.9853 </r>
       <r>   -13.0271     1.2894     2.1386 </r>
       <r>   -12.9083     3.7227     2.5812 </r>
       <r>   -12.7894     3.0824     2.9477 </r>
       <r>   -12.6705    12.7210     4.4601 </r>
       <r>   -12.5516     9.3276     5.5691 </r>
       <r>   -12.4327     2.4630     5.8620 </r>
       <r>   -12.3138     1.1552     5.9993 </r>
       <r>   -12.1949     0.0056     6.0000 </r>
       <r>   -12.0760     0.0000     6.0000 </r>
       <r>   -11.9571     0.0000     6.0000 </r>
       <r>   -11.8382     0.0000     6.0000 </r>
       <r>   -11.7193     0.0000     6.0000 </r>
       <r>   -11.6004     0.0000     6.0000 </r>
       <r>   -11.4815     0.0000     6.0000 </r>
       <r>   -11.3626     0.0000     6.0000 </r>
       <r>   -11.2437     0.0000     6.0000 </r>
       <r>   -11.1248     0.0000     6.0000 </r>
       <r>   -11.0059     0.0000     6.0000 </r>
       <r>   -10.8870     0.0000     6.0000 </r>
       <r>   -10.7681     0.0000     6.0000 </r>
       <r>   -10.6492     0.0000     6.0000 </r>
       <r>   -10.5303     0.0000     6.0000 </r>
       <r>   -10.4114     0.0000     6.0000 </r>
       <r>   -10.2925     0.0000     6.0000 </r>
       <r>   -10.1736     0.0000     6.0000 </r>
       <r>   -10.0548     0.0000     6.0000 </r>
       <r>    -9.9359     0.0000     6.0000 </r>
       <r>    -9.8170     0.0000     6.0000 </r>
       <r>    -9.6981     0.0000     6.0000 </r>
       <r>    -9.5792     0.0000     6.0000 </r>
       <r>    -9.4603     0.0000     6.0000 </r>
       <r>    -9.3414     0.0000     6.0000 </r>
       <r>    -9.2225     0.0000     6.0000 </r>
       <r>    -9.1036     0.0000     6.0000 </r>
       <r>    -8.9847     0.0000     6.0000 </r>
       <r>    -8.8658     0.0000     6.0000 </r>
       <r>    -8.7469     0.0000     6.0000 </r>
       <r>    -8.6280     0.0000     6.0000 </r>
       <r>    -8.5091     0.0000     6.0000 </r>
       <r>    -8.3902     0.0000     6.0000 </r>
       <r>    -8.2713     0.0000     6.0000 </r>
       <r>    -8.1524     0.0000     6.0000 </r>
       <r>    -8.0335     0.0000     6.0000 </r>
       <r>    -7.9146     0.0000     6.0000 </r>
       <r>    -7.7957     0.0000     6.0000 </r>
       <r>    -7.6768     0.0000     6.0000 </r>
       <r>    -7.5579     0.0000     6.0000 </r>
       <r>    -7.4390     0.0000     6.0000 </r>
       <r>    -7.3201     0.0000     6.0000 </r>
       <r>    -7.2012     0.0000     6.0000 </r>
       <r>    -7.0824     0.0000     6.0000 </r>
       <r>    -6.9635     0.0000     6.0000 </r>
       <r>    -6.8446     0.0000     6.0000 </r>
       <r>    -6.7257     0.0000     6.0000 </r>
       <r>    -6.6068     0.0000     6.0000 </r>
       <r>    -6.4879     0.0000     6.0000 </r>
       <r>    -6.3690     0.0000     6.0000 </r>
       <r>    -6.2501     0.0000     6.0000 </r>
       <r>    -6.1312     0.0000     6.0000 </r>
       <r>    -6.0123     0.0000     6.0000 </r>
       <r>    -5.8934     0.0000     6.0000 </r>
       <r>    -5.7745     0.0000     6.0000 </r>
       <r>    -5.6556     0.0000     6.0000 </r>
       <r>    -5.5367     0.0000     6.0000 </r>
       <r>    -5.4178     0.0000     6.0000 </r>
       <r>    -5.2989     0.0000     6.0000 </r>
       <r>    -5.1800     0.0000     6.0000 </r>
       <r>    -5.0611     0.0000     6.0000 </r>
       <r>    -4.9422     0.0000     6.0000 </r>
       <r>    -4.8233     0.0000     6.0000 </r>
       <r>    -4.7044     0.0000     6.0000 </r>
       <r>    -4.5855     0.0000     6.0000 </r>
       <r>    -4.4666     0.0000     6.0000 </r>
       <r>    -4.3477     0.0000     6.0000 </r>
       <r>    -4.2289     0.0000     6.0000 </r>
       <r>    -4.1100     0.0000     6.0000 </r>
       <r>    -3.9911     0.0000     6.0000 </r>
       <r>    -3.8722     0.0000     6.0000 </r>
       <r>    -3.7533     0.0000     6.0000 </r>
       <r>    -3.6344     0.0000     6.0000 </r>
       <r>    -3.5155     0.0000     6.0000 </r>
       <r>    -3.3966     0.0000     6.0000 </r>
       <r>    -3.2777     0.0000     6.0000 </r>
       <r>    -3.1588     0.0000     6.0000 </r>
       <r>    -3.0399     0.0000     6.0000 </r>
       <r>    -2.9210     0.0000     6.0000 </r>
       <r>    -2.8021     0.0000     6.0000 </r>
       <r>    -2.6832     0.0000     6.0000 </r>
       <r>    -2.5643     0.0000     6.0000 </r>
       <r>    -2.4454     0.0000     6.0000 </r>
       <r>    -2.3265     0.0000     6.0000 </r>
       <r>    -2.2076     0.0000     6.0000 </r>
       <r>    -2.0887     0.0018     6.0002 </r>
       <r>    -1.9698     0.7706     6.0918 </r>
       <r>    -1.8509     1.2964     6.2460 </r>
       <r>    -1.7320     0.8805     6.3507 </r>
       <r>    -1.6131     2.8977     6.6952 </r>
       <r>    -1.4942     3.8647     7.1547 </r>
       <r>    -1.3754     2.1053     7.4050 </r>
       <r>    -1.2565     3.4697     7.8175 </r>
       <r>    -1.1376     3.8046     8.2699 </r>
       <r>    -1.0187     0.9518     8.3831 </r>
       <r>    -0.8998     5.3262     9.0163 </r>
       <r>    -0.7809     5.0021     9.6111 </r>
       <r>    -0.6620     1.5632     9.7969 </r>
       <r>    -0.5431     3.4800    10.2107 </r>
       <r>    -0.4242     0.3341    10.2504 </r>
       <r>    -0.3053     1.3854    10.4151 </r>
       <r>    -0.1864     1.1168    10.5479 </r>
       <r>    -0.0675     6.2449    11.2904 </r>
       <r>     0.0514     4.1403    11.7827 </r>
       <r>     0.1703     3.4250    12.1899 </r>
       <r>     0.2892     1.2539    12.3390 </r>
       <r>     0.4081     4.2534    12.8447 </r>
       <r>     0.5270     1.6487    13.0407 </r>
       <r>     0.6459     2.3968    13.3257 </r>
       <r>     0.7648     3.3828    13.7279 </r>
       <r>     0.8837     2.0485    13.9714 </r>
       <r>     1.0026     6.8445    14.7852 </r>
       <r>     1.1215     8.6060    15.8084 </r>
       <r>     1.2404    11.5378    17.1802 </r>
       <r>     1.3593     8.5219    18.1934 </r>
       <r>     1.4781     6.4073    18.9552 </r>
       <r>     1.5970     2.7017    19.2765 </r>
       <r>     1.7159     6.6590    20.0682 </r>
       <r>     1.8348     1.3454    20.2282 </r>
       <r>     1.9537     2.6343    20.5414 </r>
       <r>     2.0726     0.7037    20.6250 </r>
       <r>     2.1915     1.0446    20.7492 </r>
       <r>     2.3104     2.1984    21.0106 </r>
       <r>     2.4293     3.0507    21.3733 </r>
       <r>     2.5482     8.2336    22.3523 </r>
       <r>     2.6671    11.2678    23.6920 </r>
       <r>     2.7860     3.6166    24.1220 </r>
       <r>     2.9049     0.0255    24.1250 </r>
       <r>     3.0238     0.0000    24.1250 </r>
       <r>     3.1427     0.0000    24.1250 </r>
       <r>     3.2616     0.0000    24.1250 </r>
       <r>     3.3805     0.0000    24.1250 </r>
       <r>     3.4994     0.0000    24.1250 </r>
       <r>     3.6183     0.0000    24.1250 </r>
       <r>     3.7372     0.0000    24.1250 </r>
       <r>     3.8561     0.0095    24.1261 </r>
       <r>     3.9750     1.6190    24.3186 </r>
       <r>     4.0939     0.4741    24.3750 </r>
       <r>     4.2128     0.4256    24.4256 </r>
       <r>     4.3317     1.6651    24.6236 </r>
       <r>     4.4505     0.0219    24.6262 </r>
       <r>     4.5694     1.7675    24.8363 </r>
       <r>     4.6883     2.3622    25.1172 </r>
       <r>     4.8072     0.0657    25.1250 </r>
       <r>     4.9261     0.1962    25.1483 </r>
       <r>     5.0450     3.7795    25.5977 </r>
       <r>     5.1639     0.2296    25.6250 </r>
       <r>     5.2828     0.0000    25.6250 </r>
       <r>     5.4017     0.0000    25.6250 </r>
       <r>     5.5206     0.0000    25.6250 </r>
       <r>     5.6395     0.0000    25.6250 </r>
       <r>     5.7584     0.0000    25.6250 </r>
       <r>     5.8773     0.2503    25.6548 </r>
       <r>     5.9962     0.7968    25.7495 </r>
       <r>     6.1151     0.0042    25.7500 </r>
       <r>     6.2340     0.2874    25.7842 </r>
       <r>     6.3529     2.1296    26.0374 </r>
       <r>     6.4718     2.2067    26.2997 </r>
       <r>     6.5907     1.6061    26.4907 </r>
       <r>     6.7096     0.0782    26.5000 </r>
       <r>     6.8285     0.0011    26.5001 </r>
       <r>     6.9474     1.1315    26.6347 </r>
       <r>     7.0663     0.9694    26.7499 </r>
       <r>     7.1852     0.0006    26.7500 </r>
       <r>     7.3040     0.0056    26.7507 </r>
       <r>     7.4229     1.5046    26.9296 </r>
       <r>     7.5418     0.5924    27.0000 </r>
       <r>     7.6607     0.0001    27.0000 </r>
       <r>     7.7796     0.0101    27.0012 </r>
       <r>     7.8985     1.6142    27.1931 </r>
       <r>     8.0174     2.1886    27.4533 </r>
       <r>     8.1363     0.3969    27.5005 </r>
       <r>     8.2552     1.4499    27.6729 </r>
       <r>     8.3741     0.6483    27.7500 </r>
       <r>     8.4930     0.0001    27.7500 </r>
       <r>     8.6119     0.4047    27.7981 </r>
       <r>     8.7308     3.2897    28.1893 </r>
       <r>     8.8497     4.6914    28.7470 </r>
       <r>     8.9686     0.0250    28.7500 </r>
       <r>     9.0875     0.3948    28.7970 </r>
       <r>     9.2064     0.6552    28.8749 </r>
       <r>     9.3253     0.0290    28.8783 </r>
       <r>     9.4442     0.9499    28.9912 </r>
       <r>     9.5631     1.6520    29.1877 </r>
       <r>     9.6820     3.7506    29.6336 </r>
       <r>     9.8009     1.6576    29.8307 </r>
       <r>     9.9198     2.4062    30.1168 </r>
       <r>    10.0387     3.4602    30.5282 </r>
       <r>    10.1575     0.8143    30.6250 </r>
       <r>    10.2764     0.0002    30.6250 </r>
       <r>    10.3953     0.4279    30.6759 </r>
       <r>    10.5142     2.1650    30.9333 </r>
       <r>    10.6331     1.6058    31.1242 </r>
       <r>    10.7520     0.7328    31.2113 </r>
       <r>    10.8709     1.5146    31.3914 </r>
       <r>    10.9898     2.1726    31.6497 </r>
       <r>    11.1087     1.8717    31.8723 </r>
       <r>    11.2276     1.5180    32.0528 </r>
       <r>    11.3465     2.3272    32.3294 </r>
       <r>    11.4654     1.8339    32.5475 </r>
       <r>    11.5843     3.9144    33.0129 </r>
       <r>    11.7032     3.7672    33.4608 </r>
       <r>    11.8221     0.3298    33.5000 </r>
       <r>    11.9410     0.3530    33.5420 </r>
       <r>    12.0599     2.7210    33.8655 </r>
       <r>    12.1788     2.1911    34.1260 </r>
       <r>    12.2977     4.7226    34.6875 </r>
       <r>    12.4166     3.1204    35.0585 </r>
       <r>    12.5355     2.6159    35.3695 </r>
       <r>    12.6544     0.2600    35.4004 </r>
       <r>    12.7733     2.5137    35.6993 </r>
       <r>    12.8922     2.6134    36.0100 </r>
       <r>    13.0111     2.4951    36.3067 </r>
       <r>    13.1299     2.6337    36.6198 </r>
       <r>    13.2488     0.0436    36.6250 </r>
       <r>    13.3677     0.5589    36.6915 </r>
       <r>    13.4866     6.3580    37.4474 </r>
       <r>    13.6055     0.5185    37.5090 </r>
       <r>    13.7244     3.6670    37.9450 </r>
       <r>    13.8433     1.4767    38.1206 </r>
       <r>    13.9622     1.9875    38.3569 </r>
       <r>    14.0811     5.9436    39.0636 </r>
       <r>    14.2000     6.3326    39.8165 </r>
       <r>    14.3189     3.1219    40.1877 </r>
       <r>    14.4378     1.3827    40.3521 </r>
       <r>    14.5567     4.4677    40.8833 </r>
       <r>    14.6756     3.4625    41.2950 </r>
       <r>    14.7945     1.9174    41.5229 </r>
       <r>    14.9134     2.0613    41.7680 </r>
       <r>    15.0323     3.8979    42.2315 </r>
       <r>    15.1512     2.1251    42.4841 </r>
       <r>    15.2701     0.5052    42.5442 </r>
       <r>    15.3890     2.4226    42.8322 </r>
       <r>    15.5079     1.4948    43.0100 </r>
       <r>    15.6268     1.9094    43.2370 </r>
       <r>    15.7457     0.5426    43.3015 </r>
       <r>    15.8646     1.6917    43.5026 </r>
       <r>    15.9834     1.8463    43.7221 </r>
       <r>    16.1023     0.2343    43.7500 </r>
       <r>    16.2212     0.0000    43.7500 </r>
       <r>    16.3401     0.0000    43.7500 </r>
       <r>    16.4590     0.0000    43.7500 </r>
       <r>    16.5779     0.0000    43.7500 </r>
       <r>    16.6968     0.1015    43.7621 </r>
       <r>    16.8157     0.9292    43.8725 </r>
       <r>    16.9346     0.0206    43.8750 </r>
       <r>    17.0535     0.0000    43.8750 </r>
       <r>    17.1724     0.0023    43.8753 </r>
       <r>    17.2913     0.7304    43.9621 </r>
       <r>    17.4102     0.3186    44.0000 </r>
       <r>    17.5291     0.0001    44.0000 </r>
       <r>    17.6480     0.0000    44.0000 </r>
       <r>    17.7669     0.0000    44.0000 </r>
       <r>    17.8858     0.0000    44.0000 </r>
       <r>    18.0047     0.0000    44.0000 </r>
       <r>    18.1236     0.0000    44.0000 </r>
       <r>    18.2425     0.0000    44.0000 </r>
       <r>    18.3614     0.0000    44.0000 </r>
       <r>    18.4803     0.0000    44.0000 </r>
       <r>    18.5992     0.0000    44.0000 </r>
       <r>    18.7181     0.0000    44.0000 </r>
       <r>    18.8369     0.0000    44.0000 </r>
       <r>    18.9558     0.0000    44.0000 </r>
       <r>    19.0747     0.0000    44.0000 </r>
      </set>
      <set comment="spin 2">
       <r>   -16.5940     0.0000     0.0000 </r>
       <r>   -16.4751     0.0000     0.0000 </r>
       <r>   -16.3562     0.0000     0.0000 </r>
       <r>   -16.2373     0.0000     0.0000 </r>
       <r>   -16.1184     0.0000     0.0000 </r>
       <r>   -15.9995     0.0000     0.0000 </r>
       <r>   -15.8806     0.0000     0.0000 </r>
       <r>   -15.7618     0.0000     0.0000 </r>
       <r>   -15.6429     0.0000     0.0000 </r>
       <r>   -15.5240     0.0000     0.0000 </r>
       <r>   -15.4051     0.0000     0.0000 </r>
       <r>   -15.2862     0.0000     0.0000 </r>
       <r>   -15.1673     0.0000     0.0000 </r>
       <r>   -15.0484     0.0046     0.0006 </r>
       <r>   -14.9295     2.3126     0.2755 </r>
       <r>   -14.8106     6.0341     0.9929 </r>
       <r>   -14.6917     0.0594     1.0000 </r>
       <r>   -14.5728     0.0000     1.0000 </r>
       <r>   -14.4539     0.0000     1.0000 </r>
       <r>   -14.3350     0.0000     1.0000 </r>
       <r>   -14.2161     0.0000     1.0000 </r>
       <r>   -14.0972     0.0000     1.0000 </r>
       <r>   -13.9783     0.0000     1.0000 </r>
       <r>   -13.8594     0.0000     1.0000 </r>
       <r>   -13.7405     0.0000     1.0000 </r>
       <r>   -13.6216     0.0000     1.0000 </r>
       <r>   -13.5027     0.0016     1.0002 </r>
       <r>   -13.3838     0.6932     1.0826 </r>
       <r>   -13.2649     2.3460     1.3615 </r>
       <r>   -13.1460     5.1169     1.9699 </r>
       <r>   -13.0271     1.0628     2.0963 </r>
       <r>   -12.9083     3.8894     2.5587 </r>
       <r>   -12.7894     2.3961     2.8436 </r>
       <r>   -12.6705    13.0579     4.3961 </r>
       <r>   -12.5516     9.1974     5.4897 </r>
       <r>   -12.4327     2.9678     5.8425 </r>
       <r>   -12.3138     1.3135     5.9987 </r>
       <r>   -12.1949     0.0111     6.0000 </r>
       <r>   -12.0760     0.0000     6.0000 </r>
       <r>   -11.9571     0.0000     6.0000 </r>
       <r>   -11.8382     0.0000     6.0000 </r>
       <r>   -11.7193     0.0000     6.0000 </r>
       <r>   -11.6004     0.0000     6.0000 </r>
       <r>   -11.4815     0.0000     6.0000 </r>
       <r>   -11.3626     0.0000     6.0000 </r>
       <r>   -11.2437     0.0000     6.0000 </r>
       <r>   -11.1248     0.0000     6.0000 </r>
       <r>   -11.0059     0.0000     6.0000 </r>
       <r>   -10.8870     0.0000     6.0000 </r>
       <r>   -10.7681     0.0000     6.0000 </r>
       <r>   -10.6492     0.0000     6.0000 </r>
       <r>   -10.5303     0.0000     6.0000 </r>
       <r>   -10.4114     0.0000     6.0000 </r>
       <r>   -10.2925     0.0000     6.0000 </r>
       <r>   -10.1736     0.0000     6.0000 </r>
       <r>   -10.0548     0.0000     6.0000 </r>
       <r>    -9.9359     0.0000     6.0000 </r>
       <r>    -9.8170     0.0000     6.0000 </r>
       <r>    -9.6981     0.0000     6.0000 </r>
       <r>    -9.5792     0.0000     6.0000 </r>
       <r>    -9.4603     0.0000     6.0000 </r>
       <r>    -9.3414     0.0000     6.0000 </r>
       <r>    -9.2225     0.0000     6.0000 </r>
       <r>    -9.1036     0.0000     6.0000 </r>
       <r>    -8.9847     0.0000     6.0000 </r>
       <r>    -8.8658     0.0000     6.0000 </r>
       <r>    -8.7469     0.0000     6.0000 </r>
       <r>    -8.6280     0.0000     6.0000 </r>
       <r>    -8.5091     0.0000     6.0000 </r>
       <r>    -8.3902     0.0000     6.0000 </r>
       <r>    -8.2713     0.0000     6.0000 </r>
       <r>    -8.1524     0.0000     6.0000 </r>
       <r>    -8.0335     0.0000     6.0000 </r>
       <r>    -7.9146     0.0000     6.0000 </r>
       <r>    -7.7957     0.0000     6.0000 </r>
       <r>    -7.6768     0.0000     6.0000 </r>
       <r>    -7.5579     0.0000     6.0000 </r>
       <r>    -7.4390     0.0000     6.0000 </r>
       <r>    -7.3201     0.0000     6.0000 </r>
       <r>    -7.2012     0.0000     6.0000 </r>
       <r>    -7.0824     0.0000     6.0000 </r>
       <r>    -6.9635     0.0000     6.0000 </r>
       <r>    -6.8446     0.0000     6.0000 </r>
       <r>    -6.7257     0.0000     6.0000 </r>
       <r>    -6.6068     0.0000     6.0000 </r>
       <r>    -6.4879     0.0000     6.0000 </r>
       <r>    -6.3690     0.0000     6.0000 </r>
       <r>    -6.2501     0.0000     6.0000 </r>
       <r>    -6.1312     0.0000     6.0000 </r>
       <r>    -6.0123     0.0000     6.0000 </r>
       <r>    -5.8934     0.0000     6.0000 </r>
       <r>    -5.7745     0.0000     6.0000 </r>
       <r>    -5.6556     0.0000     6.0000 </r>
       <r>    -5.5367     0.0000     6.0000 </r>
       <r>    -5.4178     0.0000     6.0000 </r>
       <r>    -5.2989     0.0000     6.0000 </r>
       <r>    -5.1800     0.0000     6.0000 </r>
       <r>    -5.0611     0.0000     6.0000 </r>
       <r>    -4.9422     0.0000     6.0000 </r>
       <r>    -4.8233     0.0000     6.0000 </r>
       <r>    -4.7044     0.0000     6.0000 </r>
       <r>    -4.5855     0.0000     6.0000 </r>
       <r>    -4.4666     0.0000     6.0000 </r>
       <r>    -4.3477     0.0000     6.0000 </r>
       <r>    -4.2289     0.0000     6.0000 </r>
       <r>    -4.1100     0.0000     6.0000 </r>
       <r>    -3.9911     0.0000     6.0000 </r>
       <r>    -3.8722     0.0000     6.0000 </r>
       <r>    -3.7533     0.0000     6.0000 </r>
       <r>    -3.6344     0.0000     6.0000 </r>
       <r>    -3.5155     0.0000     6.0000 </r>
       <r>    -3.3966     0.0000     6.0000 </r>
       <r>    -3.2777     0.0000     6.0000 </r>
       <r>    -3.1588     0.0000     6.0000 </r>
       <r>    -3.0399     0.0000     6.0000 </r>
       <r>    -2.9210     0.0000     6.0000 </r>
       <r>    -2.8021     0.0000     6.0000 </r>
       <r>    -2.6832     0.0000     6.0000 </r>
       <r>    -2.5643     0.0000     6.0000 </r>
       <r>    -2.4454     0.0000     6.0000 </r>
       <r>    -2.3265     0.0000     6.0000 </r>
       <r>    -2.2076     0.0000     6.0000 </r>
       <r>    -2.0887     0.0009     6.0001 </r>
       <r>    -1.9698     0.6517     6.0776 </r>
       <r>    -1.8509     1.3749     6.2411 </r>
       <r>    -1.7320     0.2393     6.2695 </r>
       <r>    -1.6131     3.3363     6.6662 </r>
       <r>    -1.4942     3.1835     7.0447 </r>
       <r>    -1.3754     2.7267     7.3689 </r>
       <r>    -1.2565     1.8412     7.5878 </r>
       <r>    -1.1376     4.7003     8.1466 </r>
       <r>    -1.0187     1.9159     8.3744 </r>
       <r>    -0.8998     2.4103     8.6610 </r>
       <r>    -0.7809     6.6723     9.4543 </r>
       <r>    -0.6620     2.7131     9.7769 </r>
       <r>    -0.5431     2.3074    10.0512 </r>
       <r>    -0.4242     1.6591    10.2485 </r>
       <r>    -0.3053     0.2093    10.2734 </r>
       <r>    -0.1864     1.8814    10.4971 </r>
       <r>    -0.0675     3.9951    10.9721 </r>
       <r>     0.0514     6.2816    11.7189 </r>
       <r>     0.1703     2.9513    12.0698 </r>
       <r>     0.2892     1.8977    12.2954 </r>
       <r>     0.4081     3.7967    12.7469 </r>
       <r>     0.5270     1.5397    12.9299 </r>
       <r>     0.6459     1.9313    13.1595 </r>
       <r>     0.7648     4.0494    13.6410 </r>
       <r>     0.8837     1.9731    13.8756 </r>
       <r>     1.0026     5.8358    14.5694 </r>
       <r>     1.1215     9.2193    15.6656 </r>
       <r>     1.2404    10.9451    16.9669 </r>
       <r>     1.3593     9.4156    18.0864 </r>
       <r>     1.4781     7.0961    18.9301 </r>
       <r>     1.5970     2.4666    19.2233 </r>
       <r>     1.7159     5.8803    19.9225 </r>
       <r>     1.8348     1.4662    20.0968 </r>
       <r>     1.9537     3.3342    20.4932 </r>
       <r>     2.0726     1.1081    20.6250 </r>
       <r>     2.1915     0.7529    20.7145 </r>
       <r>     2.3104     2.4209    21.0023 </r>
       <r>     2.4293     2.5585    21.3065 </r>
       <r>     2.5482     7.4805    22.1959 </r>
       <r>     2.6671    11.5635    23.5708 </r>
       <r>     2.7860     4.5966    24.1173 </r>
       <r>     2.9049     0.0650    24.1250 </r>
       <r>     3.0238     0.0000    24.1250 </r>
       <r>     3.1427     0.0000    24.1250 </r>
       <r>     3.2616     0.0000    24.1250 </r>
       <r>     3.3805     0.0000    24.1250 </r>
       <r>     3.4994     0.0000    24.1250 </r>
       <r>     3.6183     0.0000    24.1250 </r>
       <r>     3.7372     0.0000    24.1250 </r>
       <r>     3.8561     0.0000    24.1250 </r>
       <r>     3.9750     0.0036    24.1254 </r>
       <r>     4.0939     1.4046    24.2924 </r>
       <r>     4.2128     0.6943    24.3750 </r>
       <r>     4.3317     0.4639    24.4301 </r>
       <r>     4.4505     1.6289    24.6238 </r>
       <r>     4.5694     0.0355    24.6280 </r>
       <r>     4.6883     1.7965    24.8416 </r>
       <r>     4.8072     1.0227    24.9632 </r>
       <r>     4.9261     1.3577    25.1246 </r>
       <r>     5.0450     0.0453    25.1300 </r>
       <r>     5.1639     1.4634    25.3040 </r>
       <r>     5.2828     1.6607    25.5015 </r>
       <r>     5.4017     0.9369    25.6129 </r>
       <r>     5.5206     0.1020    25.6250 </r>
       <r>     5.6395     0.0000    25.6250 </r>
       <r>     5.7584     0.0000    25.6250 </r>
       <r>     5.8773     0.0414    25.6299 </r>
       <r>     5.9962     0.9529    25.7432 </r>
       <r>     6.1151     0.0570    25.7500 </r>
       <r>     6.2340     0.0000    25.7500 </r>
       <r>     6.3529     0.0000    25.7500 </r>
       <r>     6.4718     0.0000    25.7500 </r>
       <r>     6.5907     0.1963    25.7733 </r>
       <r>     6.7096     4.1439    26.2660 </r>
       <r>     6.8285     0.9266    26.3762 </r>
       <r>     6.9474     1.4533    26.5490 </r>
       <r>     7.0663     1.6843    26.7492 </r>
       <r>     7.1852     0.0064    26.7500 </r>
       <r>     7.3040     0.0000    26.7500 </r>
       <r>     7.4229     0.0000    26.7500 </r>
       <r>     7.5418     0.0000    26.7500 </r>
       <r>     7.6607     0.1003    26.7619 </r>
       <r>     7.7796     1.9099    26.9890 </r>
       <r>     7.8985     0.8169    27.0861 </r>
       <r>     8.0174     0.3273    27.1250 </r>
       <r>     8.1363     0.5117    27.1859 </r>
       <r>     8.2552     1.7119    27.3894 </r>
       <r>     8.3741     0.9341    27.5005 </r>
       <r>     8.4930     1.4549    27.6735 </r>
       <r>     8.6119     0.6436    27.7500 </r>
       <r>     8.7308     0.0001    27.7500 </r>
       <r>     8.8497     0.3021    27.7859 </r>
       <r>     8.9686     3.5471    28.2077 </r>
       <r>     9.0875     4.7250    28.7694 </r>
       <r>     9.2064     0.8841    28.8746 </r>
       <r>     9.3253     0.0037    28.8750 </r>
       <r>     9.4442     0.0000    28.8750 </r>
       <r>     9.5631     0.0008    28.8751 </r>
       <r>     9.6820     0.6212    28.9490 </r>
       <r>     9.8009     3.8448    29.4061 </r>
       <r>     9.9198     2.8916    29.7499 </r>
       <r>    10.0387     1.8320    29.9677 </r>
       <r>    10.1575     1.9964    30.2051 </r>
       <r>    10.2764     3.3288    30.6008 </r>
       <r>    10.3953     0.2137    30.6263 </r>
       <r>    10.5142     0.9499    30.7392 </r>
       <r>    10.6331     2.3319    31.0164 </r>
       <r>    10.7520     0.9126    31.1250 </r>
       <r>    10.8709     0.1275    31.1401 </r>
       <r>    10.9898     2.1366    31.3941 </r>
       <r>    11.1087     1.9466    31.6256 </r>
       <r>    11.2276     1.9479    31.8572 </r>
       <r>    11.3465     2.3836    32.1406 </r>
       <r>    11.4654     1.2940    32.2944 </r>
       <r>    11.5843     2.0535    32.5386 </r>
       <r>    11.7032     4.2153    33.0398 </r>
       <r>    11.8221     3.8528    33.4979 </r>
       <r>    11.9410     0.0188    33.5001 </r>
       <r>    12.0599     1.0234    33.6218 </r>
       <r>    12.1788     1.8898    33.8465 </r>
       <r>    12.2977     3.3496    34.2447 </r>
       <r>    12.4166     2.1375    34.4988 </r>
       <r>    12.5355     5.6861    35.1749 </r>
       <r>    12.6544     1.7042    35.3775 </r>
       <r>    12.7733     1.3476    35.5377 </r>
       <r>    12.8922     1.6323    35.7318 </r>
       <r>    13.0111     3.5626    36.1554 </r>
       <r>    13.1299     2.4207    36.4432 </r>
       <r>    13.2488     1.3406    36.6026 </r>
       <r>    13.3677     0.1928    36.6255 </r>
       <r>    13.4866     1.8324    36.8434 </r>
       <r>    13.6055     2.7914    37.1753 </r>
       <r>    13.7244     3.0063    37.5327 </r>
       <r>    13.8433     2.3879    37.8166 </r>
       <r>    13.9622     2.5915    38.1247 </r>
       <r>    14.0811     2.5178    38.4241 </r>
       <r>    14.2000     4.1860    38.9218 </r>
       <r>    14.3189     8.5884    39.9429 </r>
       <r>    14.4378     2.5659    40.2480 </r>
       <r>    14.5567     2.4296    40.5368 </r>
       <r>    14.6756     5.2834    41.1650 </r>
       <r>    14.7945     2.4518    41.4565 </r>
       <r>    14.9134     1.3458    41.6165 </r>
       <r>    15.0323     2.2082    41.8791 </r>
       <r>    15.1512     3.8066    42.3317 </r>
       <r>    15.2701     1.6654    42.5297 </r>
       <r>    15.3890     1.6553    42.7265 </r>
       <r>    15.5079     1.7735    42.9374 </r>
       <r>    15.6268     1.1240    43.0710 </r>
       <r>    15.7457     1.5154    43.2512 </r>
       <r>    15.8646     1.7220    43.4559 </r>
       <r>    15.9834     1.8856    43.6801 </r>
       <r>    16.1023     0.5879    43.7500 </r>
       <r>    16.2212     0.0001    43.7500 </r>
       <r>    16.3401     0.0000    43.7500 </r>
       <r>    16.4590     0.0000    43.7500 </r>
       <r>    16.5779     0.0000    43.7500 </r>
       <r>    16.6968     0.0000    43.7500 </r>
       <r>    16.8157     0.0000    43.7500 </r>
       <r>    16.9346     0.2737    43.7825 </r>
       <r>    17.0535     0.7742    43.8746 </r>
       <r>    17.1724     0.0034    43.8750 </r>
       <r>    17.2913     0.0000    43.8750 </r>
       <r>    17.4102     0.1164    43.8888 </r>
       <r>    17.5291     0.9180    43.9980 </r>
       <r>    17.6480     0.0170    44.0000 </r>
       <r>    17.7669     0.0000    44.0000 </r>
       <r>    17.8858     0.0000    44.0000 </r>
       <r>    18.0047     0.0000    44.0000 </r>
       <r>    18.1236     0.0000    44.0000 </r>
       <r>    18.2425     0.0000    44.0000 </r>
       <r>    18.3614     0.0000    44.0000 </r>
       <r>    18.4803     0.0000    44.0000 </r>
       <r>    18.5992     0.0000    44.0000 </r>
       <r>    18.7181     0.0000    44.0000 </r>
       <r>    18.8369     0.0000    44.0000 </r>
       <r>    18.9558     0.0000    44.0000 </r>
       <r>    19.0747     0.0000    44.0000 </r>
      </set>
     </set>
    </array>
   </total>
   <partial>
    <array>
     <dimension dim="1">gridpoints</dimension>
     <dimension dim="2">spin</dimension>
     <dimension dim="3">ion</dimension>
     <field>energy</field>
     <field>  s</field>
     <field> py</field>
     <field> pz</field>
     <field> px</field>
     <field>dxy</field>
     <field>dyz</field>
     <field>dz2</field>
     <field>dxz</field>
     <field>dx2</field>
     <set>
      <set comment="ion 1">
       <set comment="spin 1">
        <r>   -16.5940     0.0000     0.0000     0.0000     0.0000     0.0000     0.0000     0.0000     0.0000     0.0000 </r>
        <r>   -16.4751     0.0000     0.0000     0.0000     0.0000     0.0000     0.0000     0.0000     0.0000     0.0000 </r>
        <r>   -16.3562     0.0000     0.0000     0.0000     0.0000     0.0000     0.0000     0.0000     0.0000     0.0000 </r>
        <r>   -16.2373     0.0000     0.0000     0.0000     0.0000     0.0000     0.0000     0.0000     0.0000     0.0000 </r>
        <r>   -16.1184     0.0000     0.0000     0.0000     0.0000     0.0000     0.0000     0.0000     0.0000     0.0000 </r>
        <r>   -15.9995     0.0000     0.0000     0.0000     0.0000     0.0000     0.0000     0.0000     0.0000     0.0000 </r>
        <r>   -15.8806     0.0000     0.0000     0.0000     0.0000     0.0000     0.0000     0.0000     0.0000     0.0000 </r>
        <r>   -15.7618     0.0000     0.0000     0.0000     0.0000     0.0000     0.0000     0.0000     0.0000     0.0000 </r>
        <r>   -15.6429     0.0000     0.0000     0.0000     0.0000     0.0000     0.0000     0.0000     0.0000     0.0000 </r>
        <r>   -15.5240     0.0000     0.0000     0.0000     0.0000     0.0000     0.0000     0.0000     0.0000     0.0000 </r>
        <r>   -15.4051     0.0000     0.0000     0.0000     0.0000     0.0000     0.0000     0.0000     0.0000     0.0000 </r>
        <r>   -15.2862     0.0000     0.0000     0.0000     0.0000     0.0000     0.0000     0.0000     0.0000     0.0000 </r>
        <r>   -15.1673     0.0000     0.0000     0.0000     0.0000     0.0000     0.0000     0.0000     0.0000     0.0000 </r>
        <r>   -15.0484     0.0000     0.0000     0.0000     0.0000     0.0000     0.0000     0.0000     0.0000     0.0000 </r>
        <r>   -14.9295     0.0005     0.0001     0.0000     0.0000     0.0000     0.0000     0.0000     0.0000     0.0000 </r>
        <r>   -14.8106     0.0002     0.0001     0.0001     0.0000     0.0000     0.0000     0.0000     0.0000     0.0000 </r>
        <r>   -14.6917     0.0000     0.0000     0.0000     0.0000     0.0000     0.0000     0.0000     0.0000     0.0000 </r>
        <r>   -14.5728     0.0000     0.0000     0.0000     0.0000     0.0000     0.0000     0.0000     0.0000     0.0000 </r>
        <r>   -14.4539     0.0000     0.0000     0.0000     0.0000     0.0000     0.0000     0.0000     0.0000     0.0000 </r>
        <r>   -14.3350     0.0000     0.0000     0.0000     0.0000     0.0000     0.0000     0.0000     0.0000     0.0000 </r>
        <r>   -14.2161     0.0000     0.0000     0.0000     0.0000     0.0000     0.0000     0.0000     0.0000     0.0000 </r>
        <r>   -14.0972     0.0000     0.0000     0.0000     0.0000     0.0000     0.0000     0.0000     0.0000     0.0000 </r>
        <r>   -13.9783     0.0000     0.0000     0.0000     0.0000     0.0000     0.0000     0.0000     0.0000     0.0000 </r>
        <r>   -13.8594     0.0000     0.0000     0.0000     0.0000     0.0000     0.0000     0.0000     0.0000     0.0000 </r>
        <r>   -13.7405     0.0000     0.0000     0.0000     0.0000     0.0000     0.0000     0.0000     0.0000     0.0000 </r>
        <r>   -13.6216     0.0000     0.0000     0.0000     0.0000     0.0000     0.0000     0.0000     0.0000     0.0000 </r>
        <r>   -13.5027     0.0000     0.0000     0.0000     0.0000     0.0000     0.0000     0.0000     0.0000     0.0000 </r>
        <r>   -13.3838     0.0044     0.0000     0.0005     0.0000     0.0000     0.0000     0.0000     0.0000     0.0000 </r>
        <r>   -13.2649     0.0104     0.0005     0.0024     0.0005     0.0000     0.0000     0.0002     0.0000     0.0001 </r>
        <r>   -13.1460     0.0175     0.0005     0.0035     0.0005     0.0000     0.0000     0.0007     0.0000     0.0003 </r>
        <r>   -13.0271     0.0028     0.0003     0.0012     0.0003     0.0000     0.0000     0.0005     0.0000     0.0000 </r>
        <r>   -12.9083     0.0094     0.0023     0.0005     0.0023     0.0000     0.0000     0.0009     0.0000     0.0000 </r>
        <r>   -12.7894     0.0023     0.0037     0.0002     0.0027     0.0000     0.0000     0.0004     0.0000     0.0003 </r>
        <r>   -12.6705     0.0057     0.0099     0.0039     0.0110     0.0000     0.0000     0.0042     0.0000     0.0012 </r>
        <r>   -12.5516     0.0010     0.0060     0.0012     0.0060     0.0000     0.0000     0.0014     0.0000     0.0057 </r>
        <r>   -12.4327     0.0000     0.0012     0.0000     0.0012     0.0000     0.0000     0.0000     0.0000     0.0025 </r>
        <r>   -12.3138     0.0000     0.0000     0.0000     0.0000     0.0000     0.0000     0.0000     0.0000     0.0017 </r>
        <r>   -12.1949     0.0000     0.0000     0.0000     0.0000     0.0000     0.0000     0.0000     0.0000     0.0000 </r>
        <r>   -12.0760     0.0000     0.0000     0.0000     0.0000     0.0000     0.0000     0.0000     0.0000     0.0000 </r>
        <r>   -11.9571     0.0000     0.0000     0.0000     0.0000     0.0000     0.0000     0.0000     0.0000     0.0000 </r>
        <r>   -11.8382     0.0000     0.0000     0.0000     0.0000     0.0000     0.0000     0.0000     0.0000     0.0000 </r>
        <r>   -11.7193     0.0000     0.0000     0.0000     0.0000     0.0000     0.0000     0.0000     0.0000     0.0000 </r>
        <r>   -11.6004     0.0000     0.0000     0.0000     0.0000     0.0000     0.0000     0.0000     0.0000     0.0000 </r>
        <r>   -11.4815     0.0000     0.0000     0.0000     0.0000     0.0000     0.0000     0.0000     0.0000     0.0000 </r>
        <r>   -11.3626     0.0000     0.0000     0.0000     0.0000     0.0000     0.0000     0.0000     0.0000     0.0000 </r>
        <r>   -11.2437     0.0000     0.0000     0.0000     0.0000     0.0000     0.0000     0.0000     0.0000     0.0000 </r>
        <r>   -11.1248     0.0000     0.0000     0.0000     0.0000     0.0000     0.0000     0.0000     0.0000     0.0000 </r>
        <r>   -11.0059     0.0000     0.0000     0.0000     0.0000     0.0000     0.0000     0.0000     0.0000     0.0000 </r>
        <r>   -10.8870     0.0000     0.0000     0.0000     0.0000     0.0000     0.0000     0.0000     0.0000     0.0000 </r>
        <r>   -10.7681     0.0000     0.0000     0.0000     0.0000     0.0000     0.0000     0.0000     0.0000     0.0000 </r>
        <r>   -10.6492     0.0000     0.0000     0.0000     0.0000     0.0000     0.0000     0.0000     0.0000     0.0000 </r>
        <r>   -10.5303     0.0000     0.0000     0.0000     0.0000     0.0000     0.0000     0.0000     0.0000     0.0000 </r>
        <r>   -10.4114     0.0000     0.0000     0.0000     0.0000     0.0000     0.0000     0.0000     0.0000     0.0000 </r>
        <r>   -10.2925     0.0000     0.0000     0.0000     0.0000     0.0000     0.0000     0.0000     0.0000     0.0000 </r>
        <r>   -10.1736     0.0000     0.0000     0.0000     0.0000     0.0000     0.0000     0.0000     0.0000     0.0000 </r>
        <r>   -10.0548     0.0000     0.0000     0.0000     0.0000     0.0000     0.0000     0.0000     0.0000     0.0000 </r>
        <r>    -9.9359     0.0000     0.0000     0.0000     0.0000     0.0000     0.0000     0.0000     0.0000     0.0000 </r>
        <r>    -9.8170     0.0000     0.0000     0.0000     0.0000     0.0000     0.0000     0.0000     0.0000     0.0000 </r>
[...]
        <r>  0.0000  0.0000  0.0205  0.0620  0.0000  0.0000  0.0000  0.0000  0.0000 </r>
        <r>  0.0262  0.0000  0.0000  0.0000  0.0000  0.0000  0.0000  0.0000  0.0000 </r>
        <r>  0.0000  0.0000  0.0086  0.0000  0.0000  0.0000  0.0000  0.0000  0.0000 </r>
        <r>  0.0000  0.0000  0.0000  0.0000  0.0000  0.0000  0.0000  0.0000  0.0000 </r>
       </set>
       <set comment="band 32">
        <r>  0.0000  0.0004  0.0000  0.0008  0.0000  0.0028  0.0000  0.0008  0.0000 </r>
        <r>  0.0272  0.0000  0.0058  0.0000  0.0003  0.0000  0.0024  0.0000  0.0006 </r>
        <r>  0.0141  0.0001  0.0000  0.0110  0.0043  0.0000  0.0009  0.0000  0.0011 </r>
        <r>  0.0044  0.0104  0.0000  0.0009  0.0048  0.0000  0.0003  0.0000  0.0014 </r>
        <r>  0.0044  0.0104  0.0000  0.0009  0.0048  0.0000  0.0003  0.0000  0.0014 </r>
        <r>  0.0141  0.0001  0.0000  0.0110  0.0043  0.0000  0.0009  0.0000  0.0011 </r>
        <r>  0.0272  0.0000  0.0058  0.0000  0.0003  0.0000  0.0024  0.0000  0.0006 </r>
        <r>  0.0000  0.0004  0.0000  0.0008  0.0000  0.0028  0.0000  0.0008  0.0000 </r>
        <r>  0.0170  0.0000  0.0000  0.0000  0.0277  0.0000  0.0200  0.0000  0.0002 </r>
        <r>  0.0007  0.0000  0.0000  0.0000  0.0000  0.0000  0.0000  0.0000  0.0000 </r>
        <r>  0.0000  0.0174  0.0074  0.0155  0.0000  0.0000  0.0000  0.0000  0.0000 </r>
        <r>  0.0000  0.0174  0.0074  0.0155  0.0000  0.0000  0.0000  0.0000  0.0000 </r>
        <r>  0.0007  0.0000  0.0000  0.0000  0.0000  0.0000  0.0000  0.0000  0.0000 </r>
        <r>  0.0000  0.0190  0.0000  0.0034  0.0000  0.0000  0.0000  0.0000  0.0000 </r>
        <r>  0.0041  0.0000  0.0000  0.0000  0.0000  0.0000  0.0000  0.0000  0.0000 </r>
       </set>
       <set comment="band 33">
        <r>  0.0235  0.0000  0.0101  0.0000  0.0013  0.0000  0.0000  0.0000  0.0011 </r>
        <r>  0.0000  0.0046  0.0000  0.0019  0.0000  0.0028  0.0000  0.0002  0.0000 </r>
        <r>  0.0124  0.0053  0.0000  0.0124  0.0026  0.0000  0.0022  0.0000  0.0029 </r>
        <r>  0.0025  0.0017  0.0000  0.0062  0.0036  0.0000  0.0000  0.0000  0.0044 </r>
        <r>  0.0025  0.0017  0.0000  0.0062  0.0036  0.0000  0.0000  0.0000  0.0044 </r>
        <r>  0.0124  0.0053  0.0000  0.0124  0.0026  0.0000  0.0022  0.0000  0.0029 </r>
        <r>  0.0000  0.0046  0.0000  0.0019  0.0000  0.0028  0.0000  0.0002  0.0000 </r>
        <r>  0.0235  0.0000  0.0101  0.0000  0.0013  0.0000  0.0000  0.0000  0.0011 </r>
        <r>  0.0000  0.0071  0.0000  0.0110  0.0000  0.0000  0.0000  0.0000  0.0000 </r>
        <r>  0.0000  0.0240  0.0068  0.0141  0.0000  0.0000  0.0000  0.0000  0.0000 </r>
        <r>  0.0136  0.0000  0.0000  0.0000  0.0000  0.0000  0.0000  0.0000  0.0000 </r>
        <r>  0.0136  0.0000  0.0000  0.0000  0.0000  0.0000  0.0000  0.0000  0.0000 </r>
        <r>  0.0000  0.0240  0.0068  0.0141  0.0000  0.0000  0.0000  0.0000  0.0000 </r>
        <r>  0.0425  0.0000  0.0000  0.0000  0.0000  0.0000  0.0000  0.0000  0.0000 </r>
        <r>  0.0000  0.0590  0.0000  0.0397  0.0000  0.0000  0.0000  0.0000  0.0000 </r>
       </set>
       <set comment="band 34">
        <r>  0.0000  0.0015  0.0000  0.0026  0.0000  0.0015  0.0000  0.0000  0.0000 </r>
        <r>  0.0335  0.0000  0.0054  0.0000  0.0042  0.0000  0.0000  0.0000  0.0014 </r>
        <r>  0.0002  0.0006  0.0000  0.0187  0.0033  0.0000  0.0002  0.0000  0.0027 </r>
        <r>  0.0038  0.0092  0.0000  0.0083  0.0091  0.0000  0.0020  0.0000  0.0002 </r>
        <r>  0.0038  0.0092  0.0000  0.0083  0.0091  0.0000  0.0020  0.0000  0.0002 </r>
        <r>  0.0002  0.0006  0.0000  0.0187  0.0033  0.0000  0.0002  0.0000  0.0027 </r>
        <r>  0.0335  0.0000  0.0054  0.0000  0.0042  0.0000  0.0000  0.0000  0.0014 </r>
        <r>  0.0000  0.0015  0.0000  0.0026  0.0000  0.0015  0.0000  0.0000  0.0000 </r>
        <r>  0.0057  0.0000  0.0000  0.0000  0.0029  0.0000  0.0014  0.0000  0.0001 </r>
        <r>  0.0095  0.0000  0.0000  0.0000  0.0000  0.0000  0.0000  0.0000  0.0000 </r>
        <r>  0.0000  0.0218  0.0027  0.0255  0.0000  0.0000  0.0000  0.0000  0.0000 </r>
        <r>  0.0000  0.0218  0.0027  0.0256  0.0000  0.0000  0.0000  0.0000  0.0000 </r>
        <r>  0.0095  0.0000  0.0000  0.0000  0.0000  0.0000  0.0000  0.0000  0.0000 </r>
        <r>  0.0000  0.0309  0.0000  0.0610  0.0000  0.0000  0.0000  0.0000  0.0000 </r>
        <r>  0.0274  0.0000  0.0000  0.0000  0.0000  0.0000  0.0000  0.0000  0.0000 </r>
       </set>
       <set comment="band 35">
        <r>  0.0000  0.0002  0.0000  0.0183  0.0000  0.0034  0.0000  0.0009  0.0000 </r>
        <r>  0.0104  0.0000  0.0095  0.0000  0.0002  0.0000  0.0058  0.0000  0.0014 </r>
        <r>  0.0000  0.0000  0.0262  0.0000  0.0000  0.0060  0.0000  0.0012  0.0000 </r>
        <r>  0.0000  0.0000  0.0059  0.0000  0.0000  0.0004  0.0000  0.0010  0.0000 </r>
        <r>  0.0000  0.0000  0.0059  0.0000  0.0000  0.0004  0.0000  0.0010  0.0000 </r>
        <r>  0.0000  0.0000  0.0262  0.0000  0.0000  0.0060  0.0000  0.0012  0.0000 </r>
        <r>  0.0104  0.0000  0.0095  0.0000  0.0002  0.0000  0.0058  0.0000  0.0014 </r>
        <r>  0.0000  0.0002  0.0000  0.0183  0.0000  0.0034  0.0000  0.0009  0.0000 </r>
        <r>  0.0000  0.0000  0.0117  0.0000  0.0000  0.0000  0.0000  0.0000  0.0000 </r>
        <r>  0.0000  0.0010  0.0303  0.0216  0.0000  0.0000  0.0000  0.0000  0.0000 </r>
        <r>  0.0265  0.0000  0.0000  0.0000  0.0000  0.0000  0.0000  0.0000  0.0000 </r>
        <r>  0.0265  0.0000  0.0000  0.0000  0.0000  0.0000  0.0000  0.0000  0.0000 </r>
        <r>  0.0000  0.0010  0.0303  0.0216  0.0000  0.0000  0.0000  0.0000  0.0000 </r>
        <r>  0.0000  0.0000  0.0000  0.0000  0.0000  0.0000  0.0000  0.0000  0.0000 </r>
        <r>  0.0000  0.0000  0.1010  0.0000  0.0000  0.0000  0.0000  0.0000  0.0000 </r>
       </set>
       <set comment="band 36">
        <r>  0.0000  0.0000  0.0146  0.0000  0.0001  0.0000  0.0020  0.0000  0.0002 </r>
        <r>  0.0000  0.0015  0.0000  0.0205  0.0000  0.0080  0.0000  0.0000  0.0000 </r>
        <r>  0.0000  0.0000  0.0089  0.0000  0.0000  0.0008  0.0000  0.0002  0.0000 </r>
        <r>  0.0000  0.0000  0.0154  0.0000  0.0000  0.0097  0.0000  0.0001  0.0000 </r>
        <r>  0.0000  0.0000  0.0154  0.0000  0.0000  0.0097  0.0000  0.0001  0.0000 </r>
        <r>  0.0000  0.0000  0.0089  0.0000  0.0000  0.0008  0.0000  0.0002  0.0000 </r>
        <r>  0.0000  0.0015  0.0000  0.0205  0.0000  0.0080  0.0000  0.0000  0.0000 </r>
        <r>  0.0000  0.0000  0.0146  0.0000  0.0001  0.0000  0.0020  0.0000  0.0002 </r>
        <r>  0.0000  0.0000  0.0000  0.0000  0.0000  0.0097  0.0000  0.0156  0.0000 </r>
        <r>  0.0165  0.0000  0.0000  0.0000  0.0000  0.0000  0.0000  0.0000  0.0000 </r>
        <r>  0.0000  0.0008  0.0462  0.0069  0.0000  0.0000  0.0000  0.0000  0.0000 </r>
        <r>  0.0000  0.0008  0.0462  0.0069  0.0000  0.0000  0.0000  0.0000  0.0000 </r>
        <r>  0.0165  0.0000  0.0000  0.0000  0.0000  0.0000  0.0000  0.0000  0.0000 </r>
        <r>  0.0000  0.0000  0.0816  0.0000  0.0000  0.0000  0.0000  0.0000  0.0000 </r>
        <r>  0.0000  0.0000  0.0000  0.0000  0.0000  0.0000  0.0000  0.0000  0.0000 </r>
       </set>
       <set comment="band 37">
        <r>  0.0000  0.0000  0.0000  0.0000  0.0001  0.0000  0.0000  0.0000  0.0000 </r>
        <r>  0.0000  0.0002  0.0000  0.0027  0.0000  0.0000  0.0000  0.0419  0.0000 </r>
        <r>  0.0000  0.0000  0.0001  0.0000  0.0000  0.0003  0.0000  0.0008  0.0000 </r>
        <r>  0.0000  0.0000  0.0028  0.0000  0.0000  0.0000  0.0000  0.0421  0.0000 </r>
        <r>  0.0000  0.0000  0.0028  0.0000  0.0000  0.0000  0.0000  0.0421  0.0000 </r>
        <r>  0.0000  0.0000  0.0001  0.0000  0.0000  0.0003  0.0000  0.0008  0.0000 </r>
        <r>  0.0000  0.0002  0.0000  0.0027  0.0000  0.0000  0.0000  0.0419  0.0000 </r>
        <r>  0.0000  0.0000  0.0000  0.0000  0.0001  0.0000  0.0000  0.0000  0.0000 </r>
        <r>  0.0000  0.0000  0.0000  0.0000  0.0000  0.0001  0.0000  0.0559  0.0000 </r>
        <r>  0.0000  0.0000  0.0000  0.0000  0.0000  0.0000  0.0000  0.0000  0.0000 </r>
        <r>  0.0000  0.0008  0.0000  0.0001  0.0000  0.0000  0.0000  0.0000  0.0000 </r>
        <r>  0.0000  0.0008  0.0000  0.0001  0.0000  0.0000  0.0000  0.0000  0.0000 </r>
        <r>  0.0000  0.0000  0.0000  0.0000  0.0000  0.0000  0.0000  0.0000  0.0000 </r>
        <r>  0.0000  0.0000  0.0002  0.0000  0.0000  0.0000  0.0000  0.0000  0.0000 </r>
        <r>  0.0000  0.0000  0.0000  0.0000  0.0000  0.0000  0.0000  0.0000  0.0000 </r>
       </set>
       <set comment="band 38">
        <r>  0.0000  0.0000  0.0000  0.0000  0.0000  0.0036  0.0000  0.0000  0.0000 </r>
        <r>  0.0473  0.0000  0.0081  0.0000  0.0001  0.0000  0.0021  0.0000  0.0005 </r>
        <r>  0.0005  0.0000  0.0000  0.0000  0.0067  0.0000  0.0000  0.0000  0.0000 </r>
        <r>  0.0541  0.0082  0.0000  0.0110  0.0000  0.0000  0.0000  0.0000  0.0056 </r>
        <r>  0.0541  0.0082  0.0000  0.0110  0.0000  0.0000  0.0000  0.0000  0.0056 </r>
        <r>  0.0005  0.0000  0.0000  0.0000  0.0067  0.0000  0.0000  0.0000  0.0000 </r>
        <r>  0.0473  0.0000  0.0081  0.0000  0.0001  0.0000  0.0021  0.0000  0.0005 </r>
        <r>  0.0000  0.0000  0.0000  0.0000  0.0000  0.0036  0.0000  0.0000  0.0000 </r>
        <r>  0.0001  0.0000  0.0000  0.0000  0.0150  0.0000  0.0428  0.0000  0.0223 </r>
        <r>  0.0000  0.0000  0.0000  0.0000  0.0000  0.0000  0.0000  0.0000  0.0000 </r>
        <r>  0.0000  0.0252  0.0018  0.0001  0.0000  0.0000  0.0000  0.0000  0.0000 </r>
        <r>  0.0000  0.0252  0.0018  0.0001  0.0000  0.0000  0.0000  0.0000  0.0000 </r>
        <r>  0.0000  0.0000  0.0000  0.0000  0.0000  0.0000  0.0000  0.0000  0.0000 </r>
        <r>  0.0000  0.1161  0.0000  0.0018  0.0000  0.0000  0.0000  0.0000  0.0000 </r>
        <r>  0.0000  0.0000  0.0000  0.0000  0.0000  0.0000  0.0000  0.0000  0.0000 </r>
       </set>
       <set comment="band 39">
        <r>  0.0000  0.0000  0.0001  0.0000  0.0108  0.0000  0.0000  0.0000  0.0000 </r>
        <r>  0.0000  0.0305  0.0000  0.0003  0.0000  0.0000  0.0000  0.0003  0.0000 </r>
        <r>  0.0000  0.0000  0.0005  0.0000  0.0000  0.0209  0.0000  0.0000  0.0000 </r>
        <r>  0.0000  0.0000  0.0002  0.0000  0.0000  0.0004  0.0000  0.0002  0.0000 </r>
        <r>  0.0000  0.0000  0.0002  0.0000  0.0000  0.0004  0.0000  0.0002  0.0000 </r>
        <r>  0.0000  0.0000  0.0005  0.0000  0.0000  0.0209  0.0000  0.0000  0.0000 </r>
        <r>  0.0000  0.0305  0.0000  0.0003  0.0000  0.0000  0.0000  0.0003  0.0000 </r>
        <r>  0.0000  0.0000  0.0001  0.0000  0.0108  0.0000  0.0000  0.0000  0.0000 </r>
        <r>  0.0000  0.0000  0.0000  0.0000  0.0000  0.0462  0.0000  0.0001  0.0000 </r>
        <r>  0.0001  0.0000  0.0000  0.0000  0.0000  0.0000  0.0000  0.0000  0.0000 </r>
        <r>  0.0000  0.1121  0.0011  0.0000  0.0000  0.0000  0.0000  0.0000  0.0000 </r>
        <r>  0.0000  0.1121  0.0011  0.0000  0.0000  0.0000  0.0000  0.0000  0.0000 </r>
        <r>  0.0001  0.0000  0.0000  0.0000  0.0000  0.0000  0.0000  0.0000  0.0000 </r>
        <r>  0.0000  0.0000  0.0003  0.0000  0.0000  0.0000  0.0000  0.0000  0.0000 </r>
        <r>  0.0000  0.0000  0.0000  0.0000  0.0000  0.0000  0.0000  0.0000  0.0000 </r>
       </set>
       <set comment="band 40">
        <r>  0.0000  0.0002  0.0000  0.0007  0.0000  0.0001  0.0000  0.0002  0.0000 </r>
        <r>  0.0007  0.0000  0.0220  0.0000  0.0009  0.0000  0.0014  0.0000  0.0000 </r>
        <r>  0.0385  0.0458  0.0000  0.0005  0.0000  0.0000  0.0026  0.0000  0.0081 </r>
        <r>  0.0015  0.0001  0.0000  0.0224  0.0021  0.0000  0.0003  0.0000  0.0012 </r>
        <r>  0.0015  0.0001  0.0000  0.0224  0.0021  0.0000  0.0003  0.0000  0.0012 </r>
        <r>  0.0385  0.0458  0.0000  0.0005  0.0000  0.0000  0.0026  0.0000  0.0081 </r>
        <r>  0.0007  0.0000  0.0220  0.0000  0.0009  0.0000  0.0014  0.0000  0.0000 </r>
        <r>  0.0000  0.0002  0.0000  0.0007  0.0000  0.0001  0.0000  0.0002  0.0000 </r>
        <r>  0.0013  0.0000  0.0000  0.0000  0.0061  0.0000  0.0283  0.0000  0.0922 </r>
        <r>  0.0007  0.0000  0.0000  0.0000  0.0000  0.0000  0.0000  0.0000  0.0000 </r>
        <r>  0.0000  0.0026  0.0068  0.0043  0.0000  0.0000  0.0000  0.0000  0.0000 </r>
        <r>  0.0000  0.0026  0.0068  0.0043  0.0000  0.0000  0.0000  0.0000  0.0000 </r>
        <r>  0.0007  0.0000  0.0000  0.0000  0.0000  0.0000  0.0000  0.0000  0.0000 </r>
        <r>  0.0000  0.0068  0.0000  0.0244  0.0000  0.0000  0.0000  0.0000  0.0000 </r>
        <r>  0.0091  0.0000  0.0000  0.0000  0.0000  0.0000  0.0000  0.0000  0.0000 </r>
       </set>
       <set comment="band 41">
        <r>  0.0000  0.0065  0.0000  0.0001  0.0000  0.0001  0.0000  0.0290  0.0000 </r>
        <r>  0.0021  0.0000  0.0003  0.0000  0.0085  0.0000  0.0003  0.0000  0.0001 </r>
        <r>  0.0000  0.0000  0.0001  0.0000  0.0000  0.0004  0.0000  0.0374  0.0000 </r>
        <r>  0.0000  0.0000  0.0001  0.0000  0.0000  0.0078  0.0000  0.0000  0.0000 </r>
        <r>  0.0000  0.0000  0.0001  0.0000  0.0000  0.0078  0.0000  0.0000  0.0000 </r>
        <r>  0.0000  0.0000  0.0001  0.0000  0.0000  0.0004  0.0000  0.0374  0.0000 </r>
        <r>  0.0021  0.0000  0.0003  0.0000  0.0085  0.0000  0.0003  0.0000  0.0001 </r>
        <r>  0.0000  0.0065  0.0000  0.0001  0.0000  0.0001  0.0000  0.0290  0.0000 </r>
        <r>  0.0000  0.0000  0.0003  0.0000  0.0000  0.0000  0.0000  0.0000  0.0000 </r>
        <r>  0.0000  0.0286  0.0012  0.0013  0.0000  0.0000  0.0000  0.0000  0.0000 </r>
        <r>  0.0008  0.0000  0.0000  0.0000  0.0000  0.0000  0.0000  0.0000  0.0000 </r>
        <r>  0.0008  0.0000  0.0000  0.0000  0.0000  0.0000  0.0000  0.0000  0.0000 </r>
        <r>  0.0000  0.0286  0.0012  0.0013  0.0000  0.0000  0.0000  0.0000  0.0000 </r>
        <r>  0.0000  0.0000  0.0000  0.0000  0.0000  0.0000  0.0000  0.0000  0.0000 </r>
        <r>  0.0000  0.0000  0.0055  0.0000  0.0000  0.0000  0.0000  0.0000  0.0000 </r>
       </set>
       <set comment="band 42">
        <r>  0.0815  0.0000  0.0002  0.0000  0.0002  0.0000  0.0005  0.0000  0.0010 </r>
        <r>  0.0000  0.0013  0.0000  0.0005  0.0000  0.0074  0.0000  0.0001  0.0000 </r>
        <r>  0.0770  0.0008  0.0000  0.0004  0.0001  0.0000  0.0014  0.0000  0.0011 </r>
        <r>  0.0009  0.0001  0.0000  0.0000  0.0073  0.0000  0.0000  0.0000  0.0000 </r>
        <r>  0.0009  0.0001  0.0000  0.0000  0.0073  0.0000  0.0000  0.0000  0.0000 </r>
        <r>  0.0770  0.0008  0.0000  0.0004  0.0001  0.0000  0.0014  0.0000  0.0011 </r>
        <r>  0.0000  0.0013  0.0000  0.0005  0.0000  0.0074  0.0000  0.0001  0.0000 </r>
        <r>  0.0815  0.0000  0.0002  0.0000  0.0002  0.0000  0.0005  0.0000  0.0010 </r>
        <r>  0.0000  0.0005  0.0000  0.0000  0.0000  0.0000  0.0000  0.0000  0.0000 </r>
        <r>  0.0000  0.0348  0.0013  0.0014  0.0000  0.0000  0.0000  0.0000  0.0000 </r>
        <r>  0.0000  0.0000  0.0000  0.0000  0.0000  0.0000  0.0000  0.0000  0.0000 </r>
        <r>  0.0000  0.0000  0.0000  0.0000  0.0000  0.0000  0.0000  0.0000  0.0000 </r>
        <r>  0.0000  0.0349  0.0013  0.0014  0.0000  0.0000  0.0000  0.0000  0.0000 </r>
        <r>  0.0024  0.0000  0.0000  0.0000  0.0000  0.0000  0.0000  0.0000  0.0000 </r>
        <r>  0.0000  0.0920  0.0000  0.0038  0.0000  0.0000  0.0000  0.0000  0.0000 </r>
       </set>
       <set comment="band 43">
        <r>  0.0000  0.0236  0.0000  0.0015  0.0000  0.0005  0.0000  0.0114  0.0000 </r>
        <r>  0.0023  0.0000  0.0003  0.0000  0.0114  0.0000  0.0000  0.0000  0.0000 </r>
        <r>  0.0000  0.0000  0.0011  0.0000  0.0000  0.0005  0.0000  0.0077  0.0000 </r>
        <r>  0.0000  0.0000  0.0006  0.0000  0.0000  0.0108  0.0000  0.0000  0.0000 </r>
        <r>  0.0000  0.0000  0.0006  0.0000  0.0000  0.0108  0.0000  0.0000  0.0000 </r>
        <r>  0.0000  0.0000  0.0011  0.0000  0.0000  0.0005  0.0000  0.0077  0.0000 </r>
        <r>  0.0023  0.0000  0.0003  0.0000  0.0114  0.0000  0.0000  0.0000  0.0000 </r>
        <r>  0.0000  0.0236  0.0000  0.0015  0.0000  0.0005  0.0000  0.0114  0.0000 </r>
        <r>  0.0000  0.0000  0.0008  0.0000  0.0000  0.0000  0.0000  0.0000  0.0000 </r>
        <r>  0.0000  0.0787  0.0008  0.0002  0.0000  0.0000  0.0000  0.0000  0.0000 </r>
        <r>  0.0002  0.0000  0.0000  0.0000  0.0000  0.0000  0.0000  0.0000  0.0000 </r>
        <r>  0.0002  0.0000  0.0000  0.0000  0.0000  0.0000  0.0000  0.0000  0.0000 </r>
        <r>  0.0000  0.0787  0.0008  0.0002  0.0000  0.0000  0.0000  0.0000  0.0000 </r>
        <r>  0.0000  0.0000  0.0000  0.0000  0.0000  0.0000  0.0000  0.0000  0.0000 </r>
        <r>  0.0000  0.0000  0.0007  0.0000  0.0000  0.0000  0.0000  0.0000  0.0000 </r>
       </set>
       <set comment="band 44">
        <r>  0.0151  0.0000  0.0062  0.0000  0.0080  0.0000  0.0009  0.0000  0.0009 </r>
        <r>  0.0000  0.0142  0.0000  0.0112  0.0000  0.0000  0.0000  0.0016  0.0000 </r>
        <r>  0.0000  0.0001  0.0000  0.0011  0.0098  0.0000  0.0017  0.0000  0.0005 </r>
        <r>  0.0505  0.0061  0.0000  0.0000  0.0001  0.0000  0.0001  0.0000  0.0000 </r>
        <r>  0.0505  0.0061  0.0000  0.0000  0.0001  0.0000  0.0001  0.0000  0.0000 </r>
        <r>  0.0000  0.0001  0.0000  0.0011  0.0098  0.0000  0.0017  0.0000  0.0005 </r>
        <r>  0.0000  0.0142  0.0000  0.0113  0.0000  0.0000  0.0000  0.0016  0.0000 </r>
        <r>  0.0152  0.0000  0.0062  0.0000  0.0080  0.0000  0.0009  0.0000  0.0008 </r>
        <r>  0.0000  0.0000  0.0000  0.0074  0.0000  0.0000  0.0000  0.0000  0.0000 </r>
        <r>  0.0000  0.0099  0.0200  0.0265  0.0000  0.0000  0.0000  0.0000  0.0000 </r>
        <r>  0.0120  0.0000  0.0000  0.0000  0.0000  0.0000  0.0000  0.0000  0.0000 </r>
        <r>  0.0120  0.0000  0.0000  0.0000  0.0000  0.0000  0.0000  0.0000  0.0000 </r>
        <r>  0.0000  0.0099  0.0200  0.0265  0.0000  0.0000  0.0000  0.0000  0.0000 </r>
        <r>  0.0005  0.0000  0.0000  0.0000  0.0000  0.0000  0.0000  0.0000  0.0000 </r>
        <r>  0.0000  0.0014  0.0000  0.0692  0.0000  0.0000  0.0000  0.0000  0.0000 </r>
       </set>
      </set>
     </set>
    </set>
   </array>
  </projected>
 </calculation>
 <structure name="finalpos" >
  <crystal>
   <varray name="basis" >
    <v>       0.00000000       4.24689302       4.24689302 </v>
    <v>       4.24689302       0.00000000       4.24689302 </v>
    <v>       4.24689302       4.24689302       0.00000000 </v>
   </varray>
   <i name="volume">    153.19477710 </i>
   <varray name="rec_basis" >
    <v>      -0.11773313       0.11773313       0.11773313 </v>
    <v>       0.11773313      -0.11773313       0.11773313 </v>
    <v>       0.11773313       0.11773313      -0.11773313 </v>
   </varray>
  </crystal>
  <varray name="positions" >
   <v>       0.99737206       0.99737206       0.00262794 </v>
   <v>       0.97757960       0.97757960       0.52242040 </v>
   <v>       0.97241486       0.52758514       0.98271593 </v>
   <v>       0.97241486       0.52758514       0.51728407 </v>
   <v>       0.52758514       0.97241486       0.98271593 </v>
   <v>       0.52758514       0.97241486       0.51728407 </v>
   <v>       0.52242040       0.52242040       0.97757960 </v>
   <v>       0.50262794       0.50262794       0.49737206 </v>
   <v>       0.25000000       0.25000000       0.25000000 </v>
   <v>       0.25000000       0.75000000       0.25000000 </v>
   <v>       0.25000000       0.75000000       0.75000000 </v>
   <v>       0.75000000       0.25000000       0.25000000 </v>
   <v>       0.75000000       0.25000000       0.75000000 </v>
   <v>       0.75000000       0.75000000       0.25000000 </v>
   <v>       0.75000000       0.75000000       0.75000000 </v>
  </varray>
 </structure>
</modeling>
