<?xml version="1.0" encoding="ISO-8859-1"?>
<modeling>
 <generator>
  <i name="program" type="string">vasp </i>
  <i name="version" type="string">5.4.1  </i>
  <i name="subversion" type="string">05Feb16 (build Mar 31 2016 13:39:20) complex                          parallel </i>
  <i name="platform" type="string">IFC91_ompi </i>
  <i name="date" type="string">2018 04 12 </i>
  <i name="time" type="string">14:18:49 </i>
 </generator>
 <incar>
  <i type="string" name="PREC">n</i>
  <i type="string" name="ALGO"> N</i>
  <i type="int" name="ISPIN">     2</i>
  <i type="int" name="NELM">   100</i>
  <i type="int" name="NELMIN">     4</i>
  <i type="int" name="IBRION">     2</i>
  <i name="EDIFF">      0.00000100</i>
  <i name="EDIFFG">     -0.05000000</i>
  <i type="int" name="NSW">    20</i>
  <i type="int" name="ISIF">     2</i>
  <i name="ENCUT">    400.00000000</i>
  <i name="NELECT">     52.00000000</i>
  <i type="string" name="LREAL"> A</i>
  <i type="int" name="ISMEAR">     0</i>
  <i name="SIGMA">      0.05000000</i>
  <i type="logical" name="LWAVE"> F  </i>
  <i type="logical" name="LCHARG"> F  </i>
  <i type="logical" name="LORBIT"> F  </i>
  <i type="logical" name="LASPH"> T  </i>
  <v type="int" name="KPOINT_BSE">    -1     0     0     0</v>
  <i type="int" name="NELM">   100</i>
  <i type="logical" name="LASPH"> T  </i>
 </incar>
 <kpoints>
  <generation param="Monkhorst-Pack">
   <v type="int" name="divisions">       2        2        2 </v>
   <v name="usershift">      0.00000000       0.00000000       0.00000000 </v>
   <v name="genvec1">      0.50000000       0.00000000       0.00000000 </v>
   <v name="genvec2">      0.00000000       0.50000000       0.00000000 </v>
   <v name="genvec3">      0.00000000       0.00000000       0.50000000 </v>
   <v name="shift">      0.50000000       0.50000000       0.50000000 </v>
  </generation>
  <varray name="kpointlist" >
   <v>       0.25000000       0.25000000       0.25000000 </v>
   <v>       0.25000000       0.00000000       0.00000000 </v>
   <v>      -0.25000000       0.25000000       0.25000000 </v>
   <v>       0.25000000       0.25000000      -0.25000000 </v>
   <v>       0.25000000       0.00000000       0.50000000 </v>
   <v>       0.25000000       0.50000000       0.00000000 </v>
  </varray>
  <varray name="weights" >
   <v>       0.12500000 </v>
   <v>       0.12500000 </v>
   <v>       0.25000000 </v>
   <v>       0.12500000 </v>
   <v>       0.25000000 </v>
   <v>       0.12500000 </v>
  </varray>
 </kpoints>
 <parameters>
  <separator name="general" >
   <i type="string" name="SYSTEM">unknown system</i>
   <i type="logical" name="LCOMPAT"> F  </i>
  </separator>
  <separator name="electronic" >
   <i type="string" name="PREC">n</i>
   <i name="ENMAX">    400.00000000</i>
   <i name="ENAUG">    605.39200000</i>
   <i name="EDIFF">      0.00000100</i>
   <i type="int" name="IALGO">    38</i>
   <i type="int" name="IWAVPR">    11</i>
   <i type="int" name="NBANDS">    44</i>
   <i name="NELECT">     52.00000000</i>
   <i type="int" name="TURBO">     0</i>
   <i type="int" name="IRESTART">     0</i>
   <i type="int" name="NREBOOT">     0</i>
   <i type="int" name="NMIN">     0</i>
   <i name="EREF">      0.00000000</i>
   <separator name="electronic smearing" >
    <i type="int" name="ISMEAR">     0</i>
    <i name="SIGMA">      0.05000000</i>
    <i name="KSPACING">      0.50000000</i>
    <i type="logical" name="KGAMMA"> T  </i>
   </separator>
   <separator name="electronic projectors" >
    <i type="logical" name="LREAL"> T  </i>
    <v name="ROPT">     -0.00050000     -0.00050000</v>
    <i type="int" name="LMAXPAW">  -100</i>
    <i type="int" name="LMAXMIX">     2</i>
    <i type="logical" name="NLSPLINE"> F  </i>
   </separator>
   <separator name="electronic startup" >
    <i type="int" name="ISTART">     0</i>
    <i type="int" name="ICHARG">     2</i>
    <i type="int" name="INIWAV">     1</i>
   </separator>
   <separator name="electronic spin" >
    <i type="int" name="ISPIN">     2</i>
    <i type="logical" name="LNONCOLLINEAR"> F  </i>
    <v name="MAGMOM">      1.00000000      1.00000000      1.00000000      1.00000000      1.00000000      1.00000000      1.00000000      1.00000000      1.00000000      1.00000000      1.00000000      1.00000000      1.00000000      1.00000000      1.00000000</v>
    <i name="NUPDOWN">     -1.00000000</i>
    <i type="logical" name="LSORBIT"> F  </i>
    <v name="SAXIS">      0.00000000      0.00000000      1.00000000</v>
    <i type="logical" name="LSPIRAL"> F  </i>
    <v name="QSPIRAL">      0.00000000      0.00000000      0.00000000</v>
    <i type="logical" name="LZEROZ"> F  </i>
   </separator>
   <separator name="electronic exchange-correlation" >
    <i type="logical" name="LASPH"> T  </i>
    <i type="logical" name="LMETAGGA"> F  </i>
   </separator>
   <separator name="electronic convergence" >
    <i type="int" name="NELM">   100</i>
    <i type="int" name="NELMDL">     0</i>
    <i type="int" name="NELMIN">     4</i>
    <i name="ENINI">    400.00000000</i>
    <separator name="electronic convergence detail" >
     <i type="logical" name="LDIAG"> T  </i>
     <i type="logical" name="LSUBROT"> F  </i>
     <i name="WEIMIN">      0.00100000</i>
     <i name="EBREAK">      0.00000001</i>
     <i name="DEPER">      0.30000000</i>
     <i type="int" name="NRMM">     4</i>
     <i name="TIME">      0.40000000</i>
    </separator>
   </separator>
   <separator name="electronic mixer" >
    <i name="AMIX">      0.40000000</i>
    <i name="BMIX">      1.00000000</i>
    <i name="AMIN">      0.10000000</i>
    <i name="AMIX_MAG">      1.60000000</i>
    <i name="BMIX_MAG">      1.00000000</i>
    <separator name="electronic mixer details" >
     <i type="int" name="IMIX">     4</i>
     <i type="logical" name="MIXFIRST"> F  </i>
     <i type="int" name="MAXMIX">   -45</i>
     <i name="WC">    100.00000000</i>
     <i type="int" name="INIMIX">     1</i>
     <i type="int" name="MIXPRE">     1</i>
     <i type="int" name="MREMOVE">     5</i>
    </separator>
   </separator>
   <separator name="electronic dipolcorrection" >
    <i type="logical" name="LDIPOL"> F  </i>
    <i type="logical" name="LMONO"> F  </i>
    <i type="int" name="IDIPOL">     0</i>
    <i name="EPSILON">      1.00000000</i>
    <v name="DIPOL">   -100.00000000   -100.00000000   -100.00000000</v>
    <i name="EFIELD">      0.00000000</i>
   </separator>
  </separator>
  <separator name="grids" >
   <i type="int" name="NGX">    30</i>
   <i type="int" name="NGY">    30</i>
   <i type="int" name="NGZ">    30</i>
   <i type="int" name="NGXF">    60</i>
   <i type="int" name="NGYF">    60</i>
   <i type="int" name="NGZF">    60</i>
   <i type="logical" name="ADDGRID"> F  </i>
  </separator>
  <separator name="ionic" >
   <i type="int" name="NSW">    20</i>
   <i type="int" name="IBRION">     2</i>
   <i type="int" name="ISIF">     2</i>
   <i name="PSTRESS">      0.00000000</i>
   <i name="EDIFFG">     -0.05000000</i>
   <i type="int" name="NFREE">     1</i>
   <i name="POTIM">      0.50000000</i>
   <i name="SMASS">     -3.00000000</i>
   <i name="SCALEE">      1.00000000</i>
  </separator>
  <separator name="ionic md" >
   <i name="TEBEG">      0.00010000</i>
   <i name="TEEND">      0.00010000</i>
   <i type="int" name="NBLOCK">     1</i>
   <i type="int" name="KBLOCK">    20</i>
   <i type="int" name="NPACO">   256</i>
   <i name="APACO">     16.00000000</i>
  </separator>
  <separator name="symmetry" >
   <i type="int" name="ISYM">     2</i>
   <i name="SYMPREC">      0.00001000</i>
  </separator>
  <separator name="dos" >
   <i type="logical" name="LORBIT"> F  </i>
   <v name="RWIGS">     -1.00000000     -1.00000000</v>
   <i type="int" name="NEDOS">   301</i>
   <i name="EMIN">     10.00000000</i>
   <i name="EMAX">    -10.00000000</i>
   <i name="EFERMI">      0.00000000</i>
  </separator>
  <separator name="writing" >
   <i type="int" name="NWRITE">     2</i>
   <i type="logical" name="LWAVE"> F  </i>
   <i type="logical" name="LCHARG"> F  </i>
   <i type="logical" name="LPARD"> F  </i>
   <i type="logical" name="LVTOT"> F  </i>
   <i type="logical" name="LVHAR"> F  </i>
   <i type="logical" name="LELF"> F  </i>
   <i type="logical" name="LOPTICS"> F  </i>
   <v name="STM">      0.00000000      0.00000000      0.00000000      0.00000000      0.00000000      0.00000000      0.00000000</v>
  </separator>
  <separator name="performance" >
   <i type="int" name="NPAR">     4</i>
   <i type="int" name="NSIM">     4</i>
   <i type="int" name="NBLK">    -1</i>
   <i type="logical" name="LPLANE"> T  </i>
   <i type="logical" name="LSCALAPACK"> T  </i>
   <i type="logical" name="LSCAAWARE"> F  </i>
   <i type="logical" name="LSCALU"> F  </i>
   <i type="logical" name="LASYNC"> F  </i>
   <i type="logical" name="LORBITALREAL"> F  </i>
  </separator>
  <separator name="miscellaneous" >
   <i type="int" name="IDIOT">     3</i>
   <i type="logical" name="LMUSIC"> F  </i>
   <v name="POMASS">     24.30500000     16.00000000</v>
   <v name="DARWINR">      0.00000000      0.00000000</v>
   <v name="DARWINV">      1.00000000      1.00000000</v>
   <i type="logical" name="LCORR"> T  </i>
  </separator>
  <i type="logical" name="GGA_COMPAT"> T  </i>
  <i type="logical" name="LBERRY"> F  </i>
  <i type="int" name="ICORELEVEL">     0</i>
  <i type="logical" name="LDAU"> F  </i>
  <i type="int" name="I_CONSTRAINED_M">     0</i>
  <separator name="electronic exchange-correlation" >
   <i type="string" name="GGA">--</i>
   <i type="int" name="VOSKOWN">     0</i>
   <i type="logical" name="LHFCALC"> F  </i>
   <i type="string" name="PRECFOCK"></i>
   <i type="logical" name="LSYMGRAD"> F  </i>
   <i type="logical" name="LHFONE"> F  </i>
   <i type="logical" name="LRHFCALC"> F  </i>
   <i type="logical" name="LTHOMAS"> F  </i>
   <i type="logical" name="LMODELHF"> F  </i>
   <i name="ENCUT4O">     -1.00000000</i>
   <i type="int" name="EXXOEP">     0</i>
   <i type="int" name="FOURORBIT">     0</i>
   <i name="AEXX">      0.00000000</i>
   <i name="HFALPHA">      0.00000000</i>
   <i name="MCALPHA">      0.00000000</i>
   <i name="ALDAX">      1.00000000</i>
   <i name="AGGAX">      1.00000000</i>
   <i name="ALDAC">      1.00000000</i>
   <i name="AGGAC">      1.00000000</i>
   <i type="int" name="NKREDX">     1</i>
   <i type="int" name="NKREDY">     1</i>
   <i type="int" name="NKREDZ">     1</i>
   <i type="logical" name="SHIFTRED"> F  </i>
   <i type="logical" name="ODDONLY"> F  </i>
   <i type="logical" name="EVENONLY"> F  </i>
   <i type="int" name="LMAXFOCK">     0</i>
   <i type="int" name="NMAXFOCKAE">     0</i>
   <i type="logical" name="LFOCKAEDFT"> F  </i>
   <i name="HFSCREEN">      0.00000000</i>
   <i name="HFSCREENC">      0.00000000</i>
   <i type="int" name="NBANDSGWLOW">     0</i>
  </separator>
  <separator name="vdW DFT" >
   <i type="logical" name="LUSE_VDW"> F  </i>
   <i name="Zab_VDW">     -0.84910000</i>
   <i name="PARAM1">      0.12340000</i>
   <i name="PARAM2">      1.00000000</i>
   <i name="PARAM3">      0.00000000</i>
  </separator>
  <separator name="model GW" >
   <i type="int" name="MODEL_GW">     0</i>
   <i name="MODEL_EPS0">      6.12779108</i>
   <i name="MODEL_ALPHA">      1.00000000</i>
  </separator>
  <separator name="linear response parameters" >
   <i type="logical" name="LEPSILON"> F  </i>
   <i type="logical" name="LRPA"> F  </i>
   <i type="logical" name="LNABLA"> F  </i>
   <i type="logical" name="LVEL"> F  </i>
   <i type="int" name="KINTER">     0</i>
   <i name="CSHIFT">      0.10000000</i>
   <i name="OMEGAMAX">     -1.00000000</i>
   <i name="DEG_THRESHOLD">      0.00200000</i>
  </separator>
  <separator name="orbital magnetization" >
   <i type="logical" name="NUCIND"> F  </i>
   <v name="MAGPOS">      0.00000000      0.00000000      0.00000000</v>
   <i type="logical" name="LNICSALL"> T  </i>
   <i type="logical" name="ORBITALMAG"> F  </i>
   <i type="logical" name="LMAGBLOCH"> F  </i>
   <i type="logical" name="LCHIMAG"> F  </i>
   <i type="logical" name="LGAUGE"> T  </i>
   <i type="int" name="MAGATOM">     0</i>
   <v name="MAGDIPOL">      0.00000000      0.00000000      0.00000000</v>
   <v name="AVECCONST">      0.00000000      0.00000000      0.00000000</v>
  </separator>
  <separator name="response functions" >
   <i type="logical" name="LADDER"> F  </i>
   <i type="logical" name="LFXC"> F  </i>
   <i type="logical" name="LHARTREE"> T  </i>
   <i type="int" name="IBSE">     0</i>
   <v type="int" name="KPOINT">    -1     0     0     0</v>
   <i type="logical" name="LTCTE"> F  </i>
   <i type="logical" name="LTETE"> F  </i>
   <i type="logical" name="LTRIPLET"> F  </i>
   <i type="logical" name="LFXCEPS"> F  </i>
   <i type="logical" name="LFXHEG"> F  </i>
   <i type="int" name="NATURALO">     0</i>
   <i type="logical" name="L2ORDER"> F  </i>
   <i type="logical" name="LUSEW"> F  </i>
   <i name="ENCUTGW">     -2.00000000</i>
   <i name="ENCUTGWSOFT">     -2.00000000</i>
   <i name="ENCUTLF">     -1.00000000</i>
   <i type="int" name="LMAXMP2">    -1</i>
   <i name="SCISSOR">      0.00000000</i>
   <i type="int" name="NOMEGA">     0</i>
   <i type="int" name="NOMEGAR">     0</i>
   <i type="int" name="NBANDSGW">    -1</i>
   <i type="int" name="NBANDSO">    -1</i>
   <i type="int" name="NBANDSV">    -1</i>
   <i type="int" name="NELM">   100</i>
   <i type="int" name="NELMHF">     1</i>
   <i type="int" name="DIM">     3</i>
   <i type="int" name="ANTIRES">     0</i>
   <i name="OMEGAMAX">    -30.00000000</i>
   <i name="OMEGAMIN">    -30.00000000</i>
   <i name="OMEGATL">   -200.00000000</i>
   <i type="int" name="OMEGAGRID">     0</i>
   <i name="CSHIFT">     -0.10000000</i>
   <i type="logical" name="SELFENERGY"> F  </i>
   <i type="logical" name="LSPECTRAL"> F  </i>
   <i type="logical" name="LSPECTRALGW"> F  </i>
   <i type="logical" name="LSINGLES"> F  </i>
   <i type="logical" name="LFERMIGW"> F  </i>
   <i type="logical" name="ODDONLYGW"> F  </i>
   <i type="logical" name="EVENONLYGW"> F  </i>
   <i type="int" name="NKREDLFX">     1</i>
   <i type="int" name="NKREDLFY">     1</i>
   <i type="int" name="NKREDLFZ">     1</i>
   <i type="int" name="MAXMEM">  1800</i>
   <i type="int" name="TELESCOPE">     0</i>
   <i type="int" name="TAUPAR">     1</i>
   <i type="int" name="OMEGAPAR">    -1</i>
   <i name="LAMBDA">      1.00000000</i>
  </separator>
  <separator name="External order field" >
   <i name="OFIELD_KAPPA">      0.00000000</i>
   <v name="OFIELD_K">      0.00000000      0.00000000      0.00000000</v>
   <i name="OFIELD_Q6_NEAR">      0.00000000</i>
   <i name="OFIELD_Q6_FAR">      0.00000000</i>
   <i name="OFIELD_A">      0.00000000</i>
  </separator>
 </parameters>
 <atominfo>
  <atoms>      15 </atoms>
  <types>       2 </types>
  <array name="atoms" >
   <dimension dim="1">ion</dimension>
   <field type="string">element</field>
   <field type="int">atomtype</field>
   <set>
    <rc><c>Mg</c><c>   1</c></rc>
    <rc><c>Mg</c><c>   1</c></rc>
    <rc><c>Mg</c><c>   1</c></rc>
    <rc><c>Mg</c><c>   1</c></rc>
    <rc><c>Mg</c><c>   1</c></rc>
    <rc><c>Mg</c><c>   1</c></rc>
    <rc><c>Mg</c><c>   1</c></rc>
    <rc><c>Mg</c><c>   1</c></rc>
    <rc><c>Mg</c><c>   1</c></rc>
    <rc><c>O </c><c>   2</c></rc>
    <rc><c>O </c><c>   2</c></rc>
    <rc><c>O </c><c>   2</c></rc>
    <rc><c>O </c><c>   2</c></rc>
    <rc><c>O </c><c>   2</c></rc>
    <rc><c>O </c><c>   2</c></rc>
   </set>
  </array>
  <array name="atomtypes" >
   <dimension dim="1">type</dimension>
   <field type="int">atomspertype</field>
   <field type="string">element</field>
   <field>mass</field>
   <field>valence</field>
   <field type="string">pseudopotential</field>
   <set>
    <rc><c>   9</c><c>Mg</c><c>     24.30500000</c><c>      2.00000000</c><c>  PAW_PBE Mg 13Apr2007                  </c></rc>
    <rc><c>   6</c><c>O </c><c>     16.00000000</c><c>      6.00000000</c><c>  PAW_PBE O 08Apr2002                   </c></rc>
   </set>
  </array>
 </atominfo>
 <structure name="initialpos" >
  <crystal>
   <varray name="basis" >
    <v>       0.00000000       4.24689302       4.24689302 </v>
    <v>       4.24689302       0.00000000       4.24689302 </v>
    <v>       4.24689302       4.24689302       0.00000000 </v>
   </varray>
   <i name="volume">    153.19477710 </i>
   <varray name="rec_basis" >
    <v>      -0.11773313       0.11773313       0.11773313 </v>
    <v>       0.11773313      -0.11773313       0.11773313 </v>
    <v>       0.11773313       0.11773313      -0.11773313 </v>
   </varray>
  </crystal>
  <varray name="positions" >
   <v>       0.99849222       0.99849222       0.00150778 </v>
   <v>       0.97700712       0.97700712       0.52299288 </v>
   <v>       0.97439408       0.52560592       0.98053312 </v>
   <v>       0.97439408       0.52560592       0.51946688 </v>
   <v>       0.52560592       0.97439408       0.98053312 </v>
   <v>       0.52560592       0.97439408       0.51946688 </v>
   <v>       0.52299288       0.52299288       0.97700712 </v>
   <v>       0.50150778       0.50150778       0.49849222 </v>
   <v>       0.25000000       0.25000000       0.25000000 </v>
   <v>       0.25000000       0.75000000       0.25000000 </v>
   <v>       0.25000000       0.75000000       0.75000000 </v>
   <v>       0.75000000       0.25000000       0.25000000 </v>
   <v>       0.75000000       0.25000000       0.75000000 </v>
   <v>       0.75000000       0.75000000       0.25000000 </v>
   <v>       0.75000000       0.75000000       0.75000000 </v>
  </varray>
 </structure>
 <calculation>
  <scstep>
   <time name="dav">    0.28    0.29</time>
   <time name="total">    0.65    0.66</time>
   <energy>
    <i name="alphaZ">    120.36916991 </i>
    <i name="ewald">  -2028.16625693 </i>
    <i name="hartreedc">   -924.04344399 </i>
    <i name="XCdc">   -264.88710142 </i>
    <i name="pawpsdc">   2665.04529735 </i>
    <i name="pawaedc">  -2209.04454820 </i>
    <i name="eentropy">     -0.00119236 </i>
    <i name="bandstr">     40.66669173 </i>
    <i name="atom">   2800.91013741 </i>
    <i name="e_fr_energy">    200.84875350 </i>
    <i name="e_wo_entrp">    200.84994586 </i>
    <i name="e_0_energy">    200.84934968 </i>
   </energy>
  </scstep>
  <scstep>
   <time name="dav">    0.25    0.25</time>
   <time name="total">    0.25    0.26</time>
   <energy>
    <i name="e_fr_energy">    -63.65039152 </i>
    <i name="e_wo_entrp">    -63.64734017 </i>
    <i name="e_0_energy">    -63.64886584 </i>
   </energy>
  </scstep>
  <scstep>
   <time name="dav">    0.24    0.24</time>
   <time name="total">    0.24    0.24</time>
   <energy>
    <i name="e_fr_energy">    -81.58581600 </i>
    <i name="e_wo_entrp">    -81.58562425 </i>
    <i name="e_0_energy">    -81.58572013 </i>
   </energy>
  </scstep>
  <scstep>
   <time name="dav">    0.23    0.23</time>
   <time name="total">    0.23    0.24</time>
   <energy>
    <i name="e_fr_energy">    -81.70246827 </i>
    <i name="e_wo_entrp">    -81.70227000 </i>
    <i name="e_0_energy">    -81.70236914 </i>
   </energy>
  </scstep>
  <scstep>
   <time name="dav">    0.23    0.23</time>
   <time name="total">    0.25    0.25</time>
   <energy>
    <i name="e_fr_energy">    -81.70309818 </i>
    <i name="e_wo_entrp">    -81.70289972 </i>
    <i name="e_0_energy">    -81.70299895 </i>
   </energy>
  </scstep>
  <scstep>
   <time name="dav">    0.23    0.23</time>
   <time name="total">    0.62    0.62</time>
   <energy>
    <i name="e_fr_energy">    -78.31789190 </i>
    <i name="e_wo_entrp">    -78.31756711 </i>
    <i name="e_0_energy">    -78.31772951 </i>
   </energy>
  </scstep>
  <scstep>
   <time name="dav">    0.24    0.24</time>
   <time name="total">    0.64    0.65</time>
   <energy>
    <i name="e_fr_energy">    -78.44917731 </i>
    <i name="e_wo_entrp">    -78.44587646 </i>
    <i name="e_0_energy">    -78.44752688 </i>
   </energy>
  </scstep>
  <scstep>
   <time name="dav">    0.24    0.24</time>
   <time name="total">    0.63    0.64</time>
   <energy>
    <i name="e_fr_energy">    -78.37166957 </i>
    <i name="e_wo_entrp">    -78.37037415 </i>
    <i name="e_0_energy">    -78.37102186 </i>
   </energy>
  </scstep>
  <scstep>
   <time name="dav">    0.26    0.26</time>
   <time name="total">    0.66    0.67</time>
   <energy>
    <i name="e_fr_energy">    -78.36776457 </i>
    <i name="e_wo_entrp">    -78.36594528 </i>
    <i name="e_0_energy">    -78.36685493 </i>
   </energy>
  </scstep>
  <scstep>
   <time name="dav">    0.23    0.23</time>
   <time name="total">    0.63    0.64</time>
   <energy>
    <i name="e_fr_energy">    -78.36797207 </i>
    <i name="e_wo_entrp">    -78.36584104 </i>
    <i name="e_0_energy">    -78.36690655 </i>
   </energy>
  </scstep>
  <scstep>
   <time name="dav">    0.23    0.23</time>
   <time name="total">    0.63    0.64</time>
   <energy>
    <i name="e_fr_energy">    -78.36808319 </i>
    <i name="e_wo_entrp">    -78.36571344 </i>
    <i name="e_0_energy">    -78.36689831 </i>
   </energy>
  </scstep>
  <scstep>
   <time name="dav">    0.24    0.24</time>
   <time name="total">    0.64    0.64</time>
   <energy>
    <i name="e_fr_energy">    -78.36814251 </i>
    <i name="e_wo_entrp">    -78.36564959 </i>
    <i name="e_0_energy">    -78.36689605 </i>
   </energy>
  </scstep>
  <scstep>
   <time name="dav">    0.24    0.24</time>
   <time name="total">    0.64    0.65</time>
   <energy>
    <i name="e_fr_energy">    -78.36815465 </i>
    <i name="e_wo_entrp">    -78.36566824 </i>
    <i name="e_0_energy">    -78.36691144 </i>
   </energy>
  </scstep>
  <scstep>
   <time name="dav">    0.22    0.22</time>
   <time name="total">    0.62    0.63</time>
   <energy>
    <i name="e_fr_energy">    -78.36815866 </i>
    <i name="e_wo_entrp">    -78.36568368 </i>
    <i name="e_0_energy">    -78.36692117 </i>
   </energy>
  </scstep>
  <scstep>
   <time name="dav">    0.20    0.21</time>
   <time name="total">    0.59    0.60</time>
   <energy>
    <i name="alphaZ">    120.36916991 </i>
    <i name="ewald">  -2028.16625693 </i>
    <i name="hartreedc">  -1049.11794225 </i>
    <i name="XCdc">   -264.29557107 </i>
    <i name="pawpsdc">   3506.37708124 </i>
    <i name="pawaedc">  -3051.85458225 </i>
    <i name="eentropy">     -0.00246714 </i>
    <i name="bandstr">   -112.58772709 </i>
    <i name="atom">   2800.91013741 </i>
    <i name="e_fr_energy">    -78.36815817 </i>
    <i name="e_wo_entrp">    -78.36569103 </i>
    <i name="e_0_energy">    -78.36692460 </i>
   </energy>
  </scstep>
  <structure>
   <crystal>
    <varray name="basis" >
     <v>       0.00000000       4.24689302       4.24689302 </v>
     <v>       4.24689302       0.00000000       4.24689302 </v>
     <v>       4.24689302       4.24689302       0.00000000 </v>
    </varray>
    <i name="volume">    153.19477710 </i>
    <varray name="rec_basis" >
     <v>      -0.11773313       0.11773313       0.11773313 </v>
     <v>       0.11773313      -0.11773313       0.11773313 </v>
     <v>       0.11773313       0.11773313      -0.11773313 </v>
    </varray>
   </crystal>
   <varray name="positions" >
    <v>       0.99849222       0.99849222       0.00150778 </v>
    <v>       0.97700712       0.97700712       0.52299288 </v>
    <v>       0.97439408       0.52560592       0.98053312 </v>
    <v>       0.97439408       0.52560592       0.51946688 </v>
    <v>       0.52560592       0.97439408       0.98053312 </v>
    <v>       0.52560592       0.97439408       0.51946688 </v>
    <v>       0.52299288       0.52299288       0.97700712 </v>
    <v>       0.50150778       0.50150778       0.49849222 </v>
    <v>       0.25000000       0.25000000       0.25000000 </v>
    <v>       0.25000000       0.75000000       0.25000000 </v>
    <v>       0.25000000       0.75000000       0.75000000 </v>
    <v>       0.75000000       0.25000000       0.25000000 </v>
    <v>       0.75000000       0.25000000       0.75000000 </v>
    <v>       0.75000000       0.75000000       0.25000000 </v>
    <v>       0.75000000       0.75000000       0.75000000 </v>
   </varray>
  </structure>
  <varray name="forces" >
   <v>       0.00000000       0.00000000       0.03500503 </v>
   <v>       0.00000000       0.00000000       0.01954216 </v>
   <v>       0.01108349      -0.00839131      -0.00000000 </v>
   <v>       0.00839131      -0.01108349      -0.00000000 </v>
   <v>      -0.00839131       0.01108349      -0.00000000 </v>
   <v>      -0.01108349       0.00839131      -0.00000000 </v>
   <v>       0.00000000       0.00000000      -0.01954216 </v>
   <v>      -0.00000000      -0.00000000      -0.03500503 </v>
   <v>       0.00000000       0.00000000      -0.00000000 </v>
   <v>       0.00000000       0.00000000      -0.00000000 </v>
   <v>      -0.00000000       0.00000000       0.00000000 </v>
   <v>       0.00000000       0.00000000      -0.00000000 </v>
   <v>       0.00000000       0.00000000      -0.00000000 </v>
   <v>       0.00000000       0.00000000       0.00000000 </v>
   <v>       0.00000000       0.00000000      -0.00000000 </v>
  </varray>
  <varray name="stress" >
   <v>      18.49233128      -6.39216243       0.00000000 </v>
   <v>      -6.39216243      18.49233128       0.00000000 </v>
   <v>       0.00000000       0.00000000      29.67211870 </v>
  </varray>
  <energy>
   <i name="e_fr_energy">    -78.36815817 </i>
   <i name="e_wo_entrp">    -78.36692460 </i>
   <i name="e_0_energy">     -0.00246714 </i>
  </energy>
  <time name="totalsc">    8.92    8.99</time>
  <eigenvalues>
   <array>
    <dimension dim="1">band</dimension>
    <dimension dim="2">kpoint</dimension>
    <dimension dim="3">spin</dimension>
    <field>eigene</field>
    <field>occ</field>
    <set>
     <set comment="spin 1">
      <set comment="kpoint 1">
       <r>  -14.9538    1.0000 </r>
       <r>  -13.3481    1.0000 </r>
       <r>  -12.8065    1.0000 </r>
       <r>  -12.7074    1.0000 </r>
       <r>  -12.6698    1.0000 </r>
       <r>  -12.4919    1.0000 </r>
       <r>   -1.7599    1.0000 </r>
       <r>   -1.5961    1.0000 </r>
       <r>   -1.3720    1.0000 </r>
       <r>   -0.6461    1.0000 </r>
       <r>   -0.3217    1.0000 </r>
       <r>   -0.2386    1.0000 </r>
       <r>    0.0782    1.0000 </r>
       <r>    0.6172    1.0000 </r>
       <r>    1.1016    1.0000 </r>
       <r>    1.2050    1.0000 </r>
       <r>    1.5986    1.0000 </r>
       <r>    1.6734    1.0000 </r>
       <r>    1.6870    1.0000 </r>
       <r>    2.0515    1.0000 </r>
       <r>    2.2809    1.0000 </r>
       <r>    2.5654    1.0000 </r>
       <r>    2.6113    1.0000 </r>
       <r>    2.6365    1.0000 </r>
       <r>    3.0160    1.0000 </r>
       <r>    5.2790    1.0000 </r>
       <r>    7.9125    0.0000 </r>
       <r>    8.9956    0.0000 </r>
       <r>    9.0773    0.0000 </r>
       <r>    9.8433    0.0000 </r>
       <r>   10.4069    0.0000 </r>
       <r>   10.6009    0.0000 </r>
       <r>   11.4311    0.0000 </r>
       <r>   11.5252    0.0000 </r>
       <r>   11.6986    0.0000 </r>
       <r>   11.8430    0.0000 </r>
       <r>   11.9319    0.0000 </r>
       <r>   13.0056    0.0000 </r>
       <r>   13.1660    0.0000 </r>
       <r>   13.3353    0.0000 </r>
       <r>   15.0156    0.0000 </r>
       <r>   15.0717    0.0000 </r>
       <r>   15.5215    0.0000 </r>
       <r>   16.7242    0.0000 </r>
      </set>
      <set comment="kpoint 2">
       <r>  -14.9622    1.0000 </r>
       <r>  -13.3257    1.0000 </r>
       <r>  -12.8187    1.0000 </r>
       <r>  -12.7056    1.0000 </r>
       <r>  -12.6672    1.0000 </r>
       <r>  -12.4914    1.0000 </r>
       <r>   -1.8012    1.0000 </r>
       <r>   -1.7456    1.0000 </r>
       <r>   -1.4748    1.0000 </r>
       <r>   -0.8385    1.0000 </r>
       <r>   -0.5192    1.0000 </r>
       <r>   -0.0203    1.0000 </r>
       <r>    0.5837    1.0000 </r>
       <r>    0.8399    1.0000 </r>
       <r>    1.0672    1.0000 </r>
       <r>    1.1741    1.0000 </r>
       <r>    1.5649    1.0000 </r>
       <r>    1.6023    1.0000 </r>
       <r>    1.8619    1.0000 </r>
       <r>    1.9093    1.0000 </r>
       <r>    2.2300    1.0000 </r>
       <r>    2.5875    1.0000 </r>
       <r>    2.6100    1.0000 </r>
       <r>    2.6916    1.0000 </r>
       <r>    3.1664    1.0000 </r>
       <r>    5.6754    1.0000 </r>
       <r>    7.3272    0.0000 </r>
       <r>    7.8720    0.0000 </r>
       <r>    9.0739    0.0000 </r>
       <r>    9.6337    0.0000 </r>
       <r>   10.3610    0.0000 </r>
       <r>   11.0991    0.0000 </r>
       <r>   11.2075    0.0000 </r>
       <r>   11.5569    0.0000 </r>
       <r>   11.8958    0.0000 </r>
       <r>   12.3266    0.0000 </r>
       <r>   12.5680    0.0000 </r>
       <r>   12.6492    0.0000 </r>
       <r>   12.9349    0.0000 </r>
       <r>   13.7380    0.0000 </r>
       <r>   15.0596    0.0000 </r>
       <r>   15.1013    0.0000 </r>
       <r>   16.4016    0.0000 </r>
       <r>   16.6139    0.0000 </r>
      </set>
      <set comment="kpoint 3">
       <r>  -14.9318    1.0000 </r>
       <r>  -13.2001    1.0000 </r>
       <r>  -12.9224    1.0000 </r>
       <r>  -12.7452    1.0000 </r>
       <r>  -12.6357    1.0000 </r>
       <r>  -12.5929    1.0000 </r>
       <r>   -1.5718    1.0000 </r>
       <r>   -1.3930    1.0000 </r>
       <r>   -1.2286    1.0000 </r>
       <r>   -0.7979    1.0000 </r>
       <r>   -0.0935    1.0000 </r>
       <r>    0.3192    1.0000 </r>
       <r>    0.5085    1.0000 </r>
       <r>    0.7554    1.0000 </r>
       <r>    0.9307    1.0000 </r>
       <r>    1.0261    1.0000 </r>
       <r>    1.2366    1.0000 </r>
       <r>    1.3281    1.0000 </r>
       <r>    1.3773    1.0000 </r>
       <r>    1.6142    1.0000 </r>
       <r>    1.8077    1.0000 </r>
       <r>    2.0804    1.0000 </r>
       <r>    2.3722    1.0000 </r>
       <r>    2.5365    1.0000 </r>
       <r>    4.3346    1.0000 </r>
       <r>    5.6506    1.0000 </r>
       <r>    7.1128    0.0000 </r>
       <r>    8.0145    0.0000 </r>
       <r>    8.4856    0.0000 </r>
       <r>    9.1202    0.0000 </r>
       <r>   10.3129    0.0000 </r>
       <r>   11.4070    0.0000 </r>
       <r>   12.0887    0.0000 </r>
       <r>   12.4564    0.0000 </r>
       <r>   12.8487    0.0000 </r>
       <r>   12.8843    0.0000 </r>
       <r>   13.2684    0.0000 </r>
       <r>   13.4458    0.0000 </r>
       <r>   13.8350    0.0000 </r>
       <r>   14.1253    0.0000 </r>
       <r>   14.5979    0.0000 </r>
       <r>   14.6172    0.0000 </r>
       <r>   15.0250    0.0000 </r>
       <r>   15.4645    0.0000 </r>
      </set>
      <set comment="kpoint 4">
       <r>  -14.9185    1.0000 </r>
       <r>  -13.2226    1.0000 </r>
       <r>  -12.9926    1.0000 </r>
       <r>  -12.7220    1.0000 </r>
       <r>  -12.7130    1.0000 </r>
       <r>  -12.4568    1.0000 </r>
       <r>   -1.3693    1.0000 </r>
       <r>   -1.1085    1.0000 </r>
       <r>   -1.0354    1.0000 </r>
       <r>   -0.8990    1.0000 </r>
       <r>   -0.3101    1.0000 </r>
       <r>   -0.1207    1.0000 </r>
       <r>    0.1708    1.0000 </r>
       <r>    0.3786    1.0000 </r>
       <r>    0.7306    1.0000 </r>
       <r>    0.8388    1.0000 </r>
       <r>    1.2940    1.0000 </r>
       <r>    1.3839    1.0000 </r>
       <r>    1.6382    1.0000 </r>
       <r>    1.6865    1.0000 </r>
       <r>    2.2978    1.0000 </r>
       <r>    2.3238    1.0000 </r>
       <r>    2.5443    1.0000 </r>
       <r>    2.6260    1.0000 </r>
       <r>    4.3712    1.0000 </r>
       <r>    5.0878    1.0000 </r>
       <r>    7.3641    0.0000 </r>
       <r>    8.0481    0.0000 </r>
       <r>    8.3262    0.0000 </r>
       <r>   10.1357    0.0000 </r>
       <r>   10.1654    0.0000 </r>
       <r>   11.1883    0.0000 </r>
       <r>   11.9567    0.0000 </r>
       <r>   12.1006    0.0000 </r>
       <r>   12.6539    0.0000 </r>
       <r>   12.8265    0.0000 </r>
       <r>   13.2362    0.0000 </r>
       <r>   13.5601    0.0000 </r>
       <r>   13.8412    0.0000 </r>
       <r>   14.0184    0.0000 </r>
       <r>   14.3754    0.0000 </r>
       <r>   14.5203    0.0000 </r>
       <r>   15.1422    0.0000 </r>
       <r>   15.6446    0.0000 </r>
      </set>
      <set comment="kpoint 5">
       <r>  -14.9231    1.0000 </r>
       <r>  -13.2364    1.0000 </r>
       <r>  -12.8985    1.0000 </r>
       <r>  -12.7464    1.0000 </r>
       <r>  -12.6349    1.0000 </r>
       <r>  -12.5955    1.0000 </r>
       <r>   -1.4125    1.0000 </r>
       <r>   -1.2847    1.0000 </r>
       <r>   -0.9968    1.0000 </r>
       <r>   -0.6666    1.0000 </r>
       <r>   -0.2839    1.0000 </r>
       <r>    0.1690    1.0000 </r>
       <r>    0.2423    1.0000 </r>
       <r>    0.4681    1.0000 </r>
       <r>    0.7602    1.0000 </r>
       <r>    1.0449    1.0000 </r>
       <r>    1.2092    1.0000 </r>
       <r>    1.4526    1.0000 </r>
       <r>    1.5467    1.0000 </r>
       <r>    1.5808    1.0000 </r>
       <r>    1.9326    1.0000 </r>
       <r>    2.1148    1.0000 </r>
       <r>    2.3465    1.0000 </r>
       <r>    2.4749    1.0000 </r>
       <r>    4.0678    1.0000 </r>
       <r>    5.1946    1.0000 </r>
       <r>    8.0065    0.0000 </r>
       <r>    8.1430    0.0000 </r>
       <r>    9.2425    0.0000 </r>
       <r>    9.9672    0.0000 </r>
       <r>   10.1132    0.0000 </r>
       <r>   10.7849    0.0000 </r>
       <r>   11.5719    0.0000 </r>
       <r>   12.0682    0.0000 </r>
       <r>   12.5287    0.0000 </r>
       <r>   12.6013    0.0000 </r>
       <r>   12.9946    0.0000 </r>
       <r>   13.5296    0.0000 </r>
       <r>   13.7998    0.0000 </r>
       <r>   14.1516    0.0000 </r>
       <r>   14.4128    0.0000 </r>
       <r>   14.9455    0.0000 </r>
       <r>   15.3925    0.0000 </r>
       <r>   15.6156    0.0000 </r>
      </set>
      <set comment="kpoint 6">
       <r>  -14.9271    1.0000 </r>
       <r>  -13.1973    1.0000 </r>
       <r>  -12.9872    1.0000 </r>
       <r>  -12.7407    1.0000 </r>
       <r>  -12.7105    1.0000 </r>
       <r>  -12.4563    1.0000 </r>
       <r>   -1.4728    1.0000 </r>
       <r>   -1.4376    1.0000 </r>
       <r>   -1.2340    1.0000 </r>
       <r>   -0.7523    1.0000 </r>
       <r>   -0.2984    1.0000 </r>
       <r>   -0.0794    1.0000 </r>
       <r>    0.4805    1.0000 </r>
       <r>    0.6601    1.0000 </r>
       <r>    0.7946    1.0000 </r>
       <r>    1.0774    1.0000 </r>
       <r>    1.1635    1.0000 </r>
       <r>    1.2775    1.0000 </r>
       <r>    1.6135    1.0000 </r>
       <r>    1.6486    1.0000 </r>
       <r>    2.2336    1.0000 </r>
       <r>    2.3020    1.0000 </r>
       <r>    2.5277    1.0000 </r>
       <r>    2.6360    1.0000 </r>
       <r>    4.5347    1.0000 </r>
       <r>    6.4103    0.9278 </r>
       <r>    6.5132    0.0734 </r>
       <r>    6.9922    0.0000 </r>
       <r>    7.9518    0.0000 </r>
       <r>    9.3208    0.0000 </r>
       <r>   10.3094    0.0000 </r>
       <r>   11.2762    0.0000 </r>
       <r>   12.4872    0.0000 </r>
       <r>   12.4963    0.0000 </r>
       <r>   12.8690    0.0000 </r>
       <r>   13.2065    0.0000 </r>
       <r>   13.6946    0.0000 </r>
       <r>   13.8182    0.0000 </r>
       <r>   13.9303    0.0000 </r>
       <r>   14.1703    0.0000 </r>
       <r>   14.2240    0.0000 </r>
       <r>   14.6601    0.0000 </r>
       <r>   14.8627    0.0000 </r>
       <r>   15.6979    0.0000 </r>
      </set>
     </set>
     <set comment="spin 2">
      <set comment="kpoint 1">
       <r>  -14.9538    1.0000 </r>
       <r>  -13.3481    1.0000 </r>
       <r>  -12.8065    1.0000 </r>
       <r>  -12.7073    1.0000 </r>
       <r>  -12.6697    1.0000 </r>
       <r>  -12.4918    1.0000 </r>
       <r>   -1.7599    1.0000 </r>
       <r>   -1.5961    1.0000 </r>
       <r>   -1.3720    1.0000 </r>
       <r>   -0.6462    1.0000 </r>
       <r>   -0.3217    1.0000 </r>
       <r>   -0.2385    1.0000 </r>
       <r>    0.0783    1.0000 </r>
       <r>    0.6172    1.0000 </r>
       <r>    1.1017    1.0000 </r>
       <r>    1.2050    1.0000 </r>
       <r>    1.5987    1.0000 </r>
       <r>    1.6734    1.0000 </r>
       <r>    1.6870    1.0000 </r>
       <r>    2.0516    1.0000 </r>
       <r>    2.2810    1.0000 </r>
       <r>    2.5655    1.0000 </r>
       <r>    2.6113    1.0000 </r>
       <r>    2.6366    1.0000 </r>
       <r>    3.0162    1.0000 </r>
       <r>    5.2790    1.0000 </r>
       <r>    7.9129    0.0000 </r>
       <r>    8.9957    0.0000 </r>
       <r>    9.0772    0.0000 </r>
       <r>    9.8433    0.0000 </r>
       <r>   10.4069    0.0000 </r>
       <r>   10.6011    0.0000 </r>
       <r>   11.4311    0.0000 </r>
       <r>   11.5251    0.0000 </r>
       <r>   11.6988    0.0000 </r>
       <r>   11.8430    0.0000 </r>
       <r>   11.9318    0.0000 </r>
       <r>   13.0057    0.0000 </r>
       <r>   13.1660    0.0000 </r>
       <r>   13.3354    0.0000 </r>
       <r>   15.0156    0.0000 </r>
       <r>   15.0717    0.0000 </r>
       <r>   15.5216    0.0000 </r>
       <r>   16.7241    0.0000 </r>
      </set>
      <set comment="kpoint 2">
       <r>  -14.9622    1.0000 </r>
       <r>  -13.3257    1.0000 </r>
       <r>  -12.8187    1.0000 </r>
       <r>  -12.7055    1.0000 </r>
       <r>  -12.6671    1.0000 </r>
       <r>  -12.4913    1.0000 </r>
       <r>   -1.8012    1.0000 </r>
       <r>   -1.7456    1.0000 </r>
       <r>   -1.4748    1.0000 </r>
       <r>   -0.8385    1.0000 </r>
       <r>   -0.5192    1.0000 </r>
       <r>   -0.0202    1.0000 </r>
       <r>    0.5839    1.0000 </r>
       <r>    0.8399    1.0000 </r>
       <r>    1.0672    1.0000 </r>
       <r>    1.1741    1.0000 </r>
       <r>    1.5650    1.0000 </r>
       <r>    1.6024    1.0000 </r>
       <r>    1.8620    1.0000 </r>
       <r>    1.9094    1.0000 </r>
       <r>    2.2300    1.0000 </r>
       <r>    2.5876    1.0000 </r>
       <r>    2.6101    1.0000 </r>
       <r>    2.6917    1.0000 </r>
       <r>    3.1665    1.0000 </r>
       <r>    5.6752    1.0000 </r>
       <r>    7.3279    0.0000 </r>
       <r>    7.8720    0.0000 </r>
       <r>    9.0738    0.0000 </r>
       <r>    9.6336    0.0000 </r>
       <r>   10.3610    0.0000 </r>
       <r>   11.0990    0.0000 </r>
       <r>   11.2076    0.0000 </r>
       <r>   11.5569    0.0000 </r>
       <r>   11.8960    0.0000 </r>
       <r>   12.3264    0.0000 </r>
       <r>   12.5680    0.0000 </r>
       <r>   12.6495    0.0000 </r>
       <r>   12.9348    0.0000 </r>
       <r>   13.7380    0.0000 </r>
       <r>   15.0596    0.0000 </r>
       <r>   15.1013    0.0000 </r>
       <r>   16.4018    0.0000 </r>
       <r>   16.6218    0.0000 </r>
      </set>
      <set comment="kpoint 3">
       <r>  -14.9318    1.0000 </r>
       <r>  -13.2000    1.0000 </r>
       <r>  -12.9224    1.0000 </r>
       <r>  -12.7451    1.0000 </r>
       <r>  -12.6356    1.0000 </r>
       <r>  -12.5929    1.0000 </r>
       <r>   -1.5718    1.0000 </r>
       <r>   -1.3930    1.0000 </r>
       <r>   -1.2286    1.0000 </r>
       <r>   -0.7979    1.0000 </r>
       <r>   -0.0935    1.0000 </r>
       <r>    0.3192    1.0000 </r>
       <r>    0.5085    1.0000 </r>
       <r>    0.7555    1.0000 </r>
       <r>    0.9308    1.0000 </r>
       <r>    1.0262    1.0000 </r>
       <r>    1.2367    1.0000 </r>
       <r>    1.3281    1.0000 </r>
       <r>    1.3774    1.0000 </r>
       <r>    1.6142    1.0000 </r>
       <r>    1.8078    1.0000 </r>
       <r>    2.0805    1.0000 </r>
       <r>    2.3723    1.0000 </r>
       <r>    2.5366    1.0000 </r>
       <r>    4.3349    1.0000 </r>
       <r>    5.6509    1.0000 </r>
       <r>    7.1127    0.0000 </r>
       <r>    8.0147    0.0000 </r>
       <r>    8.4856    0.0000 </r>
       <r>    9.1201    0.0000 </r>
       <r>   10.3130    0.0000 </r>
       <r>   11.4070    0.0000 </r>
       <r>   12.0888    0.0000 </r>
       <r>   12.4564    0.0000 </r>
       <r>   12.8489    0.0000 </r>
       <r>   12.8843    0.0000 </r>
       <r>   13.2684    0.0000 </r>
       <r>   13.4458    0.0000 </r>
       <r>   13.8350    0.0000 </r>
       <r>   14.1253    0.0000 </r>
       <r>   14.5979    0.0000 </r>
       <r>   14.6172    0.0000 </r>
       <r>   15.0250    0.0000 </r>
       <r>   15.4644    0.0000 </r>
      </set>
      <set comment="kpoint 4">
       <r>  -14.9185    1.0000 </r>
       <r>  -13.2225    1.0000 </r>
       <r>  -12.9926    1.0000 </r>
       <r>  -12.7219    1.0000 </r>
       <r>  -12.7130    1.0000 </r>
       <r>  -12.4567    1.0000 </r>
       <r>   -1.3694    1.0000 </r>
       <r>   -1.1084    1.0000 </r>
       <r>   -1.0355    1.0000 </r>
       <r>   -0.8989    1.0000 </r>
       <r>   -0.3101    1.0000 </r>
       <r>   -0.1207    1.0000 </r>
       <r>    0.1708    1.0000 </r>
       <r>    0.3787    1.0000 </r>
       <r>    0.7306    1.0000 </r>
       <r>    0.8388    1.0000 </r>
       <r>    1.2941    1.0000 </r>
       <r>    1.3840    1.0000 </r>
       <r>    1.6382    1.0000 </r>
       <r>    1.6866    1.0000 </r>
       <r>    2.2979    1.0000 </r>
       <r>    2.3238    1.0000 </r>
       <r>    2.5444    1.0000 </r>
       <r>    2.6261    1.0000 </r>
       <r>    4.3714    1.0000 </r>
       <r>    5.0881    1.0000 </r>
       <r>    7.3641    0.0000 </r>
       <r>    8.0484    0.0000 </r>
       <r>    8.3262    0.0000 </r>
       <r>   10.1356    0.0000 </r>
       <r>   10.1653    0.0000 </r>
       <r>   11.1884    0.0000 </r>
       <r>   11.9567    0.0000 </r>
       <r>   12.1008    0.0000 </r>
       <r>   12.6538    0.0000 </r>
       <r>   12.8265    0.0000 </r>
       <r>   13.2361    0.0000 </r>
       <r>   13.5601    0.0000 </r>
       <r>   13.8413    0.0000 </r>
       <r>   14.0186    0.0000 </r>
       <r>   14.3755    0.0000 </r>
       <r>   14.5204    0.0000 </r>
       <r>   15.1422    0.0000 </r>
       <r>   15.6446    0.0000 </r>
      </set>
      <set comment="kpoint 5">
       <r>  -14.9231    1.0000 </r>
       <r>  -13.2363    1.0000 </r>
       <r>  -12.8984    1.0000 </r>
       <r>  -12.7463    1.0000 </r>
       <r>  -12.6349    1.0000 </r>
       <r>  -12.5954    1.0000 </r>
       <r>   -1.4125    1.0000 </r>
       <r>   -1.2847    1.0000 </r>
       <r>   -0.9968    1.0000 </r>
       <r>   -0.6666    1.0000 </r>
       <r>   -0.2839    1.0000 </r>
       <r>    0.1690    1.0000 </r>
       <r>    0.2423    1.0000 </r>
       <r>    0.4681    1.0000 </r>
       <r>    0.7602    1.0000 </r>
       <r>    1.0450    1.0000 </r>
       <r>    1.2093    1.0000 </r>
       <r>    1.4527    1.0000 </r>
       <r>    1.5467    1.0000 </r>
       <r>    1.5808    1.0000 </r>
       <r>    1.9327    1.0000 </r>
       <r>    2.1149    1.0000 </r>
       <r>    2.3465    1.0000 </r>
       <r>    2.4749    1.0000 </r>
       <r>    4.0680    1.0000 </r>
       <r>    5.1949    1.0000 </r>
       <r>    8.0064    0.0000 </r>
       <r>    8.1429    0.0000 </r>
       <r>    9.2426    0.0000 </r>
       <r>    9.9674    0.0000 </r>
       <r>   10.1133    0.0000 </r>
       <r>   10.7852    0.0000 </r>
       <r>   11.5719    0.0000 </r>
       <r>   12.0682    0.0000 </r>
       <r>   12.5286    0.0000 </r>
       <r>   12.6012    0.0000 </r>
       <r>   12.9946    0.0000 </r>
       <r>   13.5295    0.0000 </r>
       <r>   13.7999    0.0000 </r>
       <r>   14.1517    0.0000 </r>
       <r>   14.4128    0.0000 </r>
       <r>   14.9455    0.0000 </r>
       <r>   15.3926    0.0000 </r>
       <r>   15.6156    0.0000 </r>
      </set>
      <set comment="kpoint 6">
       <r>  -14.9271    1.0000 </r>
       <r>  -13.1973    1.0000 </r>
       <r>  -12.9871    1.0000 </r>
       <r>  -12.7406    1.0000 </r>
       <r>  -12.7104    1.0000 </r>
       <r>  -12.4562    1.0000 </r>
       <r>   -1.4728    1.0000 </r>
       <r>   -1.4375    1.0000 </r>
       <r>   -1.2340    1.0000 </r>
       <r>   -0.7523    1.0000 </r>
       <r>   -0.2983    1.0000 </r>
       <r>   -0.0794    1.0000 </r>
       <r>    0.4805    1.0000 </r>
       <r>    0.6601    1.0000 </r>
       <r>    0.7946    1.0000 </r>
       <r>    1.0774    1.0000 </r>
       <r>    1.1636    1.0000 </r>
       <r>    1.2776    1.0000 </r>
       <r>    1.6136    1.0000 </r>
       <r>    1.6487    1.0000 </r>
       <r>    2.2336    1.0000 </r>
       <r>    2.3021    1.0000 </r>
       <r>    2.5278    1.0000 </r>
       <r>    2.6360    1.0000 </r>
       <r>    4.5349    1.0000 </r>
       <r>    6.4110    0.9250 </r>
       <r>    6.5131    0.0738 </r>
       <r>    6.9922    0.0000 </r>
       <r>    7.9517    0.0000 </r>
       <r>    9.3207    0.0000 </r>
       <r>   10.3093    0.0000 </r>
       <r>   11.2762    0.0000 </r>
       <r>   12.4872    0.0000 </r>
       <r>   12.4964    0.0000 </r>
       <r>   12.8692    0.0000 </r>
       <r>   13.2064    0.0000 </r>
       <r>   13.6945    0.0000 </r>
       <r>   13.8186    0.0000 </r>
       <r>   13.9302    0.0000 </r>
       <r>   14.1703    0.0000 </r>
       <r>   14.2240    0.0000 </r>
       <r>   14.6601    0.0000 </r>
       <r>   14.8627    0.0000 </r>
       <r>   15.6979    0.0000 </r>
      </set>
     </set>
    </set>
   </array>
  </eigenvalues>
  <separator name="orbital magnetization" >
   <v name="MAGDIPOLOUT">      0.00000000      0.00000000      0.00000000</v>
  </separator>
  <dos>
   <i name="efermi">      6.46193355 </i>
   <total>
    <array>
     <dimension dim="1">gridpoints</dimension>
     <dimension dim="2">spin</dimension>
     <field>energy</field>
     <field>total</field>
     <field>integrated</field>
     <set>
      <set comment="spin 1">
       <r>   -16.5465     0.0000     0.0000 </r>
       <r>   -16.4303     0.0000     0.0000 </r>
       <r>   -16.3141     0.0000     0.0000 </r>
       <r>   -16.1979     0.0000     0.0000 </r>
       <r>   -16.0817     0.0000     0.0000 </r>
       <r>   -15.9656     0.0000     0.0000 </r>
       <r>   -15.8494     0.0000     0.0000 </r>
       <r>   -15.7332     0.0000     0.0000 </r>
       <r>   -15.6170     0.0000     0.0000 </r>
       <r>   -15.5008     0.0000     0.0000 </r>
       <r>   -15.3846     0.0000     0.0000 </r>
       <r>   -15.2685     0.0000     0.0000 </r>
       <r>   -15.1523     0.0000     0.0000 </r>
       <r>   -15.0361     0.0368     0.0043 </r>
       <r>   -14.9199     5.4674     0.6395 </r>
       <r>   -14.8037     3.1008     0.9998 </r>
       <r>   -14.6875     0.0020     1.0000 </r>
       <r>   -14.5714     0.0000     1.0000 </r>
       <r>   -14.4552     0.0000     1.0000 </r>
       <r>   -14.3390     0.0000     1.0000 </r>
       <r>   -14.2228     0.0000     1.0000 </r>
       <r>   -14.1066     0.0000     1.0000 </r>
       <r>   -13.9904     0.0000     1.0000 </r>
       <r>   -13.8743     0.0000     1.0000 </r>
       <r>   -13.7581     0.0000     1.0000 </r>
       <r>   -13.6419     0.0000     1.0000 </r>
       <r>   -13.5257     0.0000     1.0000 </r>
       <r>   -13.4095     0.0539     1.0063 </r>
       <r>   -13.2933     1.9911     1.2376 </r>
       <r>   -13.1772     5.4926     1.8757 </r>
       <r>   -13.0610     1.1178     2.0056 </r>
       <r>   -12.9448     2.6567     2.3143 </r>
       <r>   -12.8286     4.4470     2.8310 </r>
       <r>   -12.7124     8.7975     3.8531 </r>
       <r>   -12.5962    11.3023     5.1662 </r>
       <r>   -12.4801     4.7667     5.7200 </r>
       <r>   -12.3639     2.4000     5.9989 </r>
       <r>   -12.2477     0.0098     6.0000 </r>
       <r>   -12.1315     0.0000     6.0000 </r>
       <r>   -12.0153     0.0000     6.0000 </r>
       <r>   -11.8991     0.0000     6.0000 </r>
       <r>   -11.7830     0.0000     6.0000 </r>
       <r>   -11.6668     0.0000     6.0000 </r>
       <r>   -11.5506     0.0000     6.0000 </r>
       <r>   -11.4344     0.0000     6.0000 </r>
       <r>   -11.3182     0.0000     6.0000 </r>
       <r>   -11.2020     0.0000     6.0000 </r>
       <r>   -11.0859     0.0000     6.0000 </r>
       <r>   -10.9697     0.0000     6.0000 </r>
       <r>   -10.8535     0.0000     6.0000 </r>
       <r>   -10.7373     0.0000     6.0000 </r>
       <r>   -10.6211     0.0000     6.0000 </r>
       <r>   -10.5049     0.0000     6.0000 </r>
       <r>   -10.3888     0.0000     6.0000 </r>
       <r>   -10.2726     0.0000     6.0000 </r>
       <r>   -10.1564     0.0000     6.0000 </r>
       <r>   -10.0402     0.0000     6.0000 </r>
       <r>    -9.9240     0.0000     6.0000 </r>
       <r>    -9.8078     0.0000     6.0000 </r>
       <r>    -9.6917     0.0000     6.0000 </r>
       <r>    -9.5755     0.0000     6.0000 </r>
       <r>    -9.4593     0.0000     6.0000 </r>
       <r>    -9.3431     0.0000     6.0000 </r>
       <r>    -9.2269     0.0000     6.0000 </r>
       <r>    -9.1107     0.0000     6.0000 </r>
       <r>    -8.9946     0.0000     6.0000 </r>
       <r>    -8.8784     0.0000     6.0000 </r>
       <r>    -8.7622     0.0000     6.0000 </r>
       <r>    -8.6460     0.0000     6.0000 </r>
       <r>    -8.5298     0.0000     6.0000 </r>
       <r>    -8.4136     0.0000     6.0000 </r>
       <r>    -8.2975     0.0000     6.0000 </r>
       <r>    -8.1813     0.0000     6.0000 </r>
       <r>    -8.0651     0.0000     6.0000 </r>
       <r>    -7.9489     0.0000     6.0000 </r>
       <r>    -7.8327     0.0000     6.0000 </r>
       <r>    -7.7165     0.0000     6.0000 </r>
       <r>    -7.6004     0.0000     6.0000 </r>
       <r>    -7.4842     0.0000     6.0000 </r>
       <r>    -7.3680     0.0000     6.0000 </r>
       <r>    -7.2518     0.0000     6.0000 </r>
       <r>    -7.1356     0.0000     6.0000 </r>
       <r>    -7.0194     0.0000     6.0000 </r>
       <r>    -6.9033     0.0000     6.0000 </r>
       <r>    -6.7871     0.0000     6.0000 </r>
       <r>    -6.6709     0.0000     6.0000 </r>
       <r>    -6.5547     0.0000     6.0000 </r>
       <r>    -6.4385     0.0000     6.0000 </r>
       <r>    -6.3223     0.0000     6.0000 </r>
       <r>    -6.2062     0.0000     6.0000 </r>
       <r>    -6.0900     0.0000     6.0000 </r>
       <r>    -5.9738     0.0000     6.0000 </r>
       <r>    -5.8576     0.0000     6.0000 </r>
       <r>    -5.7414     0.0000     6.0000 </r>
       <r>    -5.6252     0.0000     6.0000 </r>
       <r>    -5.5091     0.0000     6.0000 </r>
       <r>    -5.3929     0.0000     6.0000 </r>
       <r>    -5.2767     0.0000     6.0000 </r>
       <r>    -5.1605     0.0000     6.0000 </r>
       <r>    -5.0443     0.0000     6.0000 </r>
       <r>    -4.9281     0.0000     6.0000 </r>
       <r>    -4.8120     0.0000     6.0000 </r>
       <r>    -4.6958     0.0000     6.0000 </r>
       <r>    -4.5796     0.0000     6.0000 </r>
       <r>    -4.4634     0.0000     6.0000 </r>
       <r>    -4.3472     0.0000     6.0000 </r>
       <r>    -4.2310     0.0000     6.0000 </r>
       <r>    -4.1149     0.0000     6.0000 </r>
       <r>    -3.9987     0.0000     6.0000 </r>
       <r>    -3.8825     0.0000     6.0000 </r>
       <r>    -3.7663     0.0000     6.0000 </r>
       <r>    -3.6501     0.0000     6.0000 </r>
       <r>    -3.5339     0.0000     6.0000 </r>
       <r>    -3.4178     0.0000     6.0000 </r>
       <r>    -3.3016     0.0000     6.0000 </r>
       <r>    -3.1854     0.0000     6.0000 </r>
       <r>    -3.0692     0.0000     6.0000 </r>
       <r>    -2.9530     0.0000     6.0000 </r>
       <r>    -2.8368     0.0000     6.0000 </r>
       <r>    -2.7207     0.0000     6.0000 </r>
       <r>    -2.6045     0.0000     6.0000 </r>
       <r>    -2.4883     0.0000     6.0000 </r>
       <r>    -2.3721     0.0000     6.0000 </r>
       <r>    -2.2559     0.0000     6.0000 </r>
       <r>    -2.1397     0.0000     6.0000 </r>
       <r>    -2.0236     0.0000     6.0000 </r>
       <r>    -1.9074     0.0015     6.0002 </r>
       <r>    -1.7912     0.9646     6.1122 </r>
       <r>    -1.6750     2.2455     6.3731 </r>
       <r>    -1.5588     2.3375     6.6447 </r>
       <r>    -1.4426     3.7684     7.0825 </r>
       <r>    -1.3265     6.7786     7.8701 </r>
       <r>    -1.2103     4.4650     8.3889 </r>
       <r>    -1.0941     1.7231     8.5891 </r>
       <r>    -0.9779     2.8574     8.9210 </r>
       <r>    -0.8617     1.9508     9.1477 </r>
       <r>    -0.7455     3.5290     9.5577 </r>
       <r>    -0.6294     3.1522     9.9239 </r>
       <r>    -0.5132     1.2659    10.0710 </r>
       <r>    -0.3970     0.4941    10.1284 </r>
       <r>    -0.2808     3.7883    10.5685 </r>
       <r>    -0.1646     2.7884    10.8925 </r>
       <r>    -0.0484     3.9363    11.3498 </r>
       <r>     0.0677     1.7050    11.5479 </r>
       <r>     0.1839     2.8908    11.8838 </r>
       <r>     0.3001     3.6905    12.3126 </r>
       <r>     0.4163     2.7297    12.6297 </r>
       <r>     0.5325     4.7419    13.1807 </r>
       <r>     0.6487     2.9294    13.5210 </r>
       <r>     0.7648     4.5347    14.0479 </r>
       <r>     0.8810     4.8744    14.6142 </r>
       <r>     0.9972     2.8560    14.9460 </r>
       <r>     1.1134     6.3258    15.6809 </r>
       <r>     1.2296     6.0503    16.3839 </r>
       <r>     1.3458     6.1610    17.0997 </r>
       <r>     1.4619     4.7327    17.6496 </r>
       <r>     1.5781     5.4692    18.2850 </r>
       <r>     1.6943    10.1305    19.4620 </r>
       <r>     1.8105     2.6276    19.7673 </r>
       <r>     1.9267     3.6397    20.1901 </r>
       <r>     2.0429     2.3782    20.4665 </r>
       <r>     2.1590     4.3797    20.9753 </r>
       <r>     2.2752     3.2649    21.3546 </r>
       <r>     2.3914     6.8341    22.1486 </r>
       <r>     2.5076     3.6259    22.5699 </r>
       <r>     2.6238     8.3131    23.5357 </r>
       <r>     2.7400     3.8992    23.9888 </r>
       <r>     2.8561     0.0967    24.0000 </r>
       <r>     2.9723     0.1167    24.0136 </r>
       <r>     3.0885     0.9524    24.1242 </r>
       <r>     3.2047     0.9330    24.2326 </r>
       <r>     3.3209     0.1497    24.2500 </r>
       <r>     3.4371     0.0000    24.2500 </r>
       <r>     3.5532     0.0000    24.2500 </r>
       <r>     3.6694     0.0000    24.2500 </r>
       <r>     3.7856     0.0000    24.2500 </r>
       <r>     3.9018     0.0000    24.2500 </r>
       <r>     4.0180     0.1710    24.2699 </r>
       <r>     4.1342     1.9158    24.4924 </r>
       <r>     4.2503     0.0838    24.5022 </r>
       <r>     4.3665     2.2202    24.7601 </r>
       <r>     4.4827     1.0640    24.8838 </r>
       <r>     4.5989     0.9633    24.9957 </r>
       <r>     4.7151     0.0373    25.0000 </r>
       <r>     4.8313     0.0000    25.0000 </r>
       <r>     4.9474     0.0000    25.0000 </r>
       <r>     5.0636     0.2661    25.0309 </r>
       <r>     5.1798     1.5339    25.2091 </r>
       <r>     5.2960     2.1598    25.4601 </r>
       <r>     5.4122     0.3436    25.5000 </r>
       <r>     5.5284     0.0007    25.5001 </r>
       <r>     5.6445     1.1346    25.6319 </r>
       <r>     5.7607     2.0820    25.8738 </r>
       <r>     5.8769     0.0105    25.8750 </r>
       <r>     5.9931     0.0000    25.8750 </r>
       <r>     6.1093     0.0000    25.8750 </r>
       <r>     6.2255     0.0000    25.8750 </r>
       <r>     6.3417     0.0280    25.8783 </r>
       <r>     6.4578     1.0146    25.9961 </r>
       <r>     6.5740     1.0632    26.1197 </r>
       <r>     6.6902     0.0460    26.1250 </r>
       <r>     6.8064     0.0000    26.1250 </r>
       <r>     6.9226     0.0263    26.1281 </r>
       <r>     7.0388     0.9875    26.2428 </r>
       <r>     7.1549     1.9631    26.4709 </r>
       <r>     7.2711     0.3159    26.5076 </r>
       <r>     7.3873     1.7633    26.7124 </r>
       <r>     7.5035     0.3233    26.7500 </r>
       <r>     7.6197     0.0000    26.7500 </r>
       <r>     7.7359     0.0001    26.7500 </r>
       <r>     7.8520     0.3573    26.7915 </r>
       <r>     7.9682     2.9780    27.1375 </r>
       <r>     8.0844     5.1312    27.7337 </r>
       <r>     8.2006     2.1812    27.9871 </r>
       <r>     8.3168     0.5357    28.0493 </r>
       <r>     8.4330     0.7966    28.1419 </r>
       <r>     8.5491     1.9285    28.3660 </r>
       <r>     8.6653     0.0779    28.3750 </r>
       <r>     8.7815     0.0000    28.3750 </r>
       <r>     8.8977     0.0030    28.3754 </r>
       <r>     9.0139     0.8374    28.4726 </r>
       <r>     9.1301     3.5680    28.8872 </r>
       <r>     9.2462     2.1561    29.1377 </r>
       <r>     9.3624     1.9132    29.3600 </r>
       <r>     9.4786     0.1293    29.3750 </r>
       <r>     9.5948     0.1456    29.3919 </r>
       <r>     9.7110     0.9148    29.4982 </r>
       <r>     9.8272     0.3643    29.5405 </r>
       <r>     9.9433     1.2619    29.6871 </r>
       <r>    10.0595     1.7640    29.8921 </r>
       <r>    10.1757     3.5207    30.3011 </r>
       <r>    10.2919     1.5908    30.4860 </r>
       <r>    10.4081     3.7915    30.9265 </r>
       <r>    10.5243     0.6486    31.0018 </r>
       <r>    10.6404     0.9182    31.1085 </r>
       <r>    10.7566     0.5984    31.1780 </r>
       <r>    10.8728     1.6815    31.3734 </r>
       <r>    10.9890     0.0149    31.3751 </r>
       <r>    11.1052     0.6224    31.4474 </r>
       <r>    11.2214     2.1064    31.6922 </r>
       <r>    11.3375     1.5866    31.8765 </r>
       <r>    11.4537     2.7592    32.1971 </r>
       <r>    11.5699     3.1405    32.5620 </r>
       <r>    11.6861     2.0057    32.7950 </r>
       <r>    11.8023     0.8254    32.8909 </r>
       <r>    11.9185     2.2461    33.1518 </r>
       <r>    12.0346     2.4410    33.4354 </r>
       <r>    12.1508     4.6697    33.9780 </r>
       <r>    12.2670     0.2390    34.0058 </r>
       <r>    12.3832     1.0114    34.1233 </r>
       <r>    12.4994     3.6527    34.5476 </r>
       <r>    12.6156     5.5265    35.1897 </r>
       <r>    12.7317     2.6498    35.4976 </r>
       <r>    12.8479     2.4902    35.7869 </r>
       <r>    12.9641     5.3579    36.4094 </r>
       <r>    13.0803     2.9046    36.7469 </r>
       <r>    13.1965     1.4973    36.9208 </r>
       <r>    13.3127     3.9455    37.3792 </r>
       <r>    13.4288     1.7188    37.5789 </r>
       <r>    13.5450     3.2665    37.9585 </r>
       <r>    13.6612     1.6329    38.1482 </r>
       <r>    13.7774     2.6475    38.4558 </r>
       <r>    13.8936     5.7156    39.1198 </r>
       <r>    14.0098     1.5421    39.2990 </r>
       <r>    14.1259     2.3643    39.5737 </r>
       <r>    14.2421     4.3833    40.0830 </r>
       <r>    14.3583     0.8328    40.1797 </r>
       <r>    14.4745     2.7722    40.5018 </r>
       <r>    14.5907     2.4513    40.7866 </r>
       <r>    14.7069     3.8745    41.2367 </r>
       <r>    14.8230     0.2555    41.2664 </r>
       <r>    14.9392     1.8759    41.4844 </r>
       <r>    15.0554     4.8235    42.0448 </r>
       <r>    15.1716     3.6710    42.4713 </r>
       <r>    15.2878     0.2504    42.5004 </r>
       <r>    15.4040     1.4391    42.6676 </r>
       <r>    15.5201     3.2653    43.0470 </r>
       <r>    15.6363     2.7052    43.3613 </r>
       <r>    15.7525     2.2028    43.6172 </r>
       <r>    15.8687     0.0673    43.6250 </r>
       <r>    15.9849     0.0000    43.6250 </r>
       <r>    16.1011     0.0000    43.6250 </r>
       <r>    16.2172     0.0000    43.6250 </r>
       <r>    16.3334     0.0289    43.6284 </r>
       <r>    16.4496     0.9529    43.7391 </r>
       <r>    16.5658     0.1876    43.7609 </r>
       <r>    16.6820     1.0782    43.8861 </r>
       <r>    16.7982     0.9605    43.9977 </r>
       <r>    16.9143     0.0196    44.0000 </r>
       <r>    17.0305     0.0000    44.0000 </r>
       <r>    17.1467     0.0000    44.0000 </r>
       <r>    17.2629     0.0000    44.0000 </r>
       <r>    17.3791     0.0000    44.0000 </r>
       <r>    17.4953     0.0000    44.0000 </r>
       <r>    17.6114     0.0000    44.0000 </r>
       <r>    17.7276     0.0000    44.0000 </r>
       <r>    17.8438     0.0000    44.0000 </r>
       <r>    17.9600     0.0000    44.0000 </r>
       <r>    18.0762     0.0000    44.0000 </r>
       <r>    18.1924     0.0000    44.0000 </r>
       <r>    18.3085     0.0000    44.0000 </r>
      </set>
      <set comment="spin 2">
       <r>   -16.5465     0.0000     0.0000 </r>
       <r>   -16.4303     0.0000     0.0000 </r>
       <r>   -16.3141     0.0000     0.0000 </r>
       <r>   -16.1979     0.0000     0.0000 </r>
       <r>   -16.0817     0.0000     0.0000 </r>
       <r>   -15.9656     0.0000     0.0000 </r>
       <r>   -15.8494     0.0000     0.0000 </r>
       <r>   -15.7332     0.0000     0.0000 </r>
       <r>   -15.6170     0.0000     0.0000 </r>
       <r>   -15.5008     0.0000     0.0000 </r>
       <r>   -15.3846     0.0000     0.0000 </r>
       <r>   -15.2685     0.0000     0.0000 </r>
       <r>   -15.1523     0.0000     0.0000 </r>
       <r>   -15.0361     0.0368     0.0043 </r>
       <r>   -14.9199     5.4672     0.6395 </r>
       <r>   -14.8037     3.1011     0.9998 </r>
       <r>   -14.6875     0.0020     1.0000 </r>
       <r>   -14.5714     0.0000     1.0000 </r>
       <r>   -14.4552     0.0000     1.0000 </r>
       <r>   -14.3390     0.0000     1.0000 </r>
       <r>   -14.2228     0.0000     1.0000 </r>
       <r>   -14.1066     0.0000     1.0000 </r>
       <r>   -13.9904     0.0000     1.0000 </r>
       <r>   -13.8743     0.0000     1.0000 </r>
       <r>   -13.7581     0.0000     1.0000 </r>
       <r>   -13.6419     0.0000     1.0000 </r>
       <r>   -13.5257     0.0000     1.0000 </r>
       <r>   -13.4095     0.0537     1.0062 </r>
       <r>   -13.2933     1.9901     1.2375 </r>
       <r>   -13.1772     5.4914     1.8755 </r>
       <r>   -13.0610     1.1201     2.0056 </r>
       <r>   -12.9448     2.6541     2.3140 </r>
       <r>   -12.8286     4.4477     2.8307 </r>
       <r>   -12.7124     8.7912     3.8521 </r>
       <r>   -12.5962    11.3049     5.1655 </r>
       <r>   -12.4801     4.7692     5.7196 </r>
       <r>   -12.3639     2.4032     5.9989 </r>
       <r>   -12.2477     0.0098     6.0000 </r>
       <r>   -12.1315     0.0000     6.0000 </r>
       <r>   -12.0153     0.0000     6.0000 </r>
       <r>   -11.8991     0.0000     6.0000 </r>
       <r>   -11.7830     0.0000     6.0000 </r>
       <r>   -11.6668     0.0000     6.0000 </r>
       <r>   -11.5506     0.0000     6.0000 </r>
       <r>   -11.4344     0.0000     6.0000 </r>
       <r>   -11.3182     0.0000     6.0000 </r>
       <r>   -11.2020     0.0000     6.0000 </r>
       <r>   -11.0859     0.0000     6.0000 </r>
       <r>   -10.9697     0.0000     6.0000 </r>
       <r>   -10.8535     0.0000     6.0000 </r>
       <r>   -10.7373     0.0000     6.0000 </r>
       <r>   -10.6211     0.0000     6.0000 </r>
       <r>   -10.5049     0.0000     6.0000 </r>
       <r>   -10.3888     0.0000     6.0000 </r>
       <r>   -10.2726     0.0000     6.0000 </r>
       <r>   -10.1564     0.0000     6.0000 </r>
       <r>   -10.0402     0.0000     6.0000 </r>
       <r>    -9.9240     0.0000     6.0000 </r>
       <r>    -9.8078     0.0000     6.0000 </r>
       <r>    -9.6917     0.0000     6.0000 </r>
       <r>    -9.5755     0.0000     6.0000 </r>
       <r>    -9.4593     0.0000     6.0000 </r>
       <r>    -9.3431     0.0000     6.0000 </r>
       <r>    -9.2269     0.0000     6.0000 </r>
       <r>    -9.1107     0.0000     6.0000 </r>
       <r>    -8.9946     0.0000     6.0000 </r>
       <r>    -8.8784     0.0000     6.0000 </r>
       <r>    -8.7622     0.0000     6.0000 </r>
       <r>    -8.6460     0.0000     6.0000 </r>
       <r>    -8.5298     0.0000     6.0000 </r>
       <r>    -8.4136     0.0000     6.0000 </r>
       <r>    -8.2975     0.0000     6.0000 </r>
       <r>    -8.1813     0.0000     6.0000 </r>
       <r>    -8.0651     0.0000     6.0000 </r>
       <r>    -7.9489     0.0000     6.0000 </r>
       <r>    -7.8327     0.0000     6.0000 </r>
       <r>    -7.7165     0.0000     6.0000 </r>
       <r>    -7.6004     0.0000     6.0000 </r>
       <r>    -7.4842     0.0000     6.0000 </r>
       <r>    -7.3680     0.0000     6.0000 </r>
       <r>    -7.2518     0.0000     6.0000 </r>
       <r>    -7.1356     0.0000     6.0000 </r>
       <r>    -7.0194     0.0000     6.0000 </r>
       <r>    -6.9033     0.0000     6.0000 </r>
       <r>    -6.7871     0.0000     6.0000 </r>
       <r>    -6.6709     0.0000     6.0000 </r>
       <r>    -6.5547     0.0000     6.0000 </r>
       <r>    -6.4385     0.0000     6.0000 </r>
       <r>    -6.3223     0.0000     6.0000 </r>
       <r>    -6.2062     0.0000     6.0000 </r>
       <r>    -6.0900     0.0000     6.0000 </r>
       <r>    -5.9738     0.0000     6.0000 </r>
       <r>    -5.8576     0.0000     6.0000 </r>
       <r>    -5.7414     0.0000     6.0000 </r>
       <r>    -5.6252     0.0000     6.0000 </r>
       <r>    -5.5091     0.0000     6.0000 </r>
       <r>    -5.3929     0.0000     6.0000 </r>
       <r>    -5.2767     0.0000     6.0000 </r>
       <r>    -5.1605     0.0000     6.0000 </r>
       <r>    -5.0443     0.0000     6.0000 </r>
       <r>    -4.9281     0.0000     6.0000 </r>
       <r>    -4.8120     0.0000     6.0000 </r>
       <r>    -4.6958     0.0000     6.0000 </r>
       <r>    -4.5796     0.0000     6.0000 </r>
       <r>    -4.4634     0.0000     6.0000 </r>
       <r>    -4.3472     0.0000     6.0000 </r>
       <r>    -4.2310     0.0000     6.0000 </r>
       <r>    -4.1149     0.0000     6.0000 </r>
       <r>    -3.9987     0.0000     6.0000 </r>
       <r>    -3.8825     0.0000     6.0000 </r>
       <r>    -3.7663     0.0000     6.0000 </r>
       <r>    -3.6501     0.0000     6.0000 </r>
       <r>    -3.5339     0.0000     6.0000 </r>
       <r>    -3.4178     0.0000     6.0000 </r>
       <r>    -3.3016     0.0000     6.0000 </r>
       <r>    -3.1854     0.0000     6.0000 </r>
       <r>    -3.0692     0.0000     6.0000 </r>
       <r>    -2.9530     0.0000     6.0000 </r>
       <r>    -2.8368     0.0000     6.0000 </r>
       <r>    -2.7207     0.0000     6.0000 </r>
       <r>    -2.6045     0.0000     6.0000 </r>
       <r>    -2.4883     0.0000     6.0000 </r>
       <r>    -2.3721     0.0000     6.0000 </r>
       <r>    -2.2559     0.0000     6.0000 </r>
       <r>    -2.1397     0.0000     6.0000 </r>
       <r>    -2.0236     0.0000     6.0000 </r>
       <r>    -1.9074     0.0015     6.0002 </r>
       <r>    -1.7912     0.9650     6.1123 </r>
       <r>    -1.6750     2.2451     6.3731 </r>
       <r>    -1.5588     2.3378     6.6447 </r>
       <r>    -1.4426     3.7687     7.0826 </r>
       <r>    -1.3265     6.7785     7.8702 </r>
       <r>    -1.2103     4.4644     8.3888 </r>
       <r>    -1.0941     1.7228     8.5890 </r>
       <r>    -0.9779     2.8580     8.9211 </r>
       <r>    -0.8617     1.9504     9.1477 </r>
       <r>    -0.7455     3.5293     9.5577 </r>
       <r>    -0.6294     3.1516     9.9239 </r>
       <r>    -0.5132     1.2664    10.0710 </r>
       <r>    -0.3970     0.4941    10.1284 </r>
       <r>    -0.2808     3.7872    10.5684 </r>
       <r>    -0.1646     2.7892    10.8925 </r>
       <r>    -0.0484     3.9359    11.3498 </r>
       <r>     0.0677     1.7041    11.5478 </r>
       <r>     0.1839     2.8912    11.8837 </r>
       <r>     0.3001     3.6909    12.3125 </r>
       <r>     0.4163     2.7296    12.6296 </r>
       <r>     0.5325     4.7410    13.1804 </r>
       <r>     0.6487     2.9300    13.5209 </r>
       <r>     0.7648     4.5334    14.0476 </r>
       <r>     0.8810     4.8757    14.6140 </r>
       <r>     0.9972     2.8550    14.9457 </r>
       <r>     1.1134     6.3265    15.6808 </r>
       <r>     1.2296     6.0495    16.3836 </r>
       <r>     1.3458     6.1604    17.0994 </r>
       <r>     1.4619     4.7342    17.6494 </r>
       <r>     1.5781     5.4653    18.2844 </r>
       <r>     1.6943    10.1333    19.4617 </r>
       <r>     1.8105     2.6289    19.7671 </r>
       <r>     1.9267     3.6381    20.1898 </r>
       <r>     2.0429     2.3796    20.4663 </r>
       <r>     2.1590     4.3800    20.9752 </r>
       <r>     2.2752     3.2628    21.3543 </r>
       <r>     2.3914     6.8353    22.1484 </r>
       <r>     2.5076     3.6247    22.5695 </r>
       <r>     2.6238     8.3117    23.5352 </r>
       <r>     2.7400     3.9034    23.9887 </r>
       <r>     2.8561     0.0970    24.0000 </r>
       <r>     2.9723     0.1155    24.0134 </r>
       <r>     3.0885     0.9531    24.1242 </r>
       <r>     3.2047     0.9323    24.2325 </r>
       <r>     3.3209     0.1508    24.2500 </r>
       <r>     3.4371     0.0000    24.2500 </r>
       <r>     3.5532     0.0000    24.2500 </r>
       <r>     3.6694     0.0000    24.2500 </r>
       <r>     3.7856     0.0000    24.2500 </r>
       <r>     3.9018     0.0000    24.2500 </r>
       <r>     4.0180     0.1687    24.2696 </r>
       <r>     4.1342     1.9170    24.4923 </r>
       <r>     4.2503     0.0846    24.5021 </r>
       <r>     4.3665     2.2137    24.7593 </r>
       <r>     4.4827     1.0699    24.8836 </r>
       <r>     4.5989     0.9637    24.9956 </r>
       <r>     4.7151     0.0378    25.0000 </r>
       <r>     4.8313     0.0000    25.0000 </r>
       <r>     4.9474     0.0000    25.0000 </r>
       <r>     5.0636     0.2628    25.0305 </r>
       <r>     5.1798     1.5316    25.2085 </r>
       <r>     5.2960     2.1650    25.4600 </r>
       <r>     5.4122     0.3440    25.5000 </r>
       <r>     5.5284     0.0007    25.5001 </r>
       <r>     5.6445     1.1295    25.6313 </r>
       <r>     5.7607     2.0871    25.8738 </r>
       <r>     5.8769     0.0104    25.8750 </r>
       <r>     5.9931     0.0000    25.8750 </r>
       <r>     6.1093     0.0000    25.8750 </r>
       <r>     6.2255     0.0000    25.8750 </r>
       <r>     6.3417     0.0267    25.8781 </r>
       <r>     6.4578     1.0126    25.9958 </r>
       <r>     6.5740     1.0667    26.1197 </r>
       <r>     6.6902     0.0457    26.1250 </r>
       <r>     6.8064     0.0000    26.1250 </r>
       <r>     6.9226     0.0264    26.1281 </r>
       <r>     7.0388     0.9879    26.2428 </r>
       <r>     7.1549     1.9638    26.4710 </r>
       <r>     7.2711     0.3123    26.5073 </r>
       <r>     7.3873     1.7638    26.7122 </r>
       <r>     7.5035     0.3253    26.7500 </r>
       <r>     7.6197     0.0000    26.7500 </r>
       <r>     7.7359     0.0001    26.7500 </r>
       <r>     7.8520     0.3564    26.7914 </r>
       <r>     7.9682     2.9765    27.1372 </r>
       <r>     8.0844     5.1315    27.7334 </r>
       <r>     8.2006     2.1837    27.9871 </r>
       <r>     8.3168     0.5359    28.0494 </r>
       <r>     8.4330     0.7959    28.1419 </r>
       <r>     8.5491     1.9286    28.3659 </r>
       <r>     8.6653     0.0779    28.3750 </r>
       <r>     8.7815     0.0000    28.3750 </r>
       <r>     8.8977     0.0030    28.3753 </r>
       <r>     9.0139     0.8368    28.4726 </r>
       <r>     9.1301     3.5704    28.8874 </r>
       <r>     9.2462     2.1521    29.1374 </r>
       <r>     9.3624     1.9164    29.3601 </r>
       <r>     9.4786     0.1285    29.3750 </r>
       <r>     9.5948     0.1462    29.3920 </r>
       <r>     9.7110     0.9144    29.4982 </r>
       <r>     9.8272     0.3634    29.5404 </r>
       <r>     9.9433     1.2594    29.6868 </r>
       <r>    10.0595     1.7667    29.8920 </r>
       <r>    10.1757     3.5218    30.3012 </r>
       <r>    10.2919     1.5906    30.4860 </r>
       <r>    10.4081     3.7917    30.9265 </r>
       <r>    10.5243     0.6479    31.0018 </r>
       <r>    10.6404     0.9176    31.1084 </r>
       <r>    10.7566     0.5931    31.1773 </r>
       <r>    10.8728     1.6871    31.3733 </r>
       <r>    10.9890     0.0152    31.3751 </r>
       <r>    11.1052     0.6231    31.4475 </r>
       <r>    11.2214     2.1044    31.6920 </r>
       <r>    11.3375     1.5881    31.8765 </r>
       <r>    11.4537     2.7599    32.1972 </r>
       <r>    11.5699     3.1412    32.5621 </r>
       <r>    11.6861     2.0024    32.7948 </r>
       <r>    11.8023     0.8275    32.8909 </r>
       <r>    11.9185     2.2451    33.1518 </r>
       <r>    12.0346     2.4403    33.4353 </r>
       <r>    12.1508     4.6693    33.9778 </r>
       <r>    12.2670     0.2412    34.0058 </r>
       <r>    12.3832     1.0114    34.1233 </r>
       <r>    12.4994     3.6522    34.5476 </r>
       <r>    12.6156     5.5282    35.1899 </r>
       <r>    12.7317     2.6481    35.4976 </r>
       <r>    12.8479     2.4850    35.7863 </r>
       <r>    12.9641     5.3637    36.4095 </r>
       <r>    13.0803     2.9041    36.7469 </r>
       <r>    13.1965     1.4983    36.9210 </r>
       <r>    13.3127     3.9437    37.3791 </r>
       <r>    13.4288     1.7197    37.5789 </r>
       <r>    13.5450     3.2675    37.9586 </r>
       <r>    13.6612     1.6327    38.1483 </r>
       <r>    13.7774     2.6422    38.4552 </r>
       <r>    13.8936     5.7194    39.1197 </r>
       <r>    14.0098     1.5410    39.2988 </r>
       <r>    14.1259     2.3636    39.5734 </r>
       <r>    14.2421     4.3852    40.0829 </r>
       <r>    14.3583     0.8326    40.1796 </r>
       <r>    14.4745     2.7727    40.5018 </r>
       <r>    14.5907     2.4510    40.7865 </r>
       <r>    14.7069     3.8748    41.2367 </r>
       <r>    14.8230     0.2557    41.2664 </r>
       <r>    14.9392     1.8755    41.4843 </r>
       <r>    15.0554     4.8232    42.0447 </r>
       <r>    15.1716     3.6719    42.4713 </r>
       <r>    15.2878     0.2500    42.5004 </r>
       <r>    15.4040     1.4383    42.6675 </r>
       <r>    15.5201     3.2654    43.0469 </r>
       <r>    15.6363     2.7060    43.3613 </r>
       <r>    15.7525     2.2029    43.6172 </r>
       <r>    15.8687     0.0672    43.6250 </r>
       <r>    15.9849     0.0000    43.6250 </r>
       <r>    16.1011     0.0000    43.6250 </r>
       <r>    16.2172     0.0000    43.6250 </r>
       <r>    16.3334     0.0285    43.6283 </r>
       <r>    16.4496     0.9523    43.7390 </r>
       <r>    16.5658     0.1560    43.7571 </r>
       <r>    16.6820     1.0925    43.8840 </r>
       <r>    16.7982     0.9787    43.9977 </r>
       <r>    16.9143     0.0195    44.0000 </r>
       <r>    17.0305     0.0000    44.0000 </r>
       <r>    17.1467     0.0000    44.0000 </r>
       <r>    17.2629     0.0000    44.0000 </r>
       <r>    17.3791     0.0000    44.0000 </r>
       <r>    17.4953     0.0000    44.0000 </r>
       <r>    17.6114     0.0000    44.0000 </r>
       <r>    17.7276     0.0000    44.0000 </r>
       <r>    17.8438     0.0000    44.0000 </r>
       <r>    17.9600     0.0000    44.0000 </r>
       <r>    18.0762     0.0000    44.0000 </r>
       <r>    18.1924     0.0000    44.0000 </r>
       <r>    18.3085     0.0000    44.0000 </r>
      </set>
     </set>
    </array>
   </total>
   <partial>
    <array>
     <dimension dim="1">gridpoints</dimension>
     <dimension dim="2">spin</dimension>
     <dimension dim="3">ion</dimension>
     <field>energy</field>
     <field>  s</field>
     <field> py</field>
     <field> pz</field>
     <field> px</field>
     <field>dxy</field>
     <field>dyz</field>
     <field>dz2</field>
     <field>dxz</field>
     <field>dx2</field>
     <set>
      <set comment="ion 1">
       <set comment="spin 1">
        <r>   -16.5465     0.0000     0.0000     0.0000     0.0000     0.0000     0.0000     0.0000     0.0000     0.0000 </r>
        <r>   -16.4303     0.0000     0.0000     0.0000     0.0000     0.0000     0.0000     0.0000     0.0000     0.0000 </r>
        <r>   -16.3141     0.0000     0.0000     0.0000     0.0000     0.0000     0.0000     0.0000     0.0000     0.0000 </r>
        <r>   -16.1979     0.0000     0.0000     0.0000     0.0000     0.0000     0.0000     0.0000     0.0000     0.0000 </r>
        <r>   -16.0817     0.0000     0.0000     0.0000     0.0000     0.0000     0.0000     0.0000     0.0000     0.0000 </r>
        <r>   -15.9656     0.0000     0.0000     0.0000     0.0000     0.0000     0.0000     0.0000     0.0000     0.0000 </r>
        <r>   -15.8494     0.0000     0.0000     0.0000     0.0000     0.0000     0.0000     0.0000     0.0000     0.0000 </r>
        <r>   -15.7332     0.0000     0.0000     0.0000     0.0000     0.0000     0.0000     0.0000     0.0000     0.0000 </r>
        <r>   -15.6170     0.0000     0.0000     0.0000     0.0000     0.0000     0.0000     0.0000     0.0000     0.0000 </r>
        <r>   -15.5008     0.0000     0.0000     0.0000     0.0000     0.0000     0.0000     0.0000     0.0000     0.0000 </r>
        <r>   -15.3846     0.0000     0.0000     0.0000     0.0000     0.0000     0.0000     0.0000     0.0000     0.0000 </r>
        <r>   -15.2685     0.0000     0.0000     0.0000     0.0000     0.0000     0.0000     0.0000     0.0000     0.0000 </r>
        <r>   -15.1523     0.0000     0.0000     0.0000     0.0000     0.0000     0.0000     0.0000     0.0000     0.0000 </r>
        <r>   -15.0361     0.0000     0.0000     0.0000     0.0000     0.0000     0.0000     0.0000     0.0000     0.0000 </r>
        <r>   -14.9199     0.0006     0.0001     0.0001     0.0001     0.0000     0.0000     0.0000     0.0000     0.0000 </r>
        <r>   -14.8037     0.0002     0.0001     0.0000     0.0000     0.0000     0.0000     0.0000     0.0000     0.0000 </r>
        <r>   -14.6875     0.0000     0.0000     0.0000     0.0000     0.0000     0.0000     0.0000     0.0000     0.0000 </r>
        <r>   -14.5714     0.0000     0.0000     0.0000     0.0000     0.0000     0.0000     0.0000     0.0000     0.0000 </r>
        <r>   -14.4552     0.0000     0.0000     0.0000     0.0000     0.0000     0.0000     0.0000     0.0000     0.0000 </r>
        <r>   -14.3390     0.0000     0.0000     0.0000     0.0000     0.0000     0.0000     0.0000     0.0000     0.0000 </r>
        <r>   -14.2228     0.0000     0.0000     0.0000     0.0000     0.0000     0.0000     0.0000     0.0000     0.0000 </r>
        <r>   -14.1066     0.0000     0.0000     0.0000     0.0000     0.0000     0.0000     0.0000     0.0000     0.0000 </r>
        <r>   -13.9904     0.0000     0.0000     0.0000     0.0000     0.0000     0.0000     0.0000     0.0000     0.0000 </r>
        <r>   -13.8743     0.0000     0.0000     0.0000     0.0000     0.0000     0.0000     0.0000     0.0000     0.0000 </r>
        <r>   -13.7581     0.0000     0.0000     0.0000     0.0000     0.0000     0.0000     0.0000     0.0000     0.0000 </r>
        <r>   -13.6419     0.0000     0.0000     0.0000     0.0000     0.0000     0.0000     0.0000     0.0000     0.0000 </r>
        <r>   -13.5257     0.0000     0.0000     0.0000     0.0000     0.0000     0.0000     0.0000     0.0000     0.0000 </r>
        <r>   -13.4095     0.0003     0.0000     0.0000     0.0000     0.0000     0.0000     0.0000     0.0000     0.0000 </r>
        <r>   -13.2933     0.0092     0.0002     0.0011     0.0002     0.0000     0.0000     0.0001     0.0000     0.0000 </r>
        <r>   -13.1772     0.0206     0.0009     0.0039     0.0009     0.0000     0.0000     0.0005     0.0000     0.0003 </r>
        <r>   -13.0610     0.0041     0.0002     0.0008     0.0002     0.0000     0.0000     0.0001     0.0000     0.0001 </r>
[...]
        <r>  0.0089  0.0094  0.0040  0.0284  0.0000  0.0000  0.0000  0.0000  0.0000 </r>
        <r>  0.0089  0.0284  0.0040  0.0094  0.0000  0.0000  0.0000  0.0000  0.0000 </r>
        <r>  0.0020  0.0002  0.0022  0.0002  0.0000  0.0000  0.0000  0.0000  0.0000 </r>
        <r>  0.0029  0.0059  0.0127  0.0059  0.0000  0.0000  0.0000  0.0000  0.0000 </r>
       </set>
       <set comment="band 32">
        <r>  0.0011  0.0001  0.0088  0.0001  0.0006  0.0003  0.0005  0.0003  0.0000 </r>
        <r>  0.0095  0.0001  0.0029  0.0001  0.0016  0.0000  0.0008  0.0000  0.0000 </r>
        <r>  0.0119  0.0069  0.0002  0.0157  0.0042  0.0002  0.0001  0.0011  0.0002 </r>
        <r>  0.0119  0.0157  0.0002  0.0069  0.0042  0.0011  0.0001  0.0002  0.0002 </r>
        <r>  0.0119  0.0157  0.0002  0.0069  0.0042  0.0011  0.0001  0.0002  0.0002 </r>
        <r>  0.0119  0.0069  0.0002  0.0157  0.0042  0.0002  0.0001  0.0011  0.0002 </r>
        <r>  0.0095  0.0001  0.0029  0.0001  0.0016  0.0000  0.0008  0.0000  0.0000 </r>
        <r>  0.0011  0.0001  0.0088  0.0001  0.0006  0.0003  0.0005  0.0003  0.0000 </r>
        <r>  0.0010  0.0018  0.0004  0.0018  0.0008  0.0000  0.0005  0.0000  0.0000 </r>
        <r>  0.0014  0.0046  0.0065  0.0054  0.0000  0.0000  0.0000  0.0000  0.0000 </r>
        <r>  0.0014  0.0054  0.0065  0.0046  0.0000  0.0000  0.0000  0.0000  0.0000 </r>
        <r>  0.0012  0.0159  0.0173  0.0089  0.0000  0.0000  0.0000  0.0000  0.0000 </r>
        <r>  0.0012  0.0089  0.0173  0.0159  0.0000  0.0000  0.0000  0.0000  0.0000 </r>
        <r>  0.0414  0.0013  0.0069  0.0013  0.0000  0.0000  0.0000  0.0000  0.0000 </r>
        <r>  0.0351  0.0018  0.0046  0.0018  0.0000  0.0000  0.0000  0.0000  0.0000 </r>
       </set>
       <set comment="band 33">
        <r>  0.0000  0.0056  0.0000  0.0056  0.0000  0.0023  0.0000  0.0023  0.0003 </r>
        <r>  0.0000  0.0102  0.0000  0.0102  0.0000  0.0042  0.0000  0.0042  0.0005 </r>
        <r>  0.0096  0.0021  0.0071  0.0011  0.0002  0.0021  0.0017  0.0019  0.0002 </r>
        <r>  0.0096  0.0011  0.0070  0.0021  0.0002  0.0019  0.0017  0.0021  0.0002 </r>
        <r>  0.0096  0.0011  0.0070  0.0021  0.0002  0.0019  0.0017  0.0021  0.0002 </r>
        <r>  0.0096  0.0021  0.0071  0.0011  0.0002  0.0021  0.0017  0.0019  0.0002 </r>
        <r>  0.0000  0.0102  0.0000  0.0102  0.0000  0.0042  0.0000  0.0042  0.0005 </r>
        <r>  0.0000  0.0056  0.0000  0.0056  0.0000  0.0023  0.0000  0.0023  0.0003 </r>
        <r>  0.0000  0.0022  0.0000  0.0022  0.0000  0.0024  0.0000  0.0023  0.0063 </r>
        <r>  0.0117  0.0004  0.0007  0.0004  0.0000  0.0000  0.0000  0.0000  0.0000 </r>
        <r>  0.0117  0.0004  0.0007  0.0004  0.0000  0.0000  0.0000  0.0000  0.0000 </r>
        <r>  0.0122  0.0033  0.0280  0.0047  0.0000  0.0000  0.0000  0.0000  0.0000 </r>
        <r>  0.0121  0.0047  0.0280  0.0034  0.0000  0.0000  0.0000  0.0000  0.0000 </r>
        <r>  0.0000  0.0258  0.0000  0.0258  0.0000  0.0000  0.0000  0.0000  0.0000 </r>
        <r>  0.0000  0.0220  0.0000  0.0219  0.0000  0.0000  0.0000  0.0000  0.0000 </r>
       </set>
       <set comment="band 34">
        <r>  0.0070  0.0032  0.0030  0.0032  0.0020  0.0004  0.0011  0.0004  0.0000 </r>
        <r>  0.0249  0.0060  0.0025  0.0060  0.0018  0.0007  0.0018  0.0007  0.0000 </r>
        <r>  0.0005  0.0025  0.0030  0.0019  0.0072  0.0004  0.0009  0.0006  0.0002 </r>
        <r>  0.0005  0.0019  0.0030  0.0025  0.0072  0.0006  0.0009  0.0004  0.0002 </r>
        <r>  0.0005  0.0019  0.0030  0.0025  0.0072  0.0006  0.0009  0.0004  0.0002 </r>
        <r>  0.0005  0.0025  0.0030  0.0019  0.0072  0.0004  0.0009  0.0006  0.0002 </r>
        <r>  0.0249  0.0060  0.0025  0.0060  0.0018  0.0007  0.0018  0.0007  0.0000 </r>
        <r>  0.0070  0.0032  0.0030  0.0032  0.0020  0.0004  0.0011  0.0004  0.0000 </r>
        <r>  0.0013  0.0016  0.0029  0.0016  0.0104  0.0049  0.0101  0.0049  0.0000 </r>
        <r>  0.0004  0.0018  0.0096  0.0008  0.0000  0.0000  0.0000  0.0000  0.0000 </r>
        <r>  0.0004  0.0008  0.0096  0.0018  0.0000  0.0000  0.0000  0.0000  0.0000 </r>
        <r>  0.0202  0.0027  0.0141  0.0053  0.0000  0.0000  0.0000  0.0000  0.0000 </r>
        <r>  0.0202  0.0053  0.0142  0.0027  0.0000  0.0000  0.0000  0.0000  0.0000 </r>
        <r>  0.0005  0.0014  0.0207  0.0014  0.0000  0.0000  0.0000  0.0000  0.0000 </r>
        <r>  0.0003  0.0033  0.0276  0.0033  0.0000  0.0000  0.0000  0.0000  0.0000 </r>
       </set>
       <set comment="band 35">
        <r>  0.0000  0.0017  0.0000  0.0017  0.0000  0.0007  0.0000  0.0007  0.0003 </r>
        <r>  0.0000  0.0037  0.0000  0.0037  0.0000  0.0014  0.0000  0.0014  0.0007 </r>
        <r>  0.0356  0.0078  0.0072  0.0004  0.0000  0.0036  0.0006  0.0023  0.0009 </r>
        <r>  0.0356  0.0004  0.0072  0.0078  0.0000  0.0023  0.0006  0.0036  0.0009 </r>
        <r>  0.0356  0.0004  0.0072  0.0078  0.0000  0.0023  0.0006  0.0036  0.0009 </r>
        <r>  0.0356  0.0078  0.0072  0.0004  0.0000  0.0036  0.0006  0.0023  0.0009 </r>
        <r>  0.0000  0.0037  0.0000  0.0037  0.0000  0.0014  0.0000  0.0014  0.0007 </r>
        <r>  0.0000  0.0017  0.0000  0.0017  0.0000  0.0007  0.0000  0.0007  0.0003 </r>
        <r>  0.0000  0.0001  0.0000  0.0001  0.0000  0.0076  0.0000  0.0076  0.0439 </r>
        <r>  0.0049  0.0083  0.0101  0.0076  0.0000  0.0000  0.0000  0.0000  0.0000 </r>
        <r>  0.0049  0.0076  0.0101  0.0083  0.0000  0.0000  0.0000  0.0000  0.0000 </r>
        <r>  0.0086  0.0164  0.0055  0.0088  0.0000  0.0000  0.0000  0.0000  0.0000 </r>
        <r>  0.0086  0.0088  0.0055  0.0164  0.0000  0.0000  0.0000  0.0000  0.0000 </r>
        <r>  0.0000  0.0011  0.0000  0.0011  0.0000  0.0000  0.0000  0.0000  0.0000 </r>
        <r>  0.0000  0.0003  0.0000  0.0003  0.0000  0.0000  0.0000  0.0000  0.0000 </r>
       </set>
       <set comment="band 36">
        <r>  0.0016  0.0004  0.0010  0.0004  0.0036  0.0002  0.0006  0.0002  0.0000 </r>
        <r>  0.0359  0.0004  0.0066  0.0004  0.0042  0.0000  0.0027  0.0000  0.0000 </r>
        <r>  0.0077  0.0014  0.0001  0.0004  0.0098  0.0017  0.0003  0.0008  0.0001 </r>
        <r>  0.0077  0.0004  0.0001  0.0014  0.0098  0.0008  0.0003  0.0017  0.0001 </r>
        <r>  0.0077  0.0004  0.0001  0.0014  0.0098  0.0008  0.0003  0.0017  0.0001 </r>
        <r>  0.0077  0.0014  0.0001  0.0004  0.0098  0.0017  0.0003  0.0008  0.0001 </r>
        <r>  0.0359  0.0004  0.0066  0.0004  0.0042  0.0000  0.0027  0.0000  0.0000 </r>
        <r>  0.0016  0.0004  0.0010  0.0004  0.0036  0.0002  0.0006  0.0002  0.0000 </r>
        <r>  0.0003  0.0005  0.0023  0.0005  0.0325  0.0004  0.0274  0.0004  0.0000 </r>
        <r>  0.0029  0.0083  0.0023  0.0247  0.0000  0.0000  0.0000  0.0000  0.0000 </r>
        <r>  0.0029  0.0247  0.0023  0.0083  0.0000  0.0000  0.0000  0.0000  0.0000 </r>
        <r>  0.0006  0.0023  0.0000  0.0021  0.0000  0.0000  0.0000  0.0000  0.0000 </r>
        <r>  0.0006  0.0021  0.0000  0.0023  0.0000  0.0000  0.0000  0.0000  0.0000 </r>
        <r>  0.0056  0.0241  0.0042  0.0241  0.0000  0.0000  0.0000  0.0000  0.0000 </r>
        <r>  0.0002  0.0039  0.0263  0.0039  0.0000  0.0000  0.0000  0.0000  0.0000 </r>
       </set>
       <set comment="band 37">
        <r>  0.0009  0.0027  0.0017  0.0027  0.0016  0.0014  0.0004  0.0014  0.0000 </r>
        <r>  0.0127  0.0032  0.0019  0.0032  0.0024  0.0044  0.0013  0.0044  0.0000 </r>
        <r>  0.0056  0.0002  0.0026  0.0006  0.0046  0.0050  0.0003  0.0010  0.0001 </r>
        <r>  0.0056  0.0006  0.0026  0.0002  0.0046  0.0010  0.0003  0.0050  0.0001 </r>
        <r>  0.0056  0.0006  0.0026  0.0002  0.0046  0.0010  0.0003  0.0050  0.0001 </r>
        <r>  0.0056  0.0002  0.0026  0.0006  0.0046  0.0050  0.0003  0.0010  0.0001 </r>
        <r>  0.0127  0.0032  0.0019  0.0032  0.0024  0.0044  0.0013  0.0044  0.0000 </r>
        <r>  0.0009  0.0027  0.0017  0.0027  0.0016  0.0014  0.0004  0.0014  0.0000 </r>
        <r>  0.0009  0.0014  0.0005  0.0014  0.0056  0.0190  0.0007  0.0190  0.0000 </r>
        <r>  0.0046  0.0033  0.0121  0.0087  0.0000  0.0000  0.0000  0.0000  0.0000 </r>
        <r>  0.0046  0.0087  0.0120  0.0033  0.0000  0.0000  0.0000  0.0000  0.0000 </r>
        <r>  0.0003  0.0027  0.0139  0.0071  0.0000  0.0000  0.0000  0.0000  0.0000 </r>
        <r>  0.0003  0.0071  0.0139  0.0027  0.0000  0.0000  0.0000  0.0000  0.0000 </r>
        <r>  0.0007  0.0022  0.0001  0.0022  0.0000  0.0000  0.0000  0.0000  0.0000 </r>
        <r>  0.0000  0.0029  0.0243  0.0030  0.0000  0.0000  0.0000  0.0000  0.0000 </r>
       </set>
       <set comment="band 38">
        <r>  0.0000  0.0019  0.0000  0.0019  0.0000  0.0015  0.0000  0.0015  0.0001 </r>
        <r>  0.0000  0.0027  0.0000  0.0027  0.0000  0.0030  0.0000  0.0030  0.0001 </r>
        <r>  0.0239  0.0056  0.0019  0.0001  0.0001  0.0029  0.0007  0.0013  0.0007 </r>
        <r>  0.0239  0.0001  0.0019  0.0056  0.0001  0.0013  0.0007  0.0029  0.0007 </r>
        <r>  0.0239  0.0001  0.0019  0.0056  0.0001  0.0013  0.0007  0.0029  0.0007 </r>
        <r>  0.0239  0.0056  0.0019  0.0001  0.0001  0.0029  0.0007  0.0013  0.0007 </r>
        <r>  0.0000  0.0027  0.0000  0.0027  0.0000  0.0030  0.0000  0.0030  0.0001 </r>
        <r>  0.0000  0.0019  0.0000  0.0019  0.0000  0.0015  0.0000  0.0015  0.0001 </r>
        <r>  0.0000  0.0003  0.0000  0.0003  0.0000  0.0248  0.0000  0.0248  0.0351 </r>
        <r>  0.0000  0.0097  0.0569  0.0227  0.0000  0.0000  0.0000  0.0000  0.0000 </r>
        <r>  0.0000  0.0226  0.0569  0.0097  0.0000  0.0000  0.0000  0.0000  0.0000 </r>
        <r>  0.0013  0.0050  0.0000  0.0042  0.0000  0.0000  0.0000  0.0000  0.0000 </r>
        <r>  0.0013  0.0042  0.0000  0.0050  0.0000  0.0000  0.0000  0.0000  0.0000 </r>
        <r>  0.0000  0.0045  0.0000  0.0045  0.0000  0.0000  0.0000  0.0000  0.0000 </r>
        <r>  0.0000  0.0024  0.0000  0.0024  0.0000  0.0000  0.0000  0.0000  0.0000 </r>
       </set>
       <set comment="band 39">
        <r>  0.0034  0.0015  0.0070  0.0015  0.0012  0.0009  0.0007  0.0009  0.0000 </r>
        <r>  0.0062  0.0093  0.0044  0.0093  0.0008  0.0014  0.0013  0.0014  0.0000 </r>
        <r>  0.0029  0.0035  0.0012  0.0000  0.0002  0.0060  0.0002  0.0064  0.0001 </r>
        <r>  0.0029  0.0000  0.0012  0.0035  0.0002  0.0064  0.0002  0.0060  0.0001 </r>
        <r>  0.0029  0.0000  0.0012  0.0035  0.0002  0.0064  0.0002  0.0060  0.0001 </r>
        <r>  0.0029  0.0035  0.0012  0.0000  0.0002  0.0060  0.0002  0.0064  0.0001 </r>
        <r>  0.0062  0.0093  0.0044  0.0093  0.0008  0.0014  0.0013  0.0014  0.0000 </r>
        <r>  0.0034  0.0015  0.0070  0.0015  0.0012  0.0009  0.0007  0.0009  0.0000 </r>
        <r>  0.0004  0.0000  0.0010  0.0000  0.0002  0.0097  0.0124  0.0096  0.0000 </r>
        <r>  0.0042  0.0210  0.0016  0.0184  0.0000  0.0000  0.0000  0.0000  0.0000 </r>
        <r>  0.0042  0.0185  0.0016  0.0210  0.0000  0.0000  0.0000  0.0000  0.0000 </r>
        <r>  0.0000  0.0167  0.0018  0.0042  0.0000  0.0000  0.0000  0.0000  0.0000 </r>
        <r>  0.0000  0.0042  0.0018  0.0167  0.0000  0.0000  0.0000  0.0000  0.0000 </r>
        <r>  0.0000  0.0006  0.0493  0.0006  0.0000  0.0000  0.0000  0.0000  0.0000 </r>
        <r>  0.0036  0.0011  0.0000  0.0011  0.0000  0.0000  0.0000  0.0000  0.0000 </r>
       </set>
       <set comment="band 40">
        <r>  0.0233  0.0020  0.0026  0.0020  0.0046  0.0001  0.0005  0.0001  0.0000 </r>
        <r>  0.0095  0.0058  0.0169  0.0058  0.0034  0.0022  0.0024  0.0022  0.0000 </r>
        <r>  0.0004  0.0057  0.0042  0.0017  0.0004  0.0045  0.0001  0.0032  0.0010 </r>
        <r>  0.0004  0.0017  0.0042  0.0057  0.0004  0.0032  0.0001  0.0045  0.0010 </r>
        <r>  0.0004  0.0017  0.0042  0.0057  0.0004  0.0032  0.0001  0.0045  0.0010 </r>
        <r>  0.0004  0.0057  0.0042  0.0017  0.0004  0.0045  0.0001  0.0032  0.0010 </r>
        <r>  0.0095  0.0058  0.0169  0.0058  0.0034  0.0022  0.0024  0.0022  0.0000 </r>
        <r>  0.0233  0.0020  0.0026  0.0020  0.0046  0.0001  0.0005  0.0001  0.0000 </r>
        <r>  0.0004  0.0005  0.0004  0.0005  0.0000  0.0006  0.0296  0.0006  0.0000 </r>
        <r>  0.0005  0.0006  0.0130  0.0111  0.0000  0.0000  0.0000  0.0000  0.0000 </r>
        <r>  0.0005  0.0111  0.0129  0.0006  0.0000  0.0000  0.0000  0.0000  0.0000 </r>
        <r>  0.0016  0.0112  0.0012  0.0022  0.0000  0.0000  0.0000  0.0000  0.0000 </r>
        <r>  0.0016  0.0022  0.0012  0.0112  0.0000  0.0000  0.0000  0.0000  0.0000 </r>
        <r>  0.0007  0.0031  0.0431  0.0031  0.0000  0.0000  0.0000  0.0000  0.0000 </r>
        <r>  0.0062  0.0031  0.0033  0.0031  0.0000  0.0000  0.0000  0.0000  0.0000 </r>
       </set>
       <set comment="band 41">
        <r>  0.0000  0.0027  0.0000  0.0027  0.0000  0.0033  0.0000  0.0033  0.0001 </r>
        <r>  0.0000  0.0056  0.0000  0.0056  0.0000  0.0062  0.0000  0.0062  0.0003 </r>
        <r>  0.0081  0.0071  0.0044  0.0039  0.0008  0.0019  0.0013  0.0015  0.0009 </r>
        <r>  0.0081  0.0039  0.0044  0.0071  0.0008  0.0015  0.0013  0.0019  0.0009 </r>
        <r>  0.0081  0.0039  0.0044  0.0071  0.0008  0.0015  0.0013  0.0019  0.0009 </r>
        <r>  0.0081  0.0071  0.0044  0.0039  0.0008  0.0019  0.0013  0.0015  0.0009 </r>
        <r>  0.0000  0.0056  0.0000  0.0056  0.0000  0.0062  0.0000  0.0062  0.0003 </r>
        <r>  0.0000  0.0027  0.0000  0.0027  0.0000  0.0033  0.0000  0.0033  0.0001 </r>
        <r>  0.0000  0.0004  0.0000  0.0004  0.0000  0.0021  0.0000  0.0021  0.0137 </r>
        <r>  0.0005  0.0081  0.0100  0.0108  0.0000  0.0000  0.0000  0.0000  0.0000 </r>
        <r>  0.0005  0.0108  0.0100  0.0081  0.0000  0.0000  0.0000  0.0000  0.0000 </r>
        <r>  0.0035  0.0023  0.0270  0.0031  0.0000  0.0000  0.0000  0.0000  0.0000 </r>
        <r>  0.0035  0.0031  0.0270  0.0023  0.0000  0.0000  0.0000  0.0000  0.0000 </r>
        <r>  0.0000  0.0310  0.0000  0.0310  0.0000  0.0000  0.0000  0.0000  0.0000 </r>
        <r>  0.0000  0.0328  0.0000  0.0327  0.0000  0.0000  0.0000  0.0000  0.0000 </r>
       </set>
       <set comment="band 42">
        <r>  0.0341  0.0009  0.0082  0.0009  0.0000  0.0025  0.0000  0.0025  0.0000 </r>
        <r>  0.0476  0.0008  0.0095  0.0008  0.0003  0.0002  0.0047  0.0002  0.0000 </r>
        <r>  0.0024  0.0029  0.0040  0.0001  0.0010  0.0025  0.0000  0.0025  0.0021 </r>
        <r>  0.0024  0.0001  0.0040  0.0029  0.0010  0.0025  0.0000  0.0025  0.0021 </r>
        <r>  0.0024  0.0001  0.0040  0.0029  0.0010  0.0025  0.0000  0.0025  0.0021 </r>
        <r>  0.0024  0.0029  0.0040  0.0001  0.0010  0.0025  0.0000  0.0025  0.0021 </r>
        <r>  0.0476  0.0008  0.0095  0.0008  0.0003  0.0002  0.0047  0.0002  0.0000 </r>
        <r>  0.0341  0.0009  0.0082  0.0009  0.0000  0.0025  0.0000  0.0025  0.0000 </r>
        <r>  0.0023  0.0013  0.0001  0.0013  0.0052  0.0014  0.0336  0.0014  0.0000 </r>
        <r>  0.0001  0.0005  0.0124  0.0041  0.0000  0.0000  0.0000  0.0000  0.0000 </r>
        <r>  0.0001  0.0041  0.0124  0.0005  0.0000  0.0000  0.0000  0.0000  0.0000 </r>
        <r>  0.0000  0.0053  0.0031  0.0010  0.0000  0.0000  0.0000  0.0000  0.0000 </r>
        <r>  0.0000  0.0010  0.0031  0.0053  0.0000  0.0000  0.0000  0.0000  0.0000 </r>
        <r>  0.0067  0.0000  0.0177  0.0000  0.0000  0.0000  0.0000  0.0000  0.0000 </r>
        <r>  0.0029  0.0000  0.0349  0.0000  0.0000  0.0000  0.0000  0.0000  0.0000 </r>
       </set>
       <set comment="band 43">
        <r>  0.0060  0.0055  0.0026  0.0055  0.0181  0.0012  0.0002  0.0012  0.0000 </r>
        <r>  0.0015  0.0006  0.0001  0.0006  0.0236  0.0017  0.0002  0.0017  0.0000 </r>
        <r>  0.0012  0.0007  0.0008  0.0005  0.0035  0.0007  0.0002  0.0037  0.0002 </r>
        <r>  0.0012  0.0005  0.0008  0.0007  0.0035  0.0037  0.0002  0.0007  0.0002 </r>
        <r>  0.0012  0.0005  0.0008  0.0007  0.0035  0.0037  0.0002  0.0007  0.0002 </r>
        <r>  0.0012  0.0007  0.0008  0.0005  0.0035  0.0007  0.0002  0.0037  0.0002 </r>
        <r>  0.0015  0.0006  0.0001  0.0006  0.0236  0.0017  0.0002  0.0017  0.0000 </r>
        <r>  0.0060  0.0055  0.0026  0.0055  0.0181  0.0012  0.0002  0.0012  0.0000 </r>
        <r>  0.0000  0.0012  0.0009  0.0012  0.0096  0.0021  0.0003  0.0021  0.0000 </r>
        <r>  0.0018  0.0145  0.0045  0.0001  0.0000  0.0000  0.0000  0.0000  0.0000 </r>
        <r>  0.0018  0.0001  0.0045  0.0145  0.0000  0.0000  0.0000  0.0000  0.0000 </r>
        <r>  0.0003  0.0008  0.0026  0.0049  0.0000  0.0000  0.0000  0.0000  0.0000 </r>
        <r>  0.0003  0.0049  0.0026  0.0008  0.0000  0.0000  0.0000  0.0000  0.0000 </r>
        <r>  0.0006  0.0048  0.0000  0.0048  0.0000  0.0000  0.0000  0.0000  0.0000 </r>
        <r>  0.0005  0.0033  0.0016  0.0033  0.0000  0.0000  0.0000  0.0000  0.0000 </r>
       </set>
       <set comment="band 44">
        <r>  0.0445  0.0069  0.0038  0.0066  0.0019  0.0010  0.0001  0.0010  0.0000 </r>
        <r>  0.0085  0.0022  0.0066  0.0022  0.0026  0.0037  0.0010  0.0037  0.0000 </r>
        <r>  0.0118  0.0010  0.0074  0.0042  0.0060  0.0001  0.0003  0.0000  0.0002 </r>
        <r>  0.0120  0.0041  0.0074  0.0011  0.0060  0.0000  0.0003  0.0001  0.0002 </r>
        <r>  0.0120  0.0043  0.0074  0.0011  0.0059  0.0000  0.0003  0.0001  0.0002 </r>
        <r>  0.0118  0.0010  0.0074  0.0041  0.0060  0.0001  0.0003  0.0000  0.0002 </r>
        <r>  0.0085  0.0022  0.0066  0.0022  0.0026  0.0038  0.0010  0.0037  0.0000 </r>
        <r>  0.0445  0.0068  0.0038  0.0067  0.0019  0.0010  0.0001  0.0010  0.0000 </r>
        <r>  0.0003  0.0012  0.0010  0.0014  0.0002  0.0024  0.0081  0.0024  0.0000 </r>
        <r>  0.0023  0.0011  0.0012  0.0001  0.0000  0.0000  0.0000  0.0000  0.0000 </r>
        <r>  0.0023  0.0001  0.0012  0.0011  0.0000  0.0000  0.0000  0.0000  0.0000 </r>
        <r>  0.0021  0.0013  0.0140  0.0203  0.0000  0.0000  0.0000  0.0000  0.0000 </r>
        <r>  0.0021  0.0200  0.0140  0.0013  0.0000  0.0000  0.0000  0.0000  0.0000 </r>
        <r>  0.0003  0.0014  0.0033  0.0015  0.0000  0.0000  0.0000  0.0000  0.0000 </r>
        <r>  0.0003  0.0025  0.0006  0.0025  0.0000  0.0000  0.0000  0.0000  0.0000 </r>
       </set>
      </set>
     </set>
    </set>
   </array>
  </projected>
 </calculation>
 <structure name="finalpos" >
  <crystal>
   <varray name="basis" >
    <v>       0.00000000       4.24689302       4.24689302 </v>
    <v>       4.24689302       0.00000000       4.24689302 </v>
    <v>       4.24689302       4.24689302       0.00000000 </v>
   </varray>
   <i name="volume">    153.19477710 </i>
   <varray name="rec_basis" >
    <v>      -0.11773313       0.11773313       0.11773313 </v>
    <v>       0.11773313      -0.11773313       0.11773313 </v>
    <v>       0.11773313       0.11773313      -0.11773313 </v>
   </varray>
  </crystal>
  <varray name="positions" >
   <v>       0.99849222       0.99849222       0.00150778 </v>
   <v>       0.97700712       0.97700712       0.52299288 </v>
   <v>       0.97439408       0.52560592       0.98053312 </v>
   <v>       0.97439408       0.52560592       0.51946688 </v>
   <v>       0.52560592       0.97439408       0.98053312 </v>
   <v>       0.52560592       0.97439408       0.51946688 </v>
   <v>       0.52299288       0.52299288       0.97700712 </v>
   <v>       0.50150778       0.50150778       0.49849222 </v>
   <v>       0.25000000       0.25000000       0.25000000 </v>
   <v>       0.25000000       0.75000000       0.25000000 </v>
   <v>       0.25000000       0.75000000       0.75000000 </v>
   <v>       0.75000000       0.25000000       0.25000000 </v>
   <v>       0.75000000       0.25000000       0.75000000 </v>
   <v>       0.75000000       0.75000000       0.25000000 </v>
   <v>       0.75000000       0.75000000       0.75000000 </v>
  </varray>
 </structure>
</modeling>
