   2   2   0   0
  0.5151000E+03  0.1000000E-08  0.1010000E-08  0.1020000E-08  0.5000000E-15
  1.000000000000000E-004
  CAR 
 unknown system                          
      3.25912213    -34.52716659  301    -10.46792807      1.00000000
    -34.527  0.0000E+00  0.0000E+00  0.0000E+00  0.0000E+00
    -34.401  0.0000E+00  0.0000E+00  0.0000E+00  0.0000E+00
    -34.275  0.0000E+00  0.0000E+00  0.0000E+00  0.0000E+00
    -34.149  0.0000E+00  0.0000E+00  0.0000E+00  0.0000E+00
    -34.023  0.0000E+00  0.0000E+00  0.0000E+00  0.0000E+00
    -33.897  0.0000E+00  0.0000E+00  0.0000E+00  0.0000E+00
    -33.771  0.0000E+00  0.0000E+00  0.0000E+00  0.0000E+00
    -33.645  0.1058E-14  0.0000E+00  0.1332E-15  0.0000E+00
    -33.520  0.8982E-12  0.0000E+00  0.1133E-12  0.0000E+00
    -33.394  0.3558E-09  0.0000E+00  0.4493E-10  0.0000E+00
    -33.268  0.6485E-07  0.0000E+00  0.8213E-08  0.0000E+00
    -33.142  0.5459E-05  0.0000E+00  0.6958E-06  0.0000E+00
    -33.016  0.2133E-03  0.0000E+00  0.2756E-04  0.0000E+00
    -32.890  0.3890E-02  0.0000E+00  0.5175E-03  0.0000E+00
    -32.764  0.3331E-01  0.0000E+00  0.4713E-02  0.0000E+00
    -32.638  0.1348E+00  0.0000E+00  0.2169E-01  0.0000E+00
    -32.512  0.2589E+00  0.0000E+00  0.5430E-01  0.0000E+00
    -32.386  0.2366E+00  0.1014E-14  0.8410E-01  0.1277E-15
    -32.260  0.1029E+00  0.8827E-12  0.9706E-01  0.1113E-12
    -32.134  0.2121E-01  0.3504E-09  0.9973E-01  0.4425E-10
    -32.008  0.2063E-02  0.6399E-07  0.9999E-01  0.8105E-08
    -31.882  0.9408E-04  0.5399E-05  0.1000E+00  0.6881E-06
    -31.756  0.2000E-05  0.2114E-03  0.1000E+00  0.2731E-04
    -31.630  0.1971E-07  0.3863E-02  0.1000E+00  0.5138E-03
    -31.504  0.8962E-10  0.3315E-01  0.1000E+00  0.4689E-02
    -31.378  0.1874E-12  0.1344E+00  0.1000E+00  0.2162E-01
    -31.252  0.1763E-15  0.2587E+00  0.1000E+00  0.5420E-01
    -31.126  0.0000E+00  0.2369E+00  0.1000E+00  0.8404E-01
    -31.000  0.0000E+00  0.1032E+00  0.1000E+00  0.9704E-01
    -30.874  0.0000E+00  0.2132E-01  0.1000E+00  0.9973E-01
    -30.749  0.0000E+00  0.2078E-02  0.1000E+00  0.9999E-01
    -30.623  0.0000E+00  0.9498E-04  0.1000E+00  0.1000E+00
    -30.497  0.0000E+00  0.2023E-05  0.1000E+00  0.1000E+00
    -30.371  0.0000E+00  0.1998E-07  0.1000E+00  0.1000E+00
    -30.245  0.0000E+00  0.9105E-10  0.1000E+00  0.1000E+00
    -30.119  0.0000E+00  0.1907E-12  0.1000E+00  0.1000E+00
    -29.993  0.0000E+00  0.1763E-15  0.1000E+00  0.1000E+00
    -29.867  0.0000E+00  0.0000E+00  0.1000E+00  0.1000E+00
    -29.741  0.0000E+00  0.0000E+00  0.1000E+00  0.1000E+00
    -29.615  0.0000E+00  0.0000E+00  0.1000E+00  0.1000E+00
    -29.489  0.0000E+00  0.0000E+00  0.1000E+00  0.1000E+00
    -29.363  0.0000E+00  0.0000E+00  0.1000E+00  0.1000E+00
    -29.237  0.0000E+00  0.0000E+00  0.1000E+00  0.1000E+00
    -29.111  0.0000E+00  0.0000E+00  0.1000E+00  0.1000E+00
    -28.985  0.0000E+00  0.0000E+00  0.1000E+00  0.1000E+00
    -28.859  0.0000E+00  0.0000E+00  0.1000E+00  0.1000E+00
    -28.733  0.0000E+00  0.0000E+00  0.1000E+00  0.1000E+00
    -28.607  0.0000E+00  0.0000E+00  0.1000E+00  0.1000E+00
    -28.481  0.0000E+00  0.0000E+00  0.1000E+00  0.1000E+00
    -28.355  0.0000E+00  0.0000E+00  0.1000E+00  0.1000E+00
    -28.229  0.0000E+00  0.0000E+00  0.1000E+00  0.1000E+00
    -28.103  0.0000E+00  0.0000E+00  0.1000E+00  0.1000E+00
    -27.978  0.0000E+00  0.0000E+00  0.1000E+00  0.1000E+00
    -27.852  0.0000E+00  0.0000E+00  0.1000E+00  0.1000E+00
    -27.726  0.0000E+00  0.0000E+00  0.1000E+00  0.1000E+00
    -27.600  0.0000E+00  0.0000E+00  0.1000E+00  0.1000E+00
    -27.474  0.0000E+00  0.0000E+00  0.1000E+00  0.1000E+00
    -27.348  0.0000E+00  0.0000E+00  0.1000E+00  0.1000E+00
    -27.222  0.0000E+00  0.0000E+00  0.1000E+00  0.1000E+00
    -27.096  0.0000E+00  0.0000E+00  0.1000E+00  0.1000E+00
    -26.970  0.0000E+00  0.0000E+00  0.1000E+00  0.1000E+00
    -26.844  0.0000E+00  0.0000E+00  0.1000E+00  0.1000E+00
    -26.718  0.0000E+00  0.0000E+00  0.1000E+00  0.1000E+00
    -26.592  0.0000E+00  0.0000E+00  0.1000E+00  0.1000E+00
    -26.466  0.0000E+00  0.0000E+00  0.1000E+00  0.1000E+00
    -26.340  0.0000E+00  0.0000E+00  0.1000E+00  0.1000E+00
    -26.214  0.0000E+00  0.0000E+00  0.1000E+00  0.1000E+00
    -26.088  0.0000E+00  0.0000E+00  0.1000E+00  0.1000E+00
    -25.962  0.0000E+00  0.0000E+00  0.1000E+00  0.1000E+00
    -25.836  0.0000E+00  0.0000E+00  0.1000E+00  0.1000E+00
    -25.710  0.0000E+00  0.0000E+00  0.1000E+00  0.1000E+00
    -25.584  0.0000E+00  0.0000E+00  0.1000E+00  0.1000E+00
    -25.458  0.0000E+00  0.0000E+00  0.1000E+00  0.1000E+00
    -25.333  0.0000E+00  0.0000E+00  0.1000E+00  0.1000E+00
    -25.207  0.0000E+00  0.0000E+00  0.1000E+00  0.1000E+00
    -25.081  0.0000E+00  0.0000E+00  0.1000E+00  0.1000E+00
    -24.955  0.0000E+00  0.0000E+00  0.1000E+00  0.1000E+00
    -24.829  0.0000E+00  0.0000E+00  0.1000E+00  0.1000E+00
    -24.703  0.0000E+00  0.0000E+00  0.1000E+00  0.1000E+00
    -24.577  0.0000E+00  0.0000E+00  0.1000E+00  0.1000E+00
    -24.451  0.0000E+00  0.0000E+00  0.1000E+00  0.1000E+00
    -24.325  0.0000E+00  0.0000E+00  0.1000E+00  0.1000E+00
    -24.199  0.0000E+00  0.0000E+00  0.1000E+00  0.1000E+00
    -24.073  0.0000E+00  0.0000E+00  0.1000E+00  0.1000E+00
    -23.947  0.0000E+00  0.0000E+00  0.1000E+00  0.1000E+00
    -23.821  0.0000E+00  0.0000E+00  0.1000E+00  0.1000E+00
    -23.695  0.0000E+00  0.0000E+00  0.1000E+00  0.1000E+00
    -23.569  0.0000E+00  0.0000E+00  0.1000E+00  0.1000E+00
    -23.443  0.0000E+00  0.0000E+00  0.1000E+00  0.1000E+00
    -23.317  0.0000E+00  0.0000E+00  0.1000E+00  0.1000E+00
    -23.191  0.0000E+00  0.0000E+00  0.1000E+00  0.1000E+00
    -23.065  0.0000E+00  0.0000E+00  0.1000E+00  0.1000E+00
    -22.939  0.0000E+00  0.0000E+00  0.1000E+00  0.1000E+00
    -22.813  0.0000E+00  0.0000E+00  0.1000E+00  0.1000E+00
    -22.687  0.0000E+00  0.0000E+00  0.1000E+00  0.1000E+00
    -22.562  0.0000E+00  0.0000E+00  0.1000E+00  0.1000E+00
    -22.436  0.0000E+00  0.0000E+00  0.1000E+00  0.1000E+00
    -22.310  0.0000E+00  0.0000E+00  0.1000E+00  0.1000E+00
    -22.184  0.0000E+00  0.0000E+00  0.1000E+00  0.1000E+00
    -22.058  0.0000E+00  0.0000E+00  0.1000E+00  0.1000E+00
    -21.932  0.0000E+00  0.0000E+00  0.1000E+00  0.1000E+00
    -21.806  0.0000E+00  0.0000E+00  0.1000E+00  0.1000E+00
    -21.680  0.0000E+00  0.0000E+00  0.1000E+00  0.1000E+00
    -21.554  0.2204E-15  0.0000E+00  0.1000E+00  0.1000E+00
    -21.428  0.2227E-12  0.0000E+00  0.1000E+00  0.1000E+00
    -21.302  0.1044E-09  0.0000E+00  0.1000E+00  0.1000E+00
    -21.176  0.2249E-07  0.0000E+00  0.1000E+00  0.1000E+00
    -21.050  0.2236E-05  0.0000E+00  0.1000E+00  0.1000E+00
    -20.924  0.1031E-03  0.0000E+00  0.1000E+00  0.1000E+00
    -20.798  0.2215E-02  0.0000E+00  0.1003E+00  0.1000E+00
    -20.672  0.2233E-01  0.0000E+00  0.1031E+00  0.1000E+00
    -20.546  0.1062E+00  0.0000E+00  0.1165E+00  0.1000E+00
    -20.420  0.2394E+00  0.0000E+00  0.1466E+00  0.1000E+00
    -20.294  0.2569E+00  0.0000E+00  0.1790E+00  0.1000E+00
    -20.168  0.1312E+00  0.0000E+00  0.1955E+00  0.1000E+00
    -20.042  0.3178E-01  0.0000E+00  0.1995E+00  0.1000E+00
    -19.916  0.3638E-02  0.0000E+00  0.2000E+00  0.1000E+00
    -19.791  0.1955E-03  0.8814E-16  0.2000E+00  0.1000E+00
    -19.665  0.4904E-05  0.8061E-13  0.2000E+00  0.1000E+00
    -19.539  0.5708E-07  0.4260E-10  0.2000E+00  0.1000E+00
    -19.413  0.3068E-09  0.1034E-07  0.2000E+00  0.1000E+00
    -19.287  0.7588E-12  0.1158E-05  0.2000E+00  0.1000E+00
    -19.161  0.8814E-15  0.6007E-04  0.2000E+00  0.1000E+00
    -19.035  0.0000E+00  0.1451E-02  0.2000E+00  0.1002E+00
    -18.909  0.0000E+00  0.1643E-01  0.2000E+00  0.1023E+00
    -18.783  0.0000E+00  0.8767E-01  0.2000E+00  0.1133E+00
    -18.657  0.0000E+00  0.2217E+00  0.2000E+00  0.1412E+00
    -18.531  0.0000E+00  0.2667E+00  0.2000E+00  0.1748E+00
    -18.405  0.0000E+00  0.1527E+00  0.2000E+00  0.1941E+00
    -18.279  0.0000E+00  0.4151E-01  0.2000E+00  0.1993E+00
    -18.153  0.0000E+00  0.5334E-02  0.2000E+00  0.2000E+00
    -18.027  0.0000E+00  0.3222E-03  0.2000E+00  0.2000E+00
    -17.901  0.0000E+00  0.9092E-05  0.2000E+00  0.2000E+00
    -17.775  0.0000E+00  0.1191E-06  0.2000E+00  0.2000E+00
    -17.649  0.0000E+00  0.7216E-09  0.2000E+00  0.2000E+00
    -17.523  0.0000E+00  0.2012E-11  0.2000E+00  0.2000E+00
    -17.397  0.0000E+00  0.2556E-14  0.2000E+00  0.2000E+00
    -17.271  0.0000E+00  0.0000E+00  0.2000E+00  0.2000E+00
    -17.145  0.0000E+00  0.0000E+00  0.2000E+00  0.2000E+00
    -17.020  0.0000E+00  0.0000E+00  0.2000E+00  0.2000E+00
    -16.894  0.0000E+00  0.0000E+00  0.2000E+00  0.2000E+00
    -16.768  0.0000E+00  0.0000E+00  0.2000E+00  0.2000E+00
    -16.642  0.0000E+00  0.0000E+00  0.2000E+00  0.2000E+00
    -16.516  0.0000E+00  0.0000E+00  0.2000E+00  0.2000E+00
    -16.390  0.0000E+00  0.0000E+00  0.2000E+00  0.2000E+00
    -16.264  0.0000E+00  0.0000E+00  0.2000E+00  0.2000E+00
    -16.138  0.0000E+00  0.0000E+00  0.2000E+00  0.2000E+00
    -16.012  0.0000E+00  0.0000E+00  0.2000E+00  0.2000E+00
    -15.886  0.0000E+00  0.0000E+00  0.2000E+00  0.2000E+00
    -15.760  0.0000E+00  0.0000E+00  0.2000E+00  0.2000E+00
    -15.634  0.0000E+00  0.0000E+00  0.2000E+00  0.2000E+00
    -15.508  0.0000E+00  0.0000E+00  0.2000E+00  0.2000E+00
    -15.382  0.0000E+00  0.0000E+00  0.2000E+00  0.2000E+00
    -15.256  0.0000E+00  0.0000E+00  0.2000E+00  0.2000E+00
    -15.130  0.0000E+00  0.0000E+00  0.2000E+00  0.2000E+00
    -15.004  0.0000E+00  0.0000E+00  0.2000E+00  0.2000E+00
    -14.878  0.0000E+00  0.0000E+00  0.2000E+00  0.2000E+00
    -14.752  0.0000E+00  0.0000E+00  0.2000E+00  0.2000E+00
    -14.626  0.0000E+00  0.0000E+00  0.2000E+00  0.2000E+00
    -14.500  0.5289E-15  0.0000E+00  0.2000E+00  0.2000E+00
    -14.374  0.4956E-12  0.0000E+00  0.2000E+00  0.2000E+00
    -14.249  0.2122E-09  0.0000E+00  0.2000E+00  0.2000E+00
    -14.123  0.4202E-07  0.0000E+00  0.2000E+00  0.2000E+00
    -13.997  0.3877E-05  0.0000E+00  0.2000E+00  0.2000E+00
    -13.871  0.1689E-03  0.0000E+00  0.2000E+00  0.2000E+00
    -13.745  0.3539E-02  0.0000E+00  0.2005E+00  0.2000E+00
    -13.619  0.3662E-01  0.0000E+00  0.2051E+00  0.2000E+00
    -13.493  0.1929E+00  0.2644E-15  0.2294E+00  0.2000E+00
    -13.367  0.5306E+00  0.2514E-12  0.2962E+00  0.2000E+00
    -13.241  0.7689E+00  0.1162E-09  0.3931E+00  0.2000E+00
    -13.115  0.5802E+00  0.2467E-07  0.4661E+00  0.2000E+00
    -12.989  0.2225E+00  0.2418E-05  0.4942E+00  0.2000E+00
    -12.863  0.4224E-01  0.1099E-03  0.4995E+00  0.2000E+00
    -12.737  0.3880E-02  0.2328E-02  0.5000E+00  0.2003E+00
    -12.611  0.1695E-03  0.2314E-01  0.5000E+00  0.2032E+00
    -12.485  0.3479E-05  0.1085E+00  0.5000E+00  0.2169E+00
    -12.359  0.3322E-07  0.2414E+00  0.5000E+00  0.2473E+00
    -12.233  0.1467E-09  0.2554E+00  0.5000E+00  0.2795E+00
    -12.107  0.2979E-12  0.1286E+00  0.5000E+00  0.2957E+00
    -11.981  0.3526E-15  0.3081E-01  0.5000E+00  0.2995E+00
    -11.855  0.0000E+00  0.5332E-02  0.5000E+00  0.3002E+00
    -11.729  0.0000E+00  0.2389E-01  0.5000E+00  0.3032E+00
    -11.603  0.0000E+00  0.1421E+00  0.5000E+00  0.3211E+00
    -11.478  0.0000E+00  0.4033E+00  0.5000E+00  0.3719E+00
    -11.352  0.0000E+00  0.5442E+00  0.5000E+00  0.4405E+00
    -11.226  0.0000E+00  0.3495E+00  0.5000E+00  0.4845E+00
    -11.100  0.0000E+00  0.1067E+00  0.5000E+00  0.4979E+00
    -10.974  0.0000E+00  0.1540E-01  0.5000E+00  0.4999E+00
    -10.848  0.0000E+00  0.1046E-02  0.5000E+00  0.5000E+00
    -10.722  0.0000E+00  0.3322E-04  0.5000E+00  0.5000E+00
    -10.596  0.0000E+00  0.4904E-06  0.5000E+00  0.5000E+00
    -10.470  0.0000E+00  0.3348E-08  0.5000E+00  0.5000E+00
    -10.344  0.0000E+00  0.1053E-10  0.5000E+00  0.5000E+00
    -10.218  0.0000E+00  0.1525E-13  0.5000E+00  0.5000E+00
    -10.092  0.0000E+00  0.0000E+00  0.5000E+00  0.5000E+00
     -9.966  0.0000E+00  0.0000E+00  0.5000E+00  0.5000E+00
     -9.840  0.0000E+00  0.0000E+00  0.5000E+00  0.5000E+00
     -9.714  0.0000E+00  0.0000E+00  0.5000E+00  0.5000E+00
     -9.588  0.0000E+00  0.0000E+00  0.5000E+00  0.5000E+00
     -9.462  0.0000E+00  0.0000E+00  0.5000E+00  0.5000E+00
     -9.336  0.0000E+00  0.0000E+00  0.5000E+00  0.5000E+00
     -9.210  0.0000E+00  0.0000E+00  0.5000E+00  0.5000E+00
     -9.084  0.0000E+00  0.0000E+00  0.5000E+00  0.5000E+00
     -8.958  0.0000E+00  0.0000E+00  0.5000E+00  0.5000E+00
     -8.832  0.0000E+00  0.0000E+00  0.5000E+00  0.5000E+00
     -8.707  0.0000E+00  0.0000E+00  0.5000E+00  0.5000E+00
     -8.581  0.0000E+00  0.0000E+00  0.5000E+00  0.5000E+00
     -8.455  0.0000E+00  0.0000E+00  0.5000E+00  0.5000E+00
     -8.329  0.0000E+00  0.0000E+00  0.5000E+00  0.5000E+00
     -8.203  0.0000E+00  0.0000E+00  0.5000E+00  0.5000E+00
     -8.077  0.0000E+00  0.0000E+00  0.5000E+00  0.5000E+00
     -7.951  0.3526E-15  0.0000E+00  0.5000E+00  0.5000E+00
     -7.825  0.3874E-12  0.0000E+00  0.5000E+00  0.5000E+00
     -7.699  0.1846E-09  0.0000E+00  0.5000E+00  0.5000E+00
     -7.573  0.4043E-07  0.0000E+00  0.5000E+00  0.5000E+00
     -7.447  0.4086E-05  0.0000E+00  0.5000E+00  0.5000E+00
     -7.321  0.1915E-03  0.0000E+00  0.5000E+00  0.5000E+00
     -7.195  0.4181E-02  0.0000E+00  0.5006E+00  0.5000E+00
     -7.069  0.4283E-01  0.0000E+00  0.5059E+00  0.5000E+00
     -6.943  0.2070E+00  0.0000E+00  0.5320E+00  0.5000E+00
     -6.817  0.4743E+00  0.0000E+00  0.5918E+00  0.5000E+00
     -6.691  0.5170E+00  0.0000E+00  0.6569E+00  0.5000E+00
     -6.565  0.2682E+00  0.0000E+00  0.6907E+00  0.5000E+00
     -6.439  0.6605E-01  0.0000E+00  0.6990E+00  0.5000E+00
     -6.313  0.7684E-02  0.0000E+00  0.6999E+00  0.5000E+00
     -6.187  0.4198E-03  0.0000E+00  0.7000E+00  0.5000E+00
     -6.061  0.1071E-04  0.0000E+00  0.7000E+00  0.5000E+00
     -5.936  0.1267E-06  0.0000E+00  0.7000E+00  0.5000E+00
     -5.810  0.6928E-09  0.0000E+00  0.7000E+00  0.5000E+00
     -5.684  0.1743E-11  0.8814E-15  0.7000E+00  0.5000E+00
     -5.558  0.2027E-14  0.8418E-12  0.7000E+00  0.5000E+00
     -5.432  0.0000E+00  0.3655E-09  0.7000E+00  0.5000E+00
     -5.306  0.0000E+00  0.7300E-07  0.7000E+00  0.5000E+00
     -5.180  0.0000E+00  0.6731E-05  0.7000E+00  0.5000E+00
     -5.054  0.0000E+00  0.2879E-03  0.7000E+00  0.5000E+00
     -4.928  0.0000E+00  0.5742E-02  0.7000E+00  0.5008E+00
     -4.802  0.0000E+00  0.5376E-01  0.7000E+00  0.5075E+00
     -4.676  0.0000E+00  0.2376E+00  0.7000E+00  0.5375E+00
     -4.550  0.0000E+00  0.4983E+00  0.7000E+00  0.6002E+00
     -4.424  0.0000E+00  0.4971E+00  0.7000E+00  0.6628E+00
     -4.298  0.0000E+00  0.2360E+00  0.7000E+00  0.6926E+00
     -4.172  0.0000E+00  0.5315E-01  0.7000E+00  0.6993E+00
     -4.046  0.0000E+00  0.5652E-02  0.7000E+00  0.7000E+00
     -3.920  0.0000E+00  0.2820E-03  0.7000E+00  0.7000E+00
     -3.794  0.0000E+00  0.6563E-05  0.7000E+00  0.7000E+00
     -3.668  0.0000E+00  0.7085E-07  0.7000E+00  0.7000E+00
     -3.542  0.0000E+00  0.3531E-09  0.7000E+00  0.7000E+00
     -3.416  0.0000E+00  0.8093E-12  0.7000E+00  0.7000E+00
     -3.291  0.0000E+00  0.7933E-15  0.7000E+00  0.7000E+00
     -3.165  0.0000E+00  0.0000E+00  0.7000E+00  0.7000E+00
     -3.039  0.0000E+00  0.0000E+00  0.7000E+00  0.7000E+00
     -2.913  0.0000E+00  0.0000E+00  0.7000E+00  0.7000E+00
     -2.787  0.0000E+00  0.0000E+00  0.7000E+00  0.7000E+00
     -2.661  0.0000E+00  0.0000E+00  0.7000E+00  0.7000E+00
     -2.535  0.0000E+00  0.0000E+00  0.7000E+00  0.7000E+00
     -2.409  0.0000E+00  0.0000E+00  0.7000E+00  0.7000E+00
     -2.283  0.0000E+00  0.0000E+00  0.7000E+00  0.7000E+00
     -2.157  0.0000E+00  0.0000E+00  0.7000E+00  0.7000E+00
     -2.031  0.0000E+00  0.0000E+00  0.7000E+00  0.7000E+00
     -1.905  0.0000E+00  0.0000E+00  0.7000E+00  0.7000E+00
     -1.779  0.0000E+00  0.0000E+00  0.7000E+00  0.7000E+00
     -1.653  0.0000E+00  0.0000E+00  0.7000E+00  0.7000E+00
     -1.527  0.0000E+00  0.0000E+00  0.7000E+00  0.7000E+00
     -1.401  0.1190E-14  0.0000E+00  0.7000E+00  0.7000E+00
     -1.275  0.9972E-12  0.3305E-14  0.7000E+00  0.7000E+00
     -1.149  0.3900E-09  0.2520E-11  0.7000E+00  0.7000E+00
     -1.023  0.7018E-07  0.8790E-09  0.7000E+00  0.7000E+00
     -0.897  0.5833E-05  0.1411E-06  0.7000E+00  0.7000E+00
     -0.771  0.2251E-03  0.1048E-04  0.7000E+00  0.7000E+00
     -0.645  0.4054E-02  0.3612E-03  0.7005E+00  0.7000E+00
     -0.520  0.3429E-01  0.5819E-02  0.7049E+00  0.7008E+00
     -0.394  0.1371E+00  0.4407E-01  0.7221E+00  0.7063E+00
     -0.268  0.2601E+00  0.1578E+00  0.7549E+00  0.7262E+00
     -0.142  0.2348E+00  0.2684E+00  0.7845E+00  0.7600E+00
     -0.016  0.1008E+00  0.2172E+00  0.7972E+00  0.7874E+00
      0.110  0.2054E-01  0.8362E-01  0.7997E+00  0.7979E+00
      0.236  0.1974E-02  0.1525E-01  0.8000E+00  0.7998E+00
      0.362  0.1338E-03  0.1311E-02  0.8000E+00  0.8000E+00
      0.488  0.1163E-02  0.5448E-04  0.8002E+00  0.8000E+00
      0.614  0.1426E-01  0.8914E-04  0.8019E+00  0.8000E+00
      0.740  0.8641E-01  0.2256E-02  0.8128E+00  0.8003E+00
      0.866  0.2840E+00  0.2856E-01  0.8486E+00  0.8039E+00
      0.992  0.5976E+00  0.1829E+00  0.9239E+00  0.8269E+00
      1.118  0.8788E+00  0.6006E+00  0.1035E+01  0.9026E+00
      1.244  0.8052E+00  0.1015E+01  0.1136E+01  0.1030E+01
      1.370  0.3974E+00  0.8759E+00  0.1186E+01  0.1141E+01
      1.496  0.9828E-01  0.3800E+00  0.1198E+01  0.1189E+01
      1.622  0.1184E-01  0.8144E-01  0.1200E+01  0.1199E+01
      1.748  0.6859E-03  0.8484E-02  0.1200E+01  0.1200E+01
      1.874  0.1892E-04  0.4235E-03  0.1200E+01  0.1200E+01
      2.000  0.2464E-06  0.1001E-04  0.1200E+01  0.1200E+01
      2.126  0.1505E-08  0.1111E-06  0.1200E+01  0.1200E+01
      2.251  0.4283E-11  0.5748E-09  0.1200E+01  0.1200E+01
      2.377  0.5729E-14  0.1378E-11  0.1200E+01  0.1200E+01
      2.503  0.0000E+00  0.1498E-14  0.1200E+01  0.1200E+01
      2.629  0.0000E+00  0.0000E+00  0.1200E+01  0.1200E+01
      2.755  0.0000E+00  0.0000E+00  0.1200E+01  0.1200E+01
      2.881  0.0000E+00  0.0000E+00  0.1200E+01  0.1200E+01
      3.007  0.0000E+00  0.0000E+00  0.1200E+01  0.1200E+01
      3.133  0.0000E+00  0.0000E+00  0.1200E+01  0.1200E+01
      3.259  0.0000E+00  0.0000E+00  0.1200E+01  0.1200E+01
