    2    2   20    2
  0.5151000E+03  0.1000000E-08  0.1010000E-08  0.1020000E-08  0.5000000E-15
  1.000000000000000E-004
  CAR 
 unknown system                          
     12      1     12
 
  0.0000000E+00  0.0000000E+00  0.0000000E+00  0.1000000E+01
    1      -32.527167    -31.267278   1.000000   1.000000
    2      -20.408346    -18.625590   1.000000   1.000000
    3      -13.370314    -12.349609   1.000000   1.000000
    4      -13.260983    -11.426893   1.000000   1.000000
    5      -13.260159    -11.426484   1.000000   1.000000
    6       -6.803479     -4.550883   1.000000   0.000000
    7       -6.801667     -4.549972   1.000000   0.000000
    8       -0.284935     -0.177514   0.000000   0.000000
    9        0.907588      1.141558   0.000000   0.000000
   10        1.099193      1.216204   0.000000   0.000000
   11        1.124897      1.242244   0.000000   0.000000
   12        1.160629      1.259122   0.000000   0.000000
