       N       E                     dE             d eps       ncg     rms          rms(c)
DAV:   1    -0.102776638113E+02   -0.10278E+02   -0.70579E-08    64   0.137E-03    0.155E-04
DAV:   2    -0.102776638102E+02    0.10684E-08   -0.26385E-09    64   0.358E-04    0.488E-05
DAV:   3    -0.102776637998E+02    0.10461E-07   -0.27651E-10    32   0.119E-04    0.166E-05
DAV:   4    -0.102776638069E+02   -0.71171E-08   -0.34461E-12    24   0.669E-05
   1 F= -.10277664E+02 E0= -.10277664E+02  d E =-.102777E+02  mag=     2.0000
