unknown system                          
           1
    10.000000    0.000000    0.000000
     0.000000   10.100000    0.000000
     0.000000    0.000000   10.200000
   O 
   2
Direct configuration=     1
   0.06142072  0.00000000  0.00000000
   0.93857928  0.00000000  0.00000000
