  191  191   20    1
  0.9120554E+01  0.1018931E-08  0.1769118E-08  0.9819357E-09  0.5000000E-15
  1.000000000000000E-004
  CAR 
 unknown system                          
  760    4  480
 
  0.0000000E+00  0.0000000E+00  0.0000000E+00  0.2500000E+00
   1      -15.697626
   2      -15.538120
   3      -15.524746
   4      -15.469936
   5      -15.390814
   6      -15.322896
   7      -15.317196
   8      -15.272881
   9      -15.229931
  10      -15.206238
  11      -15.202459
  12      -15.144418
  13      -15.113911
  14      -15.096292
  15      -15.075008
  16      -15.061970
  17      -15.059249
  18      -14.994482
  19      -14.914530
  20      -14.883583
  21      -14.878390
  22      -14.855023
  23      -14.827799
  24      -14.820150
  25      -14.786146
  26      -14.777019
  27      -14.767164
  28      -14.764508
  29      -14.762163
  30      -14.752626
  31      -14.742978
  32      -14.738961
  33      -14.732570
  34      -14.727656
  35      -14.716925
  36      -14.711567
  37      -14.706625
  38      -14.700888
  39      -14.693556
  40      -14.693117
  41      -14.684793
  42      -14.682585
  43      -14.666831
  44      -14.657280
  45      -14.643454
  46      -14.636941
  47      -14.630689
  48      -14.621245
  49      -14.619318
  50      -14.611781
  51      -14.607053
  52      -14.603791
  53      -14.601837
  54      -14.599887
  55      -14.593057
  56      -14.579493
  57      -14.574804
  58      -14.567491
  59      -14.558554
  60      -14.556747
  61      -14.536610
  62      -14.535191
  63      -14.532922
  64      -14.516343
  65      -14.511629
  66      -14.502168
  67      -14.491075
  68      -14.486260
  69      -14.479470
  70      -14.474464
  71      -14.471034
  72      -14.461140
  73      -14.458013
  74      -14.452511
  75      -14.446396
  76      -14.438902
  77      -14.435773
  78      -14.421545
  79      -14.417133
  80      -14.404005
  81      -14.393616
  82      -14.391236
  83      -14.380516
  84      -14.378266
  85      -14.377123
  86      -14.367495
  87      -14.359534
  88      -14.346489
  89      -14.341706
  90      -14.336644
  91      -14.330006
  92      -14.325096
  93      -14.318002
  94      -14.291897
  95      -14.276689
  96       -2.728806
  97       -2.713879
  98       -2.684660
  99       -2.678541
 100       -2.609003
 101       -2.599478
 102       -2.569245
 103       -2.555048
 104       -2.529703
 105       -2.510219
 106       -2.502804
 107       -2.484718
 108       -2.472780
 109       -2.449348
 110       -2.439591
 111       -2.417860
 112       -2.409478
 113       -2.393412
 114       -2.356475
 115       -2.346258
 116       -2.330270
 117       -2.303179
 118       -2.266114
 119       -2.254160
 120       -2.235915
 121       -2.225991
 122       -2.215234
 123       -2.200762
 124       -2.188944
 125       -2.169324
 126       -2.167650
 127       -2.135978
 128       -2.119823
 129       -2.099686
 130       -2.088768
 131       -2.084887
 132       -2.079376
 133       -2.078713
 134       -2.069820
 135       -2.061786
 136       -2.048391
 137       -2.041989
 138       -2.036752
 139       -2.035409
 140       -2.023589
 141       -2.020105
 142       -2.005082
 143       -1.989274
 144       -1.984074
 145       -1.964544
 146       -1.934620
 147       -1.918889
 148       -1.912679
 149       -1.900291
 150       -1.892678
 151       -1.876768
 152       -1.859884
 153       -1.846649
 154       -1.835568
 155       -1.817823
 156       -1.798955
 157       -1.758637
 158       -1.749953
 159       -1.724265
 160       -1.718294
 161       -1.695949
 162       -1.689525
 163       -1.681826
 164       -1.668310
 165       -1.663580
 166       -1.646640
 167       -1.644706
 168       -1.640033
 169       -1.636837
 170       -1.631370
 171       -1.613398
 172       -1.608405
 173       -1.603268
 174       -1.593025
 175       -1.578626
 176       -1.561187
 177       -1.558592
 178       -1.551398
 179       -1.546072
 180       -1.533147
 181       -1.521663
 182       -1.507735
 183       -1.498617
 184       -1.489924
 185       -1.482524
 186       -1.476058
 187       -1.462180
 188       -1.448067
 189       -1.436050
 190       -1.429085
 191       -1.404861
 192       -1.385644
 193       -1.346991
 194       -1.336202
 195       -1.330379
 196       -1.325242
 197       -1.322127
 198       -1.312344
 199       -1.282882
 200       -1.280641
 201       -1.268899
 202       -1.252798
 203       -1.246130
 204       -1.241245
 205       -1.225747
 206       -1.209294
 207       -1.193467
 208       -1.187004
 209       -1.183974
 210       -1.174068
 211       -1.163476
 212       -1.144365
 213       -1.106963
 214       -1.080806
 215       -1.072430
 216       -1.038847
 217       -0.995786
 218       -0.985438
 219       -0.979972
 220       -0.972566
 221       -0.966851
 222       -0.959824
 223       -0.935828
 224       -0.920656
 225       -0.893051
 226       -0.870799
 227       -0.846464
 228       -0.839939
 229       -0.811950
 230       -0.794325
 231       -0.793778
 232       -0.769256
 233       -0.760431
 234       -0.754960
 235       -0.721259
 236       -0.717280
 237       -0.707608
 238       -0.660004
 239       -0.637712
 240       -0.620439
 241       -0.616098
 242       -0.594778
 243       -0.575408
 244       -0.558703
 245       -0.548771
 246       -0.514115
 247       -0.505849
 248       -0.497509
 249       -0.482847
 250       -0.476384
 251       -0.471419
 252       -0.450699
 253       -0.442560
 254       -0.415337
 255       -0.399332
 256       -0.384418
 257       -0.369288
 258       -0.363006
 259       -0.352282
 260       -0.313626
 261       -0.302830
 262       -0.288708
 263       -0.275072
 264       -0.258581
 265       -0.255425
 266       -0.235031
 267       -0.216848
 268       -0.187350
 269       -0.177560
 270       -0.156518
 271       -0.154266
 272       -0.120998
 273       -0.094981
 274       -0.083893
 275       -0.079511
 276       -0.072849
 277       -0.046797
 278       -0.042177
 279       -0.025681
 280       -0.009881
 281       -0.005888
 282        0.006475
 283        0.013274
 284        0.036242
 285        0.045091
 286        0.060858
 287        0.089102
 288        0.117204
 289        0.125313
 290        0.141448
 291        0.175842
 292        0.186440
 293        0.213392
 294        0.220394
 295        0.247846
 296        0.257604
 297        0.271493
 298        0.291850
 299        0.293049
 300        0.301471
 301        0.317848
 302        0.320709
 303        0.324517
 304        0.347639
 305        0.378927
 306        0.397870
 307        0.423430
 308        0.444927
 309        0.450622
 310        0.478343
 311        0.480023
 312        0.495724
 313        0.504454
 314        0.507577
 315        0.522364
 316        0.537241
 317        0.565302
 318        0.570021
 319        0.574554
 320        0.587186
 321        0.601591
 322        0.614704
 323        0.617992
 324        0.627977
 325        0.659957
 326        0.663990
 327        0.677352
 328        0.681979
 329        0.686733
 330        0.696392
 331        0.709797
 332        0.717782
 333        0.729710
 334        0.742327
 335        0.753150
 336        0.769438
 337        0.783354
 338        0.795610
 339        0.802728
 340        0.812576
 341        0.823519
 342        0.835795
 343        0.849330
 344        0.855024
 345        0.859315
 346        0.865868
 347        0.866552
 348        0.871644
 349        0.883685
 350        0.886412
 351        0.914815
 352        0.921260
 353        0.933152
 354        0.955504
 355        0.962632
 356        0.968874
 357        0.982041
 358        0.999155
 359        1.005162
 360        1.019306
 361        1.026141
 362        1.040278
 363        1.132998
 364        1.155625
 365        1.181011
 366        1.187172
 367        1.197865
 368        1.231143
 369        1.240641
 370        1.244854
 371        1.265553
 372        1.284421
 373        1.294019
 374        1.307555
 375        1.321147
 376        1.325185
 377        1.419788
 378        1.423482
 379        1.436294
 380        1.438327
 381        4.304966
 382        4.372647
 383        4.388152
 384        4.440221
 385        4.463700
 386        4.471818
 387        4.490180
 388        4.498806
 389        4.509301
 390        4.525480
 391        4.542421
 392        4.546476
 393        4.563382
 394        4.572421
 395        4.578099
 396        4.601972
 397        4.611104
 398        4.619280
 399        4.625271
 400        4.633684
 401        4.640963
 402        4.655799
 403        4.658737
 404        4.683125
 405        4.730939
 406        4.746839
 407        4.769609
 408        4.788491
 409        4.802817
 410        4.827598
 411        4.839425
 412        4.848392
 413        4.854776
 414        4.874184
 415        4.884061
 416        4.904795
 417        4.907735
 418        4.910044
 419        4.920657
 420        4.927690
 421        4.943601
 422        4.954649
 423        4.956175
 424        4.961521
 425        4.966825
 426        4.972859
 427        4.982754
 428        4.993080
 429        4.995777
 430        5.011737
 431        5.019468
 432        5.028608
 433        5.034773
 434        5.047616
 435        5.056107
 436        5.082027
 437        5.095079
 438        5.117950
 439        5.136493
 440        5.144422
 441        5.158855
 442        5.175340
 443        5.179827
 444        5.201150
 445        5.213272
 446        5.215708
 447        5.223811
 448        5.228480
 449        5.233080
 450        5.243514
 451        5.249182
 452        5.267812
 453        5.309020
 454        5.323421
 455        5.337140
 456        5.342155
 457        5.357661
 458        5.364593
 459        5.369517
 460        5.369898
 461        5.388576
 462        5.396065
 463        5.401396
 464        5.415515
 465        5.416851
 466        5.423936
 467        5.427415
 468        5.438507
 469        5.441420
 470        5.457185
 471        5.463144
 472        5.473206
 473        5.479973
 474        5.494265
 475        5.521110
 476        5.555136
 477        5.884009
 478        6.695770
 479        7.013035
 480        7.074968
 
  0.5000000E+00  0.0000000E+00  0.2775558E-16  0.2500000E+00
   1      -15.598497
   2      -15.574351
   3      -15.448497
   4      -15.428093
   5      -15.419024
   6      -15.393885
   7      -15.359519
   8      -15.352358
   9      -15.240500
  10      -15.228383
  11      -15.221137
  12      -15.214895
  13      -15.146239
  14      -15.126137
  15      -15.098056
  16      -15.045323
  17      -15.037659
  18      -14.971954
  19      -14.941340
  20      -14.910803
  21      -14.866209
  22      -14.837181
  23      -14.815576
  24      -14.806024
  25      -14.794437
  26      -14.776898
  27      -14.760042
  28      -14.748033
  29      -14.744658
  30      -14.736905
  31      -14.727016
  32      -14.720132
  33      -14.715552
  34      -14.701021
  35      -14.697844
  36      -14.695135
  37      -14.690570
  38      -14.673518
  39      -14.672669
  40      -14.663724
  41      -14.661455
  42      -14.655906
  43      -14.650687
  44      -14.644433
  45      -14.633659
  46      -14.629472
  47      -14.627692
  48      -14.621362
  49      -14.608742
  50      -14.602022
  51      -14.593617
  52      -14.587343
  53      -14.583912
  54      -14.580464
  55      -14.567137
  56      -14.564599
  57      -14.556896
  58      -14.553246
  59      -14.549822
  60      -14.541524
  61      -14.539694
  62      -14.532297
  63      -14.529397
  64      -14.525189
  65      -14.514383
  66      -14.507577
  67      -14.503676
  68      -14.496564
  69      -14.495955
  70      -14.491869
  71      -14.485366
  72      -14.474779
  73      -14.469744
  74      -14.464146
  75      -14.454110
  76      -14.451698
  77      -14.445369
  78      -14.441339
  79      -14.439272
  80      -14.424540
  81      -14.417294
  82      -14.404653
  83      -14.400086
  84      -14.393798
  85      -14.392152
  86      -14.388508
  87      -14.372435
  88      -14.360364
  89      -14.357445
  90      -14.340499
  91      -14.323687
  92      -14.314728
  93      -14.304398
  94      -14.295525
  95      -14.293027
  96       -2.633085
  97       -2.584539
  98       -2.575035
  99       -2.562148
 100       -2.552400
 101       -2.522372
 102       -2.517557
 103       -2.500842
 104       -2.453942
 105       -2.443793
 106       -2.436041
 107       -2.427715
 108       -2.397099
 109       -2.394867
 110       -2.379788
 111       -2.377410
 112       -2.361899
 113       -2.354194
 114       -2.346924
 115       -2.336387
 116       -2.329584
 117       -2.316236
 118       -2.303614
 119       -2.298136
 120       -2.275853
 121       -2.269141
 122       -2.255316
 123       -2.245496
 124       -2.211667
 125       -2.207874
 126       -2.178706
 127       -2.171105
 128       -2.157036
 129       -2.112065
 130       -2.091655
 131       -2.080760
 132       -2.071954
 133       -2.065029
 134       -2.059943
 135       -2.052788
 136       -2.043675
 137       -2.042371
 138       -2.031956
 139       -2.024068
 140       -2.015915
 141       -2.012257
 142       -1.999936
 143       -1.992908
 144       -1.982451
 145       -1.981360
 146       -1.979964
 147       -1.966688
 148       -1.955688
 149       -1.938826
 150       -1.921150
 151       -1.912516
 152       -1.893985
 153       -1.886003
 154       -1.878217
 155       -1.858348
 156       -1.844306
 157       -1.817336
 158       -1.805128
 159       -1.798096
 160       -1.783944
 161       -1.770246
 162       -1.759464
 163       -1.742261
 164       -1.726402
 165       -1.721052
 166       -1.707540
 167       -1.694489
 168       -1.676182
 169       -1.673912
 170       -1.661904
 171       -1.657410
 172       -1.643000
 173       -1.639831
 174       -1.623619
 175       -1.612128
 176       -1.577026
 177       -1.570975
 178       -1.553860
 179       -1.547296
 180       -1.536549
 181       -1.504393
 182       -1.501546
 183       -1.498228
 184       -1.487856
 185       -1.482406
 186       -1.471469
 187       -1.461504
 188       -1.440384
 189       -1.435619
 190       -1.431954
 191       -1.428552
 192       -1.418691
 193       -1.407524
 194       -1.404887
 195       -1.383246
 196       -1.380672
 197       -1.374851
 198       -1.362657
 199       -1.339231
 200       -1.328435
 201       -1.321305
 202       -1.307523
 203       -1.294414
 204       -1.283620
 205       -1.272608
 206       -1.257632
 207       -1.252289
 208       -1.248803
 209       -1.238049
 210       -1.206350
 211       -1.184857
 212       -1.170312
 213       -1.162316
 214       -1.155625
 215       -1.144696
 216       -1.136814
 217       -1.121602
 218       -1.096276
 219       -1.077746
 220       -1.050659
 221       -1.036361
 222       -1.024824
 223       -1.000182
 224       -0.975453
 225       -0.966152
 226       -0.954649
 227       -0.932188
 228       -0.926631
 229       -0.901976
 230       -0.871007
 231       -0.864740
 232       -0.803034
 233       -0.751940
 234       -0.749520
 235       -0.741699
 236       -0.661636
 237       -0.618727
 238       -0.561271
 239       -0.559301
 240       -0.540632
 241       -0.528381
 242       -0.510101
 243       -0.493716
 244       -0.477680
 245       -0.470777
 246       -0.467755
 247       -0.448975
 248       -0.433866
 249       -0.397518
 250       -0.380701
 251       -0.376414
 252       -0.358485
 253       -0.356570
 254       -0.345127
 255       -0.313971
 256       -0.301185
 257       -0.281837
 258       -0.256667
 259       -0.222940
 260       -0.204273
 261       -0.196403
 262       -0.192281
 263       -0.162999
 264       -0.161455
 265       -0.132093
 266       -0.100198
 267       -0.072111
 268       -0.067534
 269       -0.053923
 270       -0.035325
 271       -0.022418
 272       -0.002120
 273        0.001170
 274        0.011184
 275        0.074409
 276        0.077642
 277        0.085666
 278        0.113129
 279        0.117828
 280        0.121918
 281        0.142772
 282        0.153197
 283        0.158695
 284        0.172453
 285        0.181407
 286        0.196276
 287        0.207267
 288        0.239777
 289        0.244625
 290        0.253399
 291        0.257060
 292        0.268792
 293        0.271286
 294        0.278176
 295        0.285118
 296        0.289554
 297        0.303910
 298        0.307845
 299        0.318242
 300        0.326983
 301        0.339573
 302        0.352355
 303        0.356479
 304        0.360260
 305        0.380050
 306        0.384784
 307        0.398803
 308        0.403184
 309        0.411602
 310        0.419550
 311        0.426878
 312        0.430135
 313        0.446509
 314        0.479848
 315        0.482966
 316        0.523015
 317        0.538050
 318        0.547322
 319        0.553207
 320        0.564973
 321        0.572330
 322        0.581333
 323        0.587815
 324        0.597666
 325        0.614571
 326        0.618476
 327        0.622985
 328        0.631270
 329        0.637014
 330        0.651549
 331        0.661660
 332        0.683861
 333        0.688258
 334        0.707882
 335        0.715319
 336        0.726912
 337        0.736650
 338        0.747017
 339        0.759321
 340        0.765801
 341        0.773972
 342        0.776909
 343        0.791640
 344        0.795674
 345        0.800741
 346        0.803232
 347        0.811271
 348        0.823241
 349        0.832682
 350        0.845038
 351        0.853325
 352        0.874985
 353        0.888577
 354        0.893815
 355        0.897682
 356        0.909007
 357        0.914792
 358        0.926842
 359        0.960073
 360        1.009966
 361        1.022306
 362        1.032179
 363        1.044354
 364        1.064920
 365        1.099550
 366        1.110760
 367        1.119888
 368        1.142115
 369        1.148097
 370        1.149442
 371        1.157689
 372        1.167431
 373        1.253645
 374        1.261627
 375        1.283479
 376        1.314835
 377        1.351731
 378        1.361638
 379        1.410499
 380        1.416493
 381        4.354998
 382        4.399472
 383        4.459165
 384        4.464328
 385        4.478638
 386        4.512430
 387        4.522979
 388        4.529769
 389        4.540283
 390        4.567362
 391        4.567751
 392        4.578802
 393        4.585820
 394        4.600408
 395        4.602650
 396        4.613385
 397        4.633569
 398        4.639954
 399        4.648773
 400        4.656652
 401        4.668674
 402        4.672103
 403        4.682479
 404        4.685014
 405        4.695144
 406        4.702733
 407        4.709504
 408        4.737882
 409        4.779452
 410        4.785962
 411        4.825131
 412        4.834520
 413        4.839105
 414        4.864721
 415        4.880338
 416        4.903960
 417        4.911544
 418        4.919677
 419        4.930284
 420        4.938110
 421        4.954702
 422        4.960509
 423        4.976784
 424        4.978711
 425        4.986717
 426        4.993922
 427        4.995702
 428        5.003076
 429        5.007432
 430        5.014962
 431        5.019268
 432        5.022054
 433        5.028260
 434        5.034385
 435        5.054015
 436        5.066004
 437        5.087407
 438        5.093773
 439        5.100691
 440        5.102550
 441        5.108609
 442        5.109019
 443        5.161688
 444        5.171594
 445        5.189060
 446        5.207336
 447        5.244614
 448        5.250353
 449        5.267548
 450        5.276990
 451        5.287085
 452        5.296415
 453        5.327434
 454        5.334619
 455        5.341090
 456        5.348661
 457        5.349406
 458        5.352598
 459        5.358256
 460        5.371748
 461        5.376441
 462        5.384109
 463        5.396164
 464        5.403281
 465        5.409068
 466        5.413100
 467        5.418155
 468        5.424128
 469        5.431098
 470        5.440535
 471        5.463153
 472        5.464990
 473        5.474417
 474        5.481182
 475        5.505829
 476        5.577517
 477        5.876579
 478        6.690400
 479        7.032685
 480        7.118976
 
 -0.3252607E-18  0.0000000E+00  0.5000000E+00  0.2500000E+00
   1      -15.657996
   2      -15.542817
   3      -15.499789
   4      -15.476738
   5      -15.391135
   6      -15.381401
   7      -15.364976
   8      -15.248739
   9      -15.219805
  10      -15.189998
  11      -15.173337
  12      -15.147053
  13      -15.126384
  14      -15.115491
  15      -15.110140
  16      -15.102925
  17      -15.088363
  18      -15.007332
  19      -14.917252
  20      -14.898348
  21      -14.867295
  22      -14.853326
  23      -14.834688
  24      -14.813552
  25      -14.808710
  26      -14.794537
  27      -14.786361
  28      -14.781659
  29      -14.760782
  30      -14.740981
  31      -14.734694
  32      -14.723454
  33      -14.715694
  34      -14.704266
  35      -14.696457
  36      -14.691461
  37      -14.688172
  38      -14.680858
  39      -14.674707
  40      -14.664778
  41      -14.664042
  42      -14.648223
  43      -14.633566
  44      -14.628943
  45      -14.626086
  46      -14.618942
  47      -14.616825
  48      -14.613371
  49      -14.609879
  50      -14.607661
  51      -14.604080
  52      -14.598776
  53      -14.597056
  54      -14.589455
  55      -14.586284
  56      -14.575143
  57      -14.569870
  58      -14.564075
  59      -14.561221
  60      -14.556607
  61      -14.555750
  62      -14.542227
  63      -14.537767
  64      -14.527190
  65      -14.517098
  66      -14.510409
  67      -14.504716
  68      -14.490311
  69      -14.485783
  70      -14.483945
  71      -14.479245
  72      -14.475105
  73      -14.466262
  74      -14.460599
  75      -14.457117
  76      -14.452325
  77      -14.444605
  78      -14.419360
  79      -14.415259
  80      -14.413838
  81      -14.404258
  82      -14.399651
  83      -14.392861
  84      -14.384459
  85      -14.379918
  86      -14.377131
  87      -14.354328
  88      -14.353269
  89      -14.344580
  90      -14.340943
  91      -14.338784
  92      -14.315900
  93      -14.306663
  94      -14.300126
  95      -14.298094
  96       -2.723340
  97       -2.719698
  98       -2.685012
  99       -2.612674
 100       -2.569442
 101       -2.564301
 102       -2.533052
 103       -2.521398
 104       -2.486920
 105       -2.468191
 106       -2.457164
 107       -2.439551
 108       -2.424671
 109       -2.410159
 110       -2.397918
 111       -2.395930
 112       -2.384551
 113       -2.379304
 114       -2.352839
 115       -2.316171
 116       -2.306927
 117       -2.297179
 118       -2.291021
 119       -2.278311
 120       -2.271509
 121       -2.263287
 122       -2.251090
 123       -2.208199
 124       -2.199769
 125       -2.170891
 126       -2.161166
 127       -2.140783
 128       -2.119640
 129       -2.109181
 130       -2.088291
 131       -2.086293
 132       -2.082344
 133       -2.070648
 134       -2.065666
 135       -2.060504
 136       -2.049285
 137       -2.038521
 138       -2.023632
 139       -2.019623
 140       -2.004582
 141       -1.989341
 142       -1.983908
 143       -1.978014
 144       -1.974688
 145       -1.959245
 146       -1.952994
 147       -1.939788
 148       -1.937573
 149       -1.934311
 150       -1.923109
 151       -1.911625
 152       -1.910321
 153       -1.898813
 154       -1.888926
 155       -1.875647
 156       -1.866280
 157       -1.846371
 158       -1.814321
 159       -1.803283
 160       -1.791264
 161       -1.773168
 162       -1.757923
 163       -1.750920
 164       -1.733655
 165       -1.716907
 166       -1.707245
 167       -1.691592
 168       -1.679196
 169       -1.671252
 170       -1.667072
 171       -1.659611
 172       -1.659252
 173       -1.650336
 174       -1.585030
 175       -1.573130
 176       -1.555037
 177       -1.540190
 178       -1.530686
 179       -1.511653
 180       -1.500741
 181       -1.494243
 182       -1.485836
 183       -1.481267
 184       -1.478655
 185       -1.473241
 186       -1.467291
 187       -1.451876
 188       -1.441853
 189       -1.423680
 190       -1.408799
 191       -1.397421
 192       -1.371933
 193       -1.353592
 194       -1.344219
 195       -1.338171
 196       -1.328486
 197       -1.321552
 198       -1.306040
 199       -1.287369
 200       -1.274945
 201       -1.263316
 202       -1.249008
 203       -1.242110
 204       -1.226507
 205       -1.209817
 206       -1.194377
 207       -1.165918
 208       -1.162421
 209       -1.142780
 210       -1.121642
 211       -1.089155
 212       -1.077663
 213       -1.063970
 214       -1.047726
 215       -1.046709
 216       -1.034739
 217       -1.030927
 218       -0.997514
 219       -0.978498
 220       -0.965499
 221       -0.930051
 222       -0.918853
 223       -0.897629
 224       -0.889537
 225       -0.880341
 226       -0.872220
 227       -0.864734
 228       -0.860645
 229       -0.850974
 230       -0.839349
 231       -0.822488
 232       -0.814300
 233       -0.777396
 234       -0.734254
 235       -0.711922
 236       -0.675632
 237       -0.663241
 238       -0.644693
 239       -0.623236
 240       -0.616942
 241       -0.573017
 242       -0.569907
 243       -0.550592
 244       -0.547505
 245       -0.542860
 246       -0.531145
 247       -0.518669
 248       -0.504161
 249       -0.494339
 250       -0.479279
 251       -0.473466
 252       -0.460131
 253       -0.453103
 254       -0.433531
 255       -0.423180
 256       -0.416385
 257       -0.408866
 258       -0.390655
 259       -0.383982
 260       -0.364909
 261       -0.337041
 262       -0.316647
 263       -0.315963
 264       -0.299683
 265       -0.299184
 266       -0.280608
 267       -0.273198
 268       -0.255522
 269       -0.251354
 270       -0.234241
 271       -0.222596
 272       -0.208375
 273       -0.189948
 274       -0.165569
 275       -0.123923
 276       -0.111163
 277       -0.097363
 278       -0.032473
 279       -0.013584
 280        0.051104
 281        0.114574
 282        0.127399
 283        0.133081
 284        0.163713
 285        0.170279
 286        0.175152
 287        0.194438
 288        0.208762
 289        0.213674
 290        0.225481
 291        0.235496
 292        0.237255
 293        0.251408
 294        0.264588
 295        0.280527
 296        0.283851
 297        0.291160
 298        0.307539
 299        0.315000
 300        0.332994
 301        0.343615
 302        0.347951
 303        0.359892
 304        0.367915
 305        0.390997
 306        0.405457
 307        0.422886
 308        0.437598
 309        0.455568
 310        0.474319
 311        0.475978
 312        0.489647
 313        0.507911
 314        0.512504
 315        0.514157
 316        0.550506
 317        0.555937
 318        0.567725
 319        0.580221
 320        0.588866
 321        0.596496
 322        0.610778
 323        0.612781
 324        0.617831
 325        0.629734
 326        0.638277
 327        0.655992
 328        0.662819
 329        0.678592
 330        0.695487
 331        0.711224
 332        0.719341
 333        0.726622
 334        0.743065
 335        0.752640
 336        0.763891
 337        0.770133
 338        0.783946
 339        0.792658
 340        0.807349
 341        0.828074
 342        0.829971
 343        0.853285
 344        0.866896
 345        0.887112
 346        0.894458
 347        0.915437
 348        0.923751
 349        0.930119
 350        0.935571
 351        0.945257
 352        0.967013
 353        0.983474
 354        0.989477
 355        0.995496
 356        1.010775
 357        1.015107
 358        1.025608
 359        1.026974
 360        1.034279
 361        1.052384
 362        1.065204
 363        1.074141
 364        1.119259
 365        1.135619
 366        1.140852
 367        1.154012
 368        1.170068
 369        1.172709
 370        1.187501
 371        1.206549
 372        1.223459
 373        1.249545
 374        1.263594
 375        1.269372
 376        1.279554
 377        1.294977
 378        1.319552
 379        1.421587
 380        1.428090
 381        4.283270
 382        4.323307
 383        4.376292
 384        4.437977
 385        4.453353
 386        4.471484
 387        4.491873
 388        4.520806
 389        4.530351
 390        4.537393
 391        4.543372
 392        4.560541
 393        4.563926
 394        4.573879
 395        4.575949
 396        4.579638
 397        4.593459
 398        4.603385
 399        4.618944
 400        4.630503
 401        4.633828
 402        4.643109
 403        4.647689
 404        4.677757
 405        4.740901
 406        4.773043
 407        4.781055
 408        4.789993
 409        4.800031
 410        4.810731
 411        4.824990
 412        4.829852
 413        4.869283
 414        4.881605
 415        4.891348
 416        4.903591
 417        4.904840
 418        4.920716
 419        4.937455
 420        4.940213
 421        4.952843
 422        4.956725
 423        4.962654
 424        4.970134
 425        4.975963
 426        4.980303
 427        4.986050
 428        5.001006
 429        5.006379
 430        5.017617
 431        5.027035
 432        5.028572
 433        5.045275
 434        5.051071
 435        5.060087
 436        5.100901
 437        5.120755
 438        5.124046
 439        5.126346
 440        5.127653
 441        5.157621
 442        5.170169
 443        5.181693
 444        5.188092
 445        5.192553
 446        5.205800
 447        5.218336
 448        5.227279
 449        5.228215
 450        5.237172