  16  16   1   0
  0.9574674E+01  0.6006014E-09  0.6006014E-09  0.6006014E-09  0.5000000E-15
  1.000000000000000E-004
  CAR 
 unknown system                          
     16.60984185    -15.44012103  301      3.16221159      1.00000000
    -15.440  0.0000E+00  0.0000E+00
    -15.333  0.0000E+00  0.0000E+00
    -15.226  0.0000E+00  0.0000E+00
    -15.120  0.0000E+00  0.0000E+00
    -15.013  0.0000E+00  0.0000E+00
    -14.906  0.0000E+00  0.0000E+00
    -14.799  0.0000E+00  0.0000E+00
    -14.692  0.0000E+00  0.0000E+00
    -14.585  0.0000E+00  0.0000E+00
    -14.479  0.0000E+00  0.0000E+00
    -14.372  0.0000E+00  0.0000E+00
    -14.265  0.1949E-15  0.2082E-16
    -14.158  0.8928E-07  0.9538E-08
    -14.051  0.6376E-02  0.6812E-03
    -13.944  0.1958E+00  0.2160E-01
    -13.838  0.3180E-01  0.2500E-01
    -13.731  0.5238E-03  0.2506E-01
    -13.624  0.3067E+00  0.5782E-01
    -13.517  0.3933E+00  0.9984E-01
    -13.410  0.8026E-02  0.1007E+00
    -13.303  0.5190E+00  0.1561E+00
    -13.197  0.1831E+00  0.1757E+00
    -13.090  0.5411E+00  0.2335E+00
    -12.983  0.5029E+00  0.2872E+00
    -12.876  0.1660E+01  0.4646E+00
    -12.769  0.6553E+00  0.5346E+00
    -12.662  0.1933E+01  0.7411E+00
    -12.556  0.5510E+00  0.7999E+00
    -12.449  0.4685E-03  0.8000E+00
    -12.342  0.9178E-10  0.8000E+00
    -12.235  0.0000E+00  0.8000E+00
    -12.128  0.0000E+00  0.8000E+00
    -12.021  0.0000E+00  0.8000E+00
    -11.915  0.0000E+00  0.8000E+00
    -11.808  0.0000E+00  0.8000E+00
    -11.701  0.0000E+00  0.8000E+00
    -11.594  0.0000E+00  0.8000E+00
    -11.487  0.0000E+00  0.8000E+00
    -11.380  0.0000E+00  0.8000E+00
    -11.274  0.0000E+00  0.8000E+00
    -11.167  0.0000E+00  0.8000E+00
    -11.060  0.0000E+00  0.8000E+00
    -10.953  0.0000E+00  0.8000E+00
    -10.846  0.0000E+00  0.8000E+00
    -10.739  0.0000E+00  0.8000E+00
    -10.633  0.0000E+00  0.8000E+00
    -10.526  0.0000E+00  0.8000E+00
    -10.419  0.0000E+00  0.8000E+00
    -10.312  0.0000E+00  0.8000E+00
    -10.205  0.0000E+00  0.8000E+00
    -10.098  0.0000E+00  0.8000E+00
     -9.992  0.0000E+00  0.8000E+00
     -9.885  0.0000E+00  0.8000E+00
     -9.778  0.0000E+00  0.8000E+00
     -9.671  0.0000E+00  0.8000E+00
     -9.564  0.0000E+00  0.8000E+00
     -9.457  0.0000E+00  0.8000E+00
     -9.351  0.0000E+00  0.8000E+00
     -9.244  0.0000E+00  0.8000E+00
     -9.137  0.0000E+00  0.8000E+00
     -9.030  0.0000E+00  0.8000E+00
     -8.923  0.0000E+00  0.8000E+00
     -8.816  0.0000E+00  0.8000E+00
     -8.710  0.0000E+00  0.8000E+00
     -8.603  0.0000E+00  0.8000E+00
     -8.496  0.0000E+00  0.8000E+00
     -8.389  0.0000E+00  0.8000E+00
     -8.282  0.0000E+00  0.8000E+00
     -8.175  0.0000E+00  0.8000E+00
     -8.069  0.0000E+00  0.8000E+00
     -7.962  0.0000E+00  0.8000E+00
     -7.855  0.0000E+00  0.8000E+00
     -7.748  0.0000E+00  0.8000E+00
     -7.641  0.0000E+00  0.8000E+00
     -7.534  0.0000E+00  0.8000E+00
     -7.428  0.0000E+00  0.8000E+00
     -7.321  0.0000E+00  0.8000E+00
     -7.214  0.0000E+00  0.8000E+00
     -7.107  0.0000E+00  0.8000E+00
     -7.000  0.0000E+00  0.8000E+00
     -6.893  0.0000E+00  0.8000E+00
     -6.787  0.0000E+00  0.8000E+00
     -6.680  0.0000E+00  0.8000E+00
     -6.573  0.0000E+00  0.8000E+00
     -6.466  0.0000E+00  0.8000E+00
     -6.359  0.0000E+00  0.8000E+00
     -6.252  0.0000E+00  0.8000E+00
     -6.146  0.0000E+00  0.8000E+00
     -6.039  0.0000E+00  0.8000E+00
     -5.932  0.0000E+00  0.8000E+00
     -5.825  0.0000E+00  0.8000E+00
     -5.718  0.0000E+00  0.8000E+00
     -5.611  0.0000E+00  0.8000E+00
     -5.505  0.0000E+00  0.8000E+00
     -5.398  0.0000E+00  0.8000E+00
     -5.291  0.0000E+00  0.8000E+00
     -5.184  0.0000E+00  0.8000E+00
     -5.077  0.0000E+00  0.8000E+00
     -4.970  0.0000E+00  0.8000E+00
     -4.864  0.0000E+00  0.8000E+00
     -4.757  0.0000E+00  0.8000E+00
     -4.650  0.0000E+00  0.8000E+00
     -4.543  0.0000E+00  0.8000E+00
     -4.436  0.0000E+00  0.8000E+00
     -4.329  0.0000E+00  0.8000E+00
     -4.223  0.0000E+00  0.8000E+00
     -4.116  0.0000E+00  0.8000E+00
     -4.009  0.0000E+00  0.8000E+00
     -3.902  0.0000E+00  0.8000E+00
     -3.795  0.0000E+00  0.8000E+00
     -3.688  0.0000E+00  0.8000E+00
     -3.582  0.0000E+00  0.8000E+00
     -3.475  0.0000E+00  0.8000E+00
     -3.368  0.0000E+00  0.8000E+00
     -3.261  0.0000E+00  0.8000E+00
     -3.154  0.0000E+00  0.8000E+00
     -3.047  0.0000E+00  0.8000E+00
     -2.941  0.0000E+00  0.8000E+00
     -2.834  0.0000E+00  0.8000E+00
     -2.727  0.0000E+00  0.8000E+00
     -2.620  0.0000E+00  0.8000E+00
     -2.513  0.0000E+00  0.8000E+00
     -2.406  0.0000E+00  0.8000E+00
     -2.300  0.0000E+00  0.8000E+00
     -2.193  0.0000E+00  0.8000E+00
     -2.086  0.0000E+00  0.8000E+00
     -1.979  0.0000E+00  0.8000E+00
     -1.872  0.0000E+00  0.8000E+00
     -1.765  0.0000E+00  0.8000E+00
     -1.659  0.0000E+00  0.8000E+00
     -1.552  0.0000E+00  0.8000E+00
     -1.445  0.1730E-07  0.8000E+00
     -1.338  0.5269E-02  0.8006E+00
     -1.231  0.5018E+00  0.8542E+00
     -1.124  0.1949E+00  0.8750E+00
     -1.018  0.3765E-01  0.8790E+00
     -0.911  0.1917E+00  0.8995E+00
     -0.804  0.2306E+00  0.9241E+00
     -0.697  0.6391E+00  0.9924E+00
     -0.590  0.1710E+01  0.1175E+01
     -0.483  0.2999E+00  0.1207E+01
     -0.377  0.1228E+01  0.1338E+01
     -0.270  0.6952E+00  0.1413E+01
     -0.163  0.1897E+00  0.1433E+01
     -0.056  0.6014E+00  0.1497E+01
      0.051  0.2714E-01  0.1500E+01
      0.158  0.5910E-06  0.1500E+01
      0.264  0.2026E-14  0.1500E+01
      0.371  0.5063E-08  0.1500E+01
      0.478  0.4006E-02  0.1500E+01
      0.585  0.8429E+00  0.1590E+01
      0.692  0.9979E+00  0.1697E+01
      0.799  0.8299E+00  0.1786E+01
      0.905  0.1334E+00  0.1800E+01
      1.012  0.3363E-04  0.1800E+01
      1.119  0.2137E-07  0.1800E+01
      1.226  0.1016E-01  0.1801E+01
      1.333  0.1396E+01  0.1950E+01
      1.440  0.6997E+00  0.2025E+01
      1.546  0.1844E-02  0.2025E+01
      1.653  0.6452E+00  0.2094E+01
      1.760  0.1004E+01  0.2201E+01
      1.867  0.1235E+01  0.2333E+01
      1.974  0.6525E+00  0.2403E+01
      2.081  0.1327E+01  0.2545E+01
      2.187  0.2111E+01  0.2770E+01
      2.294  0.8661E+00  0.2863E+01
      2.401  0.1504E+00  0.2879E+01
      2.508  0.8208E+00  0.2967E+01
      2.615  0.1506E+01  0.3127E+01
      2.722  0.2115E+00  0.3150E+01
      2.828  0.1312E-01  0.3151E+01
      2.935  0.3923E+00  0.3193E+01
      3.042  0.6276E-01  0.3200E+01
      3.149  0.8531E-05  0.3200E+01
      3.256  0.2022E-12  0.3200E+01
      3.363  0.0000E+00  0.3200E+01
      3.469  0.0000E+00  0.3200E+01
      3.576  0.0000E+00  0.3200E+01
      3.683  0.0000E+00  0.3200E+01
      3.790  0.0000E+00  0.3200E+01
      3.897  0.0000E+00  0.3200E+01
      4.004  0.0000E+00  0.3200E+01
      4.110  0.0000E+00  0.3200E+01
      4.217  0.0000E+00  0.3200E+01
      4.324  0.0000E+00  0.3200E+01
      4.431  0.0000E+00  0.3200E+01
      4.538  0.0000E+00  0.3200E+01
      4.645  0.0000E+00  0.3200E+01
      4.751  0.0000E+00  0.3200E+01
      4.858  0.0000E+00  0.3200E+01
      4.965  0.0000E+00  0.3200E+01
      5.072  0.0000E+00  0.3200E+01
      5.179  0.0000E+00  0.3200E+01
      5.286  0.0000E+00  0.3200E+01
      5.392  0.0000E+00  0.3200E+01
      5.499  0.0000E+00  0.3200E+01
      5.606  0.0000E+00  0.3200E+01
      5.713  0.0000E+00  0.3200E+01
      5.820  0.0000E+00  0.3200E+01
      5.927  0.0000E+00  0.3200E+01
      6.033  0.0000E+00  0.3200E+01
      6.140  0.0000E+00  0.3200E+01
      6.247  0.0000E+00  0.3200E+01
      6.354  0.0000E+00  0.3200E+01
      6.461  0.0000E+00  0.3200E+01
      6.568  0.0000E+00  0.3200E+01
      6.674  0.0000E+00  0.3200E+01
      6.781  0.0000E+00  0.3200E+01
      6.888  0.0000E+00  0.3200E+01
      6.995  0.0000E+00  0.3200E+01
      7.102  0.0000E+00  0.3200E+01
      7.209  0.0000E+00  0.3200E+01
      7.315  0.0000E+00  0.3200E+01
      7.422  0.0000E+00  0.3200E+01
      7.529  0.0000E+00  0.3200E+01
      7.636  0.0000E+00  0.3200E+01
      7.743  0.0000E+00  0.3200E+01
      7.850  0.0000E+00  0.3200E+01
      7.956  0.0000E+00  0.3200E+01
      8.063  0.0000E+00  0.3200E+01
      8.170  0.1958E-11  0.3200E+01
      8.277  0.2422E-04  0.3200E+01
      8.384  0.5743E-01  0.3206E+01
      8.491  0.1743E+00  0.3225E+01
      8.597  0.2298E-02  0.3225E+01
      8.704  0.1002E-07  0.3225E+01
      8.811  0.0000E+00  0.3225E+01
      8.918  0.0000E+00  0.3225E+01
      9.025  0.0000E+00  0.3225E+01
      9.132  0.0000E+00  0.3225E+01
      9.238  0.0000E+00  0.3225E+01
      9.345  0.0000E+00  0.3225E+01
      9.452  0.0000E+00  0.3225E+01
      9.559  0.0000E+00  0.3225E+01
      9.666  0.0000E+00  0.3225E+01
      9.773  0.6065E-10  0.3225E+01
      9.879  0.2715E-03  0.3225E+01
      9.986  0.2572E+00  0.3253E+01
     10.093  0.4420E+00  0.3300E+01
     10.200  0.2574E-02  0.3300E+01
     10.307  0.4131E-08  0.3300E+01
     10.414  0.1755E-09  0.3300E+01
     10.520  0.2932E-03  0.3300E+01
     10.627  0.1166E+00  0.3312E+01
     10.734  0.1192E+00  0.3325E+01
     10.841  0.4357E+00  0.3372E+01
     10.948  0.2639E+00  0.3400E+01
     11.055  0.2976E-03  0.3400E+01
     11.161  0.7168E-10  0.3400E+01
     11.268  0.6659E-05  0.3400E+01
     11.375  0.7353E-01  0.3408E+01
     11.482  0.6014E+00  0.3472E+01
     11.589  0.2712E-01  0.3475E+01
     11.696  0.5901E-06  0.3475E+01
     11.802  0.6355E-04  0.3475E+01
     11.909  0.1649E+00  0.3493E+01
     12.016  0.5295E+00  0.3549E+01
     12.123  0.7543E-02  0.3550E+01
     12.230  0.4633E-01  0.3555E+01
     12.337  0.1192E+01  0.3682E+01
     12.443  0.1711E+00  0.3701E+01
     12.550  0.4960E+00  0.3754E+01
     12.657  0.2014E+00  0.3775E+01
     12.764  0.2717E+00  0.3804E+01
     12.871  0.4280E+00  0.3850E+01
     12.978  0.2188E-02  0.3850E+01
     13.084  0.2513E-03  0.3850E+01
     13.191  0.2516E+00  0.3877E+01
     13.298  0.4474E+00  0.3925E+01
     13.405  0.1069E+00  0.3936E+01
     13.512  0.1231E+01  0.4068E+01
     13.619  0.6408E+00  0.4136E+01
     13.725  0.1301E+00  0.4150E+01
     13.832  0.3148E-04  0.4150E+01
     13.939  0.1390E-11  0.4150E+01
     14.046  0.0000E+00  0.4150E+01
     14.153  0.0000E+00  0.4150E+01
     14.260  0.4222E-10  0.4150E+01
     14.366  0.3445E-03  0.4150E+01
     14.473  0.5890E+00  0.4213E+01
     14.580  0.1501E+01  0.4373E+01
     14.687  0.1613E-01  0.4375E+01
     14.794  0.5843E-07  0.4375E+01
     14.901  0.1075E-12  0.4375E+01
     15.007  0.4423E-05  0.4375E+01
     15.114  0.3180E-01  0.4378E+01
     15.221  0.1958E+00  0.4399E+01
     15.328  0.6376E-02  0.4400E+01
     15.435  0.8928E-07  0.4400E+01
     15.542  0.2078E-15  0.4400E+01
     15.648  0.0000E+00  0.4400E+01
     15.755  0.0000E+00  0.4400E+01
     15.862  0.0000E+00  0.4400E+01
     15.969  0.0000E+00  0.4400E+01
     16.076  0.0000E+00  0.4400E+01
     16.183  0.0000E+00  0.4400E+01
     16.289  0.0000E+00  0.4400E+01
     16.396  0.0000E+00  0.4400E+01
     16.503  0.0000E+00  0.4400E+01
     16.610  0.0000E+00  0.4400E+01
     16.60984185    -15.44012103  301      3.16221159      1.00000000
    -15.440  0.0000E+00  0.0000E+00  0.0000E+00  0.0000E+00  0.0000E+00  0.0000E+00  0.0000E+00  0.0000E+00  0.0000E+00
    -15.333  0.0000E+00  0.0000E+00  0.0000E+00  0.0000E+00  0.0000E+00  0.0000E+00  0.0000E+00  0.0000E+00  0.0000E+00
    -15.226  0.0000E+00  0.0000E+00  0.0000E+00  0.0000E+00  0.0000E+00  0.0000E+00  0.0000E+00  0.0000E+00  0.0000E+00
    -15.120  0.0000E+00  0.0000E+00  0.0000E+00  0.0000E+00  0.0000E+00  0.0000E+00  0.0000E+00  0.0000E+00  0.0000E+00
    -15.013  0.0000E+00  0.0000E+00  0.0000E+00  0.0000E+00  0.0000E+00  0.0000E+00  0.0000E+00  0.0000E+00  0.0000E+00
    -14.906  0.0000E+00  0.0000E+00  0.0000E+00  0.0000E+00  0.0000E+00  0.0000E+00  0.0000E+00  0.0000E+00  0.0000E+00
    -14.799  0.0000E+00  0.0000E+00  0.0000E+00  0.0000E+00  0.0000E+00  0.0000E+00  0.0000E+00  0.0000E+00  0.0000E+00
    -14.692  0.0000E+00  0.0000E+00  0.0000E+00  0.0000E+00  0.0000E+00  0.0000E+00  0.0000E+00  0.0000E+00  0.0000E+00
    -14.585  0.0000E+00  0.0000E+00  0.0000E+00  0.0000E+00  0.0000E+00  0.0000E+00  0.0000E+00  0.0000E+00  0.0000E+00
    -14.479  0.0000E+00  0.0000E+00  0.0000E+00  0.0000E+00  0.0000E+00  0.0000E+00  0.0000E+00  0.0000E+00  0.0000E+00
    -14.372  0.0000E+00  0.0000E+00  0.0000E+00  0.0000E+00  0.0000E+00  0.0000E+00  0.0000E+00  0.0000E+00  0.0000E+00
    -14.265  0.1786E-16  0.3792E-18  0.3792E-18  0.3792E-18  0.1429E-21  0.1429E-21  0.3481E-33  0.1429E-21  0.3220E-34
    -14.158  0.8185E-08  0.1737E-09  0.1737E-09  0.1737E-09  0.6545E-13  0.6545E-13  0.1595E-24  0.6545E-13  0.1475E-25
    -14.051  0.5845E-03  0.1241E-04  0.1241E-04  0.1241E-04  0.4674E-08  0.4674E-08  0.1139E-19  0.4674E-08  0.1054E-20
    -13.944  0.1795E-01  0.3811E-03  0.3811E-03  0.3811E-03  0.1436E-06  0.1436E-06  0.3498E-18  0.1436E-06  0.3236E-19
    -13.838  0.2916E-02  0.6189E-04  0.6189E-04  0.6189E-04  0.2332E-07  0.2332E-07  0.5456E-13  0.2332E-07  0.1637E-12
    -13.731  0.3369E-04  0.1032E-05  0.1032E-05  0.6587E-05  0.2150E-08  0.1515E-09  0.1433E-06  0.2150E-08  0.4299E-06
    -13.624  0.1966E-01  0.6046E-03  0.6046E-03  0.3885E-02  0.1268E-05  0.8758E-07  0.8463E-04  0.1268E-05  0.2539E-03
    -13.517  0.2521E-01  0.7754E-03  0.7754E-03  0.4983E-02  0.1626E-05  0.1123E-06  0.1085E-03  0.1626E-05  0.3256E-03
    -13.410  0.3540E-03  0.8536E-04  0.8536E-04  0.3193E-04  0.1530E-07  0.1540E-06  0.2371E-05  0.1530E-07  0.7112E-05
    -13.303  0.2057E-01  0.6524E-02  0.6524E-02  0.1058E-02  0.7313E-06  0.1215E-04  0.1556E-03  0.7313E-06  0.4667E-03
    -13.197  0.7132E-02  0.2294E-02  0.2294E-02  0.4465E-03  0.2934E-06  0.4171E-05  0.5451E-04  0.2934E-06  0.1635E-03
    -13.090  0.1400E-01  0.3174E-02  0.3174E-02  0.7645E-02  0.2828E-05  0.1374E-05  0.6684E-03  0.2828E-05  0.2005E-02
    -12.983  0.1251E-01  0.2693E-02  0.2693E-02  0.5993E-02  0.1797E-05  0.2696E-05  0.9763E-03  0.1797E-05  0.2449E-02
    -12.876  0.1637E-01  0.2210E-01  0.2210E-01  0.8487E-02  0.2032E-05  0.2772E-04  0.3754E-02  0.2032E-05  0.4934E-02
    -12.769  0.2059E-02  0.8201E-02  0.8201E-02  0.4401E-02  0.9237E-06  0.6853E-05  0.1530E-02  0.9237E-06  0.2762E-02
    -12.662  0.8578E-02  0.9225E-02  0.9225E-02  0.1383E-01  0.2719E-05  0.7055E-05  0.1538E-01  0.2719E-05  0.1152E-01
    -12.556  0.1556E-02  0.1381E-02  0.1381E-02  0.6316E-02  0.1274E-05  0.1128E-06  0.5475E-02  0.1274E-05  0.2418E-02
    -12.449  0.9200E-06  0.1160E-05  0.1160E-05  0.5844E-05  0.1178E-08  0.5213E-10  0.4729E-05  0.1178E-08  0.1832E-05
    -12.342  0.1744E-12  0.2274E-12  0.2274E-12  0.1151E-11  0.2321E-15  0.9953E-17  0.9272E-12  0.2321E-15  0.3557E-12
    -12.235  0.0000E+00  0.0000E+00  0.0000E+00  0.0000E+00  0.0000E+00  0.0000E+00  0.0000E+00  0.0000E+00  0.0000E+00
    -12.128  0.0000E+00  0.0000E+00  0.0000E+00  0.0000E+00  0.0000E+00  0.0000E+00  0.0000E+00  0.0000E+00  0.0000E+00
    -12.021  0.0000E+00  0.0000E+00  0.0000E+00  0.0000E+00  0.0000E+00  0.0000E+00  0.0000E+00  0.0000E+00  0.0000E+00
    -11.915  0.0000E+00  0.0000E+00  0.0000E+00  0.0000E+00  0.0000E+00  0.0000E+00  0.0000E+00  0.0000E+00  0.0000E+00
    -11.808  0.0000E+00  0.0000E+00  0.0000E+00  0.0000E+00  0.0000E+00  0.0000E+00  0.0000E+00  0.0000E+00  0.0000E+00
    -11.701  0.0000E+00  0.0000E+00  0.0000E+00  0.0000E+00  0.0000E+00  0.0000E+00  0.0000E+00  0.0000E+00  0.0000E+00
    -11.594  0.0000E+00  0.0000E+00  0.0000E+00  0.0000E+00  0.0000E+00  0.0000E+00  0.0000E+00  0.0000E+00  0.0000E+00
    -11.487  0.0000E+00  0.0000E+00  0.0000E+00  0.0000E+00  0.0000E+00  0.0000E+00  0.0000E+00  0.0000E+00  0.0000E+00
    -11.380  0.0000E+00  0.0000E+00  0.0000E+00  0.0000E+00  0.0000E+00  0.0000E+00  0.0000E+00  0.0000E+00  0.0000E+00
    -11.274  0.0000E+00  0.0000E+00  0.0000E+00  0.0000E+00  0.0000E+00  0.0000E+00  0.0000E+00  0.0000E+00  0.0000E+00
    -11.167  0.0000E+00  0.0000E+00  0.0000E+00  0.0000E+00  0.0000E+00  0.0000E+00  0.0000E+00  0.0000E+00  0.0000E+00
    -11.060  0.0000E+00  0.0000E+00  0.0000E+00  0.0000E+00  0.0000E+00  0.0000E+00  0.0000E+00  0.0000E+00  0.0000E+00
    -10.953  0.0000E+00  0.0000E+00  0.0000E+00  0.0000E+00  0.0000E+00  0.0000E+00  0.0000E+00  0.0000E+00  0.0000E+00
    -10.846  0.0000E+00  0.0000E+00  0.0000E+00  0.0000E+00  0.0000E+00  0.0000E+00  0.0000E+00  0.0000E+00  0.0000E+00
    -10.739  0.0000E+00  0.0000E+00  0.0000E+00  0.0000E+00  0.0000E+00  0.0000E+00  0.0000E+00  0.0000E+00  0.0000E+00
    -10.633  0.0000E+00  0.0000E+00  0.0000E+00  0.0000E+00  0.0000E+00  0.0000E+00  0.0000E+00  0.0000E+00  0.0000E+00
    -10.526  0.0000E+00  0.0000E+00  0.0000E+00  0.0000E+00  0.0000E+00  0.0000E+00  0.0000E+00  0.0000E+00  0.0000E+00
    -10.419  0.0000E+00  0.0000E+00  0.0000E+00  0.0000E+00  0.0000E+00  0.0000E+00  0.0000E+00  0.0000E+00  0.0000E+00
    -10.312  0.0000E+00  0.0000E+00  0.0000E+00  0.0000E+00  0.0000E+00  0.0000E+00  0.0000E+00  0.0000E+00  0.0000E+00
    -10.205  0.0000E+00  0.0000E+00  0.0000E+00  0.0000E+00  0.0000E+00  0.0000E+00  0.0000E+00  0.0000E+00  0.0000E+00
    -10.098  0.0000E+00  0.0000E+00  0.0000E+00  0.0000E+00  0.0000E+00  0.0000E+00  0.0000E+00  0.0000E+00  0.0000E+00
     -9.992  0.0000E+00  0.0000E+00  0.0000E+00  0.0000E+00  0.0000E+00  0.0000E+00  0.0000E+00  0.0000E+00  0.0000E+00
     -9.885  0.0000E+00  0.0000E+00  0.0000E+00  0.0000E+00  0.0000E+00  0.0000E+00  0.0000E+00  0.0000E+00  0.0000E+00
     -9.778  0.0000E+00  0.0000E+00  0.0000E+00  0.0000E+00  0.0000E+00  0.0000E+00  0.0000E+00  0.0000E+00  0.0000E+00
     -9.671  0.0000E+00  0.0000E+00  0.0000E+00  0.0000E+00  0.0000E+00  0.0000E+00  0.0000E+00  0.0000E+00  0.0000E+00
     -9.564  0.0000E+00  0.0000E+00  0.0000E+00  0.0000E+00  0.0000E+00  0.0000E+00  0.0000E+00  0.0000E+00  0.0000E+00
     -9.457  0.0000E+00  0.0000E+00  0.0000E+00  0.0000E+00  0.0000E+00  0.0000E+00  0.0000E+00  0.0000E+00  0.0000E+00
     -9.351  0.0000E+00  0.0000E+00  0.0000E+00  0.0000E+00  0.0000E+00  0.0000E+00  0.0000E+00  0.0000E+00  0.0000E+00
     -9.244  0.0000E+00  0.0000E+00  0.0000E+00  0.0000E+00  0.0000E+00  0.0000E+00  0.0000E+00  0.0000E+00  0.0000E+00
     -9.137  0.0000E+00  0.0000E+00  0.0000E+00  0.0000E+00  0.0000E+00  0.0000E+00  0.0000E+00  0.0000E+00  0.0000E+00
     -9.030  0.0000E+00  0.0000E+00  0.0000E+00  0.0000E+00  0.0000E+00  0.0000E+00  0.0000E+00  0.0000E+00  0.0000E+00
     -8.923  0.0000E+00  0.0000E+00  0.0000E+00  0.0000E+00  0.0000E+00  0.0000E+00  0.0000E+00  0.0000E+00  0.0000E+00
     -8.816  0.0000E+00  0.0000E+00  0.0000E+00  0.0000E+00  0.0000E+00  0.0000E+00  0.0000E+00  0.0000E+00  0.0000E+00
     -8.710  0.0000E+00  0.0000E+00  0.0000E+00  0.0000E+00  0.0000E+00  0.0000E+00  0.0000E+00  0.0000E+00  0.0000E+00
     -8.603  0.0000E+00  0.0000E+00  0.0000E+00  0.0000E+00  0.0000E+00  0.0000E+00  0.0000E+00  0.0000E+00  0.0000E+00
     -8.496  0.0000E+00  0.0000E+00  0.0000E+00  0.0000E+00  0.0000E+00  0.0000E+00  0.0000E+00  0.0000E+00  0.0000E+00
     -8.389  0.0000E+00  0.0000E+00  0.0000E+00  0.0000E+00  0.0000E+00  0.0000E+00  0.0000E+00  0.0000E+00  0.0000E+00
     -8.282  0.0000E+00  0.0000E+00  0.0000E+00  0.0000E+00  0.0000E+00  0.0000E+00  0.0000E+00  0.0000E+00  0.0000E+00
     -8.175  0.0000E+00  0.0000E+00  0.0000E+00  0.0000E+00  0.0000E+00  0.0000E+00  0.0000E+00  0.0000E+00  0.0000E+00
     -8.069  0.0000E+00  0.0000E+00  0.0000E+00  0.0000E+00  0.0000E+00  0.0000E+00  0.0000E+00  0.0000E+00  0.0000E+00
     -7.962  0.0000E+00  0.0000E+00  0.0000E+00  0.0000E+00  0.0000E+00  0.0000E+00  0.0000E+00  0.0000E+00  0.0000E+00
     -7.855  0.0000E+00  0.0000E+00  0.0000E+00  0.0000E+00  0.0000E+00  0.0000E+00  0.0000E+00  0.0000E+00  0.0000E+00
     -7.748  0.0000E+00  0.0000E+00  0.0000E+00  0.0000E+00  0.0000E+00  0.0000E+00  0.0000E+00  0.0000E+00  0.0000E+00
     -7.641  0.0000E+00  0.0000E+00  0.0000E+00  0.0000E+00  0.0000E+00  0.0000E+00  0.0000E+00  0.0000E+00  0.0000E+00
     -7.534  0.0000E+00  0.0000E+00  0.0000E+00  0.0000E+00  0.0000E+00  0.0000E+00  0.0000E+00  0.0000E+00  0.0000E+00
     -7.428  0.0000E+00  0.0000E+00  0.0000E+00  0.0000E+00  0.0000E+00  0.0000E+00  0.0000E+00  0.0000E+00  0.0000E+00
     -7.321  0.0000E+00  0.0000E+00  0.0000E+00  0.0000E+00  0.0000E+00  0.0000E+00  0.0000E+00  0.0000E+00  0.0000E+00
     -7.214  0.0000E+00  0.0000E+00  0.0000E+00  0.0000E+00  0.0000E+00  0.0000E+00  0.0000E+00  0.0000E+00  0.0000E+00
     -7.107  0.0000E+00  0.0000E+00  0.0000E+00  0.0000E+00  0.0000E+00  0.0000E+00  0.0000E+00  0.0000E+00  0.0000E+00
     -7.000  0.0000E+00  0.0000E+00  0.0000E+00  0.0000E+00  0.0000E+00  0.0000E+00  0.0000E+00  0.0000E+00  0.0000E+00
     -6.893  0.0000E+00  0.0000E+00  0.0000E+00  0.0000E+00  0.0000E+00  0.0000E+00  0.0000E+00  0.0000E+00  0.0000E+00
     -6.787  0.0000E+00  0.0000E+00  0.0000E+00  0.0000E+00  0.0000E+00  0.0000E+00  0.0000E+00  0.0000E+00  0.0000E+00
     -6.680  0.0000E+00  0.0000E+00  0.0000E+00  0.0000E+00  0.0000E+00  0.0000E+00  0.0000E+00  0.0000E+00  0.0000E+00
     -6.573  0.0000E+00  0.0000E+00  0.0000E+00  0.0000E+00  0.0000E+00  0.0000E+00  0.0000E+00  0.0000E+00  0.0000E+00
     -6.466  0.0000E+00  0.0000E+00  0.0000E+00  0.0000E+00  0.0000E+00  0.0000E+00  0.0000E+00  0.0000E+00  0.0000E+00
     -6.359  0.0000E+00  0.0000E+00  0.0000E+00  0.0000E+00  0.0000E+00  0.0000E+00  0.0000E+00  0.0000E+00  0.0000E+00
     -6.252  0.0000E+00  0.0000E+00  0.0000E+00  0.0000E+00  0.0000E+00  0.0000E+00  0.0000E+00  0.0000E+00  0.0000E+00
     -6.146  0.0000E+00  0.0000E+00  0.0000E+00  0.0000E+00  0.0000E+00  0.0000E+00  0.0000E+00  0.0000E+00  0.0000E+00
     -6.039  0.0000E+00  0.0000E+00  0.0000E+00  0.0000E+00  0.0000E+00  0.0000E+00  0.0000E+00  0.0000E+00  0.0000E+00
     -5.932  0.0000E+00  0.0000E+00  0.0000E+00  0.0000E+00  0.0000E+00  0.0000E+00  0.0000E+00  0.0000E+00  0.0000E+00
     -5.825  0.0000E+00  0.0000E+00  0.0000E+00  0.0000E+00  0.0000E+00  0.0000E+00  0.0000E+00  0.0000E+00  0.0000E+00
     -5.718  0.0000E+00  0.0000E+00  0.0000E+00  0.0000E+00  0.0000E+00  0.0000E+00  0.0000E+00  0.0000E+00  0.0000E+00
     -5.611  0.0000E+00  0.0000E+00  0.0000E+00  0.0000E+00  0.0000E+00  0.0000E+00  0.0000E+00  0.0000E+00  0.0000E+00
     -5.505  0.0000E+00  0.0000E+00  0.0000E+00  0.0000E+00  0.0000E+00  0.0000E+00  0.0000E+00  0.0000E+00  0.0000E+00
     -5.398  0.0000E+00  0.0000E+00  0.0000E+00  0.0000E+00  0.0000E+00  0.0000E+00  0.0000E+00  0.0000E+00  0.0000E+00
     -5.291  0.0000E+00  0.0000E+00  0.0000E+00  0.0000E+00  0.0000E+00  0.0000E+00  0.0000E+00  0.0000E+00  0.0000E+00
     -5.184  0.0000E+00  0.0000E+00  0.0000E+00  0.0000E+00  0.0000E+00  0.0000E+00  0.0000E+00  0.0000E+00  0.0000E+00
     -5.077  0.0000E+00  0.0000E+00  0.0000E+00  0.0000E+00  0.0000E+00  0.0000E+00  0.0000E+00  0.0000E+00  0.0000E+00
     -4.970  0.0000E+00  0.0000E+00  0.0000E+00  0.0000E+00  0.0000E+00  0.0000E+00  0.0000E+00  0.0000E+00  0.0000E+00
     -4.864  0.0000E+00  0.0000E+00  0.0000E+00  0.0000E+00  0.0000E+00  0.0000E+00  0.0000E+00  0.0000E+00  0.0000E+00
     -4.757  0.0000E+00  0.0000E+00  0.0000E+00  0.0000E+00  0.0000E+00  0.0000E+00  0.0000E+00  0.0000E+00  0.0000E+00
     -4.650  0.0000E+00  0.0000E+00  0.0000E+00  0.0000E+00  0.0000E+00  0.0000E+00  0.0000E+00  0.0000E+00  0.0000E+00
     -4.543  0.0000E+00  0.0000E+00  0.0000E+00  0.0000E+00  0.0000E+00  0.0000E+00  0.0000E+00  0.0000E+00  0.0000E+00
     -4.436  0.0000E+00  0.0000E+00  0.0000E+00  0.0000E+00  0.0000E+00  0.0000E+00  0.0000E+00  0.0000E+00  0.0000E+00
     -4.329  0.0000E+00  0.0000E+00  0.0000E+00  0.0000E+00  0.0000E+00  0.0000E+00  0.0000E+00  0.0000E+00  0.0000E+00
     -4.223  0.0000E+00  0.0000E+00  0.0000E+00  0.0000E+00  0.0000E+00  0.0000E+00  0.0000E+00  0.0000E+00  0.0000E+00
     -4.116  0.0000E+00  0.0000E+00  0.0000E+00  0.0000E+00  0.0000E+00  0.0000E+00  0.0000E+00  0.0000E+00  0.0000E+00
     -4.009  0.0000E+00  0.0000E+00  0.0000E+00  0.0000E+00  0.0000E+00  0.0000E+00  0.0000E+00  0.0000E+00  0.0000E+00
     -3.902  0.0000E+00  0.0000E+00  0.0000E+00  0.0000E+00  0.0000E+00  0.0000E+00  0.0000E+00  0.0000E+00  0.0000E+00
     -3.795  0.0000E+00  0.0000E+00  0.0000E+00  0.0000E+00  0.0000E+00  0.0000E+00  0.0000E+00  0.0000E+00  0.0000E+00
     -3.688  0.0000E+00  0.0000E+00  0.0000E+00  0.0000E+00  0.0000E+00  0.0000E+00  0.0000E+00  0.0000E+00  0.0000E+00
     -3.582  0.0000E+00  0.0000E+00  0.0000E+00  0.0000E+00  0.0000E+00  0.0000E+00  0.0000E+00  0.0000E+00  0.0000E+00
     -3.475  0.0000E+00  0.0000E+00  0.0000E+00  0.0000E+00  0.0000E+00  0.0000E+00  0.0000E+00  0.0000E+00  0.0000E+00
     -3.368  0.0000E+00  0.0000E+00  0.0000E+00  0.0000E+00  0.0000E+00  0.0000E+00  0.0000E+00  0.0000E+00  0.0000E+00
     -3.261  0.0000E+00  0.0000E+00  0.0000E+00  0.0000E+00  0.0000E+00  0.0000E+00  0.0000E+00  0.0000E+00  0.0000E+00
     -3.154  0.0000E+00  0.0000E+00  0.0000E+00  0.0000E+00  0.0000E+00  0.0000E+00  0.0000E+00  0.0000E+00  0.0000E+00
     -3.047  0.0000E+00  0.0000E+00  0.0000E+00  0.0000E+00  0.0000E+00  0.0000E+00  0.0000E+00  0.0000E+00  0.0000E+00
     -2.941  0.0000E+00  0.0000E+00  0.0000E+00  0.0000E+00  0.0000E+00  0.0000E+00  0.0000E+00  0.0000E+00  0.0000E+00
     -2.834  0.0000E+00  0.0000E+00  0.0000E+00  0.0000E+00  0.0000E+00  0.0000E+00  0.0000E+00  0.0000E+00  0.0000E+00
     -2.727  0.0000E+00  0.0000E+00  0.0000E+00  0.0000E+00  0.0000E+00  0.0000E+00  0.0000E+00  0.0000E+00  0.0000E+00
     -2.620  0.0000E+00  0.0000E+00  0.0000E+00  0.0000E+00  0.0000E+00  0.0000E+00  0.0000E+00  0.0000E+00  0.0000E+00
     -2.513  0.0000E+00  0.0000E+00  0.0000E+00  0.0000E+00  0.0000E+00  0.0000E+00  0.0000E+00  0.0000E+00  0.0000E+00
     -2.406  0.0000E+00  0.0000E+00  0.0000E+00  0.0000E+00  0.0000E+00  0.0000E+00  0.0000E+00  0.0000E+00  0.0000E+00
     -2.300  0.0000E+00  0.0000E+00  0.0000E+00  0.0000E+00  0.0000E+00  0.0000E+00  0.0000E+00  0.0000E+00  0.0000E+00
     -2.193  0.0000E+00  0.0000E+00  0.0000E+00  0.0000E+00  0.0000E+00  0.0000E+00  0.0000E+00  0.0000E+00  0.0000E+00
     -2.086  0.0000E+00  0.0000E+00  0.0000E+00  0.0000E+00  0.0000E+00  0.0000E+00  0.0000E+00  0.0000E+00  0.0000E+00
     -1.979  0.0000E+00  0.0000E+00  0.0000E+00  0.0000E+00  0.0000E+00  0.0000E+00  0.0000E+00  0.0000E+00  0.0000E+00
     -1.872  0.0000E+00  0.0000E+00  0.0000E+00  0.0000E+00  0.0000E+00  0.0000E+00  0.0000E+00  0.0000E+00  0.0000E+00
     -1.765  0.0000E+00  0.0000E+00  0.0000E+00  0.0000E+00  0.0000E+00  0.0000E+00  0.0000E+00  0.0000E+00  0.0000E+00
     -1.659  0.0000E+00  0.0000E+00  0.0000E+00  0.0000E+00  0.0000E+00  0.0000E+00  0.0000E+00  0.0000E+00  0.0000E+00
     -1.552  0.0000E+00  0.0000E+00  0.0000E+00  0.0000E+00  0.0000E+00  0.0000E+00  0.0000E+00  0.0000E+00  0.0000E+00
     -1.445  0.3950E-08  0.1063E-09  0.1063E-09  0.1063E-09  0.1350E-09  0.1350E-09  0.1188E-11  0.1350E-09  0.1188E-11
     -1.338  0.1203E-02  0.3237E-04  0.3237E-04  0.3237E-04  0.4109E-04  0.4109E-04  0.3617E-06  0.4109E-04  0.3617E-06
     -1.231  0.1146E+00  0.3083E-02  0.3083E-02  0.3083E-02  0.3914E-02  0.3914E-02  0.3445E-04  0.3914E-02  0.3445E-04
     -1.124  0.4449E-01  0.1197E-02  0.1197E-02  0.1197E-02  0.1520E-02  0.1520E-02  0.1338E-04  0.1520E-02  0.1338E-04
     -1.018  0.8855E-02  0.4337E-04  0.4337E-04  0.4337E-04  0.2908E-03  0.2908E-03  0.7343E-08  0.2908E-03  0.7342E-08
     -0.911  0.4504E-01  0.2280E-03  0.2280E-03  0.2280E-03  0.1479E-02  0.1479E-02  0.3421E-06  0.1479E-02  0.3421E-06
     -0.804  0.5888E-02  0.1332E-01  0.1332E-01  0.1332E-01  0.2408E-03  0.2410E-03  0.4467E-03  0.2408E-03  0.4467E-03
     -0.697  0.3841E-01  0.2958E-01  0.2958E-01  0.3274E-01  0.1051E-02  0.2085E-02  0.1131E-02  0.1051E-02  0.1442E-02
     -0.590  0.3000E+00  0.2218E-01  0.2218E-01  0.2916E-01  0.5151E-02  0.1698E-01  0.3545E-02  0.5151E-02  0.7563E-02
     -0.483  0.4557E-01  0.7816E-02  0.7816E-02  0.2413E-02  0.9337E-03  0.2416E-02  0.6750E-03  0.9337E-03  0.1245E-02
     -0.377  0.7483E-01  0.8109E-01  0.8109E-01  0.2187E-02  0.6012E-02  0.1829E-02  0.1400E-02  0.6012E-02  0.7500E-03
     -0.270  0.7671E-01  0.9731E-02  0.9731E-02  0.3449E-01  0.1845E-02  0.4003E-03  0.2965E-02  0.1845E-02  0.8544E-02
     -0.163  0.2876E-01  0.3054E-03  0.3054E-03  0.7430E-02  0.4433E-03  0.7563E-03  0.7040E-03  0.4433E-03  0.2112E-02
     -0.056  0.1202E+00  0.3516E-04  0.3516E-04  0.3651E-02  0.1572E-02  0.5832E-02  0.1053E-02  0.1572E-02  0.3160E-02
      0.051  0.5423E-02  0.1584E-05  0.1584E-05  0.1647E-03  0.7095E-04  0.2632E-03  0.4754E-04  0.7095E-04  0.1426E-03
      0.158  0.1181E-06  0.3450E-10  0.3450E-10  0.3586E-08  0.1545E-08  0.5731E-08  0.1035E-08  0.1545E-08  0.3106E-08
      0.264  0.4049E-15  0.1183E-18  0.1183E-18  0.1230E-16  0.5297E-17  0.1965E-16  0.3549E-17  0.5297E-17  0.1065E-16
      0.371  0.1567E-09  0.2962E-09  0.2962E-09  0.1337E-10  0.2925E-10  0.9891E-12  0.2436E-10  0.2925E-10  0.1460E-10
      0.478  0.1240E-03  0.2343E-03  0.2343E-03  0.1058E-04  0.2314E-04  0.7826E-06  0.1927E-04  0.2314E-04  0.1155E-04
      0.585  0.2606E-01  0.4918E-01  0.4918E-01  0.2451E-02  0.4866E-02  0.1738E-03  0.4052E-02  0.4866E-02  0.2449E-02
      0.692  0.2624E-01  0.3508E-01  0.3508E-01  0.4658E-01  0.4996E-02  0.1990E-02  0.4383E-02  0.4996E-02  0.6697E-02
      0.799  0.9222E-01  0.4018E-02  0.4018E-02  0.2899E-01  0.2841E-02  0.1633E-02  0.3057E-02  0.2841E-02  0.9163E-02
      0.905  0.2092E-01  0.5939E-03  0.5939E-03  0.1238E-03  0.4159E-03  0.1078E-03  0.4794E-03  0.4159E-03  0.1438E-02
      1.012  0.5286E-05  0.1496E-06  0.1496E-06  0.2252E-07  0.1048E-06  0.2686E-07  0.1208E-06  0.1048E-06  0.3624E-06
      1.119  0.2760E-09  0.3356E-09  0.3356E-09  0.1491E-08  0.1051E-09  0.2999E-10  0.8664E-10  0.1051E-09  0.1344E-09
      1.226  0.1233E-03  0.1532E-03  0.1532E-03  0.7229E-03  0.5106E-04  0.1404E-04  0.4202E-04  0.5106E-04  0.6556E-04