 vasp.5.4.4.18Apr17-6-g9f103f2a35 (build Apr 25 2017 10:43:04) complex          
  
 executed on             LinuxIFC date 2018.03.16  09:18:58
 running on   32 total cores
 distrk:  each k-point on    2 cores,   16 groups
 distr:  one band on NCORES_PER_BAND=   1 cores,    2 groups


--------------------------------------------------------------------------------------------------------


 INCAR:
 POTCAR:    PAW_PBE Mg 13Apr2007                  
 POTCAR:    PAW_PBE O 08Apr2002                   

 ----------------------------------------------------------------------------- 
|                                                                             |
|           W    W    AA    RRRRR   N    N  II  N    N   GGGG   !!!           |
|           W    W   A  A   R    R  NN   N  II  NN   N  G    G  !!!           |
|           W    W  A    A  R    R  N N  N  II  N N  N  G       !!!           |
|           W WW W  AAAAAA  RRRRR   N  N N  II  N  N N  G  GGG   !            |
|           WW  WW  A    A  R   R   N   NN  II  N   NN  G    G                |
|           W    W  A    A  R    R  N    N  II  N    N   GGGG   !!!           |
|                                                                             |
|      For optimal performance we recommend to set                            |
|        NCORE= 4 - approx SQRT( number of cores)                             |
|      NCORE specifies how many cores store one orbital (NPAR=cpu/NCORE).     |
|      This setting can  greatly improve the performance of VASP for DFT.     |
|      The default,   NCORE=1            might be grossly inefficient         |
|      on modern multi-core architectures or massively parallel machines.     |
|      Do your own testing !!!!                                               |
|      Unfortunately you need to use the default for GW and RPA calculations. |
|      (for HF NCORE is supported but not extensively tested yet)             |
|                                                                             |
 ----------------------------------------------------------------------------- 


 ----------------------------------------------------------------------------- 
|                                                                             |
|           W    W    AA    RRRRR   N    N  II  N    N   GGGG   !!!           |
|           W    W   A  A   R    R  NN   N  II  NN   N  G    G  !!!           |
|           W    W  A    A  R    R  N N  N  II  N N  N  G       !!!           |
|           W WW W  AAAAAA  RRRRR   N  N N  II  N  N N  G  GGG   !            |
|           WW  WW  A    A  R   R   N   NN  II  N   NN  G    G                |
|           W    W  A    A  R    R  N    N  II  N    N   GGGG   !!!           |
|                                                                             |
|      You have enabled k-point parallelism (KPAR>1).                         |
|      This developmental code was originally  written by Paul Kent at ORNL,  |
|      and carefully double checked in Vienna.                                |
|      GW as well as linear response parallelism added by Martijn Marsman     |
|      and Georg Kresse.                                                      |
|      Carefully verify results versus KPAR=1.                                |
|      Report problems to Paul Kent and Vienna.                               |
|                                                                             |
 ----------------------------------------------------------------------------- 

 POTCAR:    PAW_PBE Mg 13Apr2007                  
   VRHFIN =Mg: s2p0                                                             
   LEXCH  = PE                                                                  
   EATOM  =    23.0369 eV,    1.6932 Ry                                         
                                                                                
   TITEL  = PAW_PBE Mg 13Apr2007                                                
   LULTRA =        F    use ultrasoft PP ?                                      
   IUNSCR =        1    unscreen: 0-lin 1-nonlin 2-no                           
   RPACOR =    1.500    partial core radius                                     
   POMASS =   24.305; ZVAL   =    2.000    mass and valenz                      
   RCORE  =    2.000    outmost cutoff radius                                   
   RWIGS  =    2.880; RWIGS  =    1.524    wigner-seitz radius (au A)           
   ENMAX  =  126.143; ENMIN  =   94.607 eV                                      
   RCLOC  =    1.506    cutoff for local pot                                    
   LCOR   =        T    correct aug charges                                     
   LPAW   =        T    paw PP                                                  
   EAUG   =  454.734                                                            
   DEXC   =    0.000                                                            
   RMAX   =    2.045    core radius for proj-oper                               
   RAUG   =    1.300    factor for augmentation sphere                          
   RDEP   =    2.025    radius for radial grids                                 
   RDEPT  =    1.942    core radius for aug-charge                              
                                                                                
   Atomic configuration                                                         
    6 entries                                                                   
     n  l   j            E        occ.                                          
     1  0  0.50     -1259.6230   2.0000                                         
     2  0  0.50       -79.8442   2.0000                                         
     2  1  1.50       -46.6121   6.0000                                         
     3  0  0.50        -4.7055   2.0000                                         
     3  1  0.50        -1.3660   0.0000                                         
     3  2  1.50        -1.3606   0.0000                                         
   Description                                                                  
     l       E           TYP  RCUT    TYP  RCUT                                 
     0     -4.7054661     23  2.000                                             
     0     27.2116520     23  2.000                                             
     1      1.3605826     23  2.000                                             
     1     27.2116520     23  2.000                                             
     2     -1.3605826     23  2.000                                             
  local pseudopotential read in
  partial core-charges read in
  partial kinetic energy density read in
  atomic valenz-charges read in
  non local Contribution for L=           0  read in
    real space projection operators read in
  non local Contribution for L=           0  read in
    real space projection operators read in
  non local Contribution for L=           1  read in
    real space projection operators read in
  non local Contribution for L=           1  read in
    real space projection operators read in
  non local Contribution for L=           2  read in
    real space projection operators read in
    PAW grid and wavefunctions read in
 
   number of l-projection  operators is LMAX  =           5
   number of lm-projection operators is LMMAX =          13
 
 POTCAR:    PAW_PBE O 08Apr2002                   
   VRHFIN =O: s2p4                                                              
   LEXCH  = PE                                                                  
   EATOM  =   432.3788 eV,   31.7789 Ry                                         
                                                                                
   TITEL  = PAW_PBE O 08Apr2002                                                 
   LULTRA =        F    use ultrasoft PP ?                                      
   IUNSCR =        1    unscreen: 0-lin 1-nonlin 2-no                           
   RPACOR =    1.200    partial core radius                                     
   POMASS =   16.000; ZVAL   =    6.000    mass and valenz                      
   RCORE  =    1.520    outmost cutoff radius                                   
   RWIGS  =    1.550; RWIGS  =    0.820    wigner-seitz radius (au A)           
   ENMAX  =  400.000; ENMIN  =  300.000 eV                                      
   ICORE  =        2    local potential                                         
   LCOR   =        T    correct aug charges                                     
   LPAW   =        T    paw PP                                                  
   EAUG   =  605.392                                                            
   DEXC   =    0.000                                                            
   RMAX   =    1.553    core radius for proj-oper                               
   RAUG   =    1.300    factor for augmentation sphere                          
   RDEP   =    1.550    radius for radial grids                                 
   RDEPT  =    1.329    core radius for aug-charge                              
                                                                                
   Atomic configuration                                                         
    4 entries                                                                   
     n  l   j            E        occ.                                          
     1  0  0.50      -514.6923   2.0000                                         
     2  0  0.50       -23.9615   2.0000                                         
     2  1  0.50        -9.0305   4.0000                                         
     3  2  1.50        -9.5241   0.0000                                         
   Description                                                                  
     l       E           TYP  RCUT    TYP  RCUT                                 
     0    -23.9615318     23  1.200                                             
     0     -9.5240782     23  1.200                                             
     1     -9.0304911     23  1.520                                             
     1      8.1634956     23  1.520                                             
     2     -9.5240782      7  1.500                                             
  local pseudopotential read in
  partial core-charges read in
  partial kinetic energy density read in
  kinetic energy density of atom read in
  atomic valenz-charges read in
  non local Contribution for L=           0  read in
    real space projection operators read in
  non local Contribution for L=           0  read in
    real space projection operators read in
  non local Contribution for L=           1  read in
    real space projection operators read in
  non local Contribution for L=           1  read in
    real space projection operators read in
    PAW grid and wavefunctions read in
 
   number of l-projection  operators is LMAX  =           4
   number of lm-projection operators is LMMAX =           8
 

 ----------------------------------------------------------------------------- 
|                                                                             |
|  ADVICE TO THIS USER RUNNING 'VASP/VAMP'   (HEAR YOUR MASTER'S VOICE ...):  |
|                                                                             |
|      You have a (more or less) 'small supercell' and for smaller cells      |
|      it is recommended  to use the reciprocal-space projection scheme!      |
|      The real space optimization is not  efficient for small cells and it   |
|      is also less accurate ...                                              |
|      Therefore set LREAL=.FALSE. in the  INCAR file                         |
|                                                                             |
 ----------------------------------------------------------------------------- 

 Optimization of the real space projectors (new method)

 maximal supplied QI-value         = 18.90
 optimisation between [QCUT,QGAM] = [ 11.53, 23.24] = [ 37.21,151.29] Ry 
 Optimized for a Real-space Cutoff    1.25 Angstroem

   l    n(q)    QCUT    max X(q) W(low)/X(q) W(high)/X(q)  e(spline) 
   0      9    11.527    28.265    0.12E-03    0.94E-04    0.71E-07
   0      9    11.527    10.429    0.98E-04    0.71E-04    0.55E-07
   1      8    11.527    13.073    0.28E-03    0.32E-03    0.75E-07
   1      8    11.527     9.625    0.23E-03    0.27E-03    0.65E-07
   2      8    11.527     4.652    0.27E-03    0.49E-04    0.52E-07
 Optimization of the real space projectors (new method)

 maximal supplied QI-value         = 24.76
 optimisation between [QCUT,QGAM] = [ 11.64, 23.27] = [ 37.91,151.63] Ry 
 Optimized for a Real-space Cutoff    1.04 Angstroem

   l    n(q)    QCUT    max X(q) W(low)/X(q) W(high)/X(q)  e(spline) 
   0      7    11.635    20.381    0.14E-03    0.49E-03    0.18E-06
   0      7    11.635    15.268    0.16E-03    0.52E-03    0.19E-06
   1      7    11.635     5.964    0.30E-03    0.44E-03    0.22E-06
   1      7    11.635     5.382    0.27E-03    0.34E-03    0.19E-06
  PAW_PBE Mg 13Apr2007                  :
 energy of atom  1       EATOM=  -23.0369
 kinetic energy error for atom=    0.0000 (will be added to EATOM!!)
  PAW_PBE O 08Apr2002                   :
 energy of atom  2       EATOM= -432.3788
 kinetic energy error for atom=    0.0208 (will be added to EATOM!!)
 
 
 POSCAR: Mg O                                    
  positions in direct lattice
  velocities in cartesian coordinates
 exchange correlation table for  LEXCH =        8
   RHO(1)=    0.500       N(1)  =     2000
   RHO(2)=  100.500       N(2)  =     4000
 


--------------------------------------------------------------------------------------------------------


 ion  position               nearest neighbor table
   1  0.000  0.000  0.000-   2 2.12   2 2.12   2 2.12   2 2.12   2 2.12   2 2.12
   2  0.500  0.500  0.500-   1 2.12   1 2.12   1 2.12   1 2.12   1 2.12   1 2.12
 
  LATTYP: Found a face centered cubic cell.
 ALAT       =     4.2481173232
  
  Lattice vectors:
  
 A1 = (   0.0000000000,   2.1240586616,   2.1240586616)
 A2 = (   2.1240586616,   0.0000000000,   2.1240586616)
 A3 = (   2.1240586616,   2.1240586616,   0.0000000000)


Analysis of symmetry for initial positions (statically):
=====================================================================
 Subroutine PRICEL returns:
 Original cell was already a primitive cell.
 

 Routine SETGRP: Setting up the symmetry group for a 
 face centered cubic supercell.


 Subroutine GETGRP returns: Found 48 space group operations
 (whereof 48 operations were pure point group operations)
 out of a pool of 48 trial point group operations.


The static configuration has the point symmetry O_h .


Analysis of symmetry for dynamics (positions and initial velocities):
=====================================================================
 Subroutine PRICEL returns:
 Original cell was already a primitive cell.
 

 Routine SETGRP: Setting up the symmetry group for a 
 face centered cubic supercell.


 Subroutine GETGRP returns: Found 48 space group operations
 (whereof 48 operations were pure point group operations)
 out of a pool of 48 trial point group operations.


The dynamic configuration has the point symmetry O_h .


 Subroutine INISYM returns: Found 48 space group operations
 (whereof 48 operations are pure point group operations),
 and found     1 'primitive' translations

 
 
 KPOINTS: k-point mesh generated by kpt_generator.

Automatic generation of k-mesh.
Space group operators:
 irot       det(A)        alpha          n_x          n_y          n_z        tau_x        tau_y        tau_z
    1     1.000000     0.000000     1.000000     0.000000     0.000000     0.000000     0.000000     0.000000
    2    -1.000000     0.000000     1.000000     0.000000     0.000000     0.000000     0.000000     0.000000
    3     1.000000   120.000000    -0.577350    -0.577350    -0.577350     0.000000     0.000000     0.000000
    4    -1.000000   120.000000    -0.577350    -0.577350    -0.577350     0.000000     0.000000     0.000000
    5     1.000000   120.000000     0.577350     0.577350     0.577350     0.000000     0.000000     0.000000
    6    -1.000000   120.000000     0.577350     0.577350     0.577350     0.000000     0.000000     0.000000
    7     1.000000    90.000000     0.000000     0.000000    -1.000000     0.000000     0.000000     0.000000
    8    -1.000000    90.000000     0.000000     0.000000    -1.000000     0.000000     0.000000     0.000000
    9     1.000000   180.000000     0.000000     0.707107     0.707107     0.000000     0.000000     0.000000
   10    -1.000000   180.000000     0.000000     0.707107     0.707107     0.000000     0.000000     0.000000
   11     1.000000    90.000000     0.000000     1.000000     0.000000     0.000000     0.000000     0.000000
   12    -1.000000    90.000000     0.000000     1.000000     0.000000     0.000000     0.000000     0.000000
   13     1.000000   180.000000     0.000000     0.000000     1.000000     0.000000     0.000000     0.000000
   14    -1.000000   180.000000     0.000000     0.000000     1.000000     0.000000     0.000000     0.000000
   15     1.000000   120.000000    -0.577350     0.577350     0.577350     0.000000     0.000000     0.000000
   16    -1.000000   120.000000    -0.577350     0.577350     0.577350     0.000000     0.000000     0.000000
   17     1.000000   120.000000    -0.577350     0.577350    -0.577350     0.000000     0.000000     0.000000
   18    -1.000000   120.000000    -0.577350     0.577350    -0.577350     0.000000     0.000000     0.000000
   19     1.000000    90.000000     0.000000     0.000000     1.000000     0.000000     0.000000     0.000000
   20    -1.000000    90.000000     0.000000     0.000000     1.000000     0.000000     0.000000     0.000000
   21     1.000000    90.000000    -1.000000     0.000000     0.000000     0.000000     0.000000     0.000000
   22    -1.000000    90.000000    -1.000000     0.000000     0.000000     0.000000     0.000000     0.000000
   23     1.000000   180.000000     0.707107     0.000000     0.707107     0.000000     0.000000     0.000000
   24    -1.000000   180.000000     0.707107     0.000000     0.707107     0.000000     0.000000     0.000000
   25     1.000000   120.000000     0.577350    -0.577350     0.577350     0.000000     0.000000     0.000000
   26    -1.000000   120.000000     0.577350    -0.577350     0.577350     0.000000     0.000000     0.000000
   27     1.000000   120.000000    -0.577350    -0.577350     0.577350     0.000000     0.000000     0.000000
   28    -1.000000   120.000000    -0.577350    -0.577350     0.577350     0.000000     0.000000     0.000000
   29     1.000000   180.000000     1.000000     0.000000     0.000000     0.000000     0.000000     0.000000
   30    -1.000000   180.000000     1.000000     0.000000     0.000000     0.000000     0.000000     0.000000
   31     1.000000    90.000000     0.000000    -1.000000     0.000000     0.000000     0.000000     0.000000
   32    -1.000000    90.000000     0.000000    -1.000000     0.000000     0.000000     0.000000     0.000000
   33     1.000000   180.000000     0.707107     0.707107     0.000000     0.000000     0.000000     0.000000
   34    -1.000000   180.000000     0.707107     0.707107     0.000000     0.000000     0.000000     0.000000
   35     1.000000    90.000000     1.000000     0.000000     0.000000     0.000000     0.000000     0.000000
   36    -1.000000    90.000000     1.000000     0.000000     0.000000     0.000000     0.000000     0.000000
   37     1.000000   120.000000     0.577350    -0.577350    -0.577350     0.000000     0.000000     0.000000
   38    -1.000000   120.000000     0.577350    -0.577350    -0.577350     0.000000     0.000000     0.000000
   39     1.000000   180.000000     0.000000     1.000000     0.000000     0.000000     0.000000     0.000000
   40    -1.000000   180.000000     0.000000     1.000000     0.000000     0.000000     0.000000     0.000000
   41     1.000000   120.000000     0.577350     0.577350    -0.577350     0.000000     0.000000     0.000000
   42    -1.000000   120.000000     0.577350     0.577350    -0.577350     0.000000     0.000000     0.000000
   43     1.000000   180.000000     0.000000    -0.707107     0.707107     0.000000     0.000000     0.000000
   44    -1.000000   180.000000     0.000000    -0.707107     0.707107     0.000000     0.000000     0.000000
   45     1.000000   180.000000     0.707107    -0.707107     0.000000     0.000000     0.000000     0.000000
   46    -1.000000   180.000000     0.707107    -0.707107     0.000000     0.000000     0.000000     0.000000
   47     1.000000   180.000000     0.707107     0.000000    -0.707107     0.000000     0.000000     0.000000
   48    -1.000000   180.000000     0.707107     0.000000    -0.707107     0.000000     0.000000     0.000000
 
 Subroutine IBZKPT returns following result:
 ===========================================
 
 Found     29 irreducible k-points:
 
 Following reciprocal coordinates:
            Coordinates               Weight
  0.000000  0.000000  0.000000      1.000000
  0.125000  0.000000  0.000000      8.000000
  0.250000  0.000000  0.000000      8.000000
  0.375000  0.000000  0.000000      8.000000
  0.500000  0.000000  0.000000      4.000000
  0.125000  0.125000  0.000000      6.000000
  0.250000  0.125000  0.000000     24.000000
  0.375000  0.125000  0.000000     24.000000
  0.500000  0.125000  0.000000     24.000000
 -0.375000  0.125000  0.000000     24.000000
 -0.250000  0.125000  0.000000     24.000000
 -0.125000  0.125000  0.000000     12.000000
  0.250000  0.250000  0.000000      6.000000
  0.375000  0.250000  0.000000     24.000000
  0.500000  0.250000  0.000000     24.000000
 -0.375000  0.250000  0.000000     24.000000
 -0.250000  0.250000  0.000000     12.000000
  0.375000  0.375000  0.000000      6.000000
  0.500000  0.375000  0.000000     24.000000
 -0.375000  0.375000  0.000000     12.000000
  0.500000  0.500000  0.000000      3.000000
  0.375000  0.250000  0.125000     24.000000
  0.500000  0.250000  0.125000     48.000000
 -0.375000  0.250000  0.125000     24.000000
  0.500000  0.375000  0.125000     24.000000
 -0.375000  0.375000  0.125000     48.000000
 -0.250000  0.375000  0.125000     24.000000
 -0.375000  0.500000  0.125000     12.000000
 -0.250000  0.500000  0.250000      6.000000
 
 Following cartesian coordinates:
            Coordinates               Weight
  0.000000  0.000000  0.000000      1.000000
 -0.029425  0.029425  0.029425      8.000000
 -0.058850  0.058850  0.058850      8.000000
 -0.088274  0.088274  0.088274      8.000000
 -0.117699  0.117699  0.117699      4.000000
  0.000000  0.000000  0.058850      6.000000
 -0.029425  0.029425  0.088274     24.000000
 -0.058850  0.058850  0.117699     24.000000
 -0.088274  0.088274  0.147124     24.000000
  0.117699 -0.117699 -0.058850     24.000000
  0.088274 -0.088274 -0.029425     24.000000
  0.058850 -0.058850  0.000000     12.000000
  0.000000  0.000000  0.117699      6.000000
 -0.029425  0.029425  0.147124     24.000000
 -0.058850  0.058850  0.176549     24.000000
  0.147124 -0.147124 -0.029425     24.000000
  0.117699 -0.117699  0.000000     12.000000
  0.000000  0.000000  0.176549      6.000000
 -0.029425  0.029425  0.205974     24.000000
  0.176549 -0.176549  0.000000     12.000000
  0.000000  0.000000  0.235398      3.000000
 -0.000000  0.058850  0.117699     24.000000
 -0.029425  0.088274  0.147124     48.000000
  0.176549 -0.117699 -0.058850     24.000000
  0.000000  0.058850  0.176549     24.000000
  0.205974 -0.147124 -0.029425     48.000000
  0.176549 -0.117699 -0.000000     24.000000
  0.235398 -0.176549  0.000000     12.000000
  0.235398 -0.117699  0.000000      6.000000
 


--------------------------------------------------------------------------------------------------------




 Dimension of arrays:
   k-points           NKPTS =     29   k-points in BZ     NKDIM =     29   number of bands    NBANDS=      8
   number of dos      NEDOS =    301   number of ions     NIONS =      2
   non local maximal  LDIM  =      5   non local SUM 2l+1 LMDIM =     13
   total plane-waves  NPLWV =   5832
   max r-space proj   IRMAX =   2522   max aug-charges    IRDMAX=  13124
   dimension x,y,z NGX =    18 NGY =   18 NGZ =   18
   dimension x,y,z NGXF=    36 NGYF=   36 NGZF=   36
   support grid    NGXF=    36 NGYF=   36 NGZF=   36
   ions per type =               1   1
   NGX,Y,Z   is equivalent  to a cutoff of   9.96,  9.96,  9.96 a.u.
   NGXF,Y,Z  is equivalent  to a cutoff of  19.92, 19.92, 19.92 a.u.

 SYSTEM =  unknown system                          
 POSCAR =  Mg O                                    

 Startparameter for this run:
   NWRITE =      2    write-flag & timer
   PREC   = n         normal or accurate (medium, high low for compatibility)
   ISTART =      0    job   : 0-new  1-cont  2-samecut
   ICHARG =      2    charge: 1-file 2-atom 10-const
   ISPIN  =      1    spin polarized calculation?
   LNONCOLLINEAR =      F non collinear calculations
   LSORBIT =      F    spin-orbit coupling
   INIWAV =      1    electr: 0-lowe 1-rand  2-diag
   LASPH  =      T    aspherical Exc in radial PAW
   METAGGA=      F    non-selfconsistent MetaGGA calc.

 Electronic Relaxation 1
   ENCUT  =  520.0 eV  38.22 Ry    6.18 a.u.   5.59  5.59  5.59*2*pi/ulx,y,z
   ENINI  =  520.0     initial cutoff
   ENAUG  =  605.4 eV  augmentation charge cutoff
   NELM   =    100;   NELMIN=  4; NELMDL=  0     # of ELM steps 
   EDIFF  = 0.1E-06   stopping-criterion for ELM
   LREAL  =      T    real-space projection
   NLSPLINE    = F    spline interpolate recip. space projectors
   LCOMPAT=      F    compatible to vasp.4.4
   GGA_COMPAT  = T    GGA compatible to vasp.4.4-vasp.4.6
   LMAXPAW     = -100 max onsite density
   LMAXMIX     =    2 max onsite mixed and CHGCAR
   VOSKOWN=      0    Vosko Wilk Nusair interpolation
   ROPT   =   -0.00050  -0.00050
 Ionic relaxation
   EDIFFG = -.5E-02   stopping-criterion for IOM
   NSW    =     20    number of steps for IOM
   NBLOCK =      1;   KBLOCK =     20    inner block; outer block 
   IBRION =      2    ionic relax: 0-MD 1-quasi-New 2-CG
   NFREE  =      1    steps in history (QN), initial steepest desc. (CG)
   ISIF   =      3    stress and relaxation
   IWAVPR =     11    prediction:  0-non 1-charg 2-wave 3-comb
   ISYM   =      2    0-nonsym 1-usesym 2-fastsym
   LCORR  =      T    Harris-Foulkes like correction to forces

   POTIM  = 0.5000    time-step for ionic-motion
   TEIN   =    0.0    initial temperature
   TEBEG  =    0.0;   TEEND  =   0.0 temperature during run
   SMASS  =  -3.00    Nose mass-parameter (am)
   estimated Nose-frequenzy (Omega)   =  0.10E-29 period in steps =****** mass=  -0.206E-27a.u.
   SCALEE = 1.0000    scale energy and forces
   NPACO  =    256;   APACO  = 16.0  distance and # of slots for P.C.
   PSTRESS=    0.0 pullay stress

  Mass of Ions in am
   POMASS =  24.30 16.00
  Ionic Valenz
   ZVAL   =   2.00  6.00
  Atomic Wigner-Seitz radii
   RWIGS  =  -1.00 -1.00
  virtual crystal weights 
   VCA    =   1.00  1.00
   NELECT =       8.0000    total number of electrons
   NUPDOWN=      -1.0000    fix difference up-down

 DOS related values:
   EMIN   =  10.00;   EMAX   =-10.00  energy-range for DOS
   EFERMI =   0.00
   ISMEAR =     0;   SIGMA  =   0.05  broadening in eV -4-tet -1-fermi 0-gaus

 Electronic relaxation 2 (details)
   IALGO  =     38    algorithm
   LDIAG  =      T    sub-space diagonalisation (order eigenvalues)
   LSUBROT=      F    optimize rotation matrix (better conditioning)
   TURBO    =      0    0=normal 1=particle mesh
   IRESTART =      0    0=no restart 2=restart with 2 vectors
   NREBOOT  =      0    no. of reboots
   NMIN     =      0    reboot dimension
   EREF     =   0.00    reference energy to select bands
   IMIX   =      4    mixing-type and parameters
     AMIX     =   0.40;   BMIX     =  1.00
     AMIX_MAG =   1.60;   BMIX_MAG =  1.00
     AMIN     =   0.10
     WC   =   100.;   INIMIX=   1;  MIXPRE=   1;  MAXMIX= -45

 Intra band minimization:
   WEIMIN = 0.0010     energy-eigenvalue tresh-hold
   EBREAK =  0.31E-08  absolut break condition
   DEPER  =   0.30     relativ break condition  

   TIME   =   0.40     timestep for ELM

  volume/ion in A,a.u.               =       9.58        64.67
  Fermi-wavevector in a.u.,A,eV,Ry     =   1.223475  2.312032 20.366429  1.496890
  Thomas-Fermi vector in A             =   2.358584
 
 Write flags
   LWAVE        =      F    write WAVECAR
   LDOWNSAMPLE  =      F    k-point downsampling of WAVECAR
   LCHARG       =      F    write CHGCAR
   LVTOT        =      F    write LOCPOT, total local potential
   LVHAR        =      F    write LOCPOT, Hartree potential only
   LELF         =      F    write electronic localiz. function (ELF)
   LORBIT       =     12    0 simple, 1 ext, 2 COOP (PROOUT), +10 PAW based schemes


 Dipole corrections
   LMONO  =      F    monopole corrections only (constant potential shift)
   LDIPOL =      F    correct potential (dipole corrections)
   IDIPOL =      0    1-x, 2-y, 3-z, 4-all directions 
   EPSILON=  1.0000000 bulk dielectric constant

 Exchange correlation treatment:
   GGA     =    --    GGA type
   LEXCH   =     8    internal setting for exchange type
   VOSKOWN=      0    Vosko Wilk Nusair interpolation
   LHFCALC =     F    Hartree Fock is set to
   LHFONE  =     F    Hartree Fock one center treatment
   AEXX    =    0.0000 exact exchange contribution

 Linear response parameters
   LEPSILON=     F    determine dielectric tensor
   LRPA    =     F    only Hartree local field effects (RPA)
   LNABLA  =     F    use nabla operator in PAW spheres
   LVEL    =     F    velocity operator in full k-point grid
   LINTERFAST=   F  fast interpolation
   KINTER  =     0    interpolate to denser k-point grid
   CSHIFT  =0.1000    complex shift for real part using Kramers Kronig
   OMEGAMAX=  -1.0    maximum frequency
   DEG_THRESHOLD= 0.2000000E-02 threshold for treating states as degnerate
   RTIME   =   -0.100 relaxation time in fs
  (WPLASMAI=    0.000 imaginary part of plasma frequency in eV, 0.658/RTIME)
   DFIELD  = 0.0000000 0.0000000 0.0000000 field for delta impulse in time
 
 Orbital magnetization related:
   ORBITALMAG=     F  switch on orbital magnetization
   LCHIMAG   =     F  perturbation theory with respect to B field
   DQ        =  0.001000  dq finite difference perturbation B field
   LLRAUG    =     F  two centre corrections for induced B field



--------------------------------------------------------------------------------------------------------


 conjugate gradient relaxation of ions
 charge density and potential will be updated during run
 non-spin polarized calculation
 Variant of blocked Davidson
 Davidson routine will perform the subspace rotation
 perform sub-space diagonalisation
    after iterative eigenvector-optimisation
 modified Broyden-mixing scheme, WC =      100.0
 initial mixing is a Kerker type mixing with AMIX =  0.4000 and BMIX =      1.0000
 Hartree-type preconditioning will be used
 using additional bands            4
 real space projection scheme for non local part
 use partial core corrections
 calculate Harris-corrections to forces 
   (improved forces if not selfconsistent)
 use gradient corrections 
 use of overlap-Matrix (Vanderbilt PP)
 Gauss-broadening in eV      SIGMA  =   0.05


--------------------------------------------------------------------------------------------------------


  energy-cutoff  :      520.00
  volume of cell :       19.17
      direct lattice vectors                 reciprocal lattice vectors
     0.000000000  2.124058662  2.124058662    -0.235398395  0.235398395  0.235398395
     2.124058662  0.000000000  2.124058662     0.235398395 -0.235398395  0.235398395
     2.124058662  2.124058662  0.000000000     0.235398395  0.235398395 -0.235398395

  length of vectors
     3.003872567  3.003872567  3.003872567     0.407721980  0.407721980  0.407721980


 
 k-points in units of 2pi/SCALE and weight: k-point mesh generated by kpt_generator.
   0.00000000  0.00000000  0.00000000       0.002
  -0.02942480  0.02942480  0.02942480       0.016
  -0.05884960  0.05884960  0.05884960       0.016
  -0.08827440  0.08827440  0.08827440       0.016
  -0.11769920  0.11769920  0.11769920       0.008
   0.00000000  0.00000000  0.05884960       0.012
  -0.02942480  0.02942480  0.08827440       0.047
  -0.05884960  0.05884960  0.11769920       0.047
  -0.08827440  0.08827440  0.14712400       0.047
   0.11769920 -0.11769920 -0.05884960       0.047
   0.08827440 -0.08827440 -0.02942480       0.047
   0.05884960 -0.05884960  0.00000000       0.023
   0.00000000  0.00000000  0.11769920       0.012
  -0.02942480  0.02942480  0.14712400       0.047
  -0.05884960  0.05884960  0.17654880       0.047
   0.14712400 -0.14712400 -0.02942480       0.047
   0.11769920 -0.11769920  0.00000000       0.023
   0.00000000  0.00000000  0.17654880       0.012
  -0.02942480  0.02942480  0.20597360       0.047
   0.17654880 -0.17654880  0.00000000       0.023
   0.00000000  0.00000000  0.23539840       0.006
  -0.00000000  0.05884960  0.11769920       0.047
  -0.02942480  0.08827440  0.14712400       0.094
   0.17654880 -0.11769920 -0.05884960       0.047
   0.00000000  0.05884960  0.17654880       0.047
   0.20597360 -0.14712400 -0.02942480       0.094
   0.17654880 -0.11769920 -0.00000000       0.047
   0.23539840 -0.17654880  0.00000000       0.023
   0.23539840 -0.11769920  0.00000000       0.012
 
 k-points in reciprocal lattice and weights: k-point mesh generated by kpt_generator.
   0.00000000  0.00000000  0.00000000       0.002
   0.12500000  0.00000000  0.00000000       0.016
   0.25000000  0.00000000  0.00000000       0.016
   0.37500000  0.00000000  0.00000000       0.016
   0.50000000  0.00000000  0.00000000       0.008
   0.12500000  0.12500000  0.00000000       0.012
   0.25000000  0.12500000  0.00000000       0.047
   0.37500000  0.12500000  0.00000000       0.047
   0.50000000  0.12500000  0.00000000       0.047
  -0.37500000  0.12500000  0.00000000       0.047
  -0.25000000  0.12500000  0.00000000       0.047
  -0.12500000  0.12500000  0.00000000       0.023
   0.25000000  0.25000000  0.00000000       0.012
   0.37500000  0.25000000  0.00000000       0.047
   0.50000000  0.25000000  0.00000000       0.047
  -0.37500000  0.25000000  0.00000000       0.047
  -0.25000000  0.25000000  0.00000000       0.023
   0.37500000  0.37500000  0.00000000       0.012
   0.50000000  0.37500000  0.00000000       0.047
  -0.37500000  0.37500000  0.00000000       0.023
   0.50000000  0.50000000  0.00000000       0.006
   0.37500000  0.25000000  0.12500000       0.047
   0.50000000  0.25000000  0.12500000       0.094
  -0.37500000  0.25000000  0.12500000       0.047
   0.50000000  0.37500000  0.12500000       0.047
  -0.37500000  0.37500000  0.12500000       0.094
  -0.25000000  0.37500000  0.12500000       0.047
  -0.37500000  0.50000000  0.12500000       0.023
  -0.25000000  0.50000000  0.25000000       0.012
 
 position of ions in fractional coordinates (direct lattice) 
   0.00000000  0.00000000  0.00000000
   0.50000000  0.50000000  0.50000000
 
 position of ions in cartesian coordinates  (Angst):
   0.00000000  0.00000000  0.00000000
   2.12405866  2.12405866  2.12405866
 


--------------------------------------------------------------------------------------------------------


 k-point  1 :   0.0000 0.0000 0.0000  plane waves:     531
 k-point  2 :   0.1250 0.0000 0.0000  plane waves:     534
 k-point  3 :   0.2500 0.0000 0.0000  plane waves:     522
 k-point  4 :   0.3750 0.0000 0.0000  plane waves:     516
 k-point  5 :   0.5000 0.0000 0.0000  plane waves:     502
 k-point  6 :   0.1250 0.1250 0.0000  plane waves:     524
 k-point  7 :   0.2500 0.1250 0.0000  plane waves:     519
 k-point  8 :   0.3750 0.1250 0.0000  plane waves:     522
 k-point  9 :   0.5000 0.1250 0.0000  plane waves:     516
 k-point 10 :  -0.3750 0.1250 0.0000  plane waves:     513
 k-point 11 :  -0.2500 0.1250 0.0000  plane waves:     518
 k-point 12 :  -0.1250 0.1250 0.0000  plane waves:     523
 k-point 13 :   0.2500 0.2500 0.0000  plane waves:     528
 k-point 14 :   0.3750 0.2500 0.0000  plane waves:     511
 k-point 15 :   0.5000 0.2500 0.0000  plane waves:     516
 k-point 16 :  -0.3750 0.2500 0.0000  plane waves:     519
 k-point 17 :  -0.2500 0.2500 0.0000  plane waves:     512
 k-point 18 :   0.3750 0.3750 0.0000  plane waves:     504
 k-point 19 :   0.5000 0.3750 0.0000  plane waves:     508
 k-point 20 :  -0.3750 0.3750 0.0000  plane waves:     512
 k-point 21 :   0.5000 0.5000 0.0000  plane waves:     524
 k-point 22 :   0.3750 0.2500 0.1250  plane waves:     522
 k-point 23 :   0.5000 0.2500 0.1250  plane waves:     518
 k-point 24 :  -0.3750 0.2500 0.1250  plane waves:     520
 k-point 25 :   0.5000 0.3750 0.1250  plane waves:     514
 k-point 26 :  -0.3750 0.3750 0.1250  plane waves:     509
 k-point 27 :  -0.2500 0.3750 0.1250  plane waves:     517
 k-point 28 :  -0.3750 0.5000 0.1250  plane waves:     504
 k-point 29 :  -0.2500 0.5000 0.2500  plane waves:     516

 maximum and minimum number of plane-waves per node :       534      502

 maximum number of plane-waves:       534
 maximum index in each direction: 
   IXMAX=    5   IYMAX=    5   IZMAX=    5
   IXMIN=   -6   IYMIN=   -6   IZMIN=   -5


 serial   3D FFT for wavefunctions
 parallel 3D FFT for charge:
    minimum data exchange during FFTs selected (reduces bandwidth)


 total amount of memory used by VASP MPI-rank0    33942. kBytes
=======================================================================

   base      :      30000. kBytes
   nonlr-proj:        451. kBytes
   fftplans  :        848. kBytes
   grid      :       1596. kBytes
   one-center:         16. kBytes
   wavefun   :       1031. kBytes
 
     INWAV:  cpu time    0.0000: real time    0.0002
 Broyden mixing: mesh for mixing (old mesh)
   NGX = 11   NGY = 11   NGZ = 11
  (NGX  = 36   NGY  = 36   NGZ  = 36)
  gives a total of   1331 points

 initial charge density was supplied:
 charge density of overlapping atoms calculated
 number of electron       8.0000000 magnetization 
 keeping initial charge density in first step


--------------------------------------------------------------------------------------------------------


 Maximum index for non-local projection operator         2347
 Maximum index for augmentation-charges         6257 (set IRDMAX)


--------------------------------------------------------------------------------------------------------


 First call to EWALD:  gamma=   0.662
 Maximum number of real-space cells 3x 3x 3
 Maximum number of reciprocal cells 3x 3x 3

    FEWALD:  cpu time    0.0040: real time    0.0011


--------------------------------------- Iteration      1(   1)  ---------------------------------------


    POTLOK:  cpu time    0.0080: real time    0.0124
    SETDIJ:  cpu time    0.0920: real time    0.0916
     EDDAV:  cpu time    0.0120: real time    0.0116
       DOS:  cpu time    0.0000: real time    0.0004
    --------------------------------------------
      LOOP:  cpu time    0.1120: real time    0.1160

 eigenvalue-minimisations  :   544
 total energy-change (2. order) : 0.1118630E+02  (-0.5073746E+03)
 number of electron       8.0000000 magnetization 
 augmentation part        8.0000000 magnetization 

 Free energy of the ion-electron system (eV)
  ---------------------------------------------------
  alpha Z        PSCENC =        19.05964224
  Ewald energy   TEWEN  =      -355.15116786
  -Hartree energ DENC   =      -122.50366444
  -exchange      EXHF   =         0.00000000
  -V(xc)+E(xc)   XCENC  =       -20.51000102
  PAW double counting   =       411.85617216     -361.79210629
  entropy T*S    EENTRO =        -0.00097101
  eigenvalues    EBANDS =       -15.16645382
  atomic energy  EATOM  =       455.39485029
  Solvation  Ediel_sol  =         0.00000000
  ---------------------------------------------------
  free energy    TOTEN  =        11.18630024 eV

  energy without entropy =       11.18727126  energy(sigma->0) =       11.18678575


--------------------------------------------------------------------------------------------------------




--------------------------------------- Iteration      1(   2)  ---------------------------------------


     EDDAV:  cpu time    0.0160: real time    0.0183
       DOS:  cpu time    0.0000: real time    0.0002
    --------------------------------------------
      LOOP:  cpu time    0.0160: real time    0.0185

 eigenvalue-minimisations  :   584
 total energy-change (2. order) :-0.2433511E+02  (-0.2199386E+02)
 number of electron       8.0000000 magnetization 
 augmentation part        8.0000000 magnetization 

 Free energy of the ion-electron system (eV)
  ---------------------------------------------------
  alpha Z        PSCENC =        19.05964224
  Ewald energy   TEWEN  =      -355.15116786
  -Hartree energ DENC   =      -122.50366444
  -exchange      EXHF   =         0.00000000
  -V(xc)+E(xc)   XCENC  =       -20.51000102
  PAW double counting   =       411.85617216     -361.79210629
  entropy T*S    EENTRO =        -0.00000000
  eigenvalues    EBANDS =       -39.50253031
  atomic energy  EATOM  =       455.39485029
  Solvation  Ediel_sol  =         0.00000000
  ---------------------------------------------------
  free energy    TOTEN  =       -13.14880523 eV

  energy without entropy =      -13.14880523  energy(sigma->0) =      -13.14880523


--------------------------------------------------------------------------------------------------------




--------------------------------------- Iteration      1(   3)  ---------------------------------------


     EDDAV:  cpu time    0.0160: real time    0.0149
       DOS:  cpu time    0.0000: real time    0.0002
    --------------------------------------------
      LOOP:  cpu time    0.0160: real time    0.0151

 eigenvalue-minimisations  :   592
 total energy-change (2. order) :-0.3192276E+00  (-0.3192276E+00)
 number of electron       8.0000000 magnetization 
 augmentation part        8.0000000 magnetization 

 Free energy of the ion-electron system (eV)
  ---------------------------------------------------
  alpha Z        PSCENC =        19.05964224
  Ewald energy   TEWEN  =      -355.15116786
  -Hartree energ DENC   =      -122.50366444
  -exchange      EXHF   =         0.00000000
  -V(xc)+E(xc)   XCENC  =       -20.51000102
  PAW double counting   =       411.85617216     -361.79210629
  entropy T*S    EENTRO =        -0.00000000
  eigenvalues    EBANDS =       -39.82175793
  atomic energy  EATOM  =       455.39485029
  Solvation  Ediel_sol  =         0.00000000
  ---------------------------------------------------
  free energy    TOTEN  =       -13.46803285 eV

  energy without entropy =      -13.46803285  energy(sigma->0) =      -13.46803285


--------------------------------------------------------------------------------------------------------




--------------------------------------- Iteration      1(   4)  ---------------------------------------


     EDDAV:  cpu time    0.0120: real time    0.0122
       DOS:  cpu time    0.0000: real time    0.0002
    --------------------------------------------
      LOOP:  cpu time    0.0120: real time    0.0124

 eigenvalue-minimisations  :   616
 total energy-change (2. order) :-0.5620626E-03  (-0.5620626E-03)
 number of electron       8.0000000 magnetization 
 augmentation part        8.0000000 magnetization 

 Free energy of the ion-electron system (eV)
  ---------------------------------------------------
  alpha Z        PSCENC =        19.05964224
  Ewald energy   TEWEN  =      -355.15116786
  -Hartree energ DENC   =      -122.50366444
  -exchange      EXHF   =         0.00000000
  -V(xc)+E(xc)   XCENC  =       -20.51000102
  PAW double counting   =       411.85617216     -361.79210629
  entropy T*S    EENTRO =        -0.00000000
  eigenvalues    EBANDS =       -39.82232000
  atomic energy  EATOM  =       455.39485029
  Solvation  Ediel_sol  =         0.00000000
  ---------------------------------------------------
  free energy    TOTEN  =       -13.46859492 eV

  energy without entropy =      -13.46859492  energy(sigma->0) =      -13.46859492


--------------------------------------------------------------------------------------------------------




--------------------------------------- Iteration      1(   5)  ---------------------------------------


     EDDAV:  cpu time    0.0120: real time    0.0120
       DOS:  cpu time    0.0000: real time    0.0002
    CHARGE:  cpu time    0.0040: real time    0.0035
    MIXING:  cpu time    0.0000: real time    0.0011
    --------------------------------------------
      LOOP:  cpu time    0.0160: real time    0.0168

 eigenvalue-minimisations  :   592
 total energy-change (2. order) :-0.5582675E-06  (-0.5582675E-06)
 number of electron       8.0000001 magnetization 
 augmentation part        0.8032718 magnetization 

 Broyden mixing:
  rms(total) = 0.71981E+00    rms(broyden)= 0.71965E+00
  rms(prec ) = 0.27967E+01
  weight for this iteration     100.00

 Free energy of the ion-electron system (eV)
  ---------------------------------------------------
  alpha Z        PSCENC =        19.05964224
  Ewald energy   TEWEN  =      -355.15116786
  -Hartree energ DENC   =      -122.50366444
  -exchange      EXHF   =         0.00000000
  -V(xc)+E(xc)   XCENC  =       -20.51000102
  PAW double counting   =       411.85617216     -361.79210629
  entropy T*S    EENTRO =        -0.00000000
  eigenvalues    EBANDS =       -39.82232055
  atomic energy  EATOM  =       455.39485029
  Solvation  Ediel_sol  =         0.00000000
  ---------------------------------------------------
  free energy    TOTEN  =       -13.46859547 eV

  energy without entropy =      -13.46859547  energy(sigma->0) =      -13.46859547


--------------------------------------------------------------------------------------------------------




--------------------------------------- Iteration      1(   6)  ---------------------------------------


    POTLOK:  cpu time    0.0080: real time    0.0092
    SETDIJ:  cpu time    0.0920: real time    0.0931
     EDDAV:  cpu time    0.0120: real time    0.0085
       DOS:  cpu time    0.0000: real time    0.0002
    CHARGE:  cpu time    0.0000: real time    0.0031
    MIXING:  cpu time    0.0040: real time    0.0009
    --------------------------------------------
      LOOP:  cpu time    0.1160: real time    0.1151

 eigenvalue-minimisations  :   464
 total energy-change (2. order) : 0.1535939E+01  (-0.1027615E+01)
 number of electron       8.0000001 magnetization 
 augmentation part        0.6584637 magnetization 

 Broyden mixing:
  rms(total) = 0.23139E+00    rms(broyden)= 0.23107E+00
  rms(prec ) = 0.57036E+00
  weight for this iteration     100.00

 eigenvalues of (default mixing * dielectric matrix)
  average eigenvalue GAMMA=   0.8450
  0.8450

 Free energy of the ion-electron system (eV)
  ---------------------------------------------------
  alpha Z        PSCENC =        19.05964224
  Ewald energy   TEWEN  =      -355.15116786
  -Hartree energ DENC   =      -141.13202276
  -exchange      EXHF   =         0.00000000
  -V(xc)+E(xc)   XCENC  =       -19.19728815
  PAW double counting   =       482.89962712     -433.18749654
  entropy T*S    EENTRO =        -0.00000000
  eigenvalues    EBANDS =       -20.61880068
  atomic energy  EATOM  =       455.39485029
  Solvation  Ediel_sol  =         0.00000000
  ---------------------------------------------------
  free energy    TOTEN  =       -11.93265634 eV

  energy without entropy =      -11.93265634  energy(sigma->0) =      -11.93265634


--------------------------------------------------------------------------------------------------------




--------------------------------------- Iteration      1(   7)  ---------------------------------------


    POTLOK:  cpu time    0.0080: real time    0.0092
    SETDIJ:  cpu time    0.0920: real time    0.0935
     EDDAV:  cpu time    0.0120: real time    0.0108
       DOS:  cpu time    0.0000: real time    0.0009
    CHARGE:  cpu time    0.0040: real time    0.0064
    MIXING:  cpu time    0.0040: real time    0.0039
    --------------------------------------------
      LOOP:  cpu time    0.1200: real time    0.1247

 eigenvalue-minimisations  :   480
 total energy-change (2. order) : 0.1569036E-01  (-0.5261216E-02)
 number of electron       8.0000001 magnetization 
 augmentation part        0.6644134 magnetization 

 Broyden mixing:
  rms(total) = 0.13196E+00    rms(broyden)= 0.13195E+00
  rms(prec ) = 0.35224E+00
  weight for this iteration     100.00

 eigenvalues of (default mixing * dielectric matrix)
  average eigenvalue GAMMA=   1.7901
  0.9548  2.6254

 Free energy of the ion-electron system (eV)
  ---------------------------------------------------
  alpha Z        PSCENC =        19.05964224
  Ewald energy   TEWEN  =      -355.15116786
  -Hartree energ DENC   =      -141.02389610
  -exchange      EXHF   =         0.00000000
  -V(xc)+E(xc)   XCENC  =       -19.16358929
  PAW double counting   =       506.68968086     -456.93536393
  entropy T*S    EENTRO =        -0.00000000
  eigenvalues    EBANDS =       -20.78712219
  atomic energy  EATOM  =       455.39485029
  Solvation  Ediel_sol  =         0.00000000
  ---------------------------------------------------
  free energy    TOTEN  =       -11.91696598 eV

  energy without entropy =      -11.91696598  energy(sigma->0) =      -11.91696598


--------------------------------------------------------------------------------------------------------




--------------------------------------- Iteration      1(   8)  ---------------------------------------


    POTLOK:  cpu time    0.0120: real time    0.0090
    SETDIJ:  cpu time    0.0920: real time    0.0948
     EDDAV:  cpu time    0.0120: real time    0.0110
       DOS:  cpu time    0.0000: real time    0.0008
    CHARGE:  cpu time    0.0040: real time    0.0036
    MIXING:  cpu time    0.0000: real time    0.0010
    --------------------------------------------
      LOOP:  cpu time    0.1200: real time    0.1201

 eigenvalue-minimisations  :   480
 total energy-change (2. order) : 0.5675160E-02  (-0.2584432E-02)
 number of electron       8.0000001 magnetization 
 augmentation part        0.6655803 magnetization 

 Broyden mixing:
  rms(total) = 0.16264E-01    rms(broyden)= 0.16260E-01
  rms(prec ) = 0.31239E-01
  weight for this iteration     100.00

 eigenvalues of (default mixing * dielectric matrix)
  average eigenvalue GAMMA=   1.4452
  2.5281  0.9038  0.9038

 Free energy of the ion-electron system (eV)
  ---------------------------------------------------
  alpha Z        PSCENC =        19.05964224
  Ewald energy   TEWEN  =      -355.15116786
  -Hartree energ DENC   =      -142.46893671
  -exchange      EXHF   =         0.00000000
  -V(xc)+E(xc)   XCENC  =       -18.97126282
  PAW double counting   =       551.35196255     -501.56689242
  entropy T*S    EENTRO =        -0.00000000
  eigenvalues    EBANDS =       -19.55948609
  atomic energy  EATOM  =       455.39485029
  Solvation  Ediel_sol  =         0.00000000
  ---------------------------------------------------
  free energy    TOTEN  =       -11.91129082 eV

  energy without entropy =      -11.91129082  energy(sigma->0) =      -11.91129082


--------------------------------------------------------------------------------------------------------




--------------------------------------- Iteration      1(   9)  ---------------------------------------


    POTLOK:  cpu time    0.0080: real time    0.0091
    SETDIJ:  cpu time    0.0960: real time    0.0938
     EDDAV:  cpu time    0.0120: real time    0.0123
       DOS:  cpu time    0.0000: real time    0.0002
    CHARGE:  cpu time    0.0040: real time    0.0030
    MIXING:  cpu time    0.0000: real time    0.0008
    --------------------------------------------
      LOOP:  cpu time    0.1200: real time    0.1191

 eigenvalue-minimisations  :   648
 total energy-change (2. order) : 0.1095563E-03  (-0.4468655E-04)
 number of electron       8.0000001 magnetization 
 augmentation part        0.6646790 magnetization 

 Broyden mixing:
  rms(total) = 0.74802E-02    rms(broyden)= 0.74800E-02
  rms(prec ) = 0.13192E-01
  weight for this iteration     100.00

 eigenvalues of (default mixing * dielectric matrix)
  average eigenvalue GAMMA=   1.8015
  0.9718  0.9718  2.7435  2.5188

 Free energy of the ion-electron system (eV)
  ---------------------------------------------------
  alpha Z        PSCENC =        19.05964224
  Ewald energy   TEWEN  =      -355.15116786
  -Hartree energ DENC   =      -142.52541232
  -exchange      EXHF   =         0.00000000
  -V(xc)+E(xc)   XCENC  =       -18.96928093
  PAW double counting   =       547.72876810     -497.94962307
  entropy T*S    EENTRO =        -0.00000000
  eigenvalues    EBANDS =       -19.49895772
  atomic energy  EATOM  =       455.39485029
  Solvation  Ediel_sol  =         0.00000000
  ---------------------------------------------------
  free energy    TOTEN  =       -11.91118127 eV

  energy without entropy =      -11.91118127  energy(sigma->0) =      -11.91118127


--------------------------------------------------------------------------------------------------------




--------------------------------------- Iteration      1(  10)  ---------------------------------------


    POTLOK:  cpu time    0.0080: real time    0.0083
    SETDIJ:  cpu time    0.0960: real time    0.0949
     EDDAV:  cpu time    0.0080: real time    0.0091
       DOS:  cpu time    0.0000: real time    0.0002
    CHARGE:  cpu time    0.0040: real time    0.0030
    MIXING:  cpu time    0.0000: real time    0.0008
    --------------------------------------------
      LOOP:  cpu time    0.1160: real time    0.1163

 eigenvalue-minimisations  :   472
 total energy-change (2. order) :-0.1106840E-03  (-0.1373302E-04)
 number of electron       8.0000001 magnetization 
 augmentation part        0.6645471 magnetization 

 Broyden mixing:
  rms(total) = 0.53883E-03    rms(broyden)= 0.53857E-03
  rms(prec ) = 0.11698E-02
  weight for this iteration     100.00

 eigenvalues of (default mixing * dielectric matrix)
  average eigenvalue GAMMA=   1.6324
  2.7866  2.4753  0.9667  0.9667  0.9667

 Free energy of the ion-electron system (eV)
  ---------------------------------------------------
  alpha Z        PSCENC =        19.05964224
  Ewald energy   TEWEN  =      -355.15116786
  -Hartree energ DENC   =      -142.52342557
  -exchange      EXHF   =         0.00000000
  -V(xc)+E(xc)   XCENC  =       -18.96632908
  PAW double counting   =       542.50576125     -492.73301399
  entropy T*S    EENTRO =        -0.00000000
  eigenvalues    EBANDS =       -19.49760923
  atomic energy  EATOM  =       455.39485029
  Solvation  Ediel_sol  =         0.00000000
  ---------------------------------------------------
  free energy    TOTEN  =       -11.91129195 eV

  energy without entropy =      -11.91129195  energy(sigma->0) =      -11.91129195


--------------------------------------------------------------------------------------------------------




--------------------------------------- Iteration      1(  11)  ---------------------------------------


    POTLOK:  cpu time    0.0080: real time    0.0083
    SETDIJ:  cpu time    0.0960: real time    0.0942
     EDDAV:  cpu time    0.0120: real time    0.0137
       DOS:  cpu time    0.0000: real time    0.0002
    CHARGE:  cpu time    0.0040: real time    0.0032
    MIXING:  cpu time    0.0000: real time    0.0011
    --------------------------------------------
      LOOP:  cpu time    0.1200: real time    0.1207

 eigenvalue-minimisations  :   632
 total energy-change (2. order) :-0.1722277E-06  (-0.9939131E-07)
 number of electron       8.0000001 magnetization 
 augmentation part        0.6645211 magnetization 

 Broyden mixing:
  rms(total) = 0.30795E-03    rms(broyden)= 0.30791E-03
  rms(prec ) = 0.68326E-03
  weight for this iteration     100.00

 eigenvalues of (default mixing * dielectric matrix)
  average eigenvalue GAMMA=   1.8489
  2.8551  2.8551  2.4278  0.9652  0.9652  1.0248

 Free energy of the ion-electron system (eV)
  ---------------------------------------------------
  alpha Z        PSCENC =        19.05964224
  Ewald energy   TEWEN  =      -355.15116786
  -Hartree energ DENC   =      -142.53093249
  -exchange      EXHF   =         0.00000000
  -V(xc)+E(xc)   XCENC  =       -18.96565852
  PAW double counting   =       542.70793487     -492.93507488
  entropy T*S    EENTRO =        -0.00000000
  eigenvalues    EBANDS =       -19.49088576
  atomic energy  EATOM  =       455.39485029
  Solvation  Ediel_sol  =         0.00000000
  ---------------------------------------------------
  free energy    TOTEN  =       -11.91129212 eV

  energy without entropy =      -11.91129212  energy(sigma->0) =      -11.91129212


--------------------------------------------------------------------------------------------------------




--------------------------------------- Iteration      1(  12)  ---------------------------------------


    POTLOK:  cpu time    0.0080: real time    0.0083
    SETDIJ:  cpu time    0.0960: real time    0.0943
     EDDAV:  cpu time    0.0080: real time    0.0092
       DOS:  cpu time    0.0000: real time    0.0002
    CHARGE:  cpu time    0.0040: real time    0.0030
    MIXING:  cpu time    0.0000: real time    0.0009
    --------------------------------------------
      LOOP:  cpu time    0.1160: real time    0.1159

 eigenvalue-minimisations  :   488
 total energy-change (2. order) : 0.1103523E-06  (-0.4672479E-07)
 number of electron       8.0000001 magnetization 
 augmentation part        0.6645490 magnetization 

 Broyden mixing:
  rms(total) = 0.29206E-04    rms(broyden)= 0.29145E-04
  rms(prec ) = 0.51872E-04
  weight for this iteration     100.00

 eigenvalues of (default mixing * dielectric matrix)
  average eigenvalue GAMMA=   1.7697
  2.9334  2.4731  2.4731  0.9666  0.9666  1.0527  1.5228

 Free energy of the ion-electron system (eV)
  ---------------------------------------------------
  alpha Z        PSCENC =        19.05964224
  Ewald energy   TEWEN  =      -355.15116786
  -Hartree energ DENC   =      -142.52896186
  -exchange      EXHF   =         0.00000000
  -V(xc)+E(xc)   XCENC  =       -18.96589050
  PAW double counting   =       542.90100428     -493.12788508
  entropy T*S    EENTRO =        -0.00000000
  eigenvalues    EBANDS =       -19.49288352
  atomic energy  EATOM  =       455.39485029
  Solvation  Ediel_sol  =         0.00000000
  ---------------------------------------------------
  free energy    TOTEN  =       -11.91129201 eV

  energy without entropy =      -11.91129201  energy(sigma->0) =      -11.91129201


--------------------------------------------------------------------------------------------------------




--------------------------------------- Iteration      1(  13)  ---------------------------------------


    POTLOK:  cpu time    0.0080: real time    0.0083
    SETDIJ:  cpu time    0.0960: real time    0.0944
     EDDAV:  cpu time    0.0080: real time    0.0094
       DOS:  cpu time    0.0000: real time    0.0006
    --------------------------------------------
      LOOP:  cpu time    0.1120: real time    0.1127

 eigenvalue-minimisations  :   280
 total energy-change (2. order) : 0.1854778E-07  (-0.4170936E-09)
 number of electron       8.0000001 magnetization 
 augmentation part        0.6645490 magnetization 

 Free energy of the ion-electron system (eV)
  ---------------------------------------------------
  alpha Z        PSCENC =        19.05964224
  Ewald energy   TEWEN  =      -355.15116786
  -Hartree energ DENC   =      -142.52900404
  -exchange      EXHF   =         0.00000000
  -V(xc)+E(xc)   XCENC  =       -18.96586907
  PAW double counting   =       542.88589775     -493.11280182
  entropy T*S    EENTRO =        -0.00000000
  eigenvalues    EBANDS =       -19.49283947
  atomic energy  EATOM  =       455.39485029
  Solvation  Ediel_sol  =         0.00000000
  ---------------------------------------------------
  free energy    TOTEN  =       -11.91129199 eV

  energy without entropy =      -11.91129199  energy(sigma->0) =      -11.91129199


--------------------------------------------------------------------------------------------------------




 average (electrostatic) potential at core
  the test charge radii are     1.0714  0.7215
  (the norm of the test charge is              1.0000)
       1 -35.2999       2 -69.7508
 
 
 
 E-fermi :   3.2157     XC(G=0): -10.9581     alpha+bet :-12.8284


 k-point     1 :       0.0000    0.0000    0.0000
  band No.  band energies     occupation 
      1     -14.1364      2.00000
      2       2.9978      2.00000
      3       2.9978      2.00000
      4       2.9978      2.00000
      5       7.4790      0.00000
      6      18.6525      0.00000
      7      18.6525      0.00000
      8      18.6525      0.00000

 k-point     2 :       0.1250    0.0000    0.0000
  band No.  band energies     occupation 
      1     -13.9805      2.00000
      2       2.0526      2.00000
      3       2.8993      2.00000
      4       2.8993      2.00000
      5       8.3965      0.00000
      6      16.9813      0.00000
      7      18.9958      0.00000
      8      18.9958      0.00000

 k-point     3 :       0.2500    0.0000    0.0000
  band No.  band energies     occupation 
      1     -13.5759      2.00000
      2       0.3868      2.00000
      3       2.6721      2.00000
      4       2.6721      2.00000
      5       9.8536      0.00000
      6      15.4092      0.00000
      7      19.4381      0.00000
      8      19.4381      0.00000

 k-point     4 :       0.3750    0.0000    0.0000
  band No.  band energies     occupation 
      1     -13.1221      2.00000
      2      -0.9774      2.00000
      3       2.4581      2.00000
      4       2.4581      2.00000
      5      10.6136      0.00000
      6      15.1306      0.00000
      7      19.2233      0.00000
      8      19.2233      0.00000

 k-point     5 :       0.5000    0.0000    0.0000
  band No.  band energies     occupation 
      1     -12.9153      2.00000
      2      -1.5075      2.00000
      3       2.3728      2.00000
      4       2.3728      2.00000
      5      10.7333      0.00000
      6      15.3147      0.00000
      7      19.0457      0.00000
      8      19.0457      0.00000

 k-point     6 :       0.1250    0.1250    0.0000
  band No.  band energies     occupation 
      1     -13.9306      2.00000
      2       1.9735      2.00000
      3       2.7729      2.00000
      4       2.7729      2.00000
      5       8.6915      0.00000
      6      16.5049      0.00000
      7      19.1306      0.00000
      8      19.1306      0.00000

 k-point     7 :       0.2500    0.1250    0.0000
  band No.  band energies     occupation 
      1     -13.6143      2.00000
      2       0.7711      2.00000
      3       2.5295      2.00000
      4       2.5332      2.00000
      5       9.9851      0.00000
      6      15.1627      0.00000
      7      19.1168      0.00000
      8      19.5995      0.00000

 k-point     8 :       0.3750    0.1250    0.0000
  band No.  band energies     occupation 
      1     -13.1791      2.00000
      2      -0.5170      2.00000
      3       2.1750      2.00000
      4       2.3270      2.00000
      5      11.0794      0.00000
      6      14.7426      0.00000
      7      18.1219      0.00000
      8      19.6339      0.00000

 k-point     9 :       0.5000    0.1250    0.0000
  band No.  band energies     occupation 
      1     -12.8837      2.00000
      2      -1.2470      2.00000
      3       1.8888      2.00000
      4       2.2631      2.00000
      5      11.4044      0.00000
      6      15.1238      0.00000
      7      17.6110      0.00000
      8      19.4261      0.00000

 k-point    10 :      -0.3750    0.1250    0.0000
  band No.  band energies     occupation 
      1     -12.9493      2.00000
      2      -1.0815      2.00000
      3       1.8251      2.00000
      4       2.3726      2.00000
      5      11.3855      0.00000
      6      15.0655      0.00000
      7      17.7046      0.00000
      8      19.4960      0.00000

 k-point    11 :      -0.2500    0.1250    0.0000
  band No.  band energies     occupation 
      1     -13.3232      2.00000
      2      -0.1161      2.00000
      3       2.0394      2.00000
      4       2.6021      2.00000
      5      10.8135      0.00000
      6      14.9190      0.00000
      7      18.3212      0.00000
      8      19.9900      0.00000

 k-point    12 :      -0.1250    0.1250    0.0000
  band No.  band energies     occupation 
      1     -13.7430      2.00000
      2       1.1538      2.00000
      3       2.4897      2.00000
      4       2.8252      2.00000
      5       9.4730      0.00000
      6      15.7733      0.00000
      7      18.9498      0.00000
      8      19.6815      0.00000

 k-point    13 :       0.2500    0.2500    0.0000
  band No.  band energies     occupation 
      1     -13.4202      2.00000
      2       0.4155      2.00000
      3       2.2821      2.00000
      4       2.2821      2.00000
      5      10.8080      0.00000
      6      14.0963      0.00000
      7      18.1994      0.00000
      8      20.1894      0.00000

 k-point    14 :       0.3750    0.2500    0.0000
  band No.  band energies     occupation 
      1     -13.0858      2.00000
      2      -0.3016      2.00000
      3       1.8392      2.00000
      4       2.0718      2.00000
      5      11.9148      0.00000
      6      13.5683      0.00000
      7      16.8649      0.00000
      8      20.4933      0.00000

 k-point    15 :       0.5000    0.2500    0.0000
  band No.  band energies     occupation 
      1     -12.8004      2.00000
      2      -0.7250      2.00000
      3       1.1377      2.00000
      4       2.0118      2.00000
      5      12.5168      0.00000
      6      14.3505      0.00000
      7      16.0304      0.00000
      8      20.3257      0.00000

 k-point    16 :      -0.3750    0.2500    0.0000
  band No.  band energies     occupation 
      1     -12.7554      2.00000
      2      -0.6608      2.00000
      3       0.6861      2.00000
      4       2.1312      2.00000
      5      12.7568      0.00000
      6      14.9282      0.00000
      7      15.8278      0.00000
      8      20.1413      0.00000

 k-point    17 :      -0.2500    0.2500    0.0000
  band No.  band energies     occupation 
      1     -12.9825      2.00000
      2      -0.4211      2.00000
      3       1.0582      2.00000
      4       2.3723      2.00000
      5      12.2422      0.00000
      6      14.6272      0.00000
      7      16.7207      0.00000
      8      20.2032      0.00000

 k-point    18 :       0.3750    0.3750    0.0000
  band No.  band energies     occupation 
      1     -12.8905      2.00000
      2      -0.6350      2.00000
      3       1.8501      2.00000
      4       1.8501      2.00000
      5      12.4067      0.00000
      6      12.5923      0.00000
      7      16.1254      0.00000
      8      21.1754      0.00000

 k-point    19 :       0.5000    0.3750    0.0000
  band No.  band energies     occupation 
      1     -12.7076      2.00000
      2      -0.7827      2.00000
      3       1.3214      2.00000
      4       1.7777      2.00000
      5      12.5145      0.00000
      6      13.1844      0.00000
      7      15.7109      0.00000
      8      21.2011      0.00000

 k-point    20 :      -0.3750    0.3750    0.0000
  band No.  band energies     occupation 
      1     -12.6521      2.00000
      2      -0.4035      2.00000
      3       0.3589      2.00000
      4       1.8889      2.00000
      5      12.9598      0.00000
      6      14.4795      0.00000
      7      15.2963      0.00000
      8      20.7678      0.00000

 k-point    21 :       0.5000    0.5000    0.0000
  band No.  band energies     occupation 
      1     -12.6666      2.00000
      2      -0.9817      2.00000
      3       1.6850      2.00000
      4       1.6850      2.00000
      5      12.0862      0.00000
      6      12.6907      0.00000
      7      15.8269      0.00000
      8      21.5828      0.00000

 k-point    22 :       0.3750    0.2500    0.1250
  band No.  band energies     occupation 
      1     -13.2865      2.00000
      2       0.0420      2.00000
      3       1.8809      2.00000
      4       2.4059      2.00000
      5      11.2360      0.00000
      6      14.3780      0.00000
      7      17.7916      0.00000
      8      20.2447      0.00000

 k-point    23 :       0.5000    0.2500    0.1250
  band No.  band energies     occupation 
      1     -12.9293      2.00000
      2      -0.6225      2.00000
      3       1.3220      2.00000
      4       2.1614      2.00000
      5      12.2754      0.00000
      6      14.4725      0.00000
      7      16.6366      0.00000
      8      19.8304      0.00000

 k-point    24 :      -0.3750    0.2500    0.1250
  band No.  band energies     occupation 
      1     -12.7711      2.00000
      2      -0.9032      2.00000
      3       1.1201      2.00000
      4       2.0452      2.00000
      5      12.4892      0.00000
      6      14.9483      0.00000
      7      16.2195      0.00000
      8      19.5838      0.00000

 k-point    25 :       0.5000    0.3750    0.1250
  band No.  band energies     occupation 
      1     -12.8293      2.00000
      2      -0.5655      2.00000
      3       1.3524      2.00000
      4       1.7898      2.00000
      5      13.0016      0.00000
      6      13.3066      0.00000
      7      15.9116      0.00000
      8      20.1318      0.00000

 k-point    26 :      -0.3750    0.3750    0.1250
  band No.  band energies     occupation 
      1     -12.6711      2.00000
      2      -0.4187      2.00000
      3       0.5802      2.00000
      4       1.6609      2.00000
      5      13.4357      0.00000
      6      14.4675      0.00000
      7      15.2594      0.00000
      8      19.2653      0.00000

 k-point    27 :      -0.2500    0.3750    0.1250
  band No.  band energies     occupation 
      1     -12.7150      2.00000
      2      -0.3017      2.00000
      3       0.3761      2.00000
      4       1.8512      2.00000
      5      13.5396      0.00000
      6      14.5505      0.00000
      7      15.4167      0.00000
      8      19.3251      0.00000

 k-point    28 :      -0.3750    0.5000    0.1250
  band No.  band energies     occupation 
      1     -12.6420      2.00000
      2      -0.6877      2.00000
      3       1.1518      2.00000
      4       1.4743      2.00000
      5      12.9233      0.00000
      6      13.5630      0.00000
      7      15.5076      0.00000
      8      19.9636      0.00000

 k-point    29 :      -0.2500    0.5000    0.2500
  band No.  band energies     occupation 
      1     -12.6177      2.00000
      2       0.1231      2.00000
      3       0.1231      2.00000
      4       1.2747      2.00000
      5      14.4722      0.00000
      6      14.4722      0.00000
      7      14.8549      0.00000
      8      18.1715      0.00000


--------------------------------------------------------------------------------------------------------


 soft charge-density along one line, spin component           1
         0         1         2         3         4         5         6         7         8         9
 total charge-density along one line
 
 pseudopotential strength for first ion, spin component:           1
  2.973   9.448  -0.000  -0.000   0.000  -0.000  -0.000   0.000
  9.448  29.868  -0.000  -0.000   0.000  -0.000  -0.000   0.000
 -0.000  -0.000   7.292   0.000   0.000  10.569   0.000   0.000
 -0.000  -0.000   0.000   7.292   0.000   0.000  10.569   0.000
  0.000   0.000   0.000   0.000   7.292   0.000   0.000  10.569
 -0.000  -0.000  10.569   0.000   0.000  14.536   0.000   0.000
 -0.000  -0.000   0.000  10.569   0.000   0.000  14.536   0.000
  0.000   0.000   0.000   0.000  10.569   0.000   0.000  14.536
  0.000   0.000   0.000   0.000  -0.000   0.000   0.000  -0.000
  0.000   0.000  -0.000  -0.000   0.000  -0.000  -0.000   0.000
 -0.000  -0.000   0.000  -0.000  -0.000   0.000  -0.000  -0.000
  0.000   0.000   0.000   0.000  -0.000   0.000   0.000  -0.000
  0.000   0.000   0.000   0.000   0.000   0.000   0.000   0.000
 total augmentation occupancy for first ion, spin component:           1
  0.992  -0.045   0.000   0.000   0.000   0.000   0.000   0.000   0.000   0.000  -0.000   0.000   0.000
 -0.045   0.002   0.000   0.000   0.000   0.000   0.000   0.000  -0.000   0.000   0.000   0.000   0.000
  0.000   0.000   0.115   0.000  -0.000  -0.012  -0.000   0.000   0.000   0.000   0.000   0.000   0.000
  0.000   0.000  -0.000   0.115  -0.000   0.000  -0.012   0.000   0.000   0.000   0.000   0.000   0.000
  0.000   0.000   0.000   0.000   0.115   0.000   0.000  -0.012   0.000   0.000   0.000   0.000   0.000
  0.000   0.000  -0.012   0.000   0.000   0.001  -0.000  -0.000   0.000   0.000   0.000   0.000   0.000
  0.000   0.000   0.000  -0.012   0.000  -0.000   0.001   0.000   0.000   0.000   0.000   0.000   0.000
  0.000   0.000   0.000   0.000  -0.012  -0.000   0.000   0.001   0.000   0.000   0.000   0.000   0.000
  0.000  -0.000   0.000   0.000   0.000   0.000   0.000   0.000   0.012   0.000   0.000  -0.000   0.000
  0.000   0.000   0.000   0.000   0.000   0.000   0.000   0.000  -0.000   0.012   0.000  -0.000   0.000
  0.000   0.000   0.000   0.000   0.000   0.000   0.000   0.000   0.000   0.000   0.049   0.000   0.000
  0.000   0.000   0.000   0.000   0.000   0.000   0.000   0.000  -0.000   0.000   0.000   0.012   0.000
  0.000   0.000   0.000   0.000   0.000   0.000   0.000   0.000   0.000  -0.000   0.000   0.000   0.049


------------------------ aborting loop because EDIFF is reached ----------------------------------------


 


 total charge     
 
# of ion       s       p       d       tot
------------------------------------------
    1        0.145   0.171   0.074   0.391
    2        1.542   3.546   0.000   5.088
--------------------------------------------------
tot          1.687   3.717   0.074   5.479
 
    CHARGE:  cpu time    0.0040: real time    0.0034
    FORLOC:  cpu time    0.0000: real time    0.0008
    FORNL :  cpu time    0.0080: real time    0.0098
    STRESS:  cpu time    0.0280: real time    0.0291
    FORCOR:  cpu time    0.0080: real time    0.0087
    FORHAR:  cpu time    0.0040: real time    0.0023
    MIXING:  cpu time    0.0000: real time    0.0019
    OFIELD:  cpu time    0.0000: real time    0.0000

  FORCE on cell =-STRESS in cart. coord.  units (eV):
  Direction    XX          YY          ZZ          XY          YZ          ZX
  --------------------------------------------------------------------------------------
  Alpha Z    19.05964    19.05964    19.05964
  Ewald    -118.38375  -118.38375  -118.38375     0.00000    -0.00000    -0.00000
  Hartree    47.50962    47.50962    47.50962     0.00000     0.00000     0.00000
  E(xc)     -36.29301   -36.29301   -36.29301     0.00000     0.00000     0.00000
  Local     -41.54219   -41.54219   -41.54219     0.00005     0.00005     0.00005
  n-local   -19.05320   -19.65311   -17.31992    -0.50988     0.49906    -0.30612
  augment     6.82859     6.82859     6.82859    -0.00002    -0.00002    -0.00002
  Kinetic   143.20235   143.30789   137.96971     4.73644    -3.52080     2.30402
  Fock        0.00000     0.00000     0.00000     0.00000     0.00000     0.00000
  -------------------------------------------------------------------------------------
  Total      -0.00319    -0.00319    -0.00319    -0.00000    -0.00000     0.00000
  in kB      -0.26634    -0.26634    -0.26634    -0.00000    -0.00000     0.00000
  external pressure =       -0.27 kB  Pullay stress =        0.00 kB


 VOLUME and BASIS-vectors are now :
 -----------------------------------------------------------------------------
  energy-cutoff  :      520.00
  volume of cell :       19.17
      direct lattice vectors                 reciprocal lattice vectors
     0.000000000  2.124058662  2.124058662    -0.235398395  0.235398395  0.235398395
     2.124058662  0.000000000  2.124058662     0.235398395 -0.235398395  0.235398395
     2.124058662  2.124058662  0.000000000     0.235398395  0.235398395 -0.235398395

  length of vectors
     3.003872567  3.003872567  3.003872567     0.407721980  0.407721980  0.407721980


 FORCES acting on ions
    electron-ion (+dipol)            ewald-force                    non-local-force                 convergence-correction
 -----------------------------------------------------------------------------------------------
   0.952E-15 -.139E-14 -.462E-15   -.123E-14 -.114E-14 0.114E-15   0.000E+00 0.000E+00 0.000E+00   -.672E-16 -.278E-16 -.176E-15
   -.487E-12 -.985E-13 -.252E-12   0.113E-14 0.847E-15 -.524E-15   0.000E+00 -.129E-25 -.103E-24   0.114E-13 0.971E-14 0.235E-13
 -----------------------------------------------------------------------------------------------
   -.486E-12 -.998E-13 -.252E-12   -.101E-15 -.296E-15 -.410E-15   0.000E+00 -.129E-25 -.103E-24   0.113E-13 0.968E-14 0.233E-13
 
 
 POSITION                                       TOTAL-FORCE (eV/Angst)
 -----------------------------------------------------------------------------------
      0.00000      0.00000      0.00000         0.000000      0.000000      0.000000
      2.12406      2.12406      2.12406         0.000000      0.000000      0.000000
 -----------------------------------------------------------------------------------
    total drift:                               -0.000000     -0.000000     -0.000000


--------------------------------------------------------------------------------------------------------



  FREE ENERGIE OF THE ION-ELECTRON SYSTEM (eV)
  ---------------------------------------------------
  free  energy   TOTEN  =       -11.91129199 eV

  energy  without entropy=      -11.91129199  energy(sigma->0) =      -11.91129199
 


--------------------------------------------------------------------------------------------------------


    POTLOK:  cpu time    0.1040: real time    0.1029


--------------------------------------------------------------------------------------------------------




--------------------------------------------------------------------------------------------------------


  
 reached required accuracy - stopping structural energy minimisation
     LOOP+:  cpu time    1.3680: real time    1.4098
    4ORBIT:  cpu time    0.0000: real time    0.0000
 


 total charge     
 
# of ion       s       p       d       tot
------------------------------------------
    1        0.145   0.171   0.074   0.391
    2        1.542   3.546   0.000   5.088
--------------------------------------------------
tot          1.687   3.717   0.074   5.479
 

 total amount of memory used by VASP MPI-rank0    33942. kBytes
=======================================================================

   base      :      30000. kBytes
   nonlr-proj:        451. kBytes
   fftplans  :        848. kBytes
   grid      :       1596. kBytes
   one-center:         16. kBytes
   wavefun   :       1031. kBytes
 
  
  
 General timing and accounting informations for this job:
 ========================================================
  
                  Total CPU time used (sec):        1.924
                            User time (sec):        1.776
                          System time (sec):        0.148
                         Elapsed time (sec):        2.280
  
                   Maximum memory used (kb):       71904.
                   Average memory used (kb):           0.
  
                          Minor page faults:         7929
                          Major page faults:            9
                 Voluntary context switches:         1690
