<?xml version="1.0" encoding="ISO-8859-1"?>
<modeling>
 <generator>
  <i name="program" type="string">vasp </i>
  <i name="version" type="string">5.4.4.18Apr17-6-g9f103f2a35  </i>
  <i name="subversion" type="string">(build Apr 25 2017 10:43:04) complex            parallel </i>
  <i name="platform" type="string">LinuxIFC </i>
  <i name="date" type="string">2018 03 16 </i>
  <i name="time" type="string">09:18:58 </i>
 </generator>
 <incar>
  <i type="string" name="PREC">n</i>
  <i type="string" name="ALGO"> N</i>
  <i type="int" name="NELM">   100</i>
  <i type="int" name="NELMIN">     4</i>
  <i type="int" name="IBRION">     2</i>
  <i name="EDIFF">      0.00000010</i>
  <i name="EDIFFG">     -0.00500000</i>
  <i type="int" name="NSW">    20</i>
  <i type="int" name="ISIF">     3</i>
  <i name="ENCUT">    520.00000000</i>
  <i type="string" name="LREAL"> A</i>
  <i type="int" name="ISMEAR">     0</i>
  <i name="SIGMA">      0.05000000</i>
  <i type="logical" name="LWAVE"> F  </i>
  <i type="logical" name="LCHARG"> F  </i>
  <i type="int" name="LORBIT">    12</i>
  <i type="logical" name="LASPH"> T  </i>
  <v type="int" name="KPOINT_BSE">    -1     0     0     0</v>
  <i type="int" name="NELM">   100</i>
  <i type="logical" name="LASPH"> T  </i>
 </incar>
 <structure name="primitive_cell" >
  <crystal>
   <varray name="basis" >
    <v>       0.00000000       2.12405866       2.12405866 </v>
    <v>       2.12405866       0.00000000       2.12405866 </v>
    <v>       2.12405866       2.12405866       0.00000000 </v>
   </varray>
   <i name="volume">     19.16591316 </i>
   <varray name="rec_basis" >
    <v>      -0.23539840       0.23539840       0.23539840 </v>
    <v>       0.23539840      -0.23539840       0.23539840 </v>
    <v>       0.23539840       0.23539840      -0.23539840 </v>
   </varray>
  </crystal>
  <varray name="positions" >
   <v>       0.00000000       0.00000000       0.00000000 </v>
   <v>      -0.50000000      -0.50000000      -0.50000000 </v>
  </varray>
 </structure>
 <varray name="primitive_index" >
  <v type="int" >        1 </v>
  <v type="int" >        2 </v>
 </varray>
 <kpoints>
  <generation param="Gamma">
   <v type="int" name="divisions">       8        8        8 </v>
   <v name="usershift">      0.00000000       0.00000000       0.00000000 </v>
   <v name="genvec1">      0.12500000       0.00000000       0.00000000 </v>
   <v name="genvec2">      0.00000000       0.12500000       0.00000000 </v>
   <v name="genvec3">      0.00000000       0.00000000       0.12500000 </v>
   <v name="shift">      0.00000000       0.00000000       0.00000000 </v>
  </generation>
  <varray name="kpointlist" >
   <v>       0.00000000       0.00000000       0.00000000 </v>
   <v>       0.12500000       0.00000000       0.00000000 </v>
   <v>       0.25000000       0.00000000       0.00000000 </v>
   <v>       0.37500000       0.00000000       0.00000000 </v>
   <v>       0.50000000       0.00000000       0.00000000 </v>
   <v>       0.12500000       0.12500000       0.00000000 </v>
   <v>       0.25000000       0.12500000       0.00000000 </v>
   <v>       0.37500000       0.12500000       0.00000000 </v>
   <v>       0.50000000       0.12500000       0.00000000 </v>
   <v>      -0.37500000       0.12500000       0.00000000 </v>
   <v>      -0.25000000       0.12500000       0.00000000 </v>
   <v>      -0.12500000       0.12500000       0.00000000 </v>
   <v>       0.25000000       0.25000000       0.00000000 </v>
   <v>       0.37500000       0.25000000       0.00000000 </v>
   <v>       0.50000000       0.25000000       0.00000000 </v>
   <v>      -0.37500000       0.25000000       0.00000000 </v>
   <v>      -0.25000000       0.25000000       0.00000000 </v>
   <v>       0.37500000       0.37500000       0.00000000 </v>
   <v>       0.50000000       0.37500000       0.00000000 </v>
   <v>      -0.37500000       0.37500000       0.00000000 </v>
   <v>       0.50000000       0.50000000       0.00000000 </v>
   <v>       0.37500000       0.25000000       0.12500000 </v>
   <v>       0.50000000       0.25000000       0.12500000 </v>
   <v>      -0.37500000       0.25000000       0.12500000 </v>
   <v>       0.50000000       0.37500000       0.12500000 </v>
   <v>      -0.37500000       0.37500000       0.12500000 </v>
   <v>      -0.25000000       0.37500000       0.12500000 </v>
   <v>      -0.37500000       0.50000000       0.12500000 </v>
   <v>      -0.25000000       0.50000000       0.25000000 </v>
  </varray>
  <varray name="weights" >
   <v>       0.00195312 </v>
   <v>       0.01562500 </v>
   <v>       0.01562500 </v>
   <v>       0.01562500 </v>
   <v>       0.00781250 </v>
   <v>       0.01171875 </v>
   <v>       0.04687500 </v>
   <v>       0.04687500 </v>
   <v>       0.04687500 </v>
   <v>       0.04687500 </v>
   <v>       0.04687500 </v>
   <v>       0.02343750 </v>
   <v>       0.01171875 </v>
   <v>       0.04687500 </v>
   <v>       0.04687500 </v>
   <v>       0.04687500 </v>
   <v>       0.02343750 </v>
   <v>       0.01171875 </v>
   <v>       0.04687500 </v>
   <v>       0.02343750 </v>
   <v>       0.00585938 </v>
   <v>       0.04687500 </v>
   <v>       0.09375000 </v>
   <v>       0.04687500 </v>
   <v>       0.04687500 </v>
   <v>       0.09375000 </v>
   <v>       0.04687500 </v>
   <v>       0.02343750 </v>
   <v>       0.01171875 </v>
  </varray>
 </kpoints>
 <parameters>
  <separator name="general" >
   <i type="string" name="SYSTEM">unknown system</i>
   <i type="logical" name="LCOMPAT"> F  </i>
  </separator>
  <separator name="electronic" >
   <i type="string" name="PREC">n</i>
   <i name="ENMAX">    520.00000000</i>
   <i name="ENAUG">    605.39200000</i>
   <i name="EDIFF">      0.00000010</i>
   <i type="int" name="IALGO">    38</i>
   <i type="int" name="IWAVPR">    11</i>
   <i type="int" name="NBANDS">     8</i>
   <i name="NELECT">      8.00000000</i>
   <i type="int" name="TURBO">     0</i>
   <i type="int" name="IRESTART">     0</i>
   <i type="int" name="NREBOOT">     0</i>
   <i type="int" name="NMIN">     0</i>
   <i name="EREF">      0.00000000</i>
   <separator name="electronic smearing" >
    <i type="int" name="ISMEAR">     0</i>
    <i name="SIGMA">      0.05000000</i>
    <i name="KSPACING">      0.50000000</i>
    <i type="logical" name="KGAMMA"> T  </i>
   </separator>
   <separator name="electronic projectors" >
    <i type="logical" name="LREAL"> T  </i>
    <v name="ROPT">     -0.00050000     -0.00050000</v>
    <i type="int" name="LMAXPAW">  -100</i>
    <i type="int" name="LMAXMIX">     2</i>
    <i type="logical" name="NLSPLINE"> F  </i>
   </separator>
   <separator name="electronic startup" >
    <i type="int" name="ISTART">     0</i>
    <i type="int" name="ICHARG">     2</i>
    <i type="int" name="INIWAV">     1</i>
   </separator>
   <separator name="electronic spin" >
    <i type="int" name="ISPIN">     1</i>
    <i type="logical" name="LNONCOLLINEAR"> F  </i>
    <v name="MAGMOM">      1.00000000      1.00000000</v>
    <i name="NUPDOWN">     -1.00000000</i>
    <i type="logical" name="LSORBIT"> F  </i>
    <v name="SAXIS">      0.00000000      0.00000000      1.00000000</v>
    <i type="logical" name="LSPIRAL"> F  </i>
    <v name="QSPIRAL">      0.00000000      0.00000000      0.00000000</v>
    <i type="logical" name="LZEROZ"> F  </i>
   </separator>
   <separator name="electronic exchange-correlation" >
    <i type="logical" name="LASPH"> T  </i>
    <i type="logical" name="LMETAGGA"> F  </i>
   </separator>
   <separator name="electronic convergence" >
    <i type="int" name="NELM">   100</i>
    <i type="int" name="NELMDL">     0</i>
    <i type="int" name="NELMIN">     4</i>
    <i name="ENINI">    520.00000000</i>
    <separator name="electronic convergence detail" >
     <i type="logical" name="LDIAG"> T  </i>
     <i type="logical" name="LSUBROT"> F  </i>
     <i name="WEIMIN">      0.00100000</i>
     <i name="EBREAK">      0.00000000</i>
     <i name="DEPER">      0.30000000</i>
     <i type="int" name="NRMM">     4</i>
     <i name="TIME">      0.40000000</i>
    </separator>
   </separator>
   <separator name="electronic mixer" >
    <i name="AMIX">      0.40000000</i>
    <i name="BMIX">      1.00000000</i>
    <i name="AMIN">      0.10000000</i>
    <i name="AMIX_MAG">      1.60000000</i>
    <i name="BMIX_MAG">      1.00000000</i>
    <separator name="electronic mixer details" >
     <i type="int" name="IMIX">     4</i>
     <i type="logical" name="MIXFIRST"> F  </i>
     <i type="int" name="MAXMIX">   -45</i>
     <i name="WC">    100.00000000</i>
     <i type="int" name="INIMIX">     1</i>
     <i type="int" name="MIXPRE">     1</i>
     <i type="int" name="MREMOVE">     5</i>
    </separator>
   </separator>
   <separator name="electronic dipolcorrection" >
    <i type="logical" name="LDIPOL"> F  </i>
    <i type="logical" name="LMONO"> F  </i>
    <i type="int" name="IDIPOL">     0</i>
    <i name="EPSILON">      1.00000000</i>
    <v name="DIPOL">   -100.00000000   -100.00000000   -100.00000000</v>
    <i name="EFIELD">      0.00000000</i>
   </separator>
  </separator>
  <separator name="grids" >
   <i type="int" name="NGX">    18</i>
   <i type="int" name="NGY">    18</i>
   <i type="int" name="NGZ">    18</i>
   <i type="int" name="NGXF">    36</i>
   <i type="int" name="NGYF">    36</i>
   <i type="int" name="NGZF">    36</i>
   <i type="logical" name="ADDGRID"> F  </i>
  </separator>
  <separator name="ionic" >
   <i type="int" name="NSW">    20</i>
   <i type="int" name="IBRION">     2</i>
   <i type="int" name="MDALGO">     0</i>
   <i type="int" name="ISIF">     3</i>
   <i name="PSTRESS">      0.00000000</i>
   <i name="EDIFFG">     -0.00500000</i>
   <i type="int" name="NFREE">     1</i>
   <i name="POTIM">      0.50000000</i>
   <i name="SMASS">     -3.00000000</i>
   <i name="SCALEE">      1.00000000</i>
  </separator>
  <separator name="ionic md" >
   <i name="TEBEG">      0.00010000</i>
   <i name="TEEND">      0.00010000</i>
   <i type="int" name="NBLOCK">     1</i>
   <i type="int" name="KBLOCK">    20</i>
   <i type="int" name="NPACO">   256</i>
   <i name="APACO">     16.00000000</i>
  </separator>
  <separator name="symmetry" >
   <i type="int" name="ISYM">     2</i>
   <i name="SYMPREC">      0.00001000</i>
  </separator>
  <separator name="dos" >
   <i type="int" name="LORBIT">    12</i>
   <v name="RWIGS">     -1.00000000     -1.00000000</v>
   <i type="int" name="NEDOS">   301</i>
   <i name="EMIN">     10.00000000</i>
   <i name="EMAX">    -10.00000000</i>
   <i name="EFERMI">      0.00000000</i>
  </separator>
  <separator name="writing" >
   <i type="int" name="NWRITE">     2</i>
   <i type="logical" name="LWAVE"> F  </i>
   <i type="logical" name="LDOWNSAMPLE"> F  </i>
   <i type="logical" name="LCHARG"> F  </i>
   <i type="logical" name="LPARD"> F  </i>
   <i type="logical" name="LVTOT"> F  </i>
   <i type="logical" name="LVHAR"> F  </i>
   <i type="logical" name="LELF"> F  </i>
   <i type="logical" name="LOPTICS"> F  </i>
   <v name="STM">      0.00000000      0.00000000      0.00000000      0.00000000      0.00000000      0.00000000      0.00000000</v>
  </separator>
  <separator name="performance" >
   <i type="int" name="NPAR">     2</i>
   <i type="int" name="NSIM">     4</i>
   <i type="int" name="NBLK">    -1</i>
   <i type="logical" name="LPLANE"> T  </i>
   <i type="logical" name="LSCALAPACK"> T  </i>
   <i type="logical" name="LSCAAWARE"> F  </i>
   <i type="logical" name="LSCALU"> F  </i>
   <i type="logical" name="LASYNC"> F  </i>
   <i type="logical" name="LORBITALREAL"> F  </i>
  </separator>
  <separator name="miscellaneous" >
   <i type="int" name="IDIOT">     3</i>
   <i type="int" name="ISPECIAL">     0</i>
   <i type="logical" name="LMUSIC"> F  </i>
   <v name="POMASS">     24.30500000     16.00000000</v>
   <v name="DARWINR">      0.00000000      0.00000000</v>
   <v name="DARWINV">      1.00000000      1.00000000</v>
   <i type="logical" name="LCORR"> T  </i>
  </separator>
  <i type="logical" name="GGA_COMPAT"> T  </i>
  <i type="logical" name="LBERRY"> F  </i>
  <i type="int" name="ICORELEVEL">     0</i>
  <i type="logical" name="LDAU"> F  </i>
  <i type="int" name="I_CONSTRAINED_M">     0</i>
  <separator name="electronic exchange-correlation" >
   <i type="string" name="GGA">--</i>
   <i type="int" name="VOSKOWN">     0</i>
   <i type="logical" name="LHFCALC"> F  </i>
   <i type="string" name="PRECFOCK"></i>
   <i type="logical" name="LSYMGRAD"> F  </i>
   <i type="logical" name="LHFONE"> F  </i>
   <i type="logical" name="LRHFCALC"> F  </i>
   <i type="logical" name="LTHOMAS"> F  </i>
   <i type="logical" name="LMODELHF"> F  </i>
   <i name="ENCUT4O">     -1.00000000</i>
   <i type="int" name="EXXOEP">     0</i>
   <i type="int" name="FOURORBIT">     0</i>
   <i name="AEXX">      0.00000000</i>
   <i name="HFALPHA">      0.00000000</i>
   <i name="MCALPHA">      0.00000000</i>
   <i name="ALDAX">      1.00000000</i>
   <i name="AGGAX">      1.00000000</i>
   <i name="ALDAC">      1.00000000</i>
   <i name="AGGAC">      1.00000000</i>
   <i type="int" name="NKREDX">     1</i>
   <i type="int" name="NKREDY">     1</i>
   <i type="int" name="NKREDZ">     1</i>
   <i type="logical" name="SHIFTRED"> F  </i>
   <i type="logical" name="ODDONLY"> F  </i>
   <i type="logical" name="EVENONLY"> F  </i>
   <i type="int" name="LMAXFOCK">     0</i>
   <i type="int" name="NMAXFOCKAE">     0</i>
   <i type="logical" name="LFOCKAEDFT"> F  </i>
   <i name="HFSCREEN">      0.00000000</i>
   <i name="HFSCREENC">      0.00000000</i>
   <i type="int" name="NBANDSGWLOW">     0</i>
  </separator>
  <separator name="vdW DFT" >
   <i type="logical" name="LUSE_VDW"> F  </i>
   <i name="Zab_VDW">     -0.84910000</i>
   <i name="PARAM1">      0.12340000</i>
   <i name="PARAM2">      1.00000000</i>
   <i name="PARAM3">      0.00000000</i>
  </separator>
  <separator name="model GW" >
   <i type="int" name="MODEL_GW">     0</i>
   <i name="MODEL_EPS0">      5.74977395</i>
   <i name="MODEL_ALPHA">      1.00000000</i>
  </separator>
  <separator name="linear response parameters" >
   <i type="logical" name="LEPSILON"> F  </i>
   <i type="logical" name="LRPA"> F  </i>
   <i type="logical" name="LNABLA"> F  </i>
   <i type="logical" name="LVEL"> F  </i>
   <i type="int" name="KINTER">     0</i>
   <i name="CSHIFT">      0.10000000</i>
   <i name="OMEGAMAX">     -1.00000000</i>
   <i name="DEG_THRESHOLD">      0.00200000</i>
   <i name="RTIME">     -0.10000000</i>
   <i name="WPLASMAI">      0.00000000</i>
   <v name="DFIELD">      0.00000000      0.00000000      0.00000000</v>
   <v name="WPLASMA">      0.00000000      0.00000000      0.00000000      0.00000000      0.00000000      0.00000000      0.00000000      0.00000000      0.00000000</v>
  </separator>
  <separator name="orbital magnetization" >
   <i type="logical" name="NUCIND"> F  </i>
   <v name="MAGPOS">      0.00000000      0.00000000      0.00000000</v>
   <i type="logical" name="LNICSALL"> T  </i>
   <i type="logical" name="ORBITALMAG"> F  </i>
   <i type="logical" name="LMAGBLOCH"> F  </i>
   <i type="logical" name="LCHIMAG"> F  </i>
   <i type="logical" name="LGAUGE"> T  </i>
   <i type="int" name="MAGATOM">     0</i>
   <v name="MAGDIPOL">      0.00000000      0.00000000      0.00000000</v>
   <v name="AVECCONST">      0.00000000      0.00000000      0.00000000</v>
  </separator>
  <separator name="response functions" >
   <i type="logical" name="LADDER"> F  </i>
   <i type="logical" name="LRPAFORCE"> F  </i>
   <i type="logical" name="LFXC"> F  </i>
   <i type="logical" name="LHARTREE"> T  </i>
   <i type="int" name="IBSE">     0</i>
   <v type="int" name="KPOINT">    -1     0     0     0</v>
   <i type="logical" name="LTCTE"> F  </i>
   <i type="logical" name="LTETE"> F  </i>
   <i type="logical" name="LTRIPLET"> F  </i>
   <i type="logical" name="LFXCEPS"> F  </i>
   <i type="logical" name="LFXHEG"> F  </i>
   <i type="int" name="NATURALO">     2</i>
   <i type="logical" name="L2ORDER"> F  </i>
   <i type="logical" name="LMP2LT"> F  </i>
   <i type="logical" name="LUSEW"> F  </i>
   <i name="ENCUTGW">     -2.00000000</i>
   <i name="ENCUTGWSOFT">     -2.00000000</i>
   <i name="ENCUTLF">     -1.00000000</i>
   <i type="int" name="LMAXMP2">    -1</i>
   <i name="SCISSOR">      0.00000000</i>
   <i type="int" name="NOMEGA">     0</i>
   <i type="int" name="NOMEGAR">     0</i>
   <i type="int" name="NBANDSGW">    -1</i>
   <i type="int" name="NBANDSO">    -1</i>
   <i type="int" name="NBANDSV">    -1</i>
   <i type="int" name="NELM">   100</i>
   <i type="int" name="NELMHF">     1</i>
   <i type="int" name="DIM">     3</i>
   <i type="int" name="ANTIRES">     0</i>
   <i name="OMEGAMAX">    -30.00000000</i>
   <i name="OMEGAMIN">    -30.00000000</i>
   <i name="OMEGATL">   -200.00000000</i>
   <i type="int" name="OMEGAGRID">   140</i>
   <i name="CSHIFT">     -0.10000000</i>
   <i type="logical" name="SELFENERGY"> F  </i>
   <i type="logical" name="LSPECTRAL"> F  </i>
   <i type="logical" name="LSPECTRALGW"> F  </i>
   <i type="logical" name="LSINGLES"> F  </i>
   <i type="logical" name="LFERMIGW"> F  </i>
   <i type="logical" name="ODDONLYGW"> F  </i>
   <i type="logical" name="EVENONLYGW"> F  </i>
   <i type="int" name="NKREDLFX">     1</i>
   <i type="int" name="NKREDLFY">     1</i>
   <i type="int" name="NKREDLFZ">     1</i>
   <i type="int" name="MAXMEM">  2800</i>
   <i type="int" name="TELESCOPE">     0</i>
   <i type="int" name="TAUPAR">     1</i>
   <i type="int" name="OMEGAPAR">    -1</i>
   <i name="LAMBDA">      1.00000000</i>
  </separator>
  <separator name="External order field" >
   <i name="OFIELD_KAPPA">      0.00000000</i>
   <v name="OFIELD_K">      0.00000000      0.00000000      0.00000000</v>
   <i name="OFIELD_Q6_NEAR">      0.00000000</i>
   <i name="OFIELD_Q6_FAR">      0.00000000</i>
   <i name="OFIELD_A">      0.00000000</i>
  </separator>
 </parameters>
 <atominfo>
  <atoms>       2 </atoms>
  <types>       2 </types>
  <array name="atoms" >
   <dimension dim="1">ion</dimension>
   <field type="string">element</field>
   <field type="int">atomtype</field>
   <set>
    <rc><c>Mg</c><c>   1</c></rc>
    <rc><c>O </c><c>   2</c></rc>
   </set>
  </array>
  <array name="atomtypes" >
   <dimension dim="1">type</dimension>
   <field type="int">atomspertype</field>
   <field type="string">element</field>
   <field>mass</field>
   <field>valence</field>
   <field type="string">pseudopotential</field>
   <set>
    <rc><c>   1</c><c>Mg</c><c>     24.30500000</c><c>      2.00000000</c><c>  PAW_PBE Mg 13Apr2007                  </c></rc>
    <rc><c>   1</c><c>O </c><c>     16.00000000</c><c>      6.00000000</c><c>  PAW_PBE O 08Apr2002                   </c></rc>
   </set>
  </array>
 </atominfo>
 <structure name="initialpos" >
  <crystal>
   <varray name="basis" >
    <v>       0.00000000       2.12405866       2.12405866 </v>
    <v>       2.12405866       0.00000000       2.12405866 </v>
    <v>       2.12405866       2.12405866       0.00000000 </v>
   </varray>
   <i name="volume">     19.16591316 </i>
   <varray name="rec_basis" >
    <v>      -0.23539840       0.23539840       0.23539840 </v>
    <v>       0.23539840      -0.23539840       0.23539840 </v>
    <v>       0.23539840       0.23539840      -0.23539840 </v>
   </varray>
  </crystal>
  <varray name="positions" >
   <v>       0.00000000       0.00000000       0.00000000 </v>
   <v>       0.50000000       0.50000000       0.50000000 </v>
  </varray>
 </structure>
 <calculation>
  <scstep>
   <time name="dav">    0.01    0.01</time>
   <time name="total">    0.11    0.12</time>
   <energy>
    <i name="alphaZ">     19.05964224 </i>
    <i name="ewald">   -355.15116786 </i>
    <i name="hartreedc">   -122.50366444 </i>
    <i name="XCdc">    -20.51000102 </i>
    <i name="pawpsdc">    411.85617216 </i>
    <i name="pawaedc">   -361.79210629 </i>
    <i name="eentropy">     -0.00097101 </i>
    <i name="bandstr">    -15.16645382 </i>
    <i name="atom">    455.39485029 </i>
    <i name="e_fr_energy">     11.18630024 </i>
    <i name="e_wo_entrp">     11.18727126 </i>
    <i name="e_0_energy">     11.18678575 </i>
   </energy>
  </scstep>
  <scstep>
   <time name="dav">    0.02    0.02</time>
   <time name="total">    0.02    0.02</time>
   <energy>
    <i name="e_fr_energy">    -13.14880523 </i>
    <i name="e_wo_entrp">    -13.14880523 </i>
    <i name="e_0_energy">    -13.14880523 </i>
   </energy>
  </scstep>
  <scstep>
   <time name="dav">    0.02    0.01</time>
   <time name="total">    0.02    0.02</time>
   <energy>
    <i name="e_fr_energy">    -13.46803285 </i>
    <i name="e_wo_entrp">    -13.46803285 </i>
    <i name="e_0_energy">    -13.46803285 </i>
   </energy>
  </scstep>
  <scstep>
   <time name="dav">    0.01    0.01</time>
   <time name="total">    0.01    0.01</time>
   <energy>
    <i name="e_fr_energy">    -13.46859492 </i>
    <i name="e_wo_entrp">    -13.46859492 </i>
    <i name="e_0_energy">    -13.46859492 </i>
   </energy>
  </scstep>
  <scstep>
   <time name="dav">    0.01    0.01</time>
   <time name="total">    0.02    0.02</time>
   <energy>
    <i name="e_fr_energy">    -13.46859547 </i>
    <i name="e_wo_entrp">    -13.46859547 </i>
    <i name="e_0_energy">    -13.46859547 </i>
   </energy>
  </scstep>
  <scstep>
   <time name="dav">    0.01    0.01</time>
   <time name="total">    0.12    0.12</time>
   <energy>
    <i name="e_fr_energy">    -11.93265634 </i>
    <i name="e_wo_entrp">    -11.93265634 </i>
    <i name="e_0_energy">    -11.93265634 </i>
   </energy>
  </scstep>
  <scstep>
   <time name="dav">    0.01    0.01</time>
   <time name="total">    0.12    0.12</time>
   <energy>
    <i name="e_fr_energy">    -11.91696598 </i>
    <i name="e_wo_entrp">    -11.91696598 </i>
    <i name="e_0_energy">    -11.91696598 </i>
   </energy>
  </scstep>
  <scstep>
   <time name="dav">    0.01    0.01</time>
   <time name="total">    0.12    0.12</time>
   <energy>
    <i name="e_fr_energy">    -11.91129082 </i>
    <i name="e_wo_entrp">    -11.91129082 </i>
    <i name="e_0_energy">    -11.91129082 </i>
   </energy>
  </scstep>
  <scstep>
   <time name="dav">    0.01    0.01</time>
   <time name="total">    0.12    0.12</time>
   <energy>
    <i name="e_fr_energy">    -11.91118127 </i>
    <i name="e_wo_entrp">    -11.91118127 </i>
    <i name="e_0_energy">    -11.91118127 </i>
   </energy>
  </scstep>
  <scstep>
   <time name="dav">    0.01    0.01</time>
   <time name="total">    0.12    0.12</time>
   <energy>
    <i name="e_fr_energy">    -11.91129195 </i>
    <i name="e_wo_entrp">    -11.91129195 </i>
    <i name="e_0_energy">    -11.91129195 </i>
   </energy>
  </scstep>
  <scstep>
   <time name="dav">    0.01    0.01</time>
   <time name="total">    0.12    0.12</time>
   <energy>
    <i name="e_fr_energy">    -11.91129212 </i>
    <i name="e_wo_entrp">    -11.91129212 </i>
    <i name="e_0_energy">    -11.91129212 </i>
   </energy>
  </scstep>
  <scstep>
   <time name="dav">    0.01    0.01</time>
   <time name="total">    0.12    0.12</time>
   <energy>
    <i name="e_fr_energy">    -11.91129201 </i>
    <i name="e_wo_entrp">    -11.91129201 </i>
    <i name="e_0_energy">    -11.91129201 </i>
   </energy>
  </scstep>
  <scstep>
   <time name="dav">    0.01    0.01</time>
   <time name="total">    0.11    0.11</time>
   <energy>
    <i name="alphaZ">     19.05964224 </i>
    <i name="ewald">   -355.15116786 </i>
    <i name="hartreedc">   -142.52900404 </i>
    <i name="XCdc">    -18.96586907 </i>
    <i name="pawpsdc">    542.88589775 </i>
    <i name="pawaedc">   -493.11280182 </i>
    <i name="eentropy">     -0.00000000 </i>
    <i name="bandstr">    -19.49283947 </i>
    <i name="atom">    455.39485029 </i>
    <i name="e_fr_energy">    -11.91129199 </i>
    <i name="e_wo_entrp">    -11.91129199 </i>
    <i name="e_0_energy">    -11.91129199 </i>
   </energy>
  </scstep>
  <structure>
   <crystal>
    <varray name="basis" >
     <v>       0.00000000       2.12405866       2.12405866 </v>
     <v>       2.12405866       0.00000000       2.12405866 </v>
     <v>       2.12405866       2.12405866       0.00000000 </v>
    </varray>
    <i name="volume">     19.16591316 </i>
    <varray name="rec_basis" >
     <v>      -0.23539840       0.23539840       0.23539840 </v>
     <v>       0.23539840      -0.23539840       0.23539840 </v>
     <v>       0.23539840       0.23539840      -0.23539840 </v>
    </varray>
   </crystal>
   <varray name="positions" >
    <v>       0.00000000       0.00000000       0.00000000 </v>
    <v>       0.50000000       0.50000000       0.50000000 </v>
   </varray>
  </structure>
  <varray name="forces" >
   <v>       0.00000000       0.00000000       0.00000000 </v>
   <v>       0.00000000       0.00000000       0.00000000 </v>
  </varray>
  <varray name="stress" >
   <v>      -0.26633585      -0.00000000       0.00000000 </v>
   <v>      -0.00000000      -0.26633585       0.00000000 </v>
   <v>      -0.00000000      -0.00000000      -0.26633585 </v>
  </varray>
  <energy>
   <i name="e_fr_energy">    -11.91129199 </i>
   <i name="e_wo_entrp">    -11.91129199 </i>
   <i name="e_0_energy">     -0.00000000 </i>
  </energy>
  <time name="totalsc">    1.37    1.41</time>
  <eigenvalues>
   <array>
    <dimension dim="1">band</dimension>
    <dimension dim="2">kpoint</dimension>
    <dimension dim="3">spin</dimension>
    <field>eigene</field>
    <field>occ</field>
    <set>
     <set comment="spin 1">
      <set comment="kpoint 1">
       <r>  -14.1364    1.0000 </r>
       <r>    2.9978    1.0000 </r>
       <r>    2.9978    1.0000 </r>
       <r>    2.9978    1.0000 </r>
       <r>    7.4790    0.0000 </r>
       <r>   18.6525    0.0000 </r>
       <r>   18.6525    0.0000 </r>
       <r>   18.6525    0.0000 </r>
      </set>
      <set comment="kpoint 2">
       <r>  -13.9805    1.0000 </r>
       <r>    2.0526    1.0000 </r>
       <r>    2.8993    1.0000 </r>
       <r>    2.8993    1.0000 </r>
       <r>    8.3965    0.0000 </r>
       <r>   16.9813    0.0000 </r>
       <r>   18.9958    0.0000 </r>
       <r>   18.9958    0.0000 </r>
      </set>
      <set comment="kpoint 3">
       <r>  -13.5759    1.0000 </r>
       <r>    0.3868    1.0000 </r>
       <r>    2.6721    1.0000 </r>
       <r>    2.6721    1.0000 </r>
       <r>    9.8536    0.0000 </r>
       <r>   15.4092    0.0000 </r>
       <r>   19.4381    0.0000 </r>
       <r>   19.4381    0.0000 </r>
      </set>
      <set comment="kpoint 4">
       <r>  -13.1221    1.0000 </r>
       <r>   -0.9774    1.0000 </r>
       <r>    2.4581    1.0000 </r>
       <r>    2.4581    1.0000 </r>
       <r>   10.6136    0.0000 </r>
       <r>   15.1306    0.0000 </r>
       <r>   19.2233    0.0000 </r>
       <r>   19.2233    0.0000 </r>
      </set>
      <set comment="kpoint 5">
       <r>  -12.9153    1.0000 </r>
       <r>   -1.5075    1.0000 </r>
       <r>    2.3728    1.0000 </r>
       <r>    2.3728    1.0000 </r>
       <r>   10.7333    0.0000 </r>
       <r>   15.3147    0.0000 </r>
       <r>   19.0457    0.0000 </r>
       <r>   19.0457    0.0000 </r>
      </set>
      <set comment="kpoint 6">
       <r>  -13.9306    1.0000 </r>
       <r>    1.9735    1.0000 </r>
       <r>    2.7729    1.0000 </r>
       <r>    2.7729    1.0000 </r>
       <r>    8.6915    0.0000 </r>
       <r>   16.5049    0.0000 </r>
       <r>   19.1306    0.0000 </r>
       <r>   19.1306    0.0000 </r>
      </set>
      <set comment="kpoint 7">
       <r>  -13.6143    1.0000 </r>
       <r>    0.7711    1.0000 </r>
       <r>    2.5295    1.0000 </r>
       <r>    2.5332    1.0000 </r>
       <r>    9.9851    0.0000 </r>
       <r>   15.1627    0.0000 </r>
       <r>   19.1168    0.0000 </r>
       <r>   19.5995    0.0000 </r>
      </set>
      <set comment="kpoint 8">
       <r>  -13.1791    1.0000 </r>
       <r>   -0.5170    1.0000 </r>
       <r>    2.1750    1.0000 </r>
       <r>    2.3270    1.0000 </r>
       <r>   11.0794    0.0000 </r>
       <r>   14.7426    0.0000 </r>
       <r>   18.1219    0.0000 </r>
       <r>   19.6339    0.0000 </r>
      </set>
      <set comment="kpoint 9">
       <r>  -12.8837    1.0000 </r>
       <r>   -1.2470    1.0000 </r>
       <r>    1.8888    1.0000 </r>
       <r>    2.2631    1.0000 </r>
       <r>   11.4044    0.0000 </r>
       <r>   15.1238    0.0000 </r>
       <r>   17.6110    0.0000 </r>
       <r>   19.4261    0.0000 </r>
      </set>
      <set comment="kpoint 10">
       <r>  -12.9493    1.0000 </r>
       <r>   -1.0815    1.0000 </r>
       <r>    1.8251    1.0000 </r>
       <r>    2.3726    1.0000 </r>
       <r>   11.3855    0.0000 </r>
       <r>   15.0655    0.0000 </r>
       <r>   17.7046    0.0000 </r>
       <r>   19.4960    0.0000 </r>
      </set>
      <set comment="kpoint 11">
       <r>  -13.3232    1.0000 </r>
       <r>   -0.1161    1.0000 </r>
       <r>    2.0394    1.0000 </r>
       <r>    2.6021    1.0000 </r>
       <r>   10.8135    0.0000 </r>
       <r>   14.9190    0.0000 </r>
       <r>   18.3212    0.0000 </r>
       <r>   19.9900    0.0000 </r>
      </set>
      <set comment="kpoint 12">
       <r>  -13.7430    1.0000 </r>
       <r>    1.1538    1.0000 </r>
       <r>    2.4897    1.0000 </r>
       <r>    2.8252    1.0000 </r>
       <r>    9.4730    0.0000 </r>
       <r>   15.7733    0.0000 </r>
       <r>   18.9498    0.0000 </r>
       <r>   19.6815    0.0000 </r>
      </set>
      <set comment="kpoint 13">
       <r>  -13.4202    1.0000 </r>
       <r>    0.4155    1.0000 </r>
       <r>    2.2821    1.0000 </r>
       <r>    2.2821    1.0000 </r>
       <r>   10.8080    0.0000 </r>
       <r>   14.0963    0.0000 </r>
       <r>   18.1994    0.0000 </r>
       <r>   20.1894    0.0000 </r>
      </set>
      <set comment="kpoint 14">
       <r>  -13.0858    1.0000 </r>
       <r>   -0.3016    1.0000 </r>
       <r>    1.8392    1.0000 </r>
       <r>    2.0718    1.0000 </r>
       <r>   11.9148    0.0000 </r>
       <r>   13.5683    0.0000 </r>
       <r>   16.8649    0.0000 </r>
       <r>   20.4933    0.0000 </r>
      </set>
      <set comment="kpoint 15">
       <r>  -12.8004    1.0000 </r>
       <r>   -0.7250    1.0000 </r>
       <r>    1.1377    1.0000 </r>
       <r>    2.0118    1.0000 </r>
       <r>   12.5168    0.0000 </r>
       <r>   14.3505    0.0000 </r>
       <r>   16.0304    0.0000 </r>
       <r>   20.3257    0.0000 </r>
      </set>
      <set comment="kpoint 16">
       <r>  -12.7554    1.0000 </r>
       <r>   -0.6608    1.0000 </r>
       <r>    0.6861    1.0000 </r>
       <r>    2.1312    1.0000 </r>
       <r>   12.7568    0.0000 </r>
       <r>   14.9282    0.0000 </r>
       <r>   15.8278    0.0000 </r>
       <r>   20.1413    0.0000 </r>
      </set>
      <set comment="kpoint 17">
       <r>  -12.9825    1.0000 </r>
       <r>   -0.4211    1.0000 </r>
       <r>    1.0582    1.0000 </r>
       <r>    2.3723    1.0000 </r>
       <r>   12.2422    0.0000 </r>
       <r>   14.6272    0.0000 </r>
       <r>   16.7207    0.0000 </r>
       <r>   20.2032    0.0000 </r>
      </set>
      <set comment="kpoint 18">
       <r>  -12.8905    1.0000 </r>
       <r>   -0.6350    1.0000 </r>
       <r>    1.8501    1.0000 </r>
       <r>    1.8501    1.0000 </r>
       <r>   12.4067    0.0000 </r>
       <r>   12.5923    0.0000 </r>
       <r>   16.1254    0.0000 </r>
       <r>   21.1754    0.0000 </r>
      </set>
      <set comment="kpoint 19">
       <r>  -12.7076    1.0000 </r>
       <r>   -0.7827    1.0000 </r>
       <r>    1.3214    1.0000 </r>
       <r>    1.7777    1.0000 </r>
       <r>   12.5145    0.0000 </r>
       <r>   13.1844    0.0000 </r>
       <r>   15.7109    0.0000 </r>
       <r>   21.2011    0.0000 </r>
      </set>
      <set comment="kpoint 20">
       <r>  -12.6521    1.0000 </r>
       <r>   -0.4035    1.0000 </r>
       <r>    0.3589    1.0000 </r>
       <r>    1.8889    1.0000 </r>
       <r>   12.9598    0.0000 </r>
       <r>   14.4795    0.0000 </r>
       <r>   15.2963    0.0000 </r>
       <r>   20.7678    0.0000 </r>
      </set>
      <set comment="kpoint 21">
       <r>  -12.6666    1.0000 </r>
       <r>   -0.9817    1.0000 </r>
       <r>    1.6850    1.0000 </r>
       <r>    1.6850    1.0000 </r>
       <r>   12.0862    0.0000 </r>
       <r>   12.6907    0.0000 </r>
       <r>   15.8269    0.0000 </r>
       <r>   21.5828    0.0000 </r>
      </set>
      <set comment="kpoint 22">
       <r>  -13.2865    1.0000 </r>
       <r>    0.0420    1.0000 </r>
       <r>    1.8809    1.0000 </r>
       <r>    2.4059    1.0000 </r>
       <r>   11.2360    0.0000 </r>
       <r>   14.3780    0.0000 </r>
       <r>   17.7916    0.0000 </r>
       <r>   20.2447    0.0000 </r>
      </set>
      <set comment="kpoint 23">
       <r>  -12.9293    1.0000 </r>
       <r>   -0.6225    1.0000 </r>
       <r>    1.3220    1.0000 </r>
       <r>    2.1614    1.0000 </r>
       <r>   12.2754    0.0000 </r>
       <r>   14.4725    0.0000 </r>
       <r>   16.6366    0.0000 </r>
       <r>   19.8304    0.0000 </r>
      </set>
      <set comment="kpoint 24">
       <r>  -12.7711    1.0000 </r>
       <r>   -0.9032    1.0000 </r>
       <r>    1.1201    1.0000 </r>
       <r>    2.0452    1.0000 </r>
       <r>   12.4892    0.0000 </r>
       <r>   14.9483    0.0000 </r>
       <r>   16.2195    0.0000 </r>
       <r>   19.5838    0.0000 </r>
      </set>
      <set comment="kpoint 25">
       <r>  -12.8293    1.0000 </r>
       <r>   -0.5655    1.0000 </r>
       <r>    1.3524    1.0000 </r>
       <r>    1.7898    1.0000 </r>
       <r>   13.0016    0.0000 </r>
       <r>   13.3066    0.0000 </r>
       <r>   15.9116    0.0000 </r>
       <r>   20.1318    0.0000 </r>
      </set>
      <set comment="kpoint 26">
       <r>  -12.6711    1.0000 </r>
       <r>   -0.4187    1.0000 </r>
       <r>    0.5802    1.0000 </r>
       <r>    1.6609    1.0000 </r>
       <r>   13.4357    0.0000 </r>
       <r>   14.4675    0.0000 </r>
       <r>   15.2594    0.0000 </r>
       <r>   19.2653    0.0000 </r>
      </set>
      <set comment="kpoint 27">
       <r>  -12.7150    1.0000 </r>
       <r>   -0.3017    1.0000 </r>
       <r>    0.3761    1.0000 </r>
       <r>    1.8512    1.0000 </r>
       <r>   13.5396    0.0000 </r>
       <r>   14.5505    0.0000 </r>
       <r>   15.4167    0.0000 </r>
       <r>   19.3251    0.0000 </r>
      </set>
      <set comment="kpoint 28">
       <r>  -12.6420    1.0000 </r>
       <r>   -0.6877    1.0000 </r>
       <r>    1.1518    1.0000 </r>
       <r>    1.4743    1.0000 </r>
       <r>   12.9233    0.0000 </r>
       <r>   13.5630    0.0000 </r>
       <r>   15.5076    0.0000 </r>
       <r>   19.9636    0.0000 </r>
      </set>
      <set comment="kpoint 29">
       <r>  -12.6177    1.0000 </r>
       <r>    0.1231    1.0000 </r>
       <r>    0.1231    1.0000 </r>
       <r>    1.2747    1.0000 </r>
       <r>   14.4722    0.0000 </r>
       <r>   14.4722    0.0000 </r>
       <r>   14.8549    0.0000 </r>
       <r>   18.1715    0.0000 </r>
      </set>
     </set>
    </set>
   </array>
  </eigenvalues>
  <separator name="orbital magnetization" >
   <v name="MAGDIPOLOUT">      0.00000000      0.00000000      0.00000000</v>
  </separator>
  <dos>
   <i name="efermi">      3.21569901 </i>
   <total>
    <array>
     <dimension dim="1">gridpoints</dimension>
     <dimension dim="2">spin</dimension>
     <field>energy</field>
     <field>total</field>
     <field>integrated</field>
     <set>
      <set comment="spin 1">
       <r>   -15.9224     0.0000     0.0000 </r>
       <r>   -15.7914     0.0000     0.0000 </r>
       <r>   -15.6604     0.0000     0.0000 </r>
       <r>   -15.5295     0.0000     0.0000 </r>
       <r>   -15.3985     0.0000     0.0000 </r>
       <r>   -15.2675     0.0000     0.0000 </r>
       <r>   -15.1366     0.0000     0.0000 </r>
       <r>   -15.0056     0.0000     0.0000 </r>
       <r>   -14.8746     0.0000     0.0000 </r>
       <r>   -14.7436     0.0000     0.0000 </r>
       <r>   -14.6127     0.0000     0.0000 </r>
       <r>   -14.4817     0.0000     0.0000 </r>
       <r>   -14.3507     0.0000     0.0000 </r>
       <r>   -14.2198     0.0003     0.0000 </r>
       <r>   -14.0888     0.0272     0.0036 </r>
       <r>   -13.9578     0.2182     0.0322 </r>
       <r>   -13.8269     0.2047     0.0590 </r>
       <r>   -13.6959     0.3300     0.1022 </r>
       <r>   -13.5649     0.8310     0.2110 </r>
       <r>   -13.4339     0.2114     0.2387 </r>
       <r>   -13.3030     0.8579     0.3511 </r>
       <r>   -13.1720     1.1283     0.4989 </r>
       <r>   -13.0410     1.1776     0.6531 </r>
       <r>   -12.9101     2.3275     0.9579 </r>
       <r>   -12.7791     2.9416     1.3432 </r>
       <r>   -12.6481     4.0534     1.8741 </r>
       <r>   -12.5171     0.9611     1.9999 </r>
       <r>   -12.3862     0.0005     2.0000 </r>
       <r>   -12.2552     0.0000     2.0000 </r>
       <r>   -12.1242     0.0000     2.0000 </r>
       <r>   -11.9933     0.0000     2.0000 </r>
       <r>   -11.8623     0.0000     2.0000 </r>
       <r>   -11.7313     0.0000     2.0000 </r>
       <r>   -11.6004     0.0000     2.0000 </r>
       <r>   -11.4694     0.0000     2.0000 </r>
       <r>   -11.3384     0.0000     2.0000 </r>
       <r>   -11.2074     0.0000     2.0000 </r>
       <r>   -11.0765     0.0000     2.0000 </r>
       <r>   -10.9455     0.0000     2.0000 </r>
       <r>   -10.8145     0.0000     2.0000 </r>
       <r>   -10.6836     0.0000     2.0000 </r>
       <r>   -10.5526     0.0000     2.0000 </r>
       <r>   -10.4216     0.0000     2.0000 </r>
       <r>   -10.2906     0.0000     2.0000 </r>
       <r>   -10.1597     0.0000     2.0000 </r>
       <r>   -10.0287     0.0000     2.0000 </r>
       <r>    -9.8977     0.0000     2.0000 </r>
       <r>    -9.7668     0.0000     2.0000 </r>
       <r>    -9.6358     0.0000     2.0000 </r>
       <r>    -9.5048     0.0000     2.0000 </r>
       <r>    -9.3739     0.0000     2.0000 </r>
       <r>    -9.2429     0.0000     2.0000 </r>
       <r>    -9.1119     0.0000     2.0000 </r>
       <r>    -8.9809     0.0000     2.0000 </r>
       <r>    -8.8500     0.0000     2.0000 </r>
       <r>    -8.7190     0.0000     2.0000 </r>
       <r>    -8.5880     0.0000     2.0000 </r>
       <r>    -8.4571     0.0000     2.0000 </r>
       <r>    -8.3261     0.0000     2.0000 </r>
       <r>    -8.1951     0.0000     2.0000 </r>
       <r>    -8.0641     0.0000     2.0000 </r>
       <r>    -7.9332     0.0000     2.0000 </r>
       <r>    -7.8022     0.0000     2.0000 </r>
       <r>    -7.6712     0.0000     2.0000 </r>
       <r>    -7.5403     0.0000     2.0000 </r>
       <r>    -7.4093     0.0000     2.0000 </r>
       <r>    -7.2783     0.0000     2.0000 </r>
       <r>    -7.1474     0.0000     2.0000 </r>
       <r>    -7.0164     0.0000     2.0000 </r>
       <r>    -6.8854     0.0000     2.0000 </r>
       <r>    -6.7544     0.0000     2.0000 </r>
       <r>    -6.6235     0.0000     2.0000 </r>
       <r>    -6.4925     0.0000     2.0000 </r>
       <r>    -6.3615     0.0000     2.0000 </r>
       <r>    -6.2306     0.0000     2.0000 </r>
       <r>    -6.0996     0.0000     2.0000 </r>
       <r>    -5.9686     0.0000     2.0000 </r>
       <r>    -5.8376     0.0000     2.0000 </r>
       <r>    -5.7067     0.0000     2.0000 </r>
       <r>    -5.5757     0.0000     2.0000 </r>
       <r>    -5.4447     0.0000     2.0000 </r>
       <r>    -5.3138     0.0000     2.0000 </r>
       <r>    -5.1828     0.0000     2.0000 </r>
       <r>    -5.0518     0.0000     2.0000 </r>
       <r>    -4.9209     0.0000     2.0000 </r>
       <r>    -4.7899     0.0000     2.0000 </r>
       <r>    -4.6589     0.0000     2.0000 </r>
       <r>    -4.5279     0.0000     2.0000 </r>
       <r>    -4.3970     0.0000     2.0000 </r>
       <r>    -4.2660     0.0000     2.0000 </r>
       <r>    -4.1350     0.0000     2.0000 </r>
       <r>    -4.0041     0.0000     2.0000 </r>
       <r>    -3.8731     0.0000     2.0000 </r>
       <r>    -3.7421     0.0000     2.0000 </r>
       <r>    -3.6111     0.0000     2.0000 </r>
       <r>    -3.4802     0.0000     2.0000 </r>
       <r>    -3.3492     0.0000     2.0000 </r>
       <r>    -3.2182     0.0000     2.0000 </r>
       <r>    -3.0873     0.0000     2.0000 </r>
       <r>    -2.9563     0.0000     2.0000 </r>
       <r>    -2.8253     0.0000     2.0000 </r>
       <r>    -2.6943     0.0000     2.0000 </r>
       <r>    -2.5634     0.0000     2.0000 </r>
       <r>    -2.4324     0.0000     2.0000 </r>
       <r>    -2.3014     0.0000     2.0000 </r>
       <r>    -2.1705     0.0000     2.0000 </r>
       <r>    -2.0395     0.0000     2.0000 </r>
       <r>    -1.9085     0.0000     2.0000 </r>
       <r>    -1.7776     0.0000     2.0000 </r>
       <r>    -1.6466     0.0000     2.0000 </r>
       <r>    -1.5156     0.0489     2.0064 </r>
       <r>    -1.3846     0.0704     2.0156 </r>
       <r>    -1.2537     0.3041     2.0555 </r>
       <r>    -1.1227     0.4989     2.1208 </r>
       <r>    -0.9917     0.7454     2.2184 </r>
       <r>    -0.8608     0.8543     2.3303 </r>
       <r>    -0.7298     1.1225     2.4773 </r>
       <r>    -0.5988     2.7792     2.8413 </r>
       <r>    -0.4678     1.8210     3.0798 </r>
       <r>    -0.3369     2.2447     3.3738 </r>
       <r>    -0.2059     1.2310     3.5350 </r>
       <r>    -0.0749     0.6294     3.6175 </r>
       <r>     0.0560     0.5662     3.6916 </r>
       <r>     0.1870     0.5822     3.7679 </r>
       <r>     0.3180     0.0994     3.7809 </r>
       <r>     0.4489     1.3484     3.9575 </r>
       <r>     0.5799     0.7679     4.0581 </r>
       <r>     0.7109     1.2940     4.2275 </r>
       <r>     0.8419     0.8412     4.3377 </r>
       <r>     0.9728     0.0191     4.3402 </r>
       <r>     1.1038     0.7309     4.4359 </r>
       <r>     1.2348     1.7999     4.6717 </r>
       <r>     1.3657     2.5312     5.0032 </r>
       <r>     1.4967     0.7464     5.1010 </r>
       <r>     1.6277     0.3520     5.1471 </r>
       <r>     1.7587     1.7271     5.3733 </r>
       <r>     1.8896     4.3102     5.9378 </r>
       <r>     2.0206     2.1165     6.2150 </r>
       <r>     2.1516     3.4495     6.6668 </r>
       <r>     2.2825     2.3887     6.9796 </r>
       <r>     2.4135     2.6407     7.3255 </r>
       <r>     2.5445     2.1780     7.6107 </r>
       <r>     2.6754     1.4565     7.8015 </r>
       <r>     2.8064     0.6384     7.8851 </r>
       <r>     2.9374     0.7243     7.9800 </r>
       <r>     3.0684     0.1510     7.9997 </r>
       <r>     3.1993     0.0021     8.0000 </r>
       <r>     3.3303     0.0000     8.0000 </r>
       <r>     3.4613     0.0000     8.0000 </r>
       <r>     3.5922     0.0000     8.0000 </r>
       <r>     3.7232     0.0000     8.0000 </r>
       <r>     3.8542     0.0000     8.0000 </r>
       <r>     3.9852     0.0000     8.0000 </r>
       <r>     4.1161     0.0000     8.0000 </r>
       <r>     4.2471     0.0000     8.0000 </r>
       <r>     4.3781     0.0000     8.0000 </r>
       <r>     4.5090     0.0000     8.0000 </r>
       <r>     4.6400     0.0000     8.0000 </r>
       <r>     4.7710     0.0000     8.0000 </r>
       <r>     4.9019     0.0000     8.0000 </r>
       <r>     5.0329     0.0000     8.0000 </r>
       <r>     5.1639     0.0000     8.0000 </r>
       <r>     5.2949     0.0000     8.0000 </r>
       <r>     5.4258     0.0000     8.0000 </r>
       <r>     5.5568     0.0000     8.0000 </r>
       <r>     5.6878     0.0000     8.0000 </r>
       <r>     5.8187     0.0000     8.0000 </r>
       <r>     5.9497     0.0000     8.0000 </r>
       <r>     6.0807     0.0000     8.0000 </r>
       <r>     6.2117     0.0000     8.0000 </r>
       <r>     6.3426     0.0000     8.0000 </r>
       <r>     6.4736     0.0000     8.0000 </r>
       <r>     6.6046     0.0000     8.0000 </r>
       <r>     6.7355     0.0000     8.0000 </r>
       <r>     6.8665     0.0000     8.0000 </r>
       <r>     6.9975     0.0000     8.0000 </r>
       <r>     7.1284     0.0000     8.0000 </r>
       <r>     7.2594     0.0000     8.0000 </r>
       <r>     7.3904     0.0002     8.0000 </r>
       <r>     7.5214     0.0262     8.0035 </r>
       <r>     7.6523     0.0034     8.0039 </r>
       <r>     7.7833     0.0000     8.0039 </r>
       <r>     7.9143     0.0000     8.0039 </r>
       <r>     8.0452     0.0000     8.0039 </r>
       <r>     8.1762     0.0000     8.0039 </r>
       <r>     8.3072     0.0014     8.0041 </r>
       <r>     8.4382     0.2087     8.0314 </r>
       <r>     8.5691     0.0285     8.0352 </r>
       <r>     8.7001     0.1065     8.0491 </r>
       <r>     8.8311     0.0724     8.0586 </r>
       <r>     8.9620     0.0000     8.0586 </r>
       <r>     9.0930     0.0000     8.0586 </r>
       <r>     9.2240     0.0000     8.0586 </r>
       <r>     9.3549     0.0002     8.0586 </r>
       <r>     9.4859     0.2300     8.0887 </r>
       <r>     9.6169     0.1277     8.1055 </r>
       <r>     9.7479     0.0003     8.1055 </r>
       <r>     9.8788     0.1824     8.1294 </r>
       <r>    10.0098     0.5984     8.2078 </r>
       <r>    10.1408     0.1733     8.2305 </r>
       <r>    10.2717     0.0000     8.2305 </r>
       <r>    10.4027     0.0000     8.2305 </r>
       <r>    10.5337     0.0028     8.2308 </r>
       <r>    10.6647     0.2211     8.2598 </r>
       <r>    10.7956     0.4141     8.3140 </r>
       <r>    10.9266     0.6140     8.3945 </r>
       <r>    11.0576     0.1926     8.4197 </r>
       <r>    11.1885     0.5871     8.4966 </r>
       <r>    11.3195     0.6740     8.5849 </r>
       <r>    11.4505     1.3177     8.7574 </r>
       <r>    11.5814     0.0924     8.7695 </r>
       <r>    11.7124     0.0000     8.7695 </r>
       <r>    11.8434     0.0156     8.7716 </r>
       <r>    11.9744     0.6674     8.8590 </r>
       <r>    12.1053     0.0960     8.8716 </r>
       <r>    12.2363     0.3743     8.9206 </r>
       <r>    12.3673     1.4587     9.1116 </r>
       <r>    12.4982     1.0377     9.2475 </r>
       <r>    12.6292     1.4267     9.4344 </r>
       <r>    12.7602     0.4965     9.4994 </r>
       <r>    12.8912     0.4073     9.5528 </r>
       <r>    13.0221     1.1409     9.7022 </r>
       <r>    13.1531     0.3502     9.7481 </r>
       <r>    13.2841     0.7671     9.8485 </r>
       <r>    13.4150     0.9291     9.9702 </r>
       <r>    13.5460     1.7431    10.1985 </r>
       <r>    13.6770     1.0781    10.3397 </r>
       <r>    13.8079     0.0010    10.3398 </r>
       <r>    13.9389     0.0000    10.3398 </r>
       <r>    14.0699     0.0408    10.3452 </r>
       <r>    14.2009     0.1379    10.3632 </r>
       <r>    14.3318     0.2831    10.4003 </r>
       <r>    14.4628     2.6022    10.7411 </r>
       <r>    14.5938     2.8229    11.1108 </r>
       <r>    14.7247     0.5948    11.1887 </r>
       <r>    14.8557     0.6319    11.2715 </r>
       <r>    14.9867     2.0468    11.5396 </r>
       <r>    15.1177     1.2774    11.7069 </r>
       <r>    15.2486     1.8273    11.9462 </r>
       <r>    15.3796     1.4808    12.1401 </r>
       <r>    15.5106     0.9966    12.2707 </r>
       <r>    15.6415     0.1881    12.2953 </r>
       <r>    15.7725     0.8924    12.4122 </r>
       <r>    15.9035     1.2486    12.5757 </r>
       <r>    16.0344     0.8276    12.6841 </r>
       <r>    16.1654     0.5251    12.7529 </r>
       <r>    16.2964     0.6832    12.8424 </r>
       <r>    16.4274     0.0132    12.8441 </r>
       <r>    16.5583     0.1839    12.8682 </r>
       <r>    16.6893     1.3936    13.0507 </r>
       <r>    16.8203     0.4616    13.1111 </r>
       <r>    16.9512     0.6845    13.2008 </r>
       <r>    17.0822     0.1962    13.2265 </r>
       <r>    17.2132     0.0005    13.2266 </r>
       <r>    17.3442     0.0000    13.2266 </r>
       <r>    17.4751     0.0000    13.2266 </r>
       <r>    17.6061     0.3206    13.2686 </r>
       <r>    17.7371     1.0266    13.4030 </r>
       <r>    17.8680     0.7892    13.5064 </r>
       <r>    17.9990     0.0111    13.5078 </r>
       <r>    18.1300     0.4481    13.5665 </r>
       <r>    18.2609     0.6487    13.6515 </r>
       <r>    18.3919     0.6763    13.7401 </r>
       <r>    18.5229     0.0163    13.7422 </r>
       <r>    18.6539     0.0461    13.7482 </r>
       <r>    18.7848     0.0434    13.7539 </r>
       <r>    18.9158     0.0659    13.7625 </r>
       <r>    19.0468     0.8749    13.8771 </r>
       <r>    19.1777     1.2002    14.0343 </r>
       <r>    19.3087     1.9848    14.2943 </r>
       <r>    19.4397     1.3972    14.4773 </r>
       <r>    19.5707     1.5750    14.6835 </r>
       <r>    19.7016     1.9648    14.9409 </r>
       <r>    19.8326     0.8749    15.0555 </r>
       <r>    19.9636     1.0212    15.1892 </r>
       <r>    20.0945     0.9035    15.3075 </r>
       <r>    20.2255     1.8784    15.5536 </r>
       <r>    20.3565     1.2128    15.7124 </r>
       <r>    20.4874     0.4486    15.7711 </r>
       <r>    20.6184     0.4051    15.8242 </r>
       <r>    20.7494     0.1079    15.8383 </r>
       <r>    20.8804     0.2499    15.8711 </r>
       <r>    21.0113     0.0003    15.8711 </r>
       <r>    21.1423     0.0658    15.8797 </r>
       <r>    21.2733     0.8138    15.9863 </r>
       <r>    21.4042     0.0152    15.9883 </r>
       <r>    21.5352     0.0080    15.9893 </r>
       <r>    21.6662     0.0807    15.9999 </r>
       <r>    21.7972     0.0008    16.0000 </r>
       <r>    21.9281     0.0000    16.0000 </r>
       <r>    22.0591     0.0000    16.0000 </r>
       <r>    22.1901     0.0000    16.0000 </r>
       <r>    22.3210     0.0000    16.0000 </r>
       <r>    22.4520     0.0000    16.0000 </r>
       <r>    22.5830     0.0000    16.0000 </r>
       <r>    22.7139     0.0000    16.0000 </r>
       <r>    22.8449     0.0000    16.0000 </r>
       <r>    22.9759     0.0000    16.0000 </r>
       <r>    23.1069     0.0000    16.0000 </r>
       <r>    23.2378     0.0000    16.0000 </r>
       <r>    23.3688     0.0000    16.0000 </r>
      </set>
     </set>
    </array>
   </total>
   <partial>
    <array>
     <dimension dim="1">gridpoints</dimension>
     <dimension dim="2">spin</dimension>
     <dimension dim="3">ion</dimension>
     <field>energy</field>
     <field>    s</field>
     <field>   py</field>
     <field>   pz</field>
     <field>   px</field>
     <field>  dxy</field>
     <field>  dyz</field>
     <field>  dz2</field>
     <field>  dxz</field>
     <field>x2-y2</field>
     <set>
      <set comment="ion 1">
       <set comment="spin 1">
        <r>   -15.9224     0.0000     0.0000     0.0000     0.0000     0.0000     0.0000     0.0000     0.0000     0.0000 </r>
        <r>   -15.7914     0.0000     0.0000     0.0000     0.0000     0.0000     0.0000     0.0000     0.0000     0.0000 </r>
        <r>   -15.6604     0.0000     0.0000     0.0000     0.0000     0.0000     0.0000     0.0000     0.0000     0.0000 </r>
        <r>   -15.5295     0.0000     0.0000     0.0000     0.0000     0.0000     0.0000     0.0000     0.0000     0.0000 </r>
        <r>   -15.3985     0.0000     0.0000     0.0000     0.0000     0.0000     0.0000     0.0000     0.0000     0.0000 </r>
        <r>   -15.2675     0.0000     0.0000     0.0000     0.0000     0.0000     0.0000     0.0000     0.0000     0.0000 </r>
        <r>   -15.1366     0.0000     0.0000     0.0000     0.0000     0.0000     0.0000     0.0000     0.0000     0.0000 </r>
        <r>   -15.0056     0.0000     0.0000     0.0000     0.0000     0.0000     0.0000     0.0000     0.0000     0.0000 </r>
        <r>   -14.8746     0.0000     0.0000     0.0000     0.0000     0.0000     0.0000     0.0000     0.0000     0.0000 </r>
        <r>   -14.7436     0.0000     0.0000     0.0000     0.0000     0.0000     0.0000     0.0000     0.0000     0.0000 </r>
        <r>   -14.6127     0.0000     0.0000     0.0000     0.0000     0.0000     0.0000     0.0000     0.0000     0.0000 </r>
        <r>   -14.4817     0.0000     0.0000     0.0000     0.0000     0.0000     0.0000     0.0000     0.0000     0.0000 </r>
        <r>   -14.3507     0.0000     0.0000     0.0000     0.0000     0.0000     0.0000     0.0000     0.0000     0.0000 </r>
        <r>   -14.2198     0.0000     0.0000     0.0000     0.0000     0.0000     0.0000     0.0000     0.0000     0.0000 </r>
        <r>   -14.0888     0.0011     0.0000     0.0000     0.0000     0.0000     0.0000     0.0000     0.0000     0.0000 </r>
        <r>   -13.9578     0.0079     0.0001     0.0002     0.0001     0.0000     0.0000     0.0000     0.0000     0.0000 </r>
        <r>   -13.8269     0.0073     0.0001     0.0004     0.0001     0.0000     0.0000     0.0000     0.0000     0.0000 </r>
        <r>   -13.6959     0.0096     0.0009     0.0000     0.0009     0.0000     0.0000     0.0000     0.0000     0.0000 </r>
        <r>   -13.5649     0.0211     0.0010     0.0037     0.0010     0.0000     0.0000     0.0003     0.0000     0.0000 </r>
        <r>   -13.4339     0.0049     0.0003     0.0010     0.0003     0.0000     0.0000     0.0001     0.0000     0.0000 </r>
        <r>   -13.3030     0.0142     0.0032     0.0026     0.0026     0.0000     0.0000     0.0007     0.0000     0.0000 </r>
        <r>   -13.1720     0.0159     0.0037     0.0060     0.0023     0.0000     0.0000     0.0011     0.0000     0.0001 </r>
        <r>   -13.0410     0.0127     0.0026     0.0068     0.0026     0.0000     0.0000     0.0023     0.0000     0.0000 </r>
        <r>   -12.9101     0.0105     0.0122     0.0096     0.0080     0.0000     0.0000     0.0040     0.0000     0.0004 </r>
        <r>   -12.7791     0.0092     0.0122     0.0119     0.0077     0.0000     0.0000     0.0089     0.0000     0.0005 </r>
        <r>   -12.6481     0.0059     0.0172     0.0047     0.0091     0.0000     0.0000     0.0194     0.0000     0.0014 </r>
        <r>   -12.5171     0.0012     0.0039     0.0004     0.0009     0.0000     0.0000     0.0056     0.0000     0.0004 </r>
        <r>   -12.3862     0.0000     0.0000     0.0000     0.0000     0.0000     0.0000     0.0000     0.0000     0.0000 </r>
        <r>   -12.2552     0.0000     0.0000     0.0000     0.0000     0.0000     0.0000     0.0000     0.0000     0.0000 </r>
        <r>   -12.1242     0.0000     0.0000     0.0000     0.0000     0.0000     0.0000     0.0000     0.0000     0.0000 </r>
        <r>   -11.9933     0.0000     0.0000     0.0000     0.0000     0.0000     0.0000     0.0000     0.0000     0.0000 </r>
        <r>   -11.8623     0.0000     0.0000     0.0000     0.0000     0.0000     0.0000     0.0000     0.0000     0.0000 </r>
        <r>   -11.7313     0.0000     0.0000     0.0000     0.0000     0.0000     0.0000     0.0000     0.0000     0.0000 </r>
        <r>   -11.6004     0.0000     0.0000     0.0000     0.0000     0.0000     0.0000     0.0000     0.0000     0.0000 </r>
        <r>   -11.4694     0.0000     0.0000     0.0000     0.0000     0.0000     0.0000     0.0000     0.0000     0.0000 </r>
        <r>   -11.3384     0.0000     0.0000     0.0000     0.0000     0.0000     0.0000     0.0000     0.0000     0.0000 </r>
        <r>   -11.2074     0.0000     0.0000     0.0000     0.0000     0.0000     0.0000     0.0000     0.0000     0.0000 </r>
        <r>   -11.0765     0.0000     0.0000     0.0000     0.0000     0.0000     0.0000     0.0000     0.0000     0.0000 </r>
        <r>   -10.9455     0.0000     0.0000     0.0000     0.0000     0.0000     0.0000     0.0000     0.0000     0.0000 </r>
        <r>   -10.8145     0.0000     0.0000     0.0000     0.0000     0.0000     0.0000     0.0000     0.0000     0.0000 </r>
        <r>   -10.6836     0.0000     0.0000     0.0000     0.0000     0.0000     0.0000     0.0000     0.0000     0.0000 </r>
        <r>   -10.5526     0.0000     0.0000     0.0000     0.0000     0.0000     0.0000     0.0000     0.0000     0.0000 </r>
        <r>   -10.4216     0.0000     0.0000     0.0000     0.0000     0.0000     0.0000     0.0000     0.0000     0.0000 </r>
        <r>   -10.2906     0.0000     0.0000     0.0000     0.0000     0.0000     0.0000     0.0000     0.0000     0.0000 </r>
        <r>   -10.1597     0.0000     0.0000     0.0000     0.0000     0.0000     0.0000     0.0000     0.0000     0.0000 </r>
        <r>   -10.0287     0.0000     0.0000     0.0000     0.0000     0.0000     0.0000     0.0000     0.0000     0.0000 </r>
        <r>    -9.8977     0.0000     0.0000     0.0000     0.0000     0.0000     0.0000     0.0000     0.0000     0.0000 </r>
        <r>    -9.7668     0.0000     0.0000     0.0000     0.0000     0.0000     0.0000     0.0000     0.0000     0.0000 </r>
        <r>    -9.6358     0.0000     0.0000     0.0000     0.0000     0.0000     0.0000     0.0000     0.0000     0.0000 </r>
        <r>    -9.5048     0.0000     0.0000     0.0000     0.0000     0.0000     0.0000     0.0000     0.0000     0.0000 </r>
        <r>    -9.3739     0.0000     0.0000     0.0000     0.0000     0.0000     0.0000     0.0000     0.0000     0.0000 </r>
        <r>    -9.2429     0.0000     0.0000     0.0000     0.0000     0.0000     0.0000     0.0000     0.0000     0.0000 </r>
        <r>    -9.1119     0.0000     0.0000     0.0000     0.0000     0.0000     0.0000     0.0000     0.0000     0.0000 </r>
        <r>    -8.9809     0.0000     0.0000     0.0000     0.0000     0.0000     0.0000     0.0000     0.0000     0.0000 </r>
        <r>    -8.8500     0.0000     0.0000     0.0000     0.0000     0.0000     0.0000     0.0000     0.0000     0.0000 </r>
        <r>    -8.7190     0.0000     0.0000     0.0000     0.0000     0.0000     0.0000     0.0000     0.0000     0.0000 </r>
        <r>    -8.5880     0.0000     0.0000     0.0000     0.0000     0.0000     0.0000     0.0000     0.0000     0.0000 </r>
        <r>    -8.4571     0.0000     0.0000     0.0000     0.0000     0.0000     0.0000     0.0000     0.0000     0.0000 </r>
        <r>    -8.3261     0.0000     0.0000     0.0000     0.0000     0.0000     0.0000     0.0000     0.0000     0.0000 </r>
        <r>    -8.1951     0.0000     0.0000     0.0000     0.0000     0.0000     0.0000     0.0000     0.0000     0.0000 </r>
        <r>    -8.0641     0.0000     0.0000     0.0000     0.0000     0.0000     0.0000     0.0000     0.0000     0.0000 </r>
        <r>    -7.9332     0.0000     0.0000     0.0000     0.0000     0.0000     0.0000     0.0000     0.0000     0.0000 </r>
        <r>    -7.8022     0.0000     0.0000     0.0000     0.0000     0.0000     0.0000     0.0000     0.0000     0.0000 </r>
        <r>    -7.6712     0.0000     0.0000     0.0000     0.0000     0.0000     0.0000     0.0000     0.0000     0.0000 </r>
        <r>    -7.5403     0.0000     0.0000     0.0000     0.0000     0.0000     0.0000     0.0000     0.0000     0.0000 </r>
        <r>    -7.4093     0.0000     0.0000     0.0000     0.0000     0.0000     0.0000     0.0000     0.0000     0.0000 </r>
        <r>    -7.2783     0.0000     0.0000     0.0000     0.0000     0.0000     0.0000     0.0000     0.0000     0.0000 </r>
        <r>    -7.1474     0.0000     0.0000     0.0000     0.0000     0.0000     0.0000     0.0000     0.0000     0.0000 </r>
        <r>    -7.0164     0.0000     0.0000     0.0000     0.0000     0.0000     0.0000     0.0000     0.0000     0.0000 </r>
        <r>    -6.8854     0.0000     0.0000     0.0000     0.0000     0.0000     0.0000     0.0000     0.0000     0.0000 </r>
        <r>    -6.7544     0.0000     0.0000     0.0000     0.0000     0.0000     0.0000     0.0000     0.0000     0.0000 </r>
        <r>    -6.6235     0.0000     0.0000     0.0000     0.0000     0.0000     0.0000     0.0000     0.0000     0.0000 </r>
        <r>    -6.4925     0.0000     0.0000     0.0000     0.0000     0.0000     0.0000     0.0000     0.0000     0.0000 </r>
        <r>    -6.3615     0.0000     0.0000     0.0000     0.0000     0.0000     0.0000     0.0000     0.0000     0.0000 </r>
        <r>    -6.2306     0.0000     0.0000     0.0000     0.0000     0.0000     0.0000     0.0000     0.0000     0.0000 </r>
        <r>    -6.0996     0.0000     0.0000     0.0000     0.0000     0.0000     0.0000     0.0000     0.0000     0.0000 </r>
        <r>    -5.9686     0.0000     0.0000     0.0000     0.0000     0.0000     0.0000     0.0000     0.0000     0.0000 </r>
        <r>    -5.8376     0.0000     0.0000     0.0000     0.0000     0.0000     0.0000     0.0000     0.0000     0.0000 </r>
        <r>    -5.7067     0.0000     0.0000     0.0000     0.0000     0.0000     0.0000     0.0000     0.0000     0.0000 </r>
        <r>    -5.5757     0.0000     0.0000     0.0000     0.0000     0.0000     0.0000     0.0000     0.0000     0.0000 </r>
        <r>    -5.4447     0.0000     0.0000     0.0000     0.0000     0.0000     0.0000     0.0000     0.0000     0.0000 </r>
        <r>    -5.3138     0.0000     0.0000     0.0000     0.0000     0.0000     0.0000     0.0000     0.0000     0.0000 </r>
        <r>    -5.1828     0.0000     0.0000     0.0000     0.0000     0.0000     0.0000     0.0000     0.0000     0.0000 </r>
        <r>    -5.0518     0.0000     0.0000     0.0000     0.0000     0.0000     0.0000     0.0000     0.0000     0.0000 </r>
        <r>    -4.9209     0.0000     0.0000     0.0000     0.0000     0.0000     0.0000     0.0000     0.0000     0.0000 </r>
        <r>    -4.7899     0.0000     0.0000     0.0000     0.0000     0.0000     0.0000     0.0000     0.0000     0.0000 </r>
        <r>    -4.6589     0.0000     0.0000     0.0000     0.0000     0.0000     0.0000     0.0000     0.0000     0.0000 </r>
        <r>    -4.5279     0.0000     0.0000     0.0000     0.0000     0.0000     0.0000     0.0000     0.0000     0.0000 </r>
        <r>    -4.3970     0.0000     0.0000     0.0000     0.0000     0.0000     0.0000     0.0000     0.0000     0.0000 </r>
        <r>    -4.2660     0.0000     0.0000     0.0000     0.0000     0.0000     0.0000     0.0000     0.0000     0.0000 </r>
        <r>    -4.1350     0.0000     0.0000     0.0000     0.0000     0.0000     0.0000     0.0000     0.0000     0.0000 </r>
        <r>    -4.0041     0.0000     0.0000     0.0000     0.0000     0.0000     0.0000     0.0000     0.0000     0.0000 </r>
        <r>    -3.8731     0.0000     0.0000     0.0000     0.0000     0.0000     0.0000     0.0000     0.0000     0.0000 </r>
        <r>    -3.7421     0.0000     0.0000     0.0000     0.0000     0.0000     0.0000     0.0000     0.0000     0.0000 </r>
        <r>    -3.6111     0.0000     0.0000     0.0000     0.0000     0.0000     0.0000     0.0000     0.0000     0.0000 </r>
        <r>    -3.4802     0.0000     0.0000     0.0000     0.0000     0.0000     0.0000     0.0000     0.0000     0.0000 </r>
        <r>    -3.3492     0.0000     0.0000     0.0000     0.0000     0.0000     0.0000     0.0000     0.0000     0.0000 </r>
        <r>    -3.2182     0.0000     0.0000     0.0000     0.0000     0.0000     0.0000     0.0000     0.0000     0.0000 </r>
        <r>    -3.0873     0.0000     0.0000     0.0000     0.0000     0.0000     0.0000     0.0000     0.0000     0.0000 </r>
        <r>    -2.9563     0.0000     0.0000     0.0000     0.0000     0.0000     0.0000     0.0000     0.0000     0.0000 </r>
        <r>    -2.8253     0.0000     0.0000     0.0000     0.0000     0.0000     0.0000     0.0000     0.0000     0.0000 </r>
        <r>    -2.6943     0.0000     0.0000     0.0000     0.0000     0.0000     0.0000     0.0000     0.0000     0.0000 </r>
        <r>    -2.5634     0.0000     0.0000     0.0000     0.0000     0.0000     0.0000     0.0000     0.0000     0.0000 </r>
        <r>    -2.4324     0.0000     0.0000     0.0000     0.0000     0.0000     0.0000     0.0000     0.0000     0.0000 </r>
        <r>    -2.3014     0.0000     0.0000     0.0000     0.0000     0.0000     0.0000     0.0000     0.0000     0.0000 </r>
        <r>    -2.1705     0.0000     0.0000     0.0000     0.0000     0.0000     0.0000     0.0000     0.0000     0.0000 </r>
        <r>    -2.0395     0.0000     0.0000     0.0000     0.0000     0.0000     0.0000     0.0000     0.0000     0.0000 </r>
        <r>    -1.9085     0.0000     0.0000     0.0000     0.0000     0.0000     0.0000     0.0000     0.0000     0.0000 </r>
        <r>    -1.7776     0.0000     0.0000     0.0000     0.0000     0.0000     0.0000     0.0000     0.0000     0.0000 </r>
        <r>    -1.6466     0.0000     0.0000     0.0000     0.0000     0.0000     0.0000     0.0000     0.0000     0.0000 </r>
        <r>    -1.5156     0.0050     0.0000     0.0000     0.0000     0.0002     0.0002     0.0000     0.0002     0.0000 </r>
        <r>    -1.3846     0.0072     0.0000     0.0000     0.0000     0.0002     0.0002     0.0000     0.0002     0.0000 </r>
        <r>    -1.2537     0.0278     0.0005     0.0013     0.0005     0.0009     0.0010     0.0000     0.0010     0.0000 </r>
        <r>    -1.1227     0.0456     0.0007     0.0022     0.0007     0.0016     0.0015     0.0001     0.0015     0.0000 </r>
        <r>    -0.9917     0.0648     0.0003     0.0059     0.0003     0.0027     0.0018     0.0004     0.0018     0.0000 </r>
        <r>    -0.8608     0.0611     0.0001     0.0116     0.0064     0.0024     0.0024     0.0000     0.0017     0.0001 </r>
        <r>    -0.7298     0.0299     0.0010     0.0597     0.0019     0.0008     0.0014     0.0014     0.0012     0.0000 </r>
        <r>    -0.5988     0.1514     0.0041     0.0736     0.0074     0.0043     0.0071     0.0052     0.0031     0.0012 </r>
        <r>    -0.4678     0.1055     0.0024     0.0406     0.0033     0.0018     0.0049     0.0049     0.0022     0.0006 </r>
        <r>    -0.3369     0.0742     0.0013     0.0927     0.0079     0.0033     0.0051     0.0037     0.0016     0.0004 </r>
        <r>    -0.2059     0.0628     0.0007     0.0159     0.0161     0.0033     0.0006     0.0071     0.0006     0.0000 </r>
        <r>    -0.0749     0.0502     0.0000     0.0016     0.0001     0.0024     0.0007     0.0018     0.0007     0.0000 </r>
        <r>     0.0560     0.0388     0.0007     0.0032     0.0003     0.0004     0.0016     0.0032     0.0001     0.0005 </r>
        <r>     0.1870     0.0168     0.0004     0.0124     0.0110     0.0008     0.0016     0.0015     0.0000     0.0003 </r>
        <r>     0.3180     0.0026     0.0006     0.0026     0.0010     0.0003     0.0002     0.0001     0.0001     0.0000 </r>
        <r>     0.4489     0.0387     0.0044     0.0427     0.0044     0.0020     0.0035     0.0029     0.0015     0.0000 </r>
        <r>     0.5799     0.0112     0.0008     0.0091     0.0254     0.0031     0.0003     0.0026     0.0001     0.0000 </r>
        <r>     0.7109     0.0146     0.0020     0.0308     0.0270     0.0041     0.0011     0.0057     0.0010     0.0000 </r>
        <r>     0.8419     0.0432     0.0016     0.0075     0.0016     0.0005     0.0011     0.0049     0.0011     0.0000 </r>
        <r>     0.9728     0.0010     0.0000     0.0001     0.0000     0.0000     0.0000     0.0001     0.0000     0.0000 </r>
        <r>     1.1038     0.0028     0.0011     0.0228     0.0074     0.0011     0.0018     0.0032     0.0013     0.0006 </r>
        <r>     1.2348     0.0264     0.0059     0.0226     0.0327     0.0051     0.0011     0.0110     0.0002     0.0016 </r>
        <r>     1.3657     0.0176     0.0121     0.0064     0.0811     0.0076     0.0006     0.0070     0.0029     0.0034 </r>
        <r>     1.4967     0.0089     0.0071     0.0008     0.0191     0.0016     0.0001     0.0013     0.0006     0.0017 </r>
        <r>     1.6277     0.0075     0.0035     0.0006     0.0030     0.0000     0.0000     0.0007     0.0000     0.0032 </r>
        <r>     1.7587     0.0242     0.0162     0.0044     0.0216     0.0002     0.0002     0.0036     0.0003     0.0144 </r>
        <r>     1.8896     0.0175     0.0399     0.0249     0.0540     0.0042     0.0022     0.0242     0.0034     0.0179 </r>
        <r>     2.0206     0.0111     0.0114     0.0123     0.0243     0.0019     0.0012     0.0114     0.0024     0.0120 </r>
        <r>     2.1516     0.0134     0.0203     0.0221     0.0231     0.0009     0.0028     0.0153     0.0033     0.0303 </r>
        <r>     2.2825     0.0033     0.0117     0.0077     0.0110     0.0013     0.0013     0.0198     0.0015     0.0248 </r>
        <r>     2.4135     0.0003     0.0134     0.0012     0.0094     0.0002     0.0026     0.0081     0.0023     0.0430 </r>
        <r>     2.5445     0.0003     0.0119     0.0095     0.0091     0.0009     0.0024     0.0129     0.0021     0.0129 </r>
        <r>     2.6754     0.0000     0.0056     0.0013     0.0056     0.0004     0.0009     0.0040     0.0009     0.0186 </r>
        <r>     2.8064     0.0000     0.0039     0.0006     0.0039     0.0001     0.0004     0.0015     0.0004     0.0034 </r>
        <r>     2.9374     0.0000     0.0032     0.0019     0.0032     0.0001     0.0001     0.0009     0.0001     0.0045 </r>
        <r>     3.0684     0.0000     0.0008     0.0008     0.0008     0.0000     0.0000     0.0001     0.0000     0.0001 </r>
        <r>     3.1993     0.0000     0.0000     0.0000     0.0000     0.0000     0.0000     0.0000     0.0000     0.0000 </r>
        <r>     3.3303     0.0000     0.0000     0.0000     0.0000     0.0000     0.0000     0.0000     0.0000     0.0000 </r>
        <r>     3.4613     0.0000     0.0000     0.0000     0.0000     0.0000     0.0000     0.0000     0.0000     0.0000 </r>
        <r>     3.5922     0.0000     0.0000     0.0000     0.0000     0.0000     0.0000     0.0000     0.0000     0.0000 </r>
        <r>     3.7232     0.0000     0.0000     0.0000     0.0000     0.0000     0.0000     0.0000     0.0000     0.0000 </r>
        <r>     3.8542     0.0000     0.0000     0.0000     0.0000     0.0000     0.0000     0.0000     0.0000     0.0000 </r>
        <r>     3.9852     0.0000     0.0000     0.0000     0.0000     0.0000     0.0000     0.0000     0.0000     0.0000 </r>
        <r>     4.1161     0.0000     0.0000     0.0000     0.0000     0.0000     0.0000     0.0000     0.0000     0.0000 </r>
        <r>     4.2471     0.0000     0.0000     0.0000     0.0000     0.0000     0.0000     0.0000     0.0000     0.0000 </r>
        <r>     4.3781     0.0000     0.0000     0.0000     0.0000     0.0000     0.0000     0.0000     0.0000     0.0000 </r>
        <r>     4.5090     0.0000     0.0000     0.0000     0.0000     0.0000     0.0000     0.0000     0.0000     0.0000 </r>
        <r>     4.6400     0.0000     0.0000     0.0000     0.0000     0.0000     0.0000     0.0000     0.0000     0.0000 </r>
        <r>     4.7710     0.0000     0.0000     0.0000     0.0000     0.0000     0.0000     0.0000     0.0000     0.0000 </r>
        <r>     4.9019     0.0000     0.0000     0.0000     0.0000     0.0000     0.0000     0.0000     0.0000     0.0000 </r>
        <r>     5.0329     0.0000     0.0000     0.0000     0.0000     0.0000     0.0000     0.0000     0.0000     0.0000 </r>
        <r>     5.1639     0.0000     0.0000     0.0000     0.0000     0.0000     0.0000     0.0000     0.0000     0.0000 </r>
        <r>     5.2949     0.0000     0.0000     0.0000     0.0000     0.0000     0.0000     0.0000     0.0000     0.0000 </r>
        <r>     5.4258     0.0000     0.0000     0.0000     0.0000     0.0000     0.0000     0.0000     0.0000     0.0000 </r>
        <r>     5.5568     0.0000     0.0000     0.0000     0.0000     0.0000     0.0000     0.0000     0.0000     0.0000 </r>
        <r>     5.6878     0.0000     0.0000     0.0000     0.0000     0.0000     0.0000     0.0000     0.0000     0.0000 </r>
        <r>     5.8187     0.0000     0.0000     0.0000     0.0000     0.0000     0.0000     0.0000     0.0000     0.0000 </r>
        <r>     5.9497     0.0000     0.0000     0.0000     0.0000     0.0000     0.0000     0.0000     0.0000     0.0000 </r>
        <r>     6.0807     0.0000     0.0000     0.0000     0.0000     0.0000     0.0000     0.0000     0.0000     0.0000 </r>
        <r>     6.2117     0.0000     0.0000     0.0000     0.0000     0.0000     0.0000     0.0000     0.0000     0.0000 </r>
        <r>     6.3426     0.0000     0.0000     0.0000     0.0000     0.0000     0.0000     0.0000     0.0000     0.0000 </r>
        <r>     6.4736     0.0000     0.0000     0.0000     0.0000     0.0000     0.0000     0.0000     0.0000     0.0000 </r>
        <r>     6.6046     0.0000     0.0000     0.0000     0.0000     0.0000     0.0000     0.0000     0.0000     0.0000 </r>
        <r>     6.7355     0.0000     0.0000     0.0000     0.0000     0.0000     0.0000     0.0000     0.0000     0.0000 </r>
        <r>     6.8665     0.0000     0.0000     0.0000     0.0000     0.0000     0.0000     0.0000     0.0000     0.0000 </r>
        <r>     6.9975     0.0000     0.0000     0.0000     0.0000     0.0000     0.0000     0.0000     0.0000     0.0000 </r>
        <r>     7.1284     0.0000     0.0000     0.0000     0.0000     0.0000     0.0000     0.0000     0.0000     0.0000 </r>
        <r>     7.2594     0.0000     0.0000     0.0000     0.0000     0.0000     0.0000     0.0000     0.0000     0.0000 </r>
        <r>     7.3904     0.0000     0.0000     0.0000     0.0000     0.0000     0.0000     0.0000     0.0000     0.0000 </r>
        <r>     7.5214     0.0062     0.0000     0.0000     0.0000     0.0000     0.0000     0.0000     0.0000     0.0000 </r>
        <r>     7.6523     0.0008     0.0000     0.0000     0.0000     0.0000     0.0000     0.0000     0.0000     0.0000 </r>
        <r>     7.7833     0.0000     0.0000     0.0000     0.0000     0.0000     0.0000     0.0000     0.0000     0.0000 </r>
        <r>     7.9143     0.0000     0.0000     0.0000     0.0000     0.0000     0.0000     0.0000     0.0000     0.0000 </r>
        <r>     8.0452     0.0000     0.0000     0.0000     0.0000     0.0000     0.0000     0.0000     0.0000     0.0000 </r>
        <r>     8.1762     0.0000     0.0000     0.0000     0.0000     0.0000     0.0000     0.0000     0.0000     0.0000 </r>
        <r>     8.3072     0.0003     0.0000     0.0000     0.0000     0.0000     0.0000     0.0000     0.0000     0.0000 </r>
        <r>     8.4382     0.0406     0.0012     0.0012     0.0012     0.0000     0.0000     0.0000     0.0000     0.0000 </r>
        <r>     8.5691     0.0056     0.0002     0.0002     0.0002     0.0000     0.0000     0.0000     0.0000     0.0000 </r>
        <r>     8.7001     0.0203     0.0000     0.0015     0.0000     0.0000     0.0000     0.0003     0.0000     0.0000 </r>
        <r>     8.8311     0.0138     0.0000     0.0011     0.0000     0.0000     0.0000     0.0002     0.0000     0.0000 </r>
        <r>     8.9620     0.0000     0.0000     0.0000     0.0000     0.0000     0.0000     0.0000     0.0000     0.0000 </r>
        <r>     9.0930     0.0000     0.0000     0.0000     0.0000     0.0000     0.0000     0.0000     0.0000     0.0000 </r>
        <r>     9.2240     0.0000     0.0000     0.0000     0.0000     0.0000     0.0000     0.0000     0.0000     0.0000 </r>
        <r>     9.3549     0.0000     0.0000     0.0000     0.0000     0.0000     0.0000     0.0000     0.0000     0.0000 </r>
        <r>     9.4859     0.0369     0.0042     0.0000     0.0042     0.0001     0.0000     0.0004     0.0000     0.0000 </r>
        <r>     9.6169     0.0205     0.0023     0.0000     0.0023     0.0001     0.0000     0.0002     0.0000     0.0000 </r>
        <r>     9.7479     0.0000     0.0000     0.0000     0.0000     0.0000     0.0000     0.0000     0.0000     0.0000 </r>
        <r>     9.8788     0.0233     0.0041     0.0042     0.0041     0.0002     0.0002     0.0000     0.0002     0.0000 </r>
        <r>    10.0098     0.0915     0.0052     0.0133     0.0052     0.0003     0.0002     0.0028     0.0002     0.0000 </r>
        <r>    10.1408     0.0269     0.0013     0.0038     0.0013     0.0001     0.0000     0.0009     0.0000     0.0000 </r>
        <r>    10.2717     0.0000     0.0000     0.0000     0.0000     0.0000     0.0000     0.0000     0.0000     0.0000 </r>
        <r>    10.4027     0.0000     0.0000     0.0000     0.0000     0.0000     0.0000     0.0000     0.0000     0.0000 </r>
        <r>    10.5337     0.0001     0.0001     0.0001     0.0001     0.0000     0.0000     0.0000     0.0000     0.0000 </r>
        <r>    10.6647     0.0086     0.0108     0.0108     0.0108     0.0003     0.0003     0.0000     0.0003     0.0000 </r>
        <r>    10.7956     0.0345     0.0158     0.0108     0.0158     0.0000     0.0002     0.0015     0.0002     0.0000 </r>
        <r>    10.9266     0.0702     0.0187     0.0071     0.0187     0.0001     0.0005     0.0030     0.0005     0.0000 </r>
        <r>    11.0576     0.0153     0.0062     0.0070     0.0062     0.0009     0.0000     0.0009     0.0000     0.0000 </r>
        <r>    11.1885     0.0502     0.0184     0.0207     0.0168     0.0025     0.0001     0.0029     0.0001     0.0000 </r>
        <r>    11.3195     0.0883     0.0179     0.0181     0.0016     0.0000     0.0000     0.0050     0.0000     0.0004 </r>
        <r>    11.4505     0.0168     0.0744     0.0546     0.0742     0.0035     0.0012     0.0044     0.0012     0.0000 </r>
        <r>    11.5814     0.0009     0.0052     0.0041     0.0052     0.0003     0.0000     0.0003     0.0000     0.0000 </r>
        <r>    11.7124     0.0000     0.0000     0.0000     0.0000     0.0000     0.0000     0.0000     0.0000     0.0000 </r>
        <r>    11.8434     0.0028     0.0002     0.0002     0.0002     0.0001     0.0000     0.0002     0.0000     0.0000 </r>
        <r>    11.9744     0.1184     0.0066     0.0086     0.0066     0.0033     0.0000     0.0078     0.0000     0.0000 </r>
        <r>    12.1053     0.0058     0.0003     0.0004     0.0003     0.0111     0.0000     0.0004     0.0000     0.0000 </r>
        <r>    12.2363     0.0204     0.0181     0.0071     0.0118     0.0064     0.0003     0.0019     0.0000     0.0002 </r>
        <r>    12.3673     0.0928     0.0729     0.0456     0.0322     0.0094     0.0019     0.0082     0.0003     0.0015 </r>
        <r>    12.4982     0.0740     0.0377     0.0207     0.0280     0.0411     0.0033     0.0048     0.0000     0.0006 </r>
        <r>    12.6292     0.0581     0.0424     0.0188     0.0361     0.1096     0.0022     0.0044     0.0001     0.0004 </r>
        <r>    12.7602     0.0379     0.0240     0.0053     0.0240     0.0126     0.0004     0.0019     0.0004     0.0000 </r>
        <r>    12.8912     0.0016     0.0209     0.0045     0.0219     0.0167     0.0003     0.0014     0.0003     0.0000 </r>
        <r>    13.0221     0.1308     0.0263     0.0046     0.0175     0.0690     0.0005     0.0045     0.0000     0.0004 </r>
        <r>    13.1531     0.0904     0.0061     0.0018     0.0009     0.0047     0.0002     0.0019     0.0000     0.0001 </r>
        <r>    13.2841     0.1911     0.0014     0.0001     0.0049     0.0406     0.0001     0.0017     0.0002     0.0000 </r>
        <r>    13.4150     0.0131     0.0122     0.0023     0.0265     0.0991     0.0006     0.0007     0.0005     0.0003 </r>
        <r>    13.5460     0.0883     0.0558     0.0061     0.0667     0.1068     0.0017     0.0036     0.0002     0.0013 </r>
        <r>    13.6770     0.1144     0.0228     0.0001     0.0196     0.0869     0.0004     0.0016     0.0004     0.0006 </r>
        <r>    13.8079     0.0001     0.0000     0.0000     0.0000     0.0001     0.0000     0.0000     0.0000     0.0000 </r>
[...]
       </set>
       <set comment="band 5">
        <r>  0.0556  0.0088  0.0001  0.0088  0.1306  0.0000  0.0011  0.0000  0.0000 </r>
        <r>  0.0132  0.0108  0.0093  0.0108  0.0000  0.0000  0.0000  0.0000  0.0000 </r>
       </set>
       <set comment="band 6">
        <r>  0.3296  0.0023  0.0001  0.0023  0.0254  0.0001  0.0029  0.0001  0.0000 </r>
        <r>  0.0404  0.0280  0.0464  0.0280  0.0000  0.0000  0.0000  0.0000  0.0000 </r>
       </set>
       <set comment="band 7">
        <r>  0.0378  0.0000  0.1322  0.0000  0.0002  0.0023  0.0006  0.0023  0.0000 </r>
        <r>  0.0009  0.0016  0.3506  0.0016  0.0000  0.0000  0.0000  0.0000  0.0000 </r>
       </set>
       <set comment="band 8">
        <r>  0.0130  0.0728  0.0003  0.1913  0.0249  0.0023  0.0157  0.0039  0.0001 </r>
        <r>  0.0238  0.0472  0.0087  0.1233  0.0000  0.0000  0.0000  0.0000  0.0000 </r>
       </set>
      </set>
      <set comment="kpoint 20">
       <set comment="band 1">
        <r>  0.0008  0.0030  0.0000  0.0030  0.0000  0.0000  0.0061  0.0000  0.0000 </r>
        <r>  0.7844  0.0000  0.0000  0.0000  0.0000  0.0000  0.0000  0.0000  0.0000 </r>
       </set>
       <set comment="band 2">
        <r>  0.0000  0.0000  0.0732  0.0000  0.0000  0.0017  0.0000  0.0017  0.0000 </r>
        <r>  0.0000  0.0000  0.4841  0.0000  0.0000  0.0000  0.0000  0.0000  0.0000 </r>
       </set>
       <set comment="band 3">
        <r>  0.0473  0.0129  0.0000  0.0129  0.0049  0.0000  0.0031  0.0000  0.0000 </r>
        <r>  0.0003  0.2649  0.0000  0.2649  0.0000  0.0000  0.0000  0.0000  0.0000 </r>
       </set>
       <set comment="band 4">
        <r>  0.0000  0.0143  0.0000  0.0143  0.0000  0.0000  0.0000  0.0000  0.0120 </r>
        <r>  0.0000  0.3311  0.0000  0.3311  0.0000  0.0000  0.0000  0.0000  0.0000 </r>
       </set>
       <set comment="band 5">
        <r>  0.0425  0.0387  0.0000  0.0387  0.0828  0.0000  0.0016  0.0000  0.0000 </r>
        <r>  0.0278  0.0313  0.0000  0.0313  0.0000  0.0000  0.0000  0.0000  0.0000 </r>
       </set>
       <set comment="band 6">
        <r>  0.3610  0.0033  0.0000  0.0033  0.0144  0.0000  0.0001  0.0000  0.0000 </r>
        <r>  0.0102  0.0945  0.0000  0.0945  0.0000  0.0000  0.0000  0.0000  0.0000 </r>
       </set>
       <set comment="band 7">
        <r>  0.0000  0.0000  0.1024  0.0000  0.0000  0.0110  0.0000  0.0110  0.0000 </r>
        <r>  0.0000  0.0000  0.3816  0.0000  0.0000  0.0000  0.0000  0.0000  0.0000 </r>
       </set>
       <set comment="band 8">
        <r>  0.0000  0.1767  0.0000  0.1770  0.0000  0.0000  0.0000  0.0000  0.0037 </r>
        <r>  0.0000  0.0773  0.0000  0.0774  0.0000  0.0000  0.0000  0.0000  0.0000 </r>
       </set>
      </set>
      <set comment="kpoint 21">
       <set comment="band 1">
        <r>  0.0049  0.0000  0.0000  0.0000  0.0000  0.0000  0.0083  0.0000  0.0000 </r>
        <r>  0.7834  0.0000  0.0000  0.0000  0.0000  0.0000  0.0000  0.0000  0.0000 </r>
       </set>
       <set comment="band 2">
        <r>  0.0000  0.0000  0.0822  0.0000  0.0000  0.0000  0.0000  0.0000  0.0000 </r>
        <r>  0.0000  0.0000  0.4558  0.0000  0.0000  0.0000  0.0000  0.0000  0.0000 </r>
       </set>
       <set comment="band 3">
        <r>  0.0000  0.0226  0.0000  0.0226  0.0000  0.0000  0.0000  0.0000  0.0000 </r>
        <r>  0.0000  0.3229  0.0000  0.3225  0.0000  0.0000  0.0000  0.0000  0.0000 </r>
       </set>
       <set comment="band 4">
        <r>  0.0000  0.0226  0.0000  0.0226  0.0000  0.0000  0.0000  0.0000  0.0000 </r>
        <r>  0.0000  0.3225  0.0000  0.3229  0.0000  0.0000  0.0000  0.0000  0.0000 </r>
       </set>
       <set comment="band 5">
        <r>  0.0000  0.0000  0.0000  0.0000  0.1740  0.0000  0.0000  0.0000  0.0000 </r>
        <r>  0.0000  0.0000  0.0000  0.0000  0.0000  0.0000  0.0000  0.0000  0.0000 </r>
       </set>
       <set comment="band 6">
        <r>  0.4529  0.0000  0.0000  0.0000  0.0000  0.0000  0.0032  0.0000  0.0000 </r>
        <r>  0.0517  0.0000  0.0000  0.0000  0.0000  0.0000  0.0000  0.0000  0.0000 </r>
       </set>
       <set comment="band 7">
        <r>  0.0000  0.0000  0.1233  0.0000  0.0000  0.0000  0.0000  0.0000  0.0000 </r>
        <r>  0.0000  0.0000  0.4448  0.0000  0.0000  0.0000  0.0000  0.0000  0.0000 </r>
       </set>
       <set comment="band 8">
        <r>  0.0000  0.2896  0.0000  0.0246  0.0000  0.0000  0.0000  0.0000  0.0000 </r>
        <r>  0.0000  0.2220  0.0000  0.0188  0.0000  0.0000  0.0000  0.0000  0.0000 </r>
       </set>
      </set>
      <set comment="kpoint 22">
       <set comment="band 1">
        <r>  0.0160  0.0028  0.0064  0.0000  0.0000  0.0000  0.0012  0.0000  0.0001 </r>
        <r>  0.7293  0.0002  0.0009  0.0000  0.0000  0.0000  0.0000  0.0000  0.0000 </r>
       </set>
       <set comment="band 2">
        <r>  0.0679  0.0015  0.0056  0.0000  0.0000  0.0031  0.0062  0.0000  0.0011 </r>
        <r>  0.0350  0.1178  0.3677  0.0000  0.0000  0.0000  0.0000  0.0000  0.0000 </r>
       </set>
       <set comment="band 3">
        <r>  0.0000  0.0000  0.0000  0.0366  0.0028  0.0000  0.0000  0.0036  0.0000 </r>
        <r>  0.0000  0.0000  0.0000  0.6452  0.0000  0.0000  0.0000  0.0000  0.0000 </r>
       </set>
       <set comment="band 4">
        <r>  0.0008  0.0094  0.0025  0.0000  0.0000  0.0009  0.0114  0.0000  0.0050 </r>
        <r>  0.0004  0.5337  0.1659  0.0000  0.0000  0.0000  0.0000  0.0000  0.0000 </r>
       </set>
       <set comment="band 5">
        <r>  0.1361  0.0253  0.0263  0.0000  0.0000  0.0000  0.0076  0.0000  0.0006 </r>
        <r>  0.1236  0.0390  0.2033  0.0000  0.0000  0.0000  0.0000  0.0000  0.0000 </r>
       </set>
       <set comment="band 6">
        <r>  0.0000  0.0000  0.0000  0.0303  0.1239  0.0000  0.0000  0.0096  0.0000 </r>
        <r>  0.0000  0.0000  0.0000  0.0954  0.0000  0.0000  0.0000  0.0000  0.0000 </r>
       </set>
       <set comment="band 7">
        <r>  0.1572  0.0187  0.1982  0.0000  0.0000  0.0047  0.0084  0.0000  0.0032 </r>
        <r>  0.0009  0.0550  0.0007  0.0000  0.0000  0.0000  0.0000  0.0000  0.0000 </r>
       </set>
       <set comment="band 8">
        <r>  0.0001  0.2229  0.0617  0.0000  0.0000  0.0467  0.0167  0.0000  0.0082 </r>
        <r>  0.0030  0.0355  0.0574  0.0000  0.0000  0.0000  0.0000  0.0000  0.0000 </r>
       </set>
      </set>
      <set comment="kpoint 23">
       <set comment="band 1">
        <r>  0.0050  0.0050  0.0057  0.0009  0.0000  0.0000  0.0020  0.0000  0.0004 </r>
        <r>  0.7590  0.0001  0.0005  0.0000  0.0000  0.0000  0.0000  0.0000  0.0000 </r>
       </set>
       <set comment="band 2">
        <r>  0.0715  0.0004  0.0113  0.0036  0.0010  0.0040  0.0021  0.0010  0.0011 </r>
        <r>  0.0137  0.1313  0.2788  0.0531  0.0000  0.0000  0.0000  0.0000  0.0000 </r>
       </set>
       <set comment="band 3">
        <r>  0.0000  0.0001  0.0042  0.0370  0.0036  0.0004  0.0043  0.0017  0.0014 </r>
        <r>  0.0023  0.0000  0.0906  0.5062  0.0000  0.0000  0.0000  0.0000  0.0000 </r>
       </set>
       <set comment="band 4">
        <r>  0.0037  0.0026  0.0066  0.0018  0.0000  0.0002  0.0112  0.0004  0.0092 </r>
        <r>  0.0002  0.4896  0.1633  0.0281  0.0000  0.0000  0.0000  0.0000  0.0000 </r>
       </set>
       <set comment="band 5">
        <r>  0.0599  0.0502  0.0370  0.0171  0.0072  0.0015  0.0055  0.0003  0.0012 </r>
        <r>  0.0864  0.0258  0.1585  0.0106  0.0000  0.0000  0.0000  0.0000  0.0000 </r>
       </set>
       <set comment="band 6">
        <r>  0.0447  0.0000  0.0011  0.0308  0.0700  0.0022  0.0002  0.0072  0.0001 </r>
        <r>  0.0025  0.0489  0.0483  0.1687  0.0000  0.0000  0.0000  0.0000  0.0000 </r>
       </set>
       <set comment="band 7">
        <r>  0.2334  0.0078  0.1332  0.0116  0.0064  0.0012  0.0004  0.0006  0.0036 </r>
        <r>  0.0009  0.0634  0.0014  0.0001  0.0000  0.0000  0.0000  0.0000  0.0000 </r>
       </set>
       <set comment="band 8">
        <r>  0.0010  0.2602  0.0520  0.0176  0.0000  0.0140  0.0047  0.0017  0.0034 </r>
        <r>  0.0085  0.0138  0.0651  0.0130  0.0000  0.0000  0.0000  0.0000  0.0000 </r>
       </set>
      </set>
      <set comment="kpoint 24">
       <set comment="band 1">
        <r>  0.0000  0.0060  0.0032  0.0032  0.0000  0.0000  0.0022  0.0000  0.0007 </r>
        <r>  0.7734  0.0000  0.0001  0.0001  0.0000  0.0000  0.0000  0.0000  0.0000 </r>
       </set>
       <set comment="band 2">
        <r>  0.0730  0.0000  0.0100  0.0100  0.0030  0.0030  0.0000  0.0019  0.0001 </r>
        <r>  0.0000  0.1332  0.1612  0.1612  0.0000  0.0000  0.0000  0.0000  0.0000 </r>
       </set>
       <set comment="band 3">
        <r>  0.0000  0.0001  0.0201  0.0201  0.0020  0.0020  0.0082  0.0000  0.0027 </r>
        <r>  0.0049  0.0000  0.2900  0.2900  0.0000  0.0000  0.0000  0.0000  0.0000 </r>
       </set>
       <set comment="band 4">
        <r>  0.0055  0.0000  0.0060  0.0060  0.0001  0.0001  0.0051  0.0009  0.0152 </r>
        <r>  0.0000  0.4760  0.0982  0.0982  0.0000  0.0000  0.0000  0.0000  0.0000 </r>
       </set>
       <set comment="band 5">
        <r>  0.0000  0.0617  0.0397  0.0397  0.0075  0.0075  0.0039  0.0000  0.0013 </r>
        <r>  0.0690  0.0000  0.0709  0.0709  0.0000  0.0000  0.0000  0.0000  0.0000 </r>
       </set>
       <set comment="band 6">
        <r>  0.1118  0.0000  0.0089  0.0089  0.0189  0.0189  0.0000  0.0056  0.0001 </r>
        <r>  0.0000  0.1139  0.1468  0.1468  0.0000  0.0000  0.0000  0.0000  0.0000 </r>
       </set>
       <set comment="band 7">
        <r>  0.2434  0.0000  0.0617  0.0617  0.0098  0.0098  0.0007  0.0021  0.0021 </r>
        <r>  0.0000  0.0533  0.0031  0.0031  0.0000  0.0000  0.0000  0.0000  0.0000 </r>
       </set>
       <set comment="band 8">
        <r>  0.0000  0.2711  0.0364  0.0364  0.0041  0.0041  0.0005  0.0000  0.0002 </r>
        <r>  0.0140  0.0000  0.0396  0.0396  0.0000  0.0000  0.0000  0.0000  0.0000 </r>
       </set>
      </set>
      <set comment="kpoint 25">
       <set comment="band 1">
        <r>  0.0055  0.0029  0.0037  0.0000  0.0000  0.0000  0.0048  0.0000  0.0001 </r>
        <r>  0.7679  0.0000  0.0005  0.0000  0.0000  0.0000  0.0000  0.0000  0.0000 </r>
       </set>
       <set comment="band 2">
        <r>  0.0329  0.0009  0.0443  0.0000  0.0000  0.0023  0.0043  0.0000  0.0004 </r>
        <r>  0.0128  0.0401  0.4283  0.0000  0.0000  0.0000  0.0000  0.0000  0.0000 </r>
       </set>
       <set comment="band 3">
        <r>  0.0000  0.0000  0.0000  0.0476  0.0034  0.0000  0.0000  0.0015  0.0000 </r>
        <r>  0.0000  0.0000  0.0000  0.6057  0.0000  0.0000  0.0000  0.0000  0.0000 </r>
       </set>
       <set comment="band 4">
        <r>  0.0131  0.0176  0.0060  0.0000  0.0000  0.0005  0.0048  0.0000  0.0053 </r>
        <r>  0.0000  0.5933  0.0548  0.0000  0.0000  0.0000  0.0000  0.0000  0.0000 </r>
       </set>
       <set comment="band 5">
        <r>  0.2266  0.0259  0.0090  0.0000  0.0000  0.0010  0.0077  0.0000  0.0007 </r>
        <r>  0.0704  0.0348  0.1905  0.0000  0.0000  0.0000  0.0000  0.0000  0.0000 </r>
       </set>
       <set comment="band 6">
        <r>  0.0000  0.0000  0.0000  0.0190  0.1383  0.0000  0.0000  0.0008  0.0000 </r>
        <r>  0.0000  0.0000  0.0000  0.0990  0.0000  0.0000  0.0000  0.0000  0.0000 </r>
       </set>
       <set comment="band 7">
        <r>  0.1598  0.0013  0.1524  0.0000  0.0000  0.0043  0.0001  0.0000  0.0009 </r>
        <r>  0.0009  0.0298  0.1296  0.0000  0.0000  0.0000  0.0000  0.0000  0.0000 </r>
       </set>
       <set comment="band 8">
        <r>  0.0107  0.2807  0.0076  0.0000  0.0000  0.0160  0.0099  0.0000  0.0038 </r>
        <r>  0.0211  0.1076  0.0489  0.0000  0.0000  0.0000  0.0000  0.0000  0.0000 </r>
       </set>
      </set>
      <set comment="kpoint 26">
       <set comment="band 1">
        <r>  0.0008  0.0050  0.0011  0.0009  0.0000  0.0000  0.0051  0.0000  0.0004 </r>
        <r>  0.7826  0.0000  0.0001  0.0000  0.0000  0.0000  0.0000  0.0000  0.0000 </r>
       </set>
       <set comment="band 2">
        <r>  0.0241  0.0004  0.0502  0.0033  0.0006  0.0033  0.0003  0.0006  0.0003 </r>
        <r>  0.0014  0.0519  0.3926  0.0375  0.0000  0.0000  0.0000  0.0000  0.0000 </r>
       </set>
       <set comment="band 3">
        <r>  0.0124  0.0011  0.0111  0.0357  0.0044  0.0003  0.0031  0.0001  0.0000 </r>
        <r>  0.0009  0.0705  0.0834  0.3905  0.0000  0.0000  0.0000  0.0000  0.0000 </r>
       </set>
       <set comment="band 4">
        <r>  0.0190  0.0049  0.0026  0.0114  0.0001  0.0000  0.0022  0.0002  0.0109 </r>
        <r>  0.0000  0.4868  0.0201  0.1307  0.0000  0.0000  0.0000  0.0000  0.0000 </r>
       </set>
       <set comment="band 5">
        <r>  0.0313  0.0304  0.0058  0.0411  0.0653  0.0015  0.0018  0.0000  0.0007 </r>
        <r>  0.0260  0.0000  0.0395  0.1120  0.0000  0.0000  0.0000  0.0000  0.0000 </r>
       </set>
       <set comment="band 6">
        <r>  0.1980  0.0073  0.0112  0.0017  0.0237  0.0073  0.0002  0.0009  0.0013 </r>
        <r>  0.0112  0.0906  0.1266  0.0740  0.0000  0.0000  0.0000  0.0000  0.0000 </r>
       </set>
       <set comment="band 7">
        <r>  0.1723  0.0000  0.0860  0.0036  0.0019  0.0180  0.0011  0.0010  0.0014 </r>
        <r>  0.0001  0.0431  0.1552  0.0004  0.0000  0.0000  0.0000  0.0000  0.0000 </r>
       </set>
       <set comment="band 8">
        <r>  0.0113  0.2884  0.0045  0.0072  0.0111  0.0055  0.0141  0.0001  0.0002 </r>
        <r>  0.0534  0.0416  0.0284  0.0121  0.0000  0.0000  0.0000  0.0000  0.0000 </r>
       </set>
      </set>
      <set comment="kpoint 27">
       <set comment="band 1">
        <r>  0.0006  0.0059  0.0000  0.0033  0.0000  0.0000  0.0037  0.0000  0.0008 </r>
        <r>  0.7782  0.0000  0.0000  0.0001  0.0000  0.0000  0.0000  0.0000  0.0000 </r>
       </set>
       <set comment="band 2">
        <r>  0.0548  0.0002  0.0000  0.0257  0.0052  0.0000  0.0039  0.0000  0.0000 </r>
        <r>  0.0048  0.1441  0.0000  0.3417  0.0000  0.0000  0.0000  0.0000  0.0000 </r>
       </set>
       <set comment="band 3">
        <r>  0.0000  0.0000  0.0613  0.0000  0.0000  0.0046  0.0000  0.0016  0.0000 </r>
        <r>  0.0000  0.0000  0.5298  0.0000  0.0000  0.0000  0.0000  0.0000  0.0000 </r>
       </set>
       <set comment="band 4">
        <r>  0.0124  0.0001  0.0000  0.0141  0.0000  0.0000  0.0008  0.0000  0.0179 </r>
        <r>  0.0001  0.4610  0.0000  0.1929  0.0000  0.0000  0.0000  0.0000  0.0000 </r>
       </set>
       <set comment="band 5">
        <r>  0.0149  0.0528  0.0000  0.0576  0.0273  0.0000  0.0039  0.0000  0.0009 </r>
        <r>  0.0479  0.0356  0.0000  0.2006  0.0000  0.0000  0.0000  0.0000  0.0000 </r>
       </set>
       <set comment="band 6">
        <r>  0.0000  0.0000  0.0687  0.0000  0.0000  0.0590  0.0000  0.0048  0.0000 </r>
        <r>  0.0000  0.0000  0.2767  0.0000  0.0000  0.0000  0.0000  0.0000  0.0000 </r>
       </set>
       <set comment="band 7">
        <r>  0.3788  0.0062  0.0000  0.0358  0.0015  0.0000  0.0029  0.0000  0.0022 </r>
        <r>  0.0009  0.1332  0.0000  0.0082  0.0000  0.0000  0.0000  0.0000  0.0000 </r>
       </set>
       <set comment="band 8">
        <r>  0.0001  0.2762  0.0000  0.0393  0.0247  0.0000  0.0055  0.0000  0.0016 </r>
        <r>  0.0413  0.0000  0.0000  0.0786  0.0000  0.0000  0.0000  0.0000  0.0000 </r>
       </set>
      </set>
      <set comment="kpoint 28">
       <set comment="band 1">
        <r>  0.0025  0.0029  0.0000  0.0000  0.0000  0.0000  0.0072  0.0000  0.0001 </r>
        <r>  0.7857  0.0000  0.0000  0.0000  0.0000  0.0000  0.0000  0.0000  0.0000 </r>
       </set>
       <set comment="band 2">
        <r>  0.0000  0.0000  0.0777  0.0000  0.0000  0.0018  0.0000  0.0000  0.0000 </r>
        <r>  0.0000  0.0000  0.4698  0.0000  0.0000  0.0000  0.0000  0.0000  0.0000 </r>
       </set>
       <set comment="band 3">
        <r>  0.0000  0.0000  0.0000  0.0520  0.0037  0.0000  0.0000  0.0000  0.0000 </r>
        <r>  0.0000  0.0000  0.0000  0.5921  0.0000  0.0000  0.0000  0.0000  0.0000 </r>
       </set>
       <set comment="band 4">
        <r>  0.0295  0.0215  0.0000  0.0000  0.0000  0.0000  0.0018  0.0000  0.0055 </r>
        <r>  0.0002  0.6225  0.0000  0.0000  0.0000  0.0000  0.0000  0.0000  0.0000 </r>
       </set>
       <set comment="band 5">
        <r>  0.0000  0.0000  0.0000  0.0154  0.1414  0.0000  0.0000  0.0000  0.0000 </r>
        <r>  0.0000  0.0000  0.0000  0.0993  0.0000  0.0000  0.0000  0.0000  0.0000 </r>
       </set>
       <set comment="band 6">
        <r>  0.4202  0.0188  0.0000  0.0000  0.0000  0.0000  0.0011  0.0000  0.0013 </r>
        <r>  0.0378  0.0576  0.0000  0.0000  0.0000  0.0000  0.0000  0.0000  0.0000 </r>
       </set>
       <set comment="band 7">
        <r>  0.0000  0.0000  0.1097  0.0000  0.0000  0.0139  0.0000  0.0000  0.0000 </r>
        <r>  0.0000  0.0000  0.4089  0.0000  0.0000  0.0000  0.0000  0.0000  0.0000 </r>
       </set>
       <set comment="band 8">
        <r>  0.0222  0.2962  0.0000  0.0000  0.0000  0.0000  0.0201  0.0000  0.0020 </r>
        <r>  0.0450  0.1323  0.0000  0.0000  0.0000  0.0000  0.0000  0.0000  0.0000 </r>
       </set>
      </set>
      <set comment="kpoint 29">
       <set comment="band 1">
        <r>  0.0000  0.0058  0.0000  0.0000  0.0000  0.0000  0.0047  0.0000  0.0016 </r>
        <r>  0.7872  0.0000  0.0000  0.0000  0.0000  0.0000  0.0000  0.0000  0.0000 </r>
       </set>
       <set comment="band 2">
        <r>  0.0000  0.0000  0.0331  0.0328  0.0024  0.0024  0.0000  0.0000  0.0000 </r>
        <r>  0.0000  0.0000  0.2584  0.2565  0.0000  0.0000  0.0000  0.0000  0.0000 </r>
       </set>
       <set comment="band 3">
        <r>  0.0000  0.0000  0.0328  0.0331  0.0024  0.0024  0.0000  0.0000  0.0000 </r>
        <r>  0.0000  0.0000  0.2565  0.2584  0.0000  0.0000  0.0000  0.0000  0.0000 </r>
       </set>
       <set comment="band 4">
        <r>  0.0557  0.0000  0.0000  0.0000  0.0000  0.0000  0.0035  0.0000  0.0104 </r>
        <r>  0.0000  0.6027  0.0000  0.0000  0.0000  0.0000  0.0000  0.0000  0.0000 </r>
       </set>
       <set comment="band 5">
        <r>  0.0000  0.0000  0.0325  0.0321  0.0334  0.0338  0.0000  0.0000  0.0000 </r>
        <r>  0.0000  0.0000  0.1433  0.1417  0.0000  0.0000  0.0000  0.0000  0.0000 </r>
       </set>
       <set comment="band 6">
        <r>  0.0000  0.0000  0.0321  0.0325  0.0338  0.0334  0.0000  0.0000  0.0000 </r>
        <r>  0.0000  0.0000  0.1417  0.1433  0.0000  0.0000  0.0000  0.0000  0.0000 </r>
       </set>
       <set comment="band 7">
        <r>  0.4264  0.0000  0.0000  0.0000  0.0000  0.0000  0.0018  0.0000  0.0053 </r>
        <r>  0.0000  0.1715  0.0000  0.0000  0.0000  0.0000  0.0000  0.0000  0.0000 </r>
       </set>
       <set comment="band 8">
        <r>  0.0000  0.3306  0.0000  0.0000  0.0000  0.0000  0.0118  0.0000  0.0039 </r>
        <r>  0.0977  0.0000  0.0000  0.0000  0.0000  0.0000  0.0000  0.0000  0.0000 </r>
       </set>
      </set>
     </set>
    </set>
   </array>
  </projected>
 </calculation>
 <structure name="finalpos" >
  <crystal>
   <varray name="basis" >
    <v>       0.00000000       2.12405866       2.12405866 </v>
    <v>       2.12405866       0.00000000       2.12405866 </v>
    <v>       2.12405866       2.12405866       0.00000000 </v>
   </varray>
   <i name="volume">     19.16591316 </i>
   <varray name="rec_basis" >
    <v>      -0.23539840       0.23539840       0.23539840 </v>
    <v>       0.23539840      -0.23539840       0.23539840 </v>
    <v>       0.23539840       0.23539840      -0.23539840 </v>
   </varray>
  </crystal>
  <varray name="positions" >
   <v>       0.00000000       0.00000000       0.00000000 </v>
   <v>       0.50000000       0.50000000       0.50000000 </v>
  </varray>
 </structure>
</modeling>
