unknown system                          
   1.00000000000000     
     3.184618    0.000000    0.000000
    -1.592308    2.757959    0.000000
     0.000000    0.000000    5.199714
   Mg
     2
Direct
  0.333333  0.666667  0.250000
  0.666667  0.333333  0.750000
 
   36   36   60
 0.32769937188E+01 0.32853554767E+01 0.33104112343E+01 0.33519789225E+01 0.34094896385E+01
 0.34817401510E+01 0.35667661993E+01 0.36619091571E+01 0.37640488499E+01 0.38698929948E+01
 0.39761964484E+01 0.40798413241E+01 0.41778048454E+01 0.42671121491E+01 0.43448695988E+01
 0.44084057309E+01 0.44554661527E+01 0.44843767793E+01 0.44941253116E+01 0.44843756056E+01
 0.44554638810E+01 0.44084025084E+01 0.43448656336E+01 0.42671076895E+01 0.41778001504E+01
 0.40798366331E+01 0.39761919573E+01 0.38698888450E+01 0.37640451294E+01 0.36619059113E+01
 0.35667634440E+01 0.34817378844E+01 0.34094878502E+01 0.33519775988E+01 0.33104103615E+01
 0.32853550434E+01 0.32853550374E+01 0.32853552570E+01 0.33020634638E+01 0.33353709586E+01
 0.33848972582E+01 0.34497512454E+01 0.35283455433E+01 0.36183672921E+01 0.37169283056E+01
 0.38208262832E+01 0.39267980976E+01 0.40316665608E+01 0.41323607654E+01 0.42258753179E+01
 0.43092677590E+01 0.43797546178E+01 0.44348872827E+01 0.44727312256E+01 0.44919780377E+01
 0.44919771657E+01 0.44727288827E+01 0.44348840237E+01 0.43797508446E+01 0.43092636344E+01
 0.42258709660E+01 0.41323563351E+01 0.40316621060E+01 0.39267936006E+01 0.38208218787E+01
 0.37169243514E+01 0.36183641120E+01 0.35283431580E+01 0.34497494311E+01 0.33848958229E+01
 0.33353698811E+01 0.33020628026E+01 0.33104103721E+01 0.33020630147E+01 0.33104108053E+01
 0.33353707904E+01 0.33766270331E+01 0.34334657054E+01 0.35046013829E+01 0.35880910569E+01
 0.36813896710E+01 0.37815296419E+01 0.38853458761E+01 0.39896536785E+01 0.40913296595E+01
 0.41873178395E+01 0.42746347012E+01 0.43504408334E+01 0.44121886683E+01 0.44577921094E+01
 0.44857455651E+01 0.44951598857E+01 0.44857440393E+01 0.44577894485E+01 0.44121853189E+01
 0.43504370344E+01 0.42746305469E+01 0.41873134590E+01 0.40913252077E+01 0.39896492221E+01
 0.38853414619E+01 0.37815254961E+01 0.36813861625E+01 0.35880883724E+01 0.35045993527E+01
 0.34334640508E+01 0.33766256896E+01 0.33353698750E+01 0.33519776514E+01 0.33353701132E+01
 0.33353702745E+01 0.33519782811E+01 0.33848970178E+01 0.34334657310E+01 0.34965635827E+01
 0.35725376425E+01 0.36592024061E+01 0.37539259332E+01 0.38537758079E+01 0.39556709177E+01
 0.40564921146E+01 0.41531434924E+01 0.42425989447E+01 0.43219821110E+01 0.43886985440E+01
 0.44405883279E+01 0.44760379940E+01 0.44940108040E+01 0.44940103781E+01 0.44760366378E+01
 0.44405859721E+01 0.43886953034E+01 0.43219781614E+01 0.42425944271E+01 0.41531386823E+01
 0.40564874535E+01 0.39556666939E+01 0.38537719996E+01 0.37539224983E+01 0.36591994714E+01
 0.35725352549E+01 0.34965615656E+01 0.34334639983E+01 0.33848957643E+01 0.34094878502E+01
 0.33848960564E+01 0.33766260657E+01 0.33848962891E+01 0.34094887349E+01 0.34497508796E+01
 0.35046013747E+01 0.35725377183E+01 0.36516494181E+01 0.37396473964E+01 0.38339191096E+01
 0.39316074473E+01 0.40297011315E+01 0.41251264671E+01 0.42148433740E+01 0.42959587669E+01
 0.43658631108E+01 0.44223706964E+01 0.44638204197E+01 0.44890990395E+01 0.44975899584E+01
 0.44890986795E+01 0.44638190600E+01 0.44223680521E+01 0.43658595078E+01 0.42959544551E+01
 0.42148384122E+01 0.41251213288E+01 0.40296965924E+01 0.39316037176E+01 0.38339157587E+01
 0.37396442009E+01 0.36516466100E+01 0.35725353838E+01 0.35045993421E+01 0.34497492557E+01
 0.34817376631E+01 0.34497495600E+01 0.34334644394E+01 0.34334644257E+01 0.34497499401E+01
 0.34817389024E+01 0.35283447413E+01 0.35880906221E+01 0.36592023417E+01 0.37396475448E+01
 0.38271322318E+01 0.39190939888E+01 0.40127305611E+01 0.41050814445E+01 0.41931563401E+01
 0.42740897593E+01 0.43452977402E+01 0.44046129719E+01 0.44503722290E+01 0.44814326546E+01
 0.44971157486E+01 0.44971156476E+01 0.44814317532E+01 0.44503698386E+01 0.44046095459E+01
 0.43452939989E+01 0.42740855487E+01 0.41931514190E+01 0.41050765089E+01 0.40127263875E+01
 0.39190903293E+01 0.38271285634E+01 0.37396441610E+01 0.36591997453E+01 0.35880885938E+01
 0.35283429427E+01 0.35667630054E+01 0.35283431054E+01 0.35045997797E+01 0.34965620205E+01
 0.35045998110E+01 0.35283439320E+01 0.35667646056E+01 0.36183657611E+01 0.36813884970E+01
 0.37539255658E+01 0.38339193707E+01 0.39190942087E+01 0.40069081346E+01 0.40945890998E+01
 0.41792668469E+01 0.42581614673E+01 0.43287690687E+01 0.43889987282E+01 0.44372418367E+01
 0.44723730933E+01 0.44936928650E+01 0.45008363738E+01 0.44936922064E+01 0.44723709585E+01
 0.44372384610E+01 0.43889953537E+01 0.43287659285E+01 0.42581576439E+01 0.41792622228E+01
 0.40945846419E+01 0.40069041470E+01 0.39190901079E+01 0.38339153200E+01 0.37539225508E+01
 0.36813866117E+01 0.36183641060E+01 0.36619055382E+01 0.36183639561E+01 0.35880887932E+01
 0.35725358337E+01 0.35725357629E+01 0.35880892376E+01 0.36183654886E+01 0.36619073419E+01
 0.37169261679E+01 0.37815279338E+01 0.38537751446E+01 0.39316074306E+01 0.40127304837E+01
 0.40945890045E+01 0.41744747079E+01 0.42497342750E+01 0.43179886370E+01 0.43772824796E+01
 0.44261343517E+01 0.44635068355E+01 0.44887332189E+01 0.45014316352E+01 0.45014314038E+01
 0.44887319169E+01 0.44635040525E+01 0.44261311774E+01 0.43772798359E+01 0.43179857426E+01
 0.42497302519E+01 0.41744702539E+01 0.40945850150E+01 0.40127265392E+01 0.39316031630E+01
 0.38537715739E+01 0.37815258692E+01 0.37169247185E+01 0.37640451294E+01 0.37169242607E+01
 0.36813864468E+01 0.36592000502E+01 0.36516469857E+01 0.36592000788E+01 0.36813875889E+01
 0.37169263961E+01 0.37640469960E+01 0.38208240458E+01 0.38853440820E+01 0.39556698878E+01
 0.40297003782E+01 0.41050808094E+01 0.41792668055E+01 0.42497346693E+01 0.43142364348E+01
 0.43709794272E+01 0.44186697444E+01 0.44564428613E+01 0.44837495350E+01 0.45002551984E+01
 0.45057768329E+01 0.45002549666E+01 0.44837481031E+01 0.44564403271E+01 0.44186671745E+01
 0.43709767706E+01 0.43142326881E+01 0.42497300644E+01 0.41792626614E+01 0.41050772909E+01
 0.40296965924E+01 0.39556660807E+01 0.38853414513E+01 0.38208224454E+01 0.38698892247E+01
 0.38208219286E+01 0.37815255121E+01 0.37539227960E+01 0.37396445030E+01 0.37396443154E+01
 0.37539231046E+01 0.37815272279E+01 0.38208242225E+01 0.38698911134E+01 0.39267961293E+01
 0.39896520822E+01 0.40564907630E+01 0.41251250942E+01 0.41931554850E+01 0.42581617414E+01
 0.43179895613E+01 0.43709800360E+01 0.44160357795E+01 0.44525250845E+01 0.44801111930E+01
 0.44986041302E+01 0.45078834793E+01 0.45078836631E+01 0.44986039197E+01 0.44801097153E+01
 0.44525228003E+01 0.44160332126E+01 0.43709765897E+01 0.43179849897E+01 0.42581572641E+01
 0.41931520201E+01 0.41251218901E+01 0.40564871263E+01 0.39896488423E+01 0.39267939864E+01
 0.39761924333E+01 0.39267937213E+01 0.38853411992E+01 0.38537718665E+01 0.38339158924E+01
 0.38271287138E+01 0.38339156514E+01 0.38537725471E+01 0.38853429973E+01 0.39267956929E+01
 0.39761944451E+01 0.40316649623E+01 0.40913283477E+01 0.41531420411E+01 0.42148418524E+01
 0.42740889239E+01 0.43287692164E+01 0.43772830871E+01 0.44186702914E+01 0.44525254651E+01
 0.44787826789E+01 0.44974981379E+01 0.45087208105E+01 0.45124625168E+01 0.45087209694E+01
 0.44974973840E+01 0.44787807845E+01 0.44525231800E+01 0.44186676504E+01 0.43772794628E+01
 0.43287650139E+01 0.42740853273E+01 0.42148388881E+01 0.41531387349E+01 0.40913247424E+01
 0.40316620999E+01 0.40798369227E+01 0.40316622022E+01 0.39896488249E+01 0.39556662652E+01
 0.39316037274E+01 0.39190906256E+01 0.39190904605E+01 0.39316038214E+01 0.39556672749E+01
 0.39896503465E+01 0.40316638129E+01 0.40798391812E+01 0.41323593334E+01 0.41873167081E+01
 0.42425977173E+01 0.42959575601E+01 0.43452968286E+01 0.43889980610E+01 0.44261339494E+01
 0.44564430469E+01 0.44801119533E+01 0.44974987707E+01 0.45089265350E+01 0.45145973575E+01
 0.45145973907E+01 0.45089260160E+01 0.44974970944E+01 0.44801098054E+01 0.44564411773E+01
 0.44261318401E+01 0.43889950640E+01 0.43452934879E+01 0.42959545632E+01 0.42425946641E+01
 0.41873131694E+01 0.41323560395E+01 0.41778001504E+01 0.41323563682E+01 0.40913248771E+01
 0.40564869918E+01 0.40296965817E+01 0.40127268388E+01 0.40069045854E+01 0.40127269211E+01
 0.40296973347E+01 0.40564883287E+01 0.40913261626E+01 0.41323577790E+01 0.41778024985E+01
 0.42258738247E+01 0.42746337476E+01 0.43219814067E+01 0.43658624957E+01 0.44046121418E+01
 0.44372407132E+01 0.44635060288E+01 0.44837497629E+01 0.44986051675E+01 0.45087217717E+01
 0.45145977816E+01 0.45165252717E+01 0.45145974735E+01 0.45087204935E+01 0.44986031676E+01
 0.44837481031E+01 0.44635047980E+01 0.44372388997E+01 0.44046093949E+01 0.43658595078E+01
 0.43219784812E+01 0.42746305363E+01 0.42258705997E+01 0.42671074150E+01 0.42258708960E+01
 0.41873133142E+01 0.41531383512E+01 0.41251212655E+01 0.41050769037E+01 0.40945850197E+01
 0.40945850782E+01 0.41050774906E+01 0.41251226567E+01 0.41531398389E+01 0.41873143942E+01
 0.42258722642E+01 0.42671097477E+01 0.43092661613E+01 0.43504399234E+01 0.43886983278E+01
 0.44223709062E+01 0.44503721954E+01 0.44723726121E+01 0.44887329357E+01 0.45002556583E+01
 0.45078843222E+01 0.45124631951E+01 0.45145978794E+01 0.45145979216E+01 0.45124627913E+01
 0.45078830089E+01 0.45002541315E+01 0.44887318183E+01 0.44723712330E+01 0.44503697855E+01
 0.44223679591E+01 0.43886956305E+01 0.43504373088E+01 0.43092633660E+01 0.43448651719E+01
 0.43092633864E+01 0.42746305571E+01 0.42425942568E+01 0.42148381505E+01 0.41931514251E+01
 0.41792623294E+01 0.41744700304E+01 0.41792623571E+01 0.41931522788E+01 0.42148396965E+01
 0.42425955142E+01 0.42746315175E+01 0.43092649626E+01 0.43448673693E+01 0.43797527887E+01
 0.44121875438E+01 0.44405884348E+01 0.44638214469E+01 0.44814336241E+01 0.44936933701E+01
 0.45014320778E+01 0.45057773778E+01 0.45078840477E+01 0.45087213101E+01 0.45089268246E+01
 0.45087217481E+01 0.45078838591E+01 0.45057763713E+01 0.45014310307E+01 0.44936922295E+01
 0.44814315318E+01 0.44638185983E+01 0.44405860247E+01 0.44121857912E+01 0.43797508385E+01
 0.44084021010E+01 0.43797504209E+01 0.43504370377E+01 0.43219781124E+01 0.42959539543E+01
 0.42740849634E+01 0.42581573313E+01 0.42497299125E+01 0.42497295250E+01 0.42581570699E+01
 0.42740858149E+01 0.42959552004E+01 0.43219788906E+01 0.43504380214E+01 0.43797522698E+01
 0.44084038967E+01 0.44348853613E+01 0.44577908757E+01 0.44760382207E+01 0.44891002727E+01
 0.44971170330E+01 0.45008374715E+01 0.45014324853E+01 0.45002557913E+01 0.44986043876E+01
 0.44974980737E+01 0.44974985453E+01 0.44986049175E+01 0.45002553516E+01 0.45014316008E+01
 0.45008367813E+01 0.44971158336E+01 0.44890980906E+01 0.44760361778E+01 0.44577898560E+01
 0.44348844251E+01 0.44554638810E+01 0.44348835946E+01 0.44121850960E+01 0.43886952275E+01
 0.43658588958E+01 0.43452929197E+01 0.43287651378E+01 0.43179853966E+01 0.43142322510E+01
 0.43179844909E+01 0.43287650030E+01 0.43452938253E+01 0.43658595013E+01 0.43886954525E+01
 0.44121862476E+01 0.44348855446E+01 0.44554650261E+01 0.44727297844E+01 0.44857447547E+01
 0.44940110867E+01 0.44975908091E+01 0.44971167414E+01 0.44936938318E+01 0.44887339092E+01
 0.44837497629E+01 0.44801109646E+01 0.44787822030E+01 0.44801115124E+01 0.44837495350E+01
 0.44887328929E+01 0.44936933036E+01 0.44971166691E+01 0.44975899584E+01 0.44940096265E+01
 0.44857440287E+01 0.44727295878E+01 0.44843761661E+01 0.44727286509E+01 0.44577888324E+01
 0.44405855707E+01 0.44223674226E+01 0.44046082911E+01 0.43889941382E+01 0.43772793456E+01
 0.43709765174E+01 0.43709759231E+01 0.43772787477E+01 0.43889947609E+01 0.44046090349E+01
 0.44223671494E+01 0.44405854610E+01 0.44577901012E+01 0.44727301255E+01 0.44843764814E+01
 0.44919777650E+01 0.44951601557E+01 0.44940109481E+01 0.44890993047E+01 0.44814330636E+01
 0.44723734471E+01 0.44635069617E+01 0.44564427760E+01 0.44525249046E+01 0.44525252653E+01
 0.44564428612E+01 0.44635059019E+01 0.44723725328E+01 0.44814334365E+01 0.44890997816E+01
 0.44940102961E+01 0.44951593252E+01 0.44919777322E+01 0.44941261392E+01 0.44919771371E+01
 0.44857430371E+01 0.44760356531E+01 0.44638183285E+01 0.44503687148E+01 0.44372370322E+01
 0.44261302979E+01 0.44186668305E+01 0.44160324228E+01 0.44186662630E+01 0.44261306703E+01
 0.44372381304E+01 0.44503687367E+01 0.44638173024E+01 0.44760354331E+01 0.44857438525E+01
 0.44919774103E+01 0.44941257245E+01 0.44919783255E+01 0.44857455823E+01 0.44760378133E+01
 0.44638201576E+01 0.44503719209E+01 0.44372415408E+01 0.44261342390E+01 0.44186699397E+01
 0.44160361593E+01 0.44186705720E+01 0.44261339786E+01 0.44372405704E+01 0.44503720076E+01
 0.44638212473E+01 0.44760380466E+01 0.44857447481E+01 0.44919780316E+01 0.44843773398E+01
 0.44919780095E+01 0.44951587241E+01 0.44940089071E+01 0.44890977404E+01 0.44814308912E+01
 0.44723696191E+01 0.44635027319E+01 0.44564395243E+01 0.44525218338E+01 0.44525214386E+01
 0.44564393262E+01 0.44635035732E+01 0.44723701686E+01 0.44814299648E+01 0.44890964958E+01
 0.44940085872E+01 0.44951584308E+01 0.44919768498E+01 0.44843764814E+01 0.44727310440E+01
 0.44577918437E+01 0.44405878742E+01 0.44223700712E+01 0.44046123300E+01 0.43889983319E+01
 0.43772825266E+01 0.43709798552E+01 0.43709805484E+01 0.43772834132E+01 0.43889981677E+01
 0.44046121900E+01 0.44223710755E+01 0.44405888358E+01 0.44577915489E+01 0.44727306591E+01
 0.44554661527E+01 0.44727310212E+01 0.44857445785E+01 0.44940093254E+01 0.44975889024E+01
 0.44971149874E+01 0.44936911285E+01 0.44887303408E+01 0.44837467015E+01 0.44801084762E+01
 0.44787790316E+01 0.44801077165E+01 0.44837464877E+01 0.44887306509E+01 0.44936906393E+01
 0.44971136890E+01 0.44975880168E+01 0.44940087258E+01 0.44857430249E+01 0.44727288659E+01
 0.44554650261E+01 0.44348864679E+01 0.44121880055E+01 0.43886979032E+01 0.43658624957E+01
 0.43452972381E+01 0.43287687405E+01 0.43179884824E+01 0.43142364348E+01 0.43179897092E+01
 0.43287695073E+01 0.43452972625E+01 0.43658631108E+01 0.43886991905E+01 0.44121886576E+01
 0.44348865896E+01 0.44084053235E+01 0.44348869239E+01 0.44577915280E+01 0.44760369913E+01
 0.44890980861E+01 0.44971151038E+01 0.45008354406E+01 0.45014297610E+01 0.45002531101E+01
 0.44986023575E+01 0.44974957408E+01 0.44974950921E+01 0.44986012886E+01 0.45002526247E+01
 0.45014292947E+01 0.45008343088E+01 0.44971139806E+01 0.44890974638E+01 0.44760358406E+01
 0.44577891332E+01 0.44348844381E+01 0.44084038967E+01 0.43797531961E+01 0.43504397904E+01
 0.43219813716E+01 0.42959582572E+01 0.42740893314E+01 0.42581609542E+01 0.42497337012E+01
 0.42497343094E+01 0.42581618748E+01 0.42740895732E+01 0.42959585409E+01 0.43219825710E+01
 0.43504412409E+01 0.43797542164E+01 0.43448691371E+01 0.43797542394E+01 0.44121884835E+01
 0.44405879151E+01 0.44638196623E+01 0.44814318085E+01 0.44936917988E+01 0.45014299869E+01
 0.45057748056E+01 0.45078818546E+01 0.45087193823E+01 0.45089241723E+01 0.45087184413E+01
 0.45078810234E+01 0.45057742478E+01 0.45014288873E+01 0.44936901776E+01 0.44814305253E+01
 0.44638185917E+01 0.44405860216E+01 0.44121857859E+01 0.43797518623E+01 0.43448673693E+01
 0.43092658869E+01 0.42746332859E+01 0.42425980070E+01 0.42148427901E+01 0.41931558647E+01
 0.41792663438E+01 0.41744743348E+01 0.41792668700E+01 0.41931561187E+01 0.42148429123E+01
 0.42425989972E+01 0.42746351735E+01 0.43092677530E+01 0.42671118746E+01 0.43092674457E+01
 0.43504408481E+01 0.43886984895E+01 0.44223700488E+01 0.44503710801E+01 0.44723717609E+01
 0.44887316403E+01 0.45002533208E+01 0.45078816407E+01 0.45124609417E+01 0.45145956687E+01
 0.45145953011E+01 0.45124603634E+01 0.45078812978E+01 0.45002524917E+01 0.44887296773E+01
 0.44723693336E+01 0.44503690112E+01 0.44223679844E+01 0.43886958771E+01 0.43504381544E+01
 0.43092652371E+01 0.42671097477E+01 0.42258731779E+01 0.41873161440E+01 0.41531423156E+01
 0.41251257485E+01 0.41050810956E+01 0.40945891031E+01 0.40945893743E+01 0.41050814976E+01
 0.41251260111E+01 0.41531431653E+01 0.41873181140E+01 0.42258755863E+01 0.41778048454E+01
 0.42258750986E+01 0.42746346910E+01 0.43219821309E+01 0.43658625126E+01 0.44046116625E+01
 0.44372403946E+01 0.44635055315E+01 0.44837481154E+01 0.44986025149E+01 0.45087192422E+01
 0.45145956990E+01 0.45165230553E+01 0.45145952032E+01 0.45087189030E+01 0.44986020684E+01
 0.44837464877E+01 0.44635026403E+01 0.44372373028E+01 0.44046088468E+01 0.43658595014E+01
 0.43219789257E+01 0.42746319792E+01 0.42258729110E+01 0.41778024985E+01 0.41323586715E+01
 0.40913278718E+01 0.40564907556E+01 0.40297003782E+01 0.40127304844E+01 0.40069085733E+01
 0.40127311548E+01 0.40297011315E+01 0.40564916896E+01 0.40913296488E+01 0.41323611438E+01
 0.40798416137E+01 0.41323606939E+01 0.41873176750E+01 0.42425988706E+01 0.42959583050E+01
 0.43452966185E+01 0.43889974810E+01 0.44261334923E+01 0.44564420568E+01 0.44801099353E+01
 0.44974965206E+01 0.45089248031E+01 0.45145956163E+01 0.45145951046E+01 0.45089238827E+01
 0.44974957892E+01 0.44801087052E+01 0.44564395971E+01 0.44261303806E+01 0.43889944900E+01
 0.43452934158E+01 0.42959545033E+01 0.42425952246E+01 0.41873149583E+01 0.41323584410E+01
 0.40798391812E+01 0.40316646726E+01 0.39896519921E+01 0.39556696168E+01 0.39316067679E+01
 0.39190939191E+01 0.39190944998E+01 0.39316079184E+01 0.39556706807E+01 0.39896533889E+01
 0.40316668565E+01 0.39761969243E+01 0.40316666751E+01 0.40913293364E+01 0.41531432342E+01
 0.42148431348E+01 0.42740891456E+01 0.43287682451E+01 0.43772819894E+01 0.44186694036E+01
 0.44525241352E+01 0.44787809540E+01 0.44974968103E+01 0.45087197181E+01 0.45124606672E+01
 0.45087184447E+01 0.44974953334E+01 0.44787795076E+01 0.44525219991E+01 0.44186666147E+01
 0.43772793082E+01 0.43287654789E+01 0.42740854075E+01 0.42148387589E+01 0.41531395644E+01
 0.40913266385E+01 0.40316641025E+01 0.39761944451E+01 0.39267965091E+01 0.38853445579E+01
 0.38537747715E+01 0.38339184561E+01 0.38271320104E+01 0.38339195855E+01 0.38537758604E+01
 0.38853454108E+01 0.39267980915E+01 0.38698933746E+01 0.39267983008E+01 0.39896532982E+01
 0.40564916609E+01 0.41251263824E+01 0.41931562993E+01 0.42581611397E+01 0.43179882871E+01
 0.43709791746E+01 0.44160350005E+01 0.44525237555E+01 0.44801098451E+01 0.44986032670E+01
 0.45078822950E+01 0.45078814748E+01 0.44986015703E+01 0.44801081569E+01 0.44525216530E+01
 0.44160320431E+01 0.43709761039E+01 0.43179855697E+01 0.42581578572E+01 0.41931518990E+01
 0.41251220025E+01 0.40564883361E+01 0.39896504367E+01 0.39267953132E+01 0.38698911134E+01
 0.38208249862E+01 0.37815286867E+01 0.37539251860E+01 0.37396469437E+01 0.37396475946E+01
 0.37539262604E+01 0.37815292621E+01 0.38208258974E+01 0.37640488499E+01 0.38208263811E+01
 0.38853456040E+01 0.39556704350E+01 0.40297010812E+01 0.41050817800E+01 0.41792669632E+01
 0.42497339712E+01 0.43142360087E+01 0.43709793555E+01 0.44186689277E+01 0.44564412065E+01
 0.44837481154E+01 0.45002541560E+01 0.45057752673E+01 0.45002529570E+01 0.44837467015E+01
 0.44564395244E+01 0.44186660029E+01 0.43709753962E+01 0.43142322510E+01 0.42497304931E+01
 0.41792628188E+01 0.41050772044E+01 0.40296973347E+01 0.39556675460E+01 0.38853425213E+01
 0.38208232821E+01 0.37640469961E+01 0.37169271016E+01 0.36813889356E+01 0.36592020024E+01
 0.36516494181E+01 0.36592029142E+01 0.36813896604E+01 0.37169277510E+01 0.36619087840E+01
 0.37169282160E+01 0.37815296242E+01 0.38537756004E+01 0.39316074459E+01 0.40127310004E+01
 0.40945895035E+01 0.41744745639E+01 0.42497341588E+01 0.43179890400E+01 0.43772823625E+01
 0.44261328296E+01 0.44635047860E+01 0.44887317390E+01 0.45014303600E+01 0.45014297954E+01
 0.44887306668E+01 0.44635036655E+01 0.44261306710E+01 0.43772784119E+01 0.43179843244E+01
 0.42497298781E+01 0.41744704035E+01 0.40945849795E+01 0.40127269203E+01 0.39316044841E+01
 0.38537729202E+01 0.37815264750E+01 0.37169254623E+01 0.36619073419E+01 0.36183661342E+01
 0.35880904703E+01 0.35725375267E+01 0.35725380682E+01 0.35880914300E+01 0.36183669250E+01
 0.35667657607E+01 0.36183671481E+01 0.36813899356E+01 0.37539261771E+01 0.38339192675E+01
 0.39190943544E+01 0.40069085991E+01 0.40945891304E+01 0.41792665245E+01 0.42581615195E+01
 0.43287691597E+01 0.43889977707E+01 0.44372399560E+01 0.44723714864E+01 0.44936917757E+01
 0.45008350331E+01 0.44936906899E+01 0.44723701796E+01 0.44372382984E+01 0.43889946987E+01
 0.43287646991E+01 0.42581569238E+01 0.41792623064E+01 0.40945847452E+01 0.40069041467E+01
 0.39190907502E+01 0.38339165659E+01 0.37539234843E+01 0.36813871502E+01 0.36183651155E+01
 0.35667646057E+01 0.35283445199E+01 0.35046009360E+01 0.34965636352E+01 0.35046018322E+01
 0.35283455372E+01 0.34817399297E+01 0.35283455343E+01 0.35880914915E+01 0.36592029597E+01
 0.37396477208E+01 0.38271324841E+01 0.39190945758E+01 0.40127308487E+01 0.41050809980E+01
 0.41931556982E+01 0.42740893670E+01 0.43452971295E+01 0.44046118135E+01 0.44503711332E+01
 0.44814320299E+01 0.44971149177E+01 0.44971140670E+01 0.44814301093E+01 0.44503689362E+01
 0.44046090729E+01 0.43452933975E+01 0.42740851495E+01 0.41931516464E+01 0.41050768506E+01
 0.40127262450E+01 0.39190901147E+01 0.38271289352E+01 0.37396449165E+01 0.36592004180E+01
 0.35880893894E+01 0.35283441534E+01 0.34817389024E+01 0.34497504767E+01 0.34334654570E+01
 0.34334659268E+01 0.34497514607E+01 0.34094896385E+01 0.34497514077E+01 0.35046018317E+01
 0.35725382071E+01 0.36516497871E+01 0.37396477607E+01 0.38339197062E+01 0.39316080005E+01
 0.40297010812E+01 0.41251258212E+01 0.42148426588E+01 0.42959581969E+01 0.43658625126E+01
 0.44223701418E+01 0.44638201240E+01 0.44890986751E+01 0.44975889024E+01 0.44890969983E+01
 0.44638175009E+01 0.44223670436E+01 0.43658588958E+01 0.42959541803E+01 0.42148386122E+01
 0.41251217214E+01 0.40296965817E+01 0.39316032563E+01 0.38339154165E+01 0.37396443047E+01
 0.36516469857E+01 0.35725359545E+01 0.35046002497E+01 0.34497503430E+01 0.34094887348E+01
 0.33848967837E+01 0.33766270225E+01 0.33848974458E+01 0.33519789751E+01 0.33848974844E+01
 0.34334660919E+01 0.34965640207E+01 0.35725380781E+01 0.36592026858E+01 0.37539261246E+01
 0.38537760261E+01 0.39556710482E+01 0.40564919881E+01 0.41531431816E+01 0.42425986335E+01
 0.43219818112E+01 0.43886981625E+01 0.44405878625E+01 0.44760374514E+01 0.44940100771E+01
 0.44940094151E+01 0.44760356005E+01 0.44405850627E+01 0.43886945810E+01 0.43219776524E+01
 0.42425942043E+01 0.41531386782E+01 0.40564874168E+01 0.39556665023E+01 0.38537718140E+01
 0.37539224688E+01 0.36591995421E+01 0.35725354080E+01 0.34965619680E+01 0.34334646996E+01
 0.33848965232E+01 0.33519782811E+01 0.33353707378E+01 0.33353710172E+01 0.33104112450E+01
 0.33353711662E+01 0.33766273868E+01 0.34334661445E+01 0.35046018424E+01 0.35880912701E+01
 0.36813894863E+01 0.37815292511E+01 0.38853456147E+01 0.39896536780E+01 0.40913298017E+01
 0.41873179647E+01 0.42746347016E+01 0.43504405737E+01 0.44121880112E+01 0.44577911206E+01
 0.44857445891E+01 0.44951592847E+01 0.44857438541E+01 0.44577893929E+01 0.44121851066E+01
 0.43504366302E+01 0.42746300848E+01 0.41873130398E+01 0.40913248877E+01 0.39896491146E+01
 0.38853416644E+01 0.37815258918E+01 0.36813864574E+01 0.35880884201E+01 0.35045993304E+01
 0.34334642180E+01 0.33766260763E+01 0.33353703271E+01 0.33104108053E+01 0.33020634578E+01
 0.32853554706E+01 0.33020636653E+01 0.33353711722E+01 0.33848975430E+01 0.34497515831E+01
 0.35283457497E+01 0.36183671541E+01 0.37169278490E+01 0.38208258144E+01 0.39267979150E+01
 0.40316666811E+01 0.41323609896E+01 0.42258754649E+01 0.43092677141E+01 0.43797542454E+01
 0.44348865225E+01 0.44727303161E+01 0.44919774429E+01 0.44919771432E+01 0.44727292175E+01
 0.44348842876E+01 0.43797508223E+01 0.43092633924E+01 0.42258706276E+01 0.41323559898E+01
 0.40316619065E+01 0.39267937273E+01 0.38208223144E+01 0.37169248153E+01 0.36183643232E+01
 0.35283431114E+01 0.34497493447E+01 0.33848958689E+01 0.33353700546E+01 0.33020630208E+01
 0.32853552570E+01 0.32835313900E+01 0.32919517637E+01 0.33171499507E+01 0.33588595088E+01
 0.34164155824E+01 0.34885500056E+01 0.35732893637E+01 0.36680179943E+01 0.37696835478E+01
 0.38750521470E+01 0.39809048156E+01 0.40841164266E+01 0.41816411819E+01 0.42704892192E+01
 0.43477761794E+01 0.44108659043E+01 0.44575546096E+01 0.44862182756E+01 0.44958802354E+01
 0.44862171036E+01 0.44575523158E+01 0.44108626273E+01 0.43477721455E+01 0.42704846913E+01
 0.41816364273E+01 0.40841117070E+01 0.39809003439E+01 0.38750480358E+01 0.37696798315E+01
 0.36680147062E+01 0.35732865593E+01 0.34885477147E+01 0.34164137859E+01 0.33588581760E+01
 0.33171490698E+01 0.32919513283E+01 0.32919513187E+01 0.32919515416E+01 0.33085617597E+01
 0.33416843096E+01 0.33909579433E+01 0.34555147755E+01 0.35337908399E+01 0.36234941495E+01
 0.37217526198E+01 0.38253725827E+01 0.39310891941E+01 0.40357122171E+01 0.41361498947E+01
 0.42293770268E+01 0.43124440155E+01 0.43825821049E+01 0.44373806804E+01 0.44749577852E+01
 0.44940556788E+01 0.44940548192E+01 0.44749554565E+01 0.44373774061E+01 0.43825782927E+01
 0.43124398515E+01 0.42293726373E+01 0.41361454247E+01 0.40357077374E+01 0.39310846982E+01
 0.38253681780E+01 0.37217486274E+01 0.36234909000E+01 0.35337883941E+01 0.34555129308E+01
 0.33909564956E+01 0.33416832223E+01 0.33085610901E+01 0.33171490810E+01 0.33089580292E+01
 0.33171495267E+01 0.33416841550E+01 0.33823581292E+01 0.34385926591E+01 0.35092104949E+01
 0.35923194704E+01 0.36853674759E+01 0.37853449762E+01 0.38890393258E+01 0.39932318505E+01
 0.40947817961E+01 0.41906252368E+01 0.42777737811E+01 0.43533876750E+01 0.44149307044E+01
 0.44603442390E+01 0.44881607702E+01 0.44975249386E+01 0.44881592451E+01 0.44603415718E+01
 0.44149273423E+01 0.43533838681E+01 0.42777696255E+01 0.41906208442E+01 0.40947773031E+01
 0.39932273268E+01 0.38890348389E+01 0.37853407687E+01 0.36853639187E+01 0.35923167469E+01
 0.35092084344E+01 0.34385909819E+01 0.33823567666E+01 0.33416832216E+01 0.33588582299E+01
 0.33427322522E+01 0.33427324256E+01 0.33588588882E+01 0.33909577402E+01 0.34385927173E+01
 0.35008570308E+01 0.35762257501E+01 0.36625295815E+01 0.37570694978E+01 0.38568211135E+01
 0.39586388058E+01 0.40593868281E+01 0.41559867411E+01 0.42454340251E+01 0.43248554353E+01
 0.43916384686E+01 0.44435969852E+01 0.44790978748E+01 0.44970966153E+01 0.44970961730E+01
 0.44790964878E+01 0.44435946094E+01 0.43916352181E+01 0.43248514800E+01 0.42454295119E+01
 0.41559819319E+01 0.40593821212E+01 0.39586344760E+01 0.38568171907E+01 0.37570659951E+01
 0.36625266173E+01 0.35762233285E+01 0.35008549637E+01 0.34385909370E+01 0.33909564499E+01
 0.34164137859E+01 0.33926925278E+01 0.33847460440E+01 0.33926927865E+01 0.34164147043E+01
 0.34555144563E+01 0.35092105631E+01 0.35762258972E+01 0.36547316396E+01 0.37423853270E+01
 0.38364566730E+01 0.39339924210E+01 0.40319593139E+01 0.41273321468E+01 0.42171423448E+01
 0.42985353372E+01 0.43688757725E+01 0.44258932504E+01 0.44678144410E+01 0.44934224993E+01
 0.45020312312E+01 0.44934220821E+01 0.44678130446E+01 0.44258906132E+01 0.43688721681E+01
 0.42985309979E+01 0.42171373680E+01 0.41273270026E+01 0.40319547238E+01 0.39339885941E+01
 0.38364532399E+01 0.37423820774E+01 0.36547287510E+01 0.35762234407E+01 0.35092084232E+01
 0.34555127744E+01 0.34885475112E+01 0.34577633760E+01 0.34421880286E+01 0.34421880383E+01
 0.34577637897E+01 0.34885487737E+01 0.35337900797E+01 0.35923191470E+01 0.36625296425E+01
 0.37423855401E+01 0.38294770329E+01 0.39211208636E+01 0.40144787518E+01 0.41066628134E+01
 0.41948153498E+01 0.42761772762E+01 0.43481722952E+01 0.44085191658E+01 0.44553502336E+01
 0.44872907196E+01 0.45034681120E+01 0.45034679718E+01 0.44872897689E+01 0.44553478588E+01
 0.44085157621E+01 0.43481685058E+01 0.42761729938E+01 0.41948104079E+01 0.41066578737E+01
 0.40144745260E+01 0.39211171252E+01 0.38294732913E+01 0.37423820400E+01 0.36625268568E+01
 0.35923169415E+01 0.35337882002E+01 0.35732861700E+01 0.35362617466E+01 0.35135628228E+01
 0.35059134198E+01 0.35135629234E+01 0.35362626087E+01 0.35732877792E+01 0.36234926572E+01
 0.36853664133E+01 0.37570692488E+01 0.38364570296E+01 0.39211211507E+01 0.40084609716E+01
 0.40957822162E+01 0.41803991782E+01 0.42597223675E+01 0.43313307193E+01 0.43930421042E+01
 0.44429913969E+01 0.44797037537E+01 0.45021368663E+01 0.45096809076E+01 0.45021361748E+01
 0.44797016266E+01 0.44429880440E+01 0.43930386665E+01 0.43313274535E+01 0.42597184840E+01
 0.41803945703E+01 0.40957777331E+01 0.40084568780E+01 0.39211169306E+01 0.38364528507E+01
 0.37570660400E+01 0.36853643192E+01 0.36234908994E+01 0.36680143826E+01 0.36258904626E+01
 0.35968637061E+01 0.35820476524E+01 0.35820476520E+01 0.35968642614E+01 0.36258920331E+01
 0.36680162283E+01 0.37217505618E+01 0.37853433679E+01 0.38568205373E+01 0.39339925169E+01
 0.40144787928E+01 0.40957821915E+01 0.41754027577E+01 0.42509518140E+01 0.43202301010E+01
 0.43812642032E+01 0.44323258098E+01 0.44719611436E+01 0.44990342962E+01 0.45127678431E+01
 0.45127675781E+01 0.44990329580E+01 0.44719583725E+01 0.44323226070E+01 0.43812614322E+01
 0.43202270893E+01 0.42509477700E+01 0.41753982792E+01 0.40957780655E+01 0.40144746639E+01
 0.39339881046E+01 0.38568168133E+01 0.37853411011E+01 0.37217489592E+01 0.37696798315E+01
 0.37238569967E+01 0.36896185603E+01 0.36684099560E+01 0.36612217950E+01 0.36684101265E+01
 0.36896198310E+01 0.37238592161E+01 0.37696818510E+01 0.38253705006E+01 0.38890376240E+01
 0.39586378444E+01 0.40319586822E+01 0.41066623274E+01 0.41803992727E+01 0.42509522756E+01
 0.43163431787E+01 0.43748618683E+01 0.44250330642E+01 0.44655758778E+01 0.44954028230E+01
 0.45136646280E+01 0.45198149876E+01 0.45136643012E+01 0.44954013330E+01 0.44655733407E+01
 0.44250304393E+01 0.43748590976E+01 0.43163393529E+01 0.42509476037E+01 0.41803949596E+01
 0.41066585670E+01 0.40319547238E+01 0.39586339323E+01 0.38890348276E+01 0.38253686774E+01
 0.38750483622E+01 0.38270733598E+01 0.37889983989E+01 0.37624879835E+01 0.37488611253E+01
 0.37488610204E+01 0.37624884452E+01 0.37890002372E+01 0.38270758204E+01 0.38750505261E+01