 vasp.5.4.1 05Feb16 (build Mar 31 2016 13:39:20) complex                        
  
 executed on           IFC91_ompi date 2016.05.20  13:46:50
 running on    8 total cores
 distrk:  each k-point on    8 cores,    1 groups
 distr:  one band on NCORES_PER_BAND=   2 cores,    4 groups


--------------------------------------------------------------------------------------------------------


 INCAR:
 POTCAR:    PAW_PBE Mg 13Apr2007                  
 POTCAR:    PAW_PBE Mg 13Apr2007                  
   VRHFIN =Mg: s2p0                                                             
   LEXCH  = PE                                                                  
   EATOM  =    23.0369 eV,    1.6932 Ry                                         
                                                                                
   TITEL  = PAW_PBE Mg 13Apr2007                                                
   LULTRA =        F    use ultrasoft PP ?                                      
   IUNSCR =        1    unscreen: 0-lin 1-nonlin 2-no                           
   RPACOR =    1.500    partial core radius                                     
   POMASS =   24.305; ZVAL   =    2.000    mass and valenz                      
   RCORE  =    2.000    outmost cutoff radius                                   
   RWIGS  =    2.880; RWIGS  =    1.524    wigner-seitz radius (au A)           
   ENMAX  =  126.143; ENMIN  =   94.607 eV                                      
   RCLOC  =    1.506    cutoff for local pot                                    
   LCOR   =        T    correct aug charges                                     
   LPAW   =        T    paw PP                                                  
   EAUG   =  454.734                                                            
   DEXC   =    0.000                                                            
   RMAX   =    2.045    core radius for proj-oper                               
   RAUG   =    1.300    factor for augmentation sphere                          
   RDEP   =    2.025    radius for radial grids                                 
   RDEPT  =    1.942    core radius for aug-charge                              
                                                                                
   Atomic configuration                                                         
    6 entries                                                                   
     n  l   j            E        occ.                                          
     1  0  0.50     -1259.6230   2.0000                                         
     2  0  0.50       -79.8442   2.0000                                         
     2  1  1.50       -46.6121   6.0000                                         
     3  0  0.50        -4.7055   2.0000                                         
     3  1  0.50        -1.3660   0.0000                                         
     3  2  1.50        -1.3606   0.0000                                         
   Description                                                                  
     l       E           TYP  RCUT    TYP  RCUT                                 
     0     -4.7054661     23  2.000                                             
     0     27.2116520     23  2.000                                             
     1      1.3605826     23  2.000                                             
     1     27.2116520     23  2.000                                             
     2     -1.3605826     23  2.000                                             
  local pseudopotential read in
  partial core-charges read in
  partial kinetic energy density read in
  atomic valenz-charges read in
  non local Contribution for L=           0  read in
    real space projection operators read in
  non local Contribution for L=           0  read in
    real space projection operators read in
  non local Contribution for L=           1  read in
    real space projection operators read in
  non local Contribution for L=           1  read in
    real space projection operators read in
  non local Contribution for L=           2  read in
    real space projection operators read in
    PAW grid and wavefunctions read in
 
   number of l-projection  operators is LMAX  =           5
   number of lm-projection operators is LMMAX =          13
 

 ----------------------------------------------------------------------------- 
|                                                                             |
|  ADVICE TO THIS USER RUNNING 'VASP/VAMP'   (HEAR YOUR MASTER'S VOICE ...):  |
|                                                                             |
|      You have a (more or less) 'small supercell' and for smaller cells      |
|      it is recommended  to use the reciprocal-space projection scheme!      |
|      The real space optimization is not  efficient for small cells and it   |
|      is also less accurate ...                                              |
|      Therefore set LREAL=.FALSE. in the  INCAR file                         |
|                                                                             |
 ----------------------------------------------------------------------------- 

 Optimization of the real space projectors (new method)

 maximal supplied QI-value         = 18.90
 optimisation between [QCUT,QGAM] = [ 11.53, 23.24] = [ 37.21,151.29] Ry 
 Optimized for a Real-space Cutoff    1.25 Angstroem

   l    n(q)    QCUT    max X(q) W(low)/X(q) W(high)/X(q)  e(spline) 
   0      9    11.527    28.265    0.12E-03    0.94E-04    0.71E-07
   0      9    11.527    10.429    0.98E-04    0.71E-04    0.55E-07
   1      8    11.527    13.073    0.28E-03    0.32E-03    0.75E-07
   1      8    11.527     9.625    0.23E-03    0.27E-03    0.65E-07
   2      8    11.527     4.652    0.27E-03    0.49E-04    0.52E-07
  PAW_PBE Mg 13Apr2007                  :
 energy of atom  1       EATOM=  -23.0369
 kinetic energy error for atom=    0.0000 (will be added to EATOM!!)
 
 
 POSCAR: Mg2                                     
  positions in direct lattice
  velocities in cartesian coordinates
 exchange correlation table for  LEXCH =        8
   RHO(1)=    0.500       N(1)  =     2000
   RHO(2)=  100.500       N(2)  =     4000
 


--------------------------------------------------------------------------------------------------------


 ion  position               nearest neighbor table
   1  0.333  0.667  0.250-   2 3.18   2 3.18   2 3.18   2 3.18   2 3.18   2 3.18
   2  0.667  0.333  0.750-   1 3.18   1 3.18   1 3.18   1 3.18   1 3.18   1 3.18
 
  LATTYP: Found a hexagonal cell.
 ALAT       =     3.1846175637
 C/A-ratio  =     1.6327594341
  
  Lattice vectors:
  
 A1 = (   3.1846175716,   0.0000000002,   0.0000000000)
 A2 = (  -1.5923082856,   2.7579594202,   0.0000000000)
 A3 = (   0.0000000000,   0.0000000000,   5.1997143711)


Analysis of symmetry for initial positions (statically):
=====================================================================
 Subroutine PRICEL returns:
 Original cell was already a primitive cell.
 

 Routine SETGRP: Setting up the symmetry group for a 
 hexagonal supercell.


 Subroutine GETGRP returns: Found 24 space group operations
 (whereof 12 operations were pure point group operations)
 out of a pool of 24 trial point group operations.


The static configuration has the point symmetry D_3d.
 The point group associated with its full space group is D_6h.


Analysis of symmetry for dynamics (positions and initial velocities):
=====================================================================
 Subroutine PRICEL returns:
 Original cell was already a primitive cell.
 

 Routine SETGRP: Setting up the symmetry group for a 
 hexagonal supercell.


 Subroutine GETGRP returns: Found 24 space group operations
 (whereof 12 operations were pure point group operations)
 out of a pool of 24 trial point group operations.


The dynamic configuration has the point symmetry D_3d.
 The point group associated with its full space group is D_6h.


 Subroutine INISYM returns: Found 24 space group operations
 (whereof 12 operations are pure point group operations),
 and found     1 'primitive' translations

 
 
 KPOINTS: k-point mesh generated by kpt_generator.

Automatic generation of k-mesh.
Space group operators:
 irot       det(A)        alpha          n_x          n_y          n_z        tau_x        tau_y        tau_z
    1     1.000000     0.000000     1.000000     0.000000     0.000000     0.000000     0.000000     0.000000
    2    -1.000000     0.000000     1.000000     0.000000     0.000000     0.000000     0.000000     0.000000
    3     1.000000   120.000000     0.000000     0.000000    -1.000000     0.000000     0.000000     0.000000
    4    -1.000000   120.000000     0.000000     0.000000    -1.000000     0.000000     0.000000     0.000000
    5     1.000000   120.000000     0.000000     0.000000     1.000000     0.000000     0.000000     0.000000
    6    -1.000000   120.000000     0.000000     0.000000     1.000000     0.000000     0.000000     0.000000
    7     1.000000   180.000000     1.000000    -0.000000     0.000000     0.000000     0.000000     0.000000
    8    -1.000000   180.000000     1.000000    -0.000000     0.000000     0.000000     0.000000     0.000000
    9     1.000000   180.000000     0.500000    -0.866025     0.000000     0.000000     0.000000     0.000000
   10    -1.000000   180.000000     0.500000    -0.866025     0.000000     0.000000     0.000000     0.000000
   11     1.000000   180.000000    -0.500000    -0.866025     0.000000     0.000000     0.000000     0.000000
   12    -1.000000   180.000000    -0.500000    -0.866025     0.000000     0.000000     0.000000     0.000000
   13     1.000000    60.000000     0.000000     0.000000    -1.000000     0.000001     0.000000     0.500000
   14    -1.000000    60.000000     0.000000     0.000000    -1.000000     0.000001     0.000000     0.500000
   15     1.000000   180.000000     0.000000     0.000000     1.000000     0.000000     0.000000     0.500000
   16    -1.000000   180.000000     0.000000     0.000000     1.000000     0.000000     0.000000     0.500000
   17     1.000000    60.000000     0.000000     0.000000     1.000000     0.000000     0.000000     0.500000
   18    -1.000000    60.000000     0.000000     0.000000     1.000000     0.000000     0.000000     0.500000
   19     1.000000   180.000000     0.866025    -0.500000     0.000000     0.000000     0.000000     0.500000
   20    -1.000000   180.000000     0.866025    -0.500000     0.000000    -0.000000     0.000000     0.500000
   21     1.000000   180.000000     0.000000    -1.000000     0.000000     0.000001     0.000000     0.500000
   22    -1.000000   180.000000     0.000000    -1.000000     0.000000     0.000001     0.000000     0.500000
   23     1.000000   180.000000     0.866025     0.500000     0.000000     0.000000     0.000000     0.500000
   24    -1.000000   180.000000     0.866025     0.500000     0.000000     0.000000     0.000000     0.500000
 
 Subroutine IBZKPT returns following result:
 ===========================================
 
 Found    910 irreducible k-points:
 
 Following reciprocal coordinates:
            Coordinates               Weight
  0.000000  0.000000  0.025000      2.000000
  0.033333 -0.000000  0.025000     12.000000
  0.066667 -0.000000  0.025000     12.000000
  0.100000 -0.000000  0.025000     12.000000
  0.133333 -0.000000  0.025000     12.000000
  0.166667 -0.000000  0.025000     12.000000
  0.200000 -0.000000  0.025000     12.000000
  0.233333 -0.000000  0.025000     12.000000
  0.266667 -0.000000  0.025000     12.000000
  0.300000  0.000000  0.025000     12.000000
  0.333333 -0.000000  0.025000     12.000000
  0.366667  0.000000  0.025000     12.000000
  0.400000 -0.000000  0.025000     12.000000
  0.433333 -0.000000  0.025000     12.000000
  0.466667 -0.000000  0.025000     12.000000
  0.500000 -0.000000  0.025000      6.000000
  0.033333  0.033333  0.025000     12.000000
  0.066667  0.033333  0.025000     24.000000
  0.100000  0.033333  0.025000     24.000000
  0.133333  0.033333  0.025000     24.000000
  0.166667  0.033333  0.025000     24.000000
  0.200000  0.033333  0.025000     24.000000
  0.233333  0.033333  0.025000     24.000000
  0.266667  0.033333  0.025000     24.000000
  0.300000  0.033333  0.025000     24.000000
  0.333333  0.033333  0.025000     24.000000
  0.366667  0.033333  0.025000     24.000000
  0.400000  0.033333  0.025000     24.000000
  0.433333  0.033333  0.025000     24.000000
  0.466667  0.033333  0.025000     24.000000
  0.066667  0.066667  0.025000     12.000000
  0.100000  0.066667  0.025000     24.000000
  0.133333  0.066667  0.025000     24.000000
  0.166667  0.066667  0.025000     24.000000
  0.200000  0.066667  0.025000     24.000000
  0.233333  0.066667  0.025000     24.000000
  0.266667  0.066667  0.025000     24.000000
  0.300000  0.066667  0.025000     24.000000
  0.333333  0.066667  0.025000     24.000000
  0.366667  0.066667  0.025000     24.000000
  0.400000  0.066667  0.025000     24.000000
  0.433333  0.066667  0.025000     24.000000
  0.466667  0.066667  0.025000     12.000000
  0.100000  0.100000  0.025000     12.000000
  0.133333  0.100000  0.025000     24.000000
  0.166667  0.100000  0.025000     24.000000
  0.200000  0.100000  0.025000     24.000000
  0.233333  0.100000  0.025000     24.000000
  0.266667  0.100000  0.025000     24.000000
  0.300000  0.100000  0.025000     24.000000
  0.333333  0.100000  0.025000     24.000000
  0.366667  0.100000  0.025000     24.000000
  0.400000  0.100000  0.025000     24.000000
  0.433333  0.100000  0.025000     24.000000
  0.133333  0.133333  0.025000     12.000000
  0.166667  0.133333  0.025000     24.000000
  0.200000  0.133333  0.025000     24.000000
  0.233333  0.133333  0.025000     24.000000
  0.266667  0.133333  0.025000     24.000000
  0.300000  0.133333  0.025000     24.000000
  0.333333  0.133333  0.025000     24.000000
  0.366667  0.133333  0.025000     24.000000
  0.400000  0.133333  0.025000     24.000000
  0.433333  0.133333  0.025000     12.000000
  0.166667  0.166667  0.025000     12.000000
  0.200000  0.166667  0.025000     24.000000
  0.233333  0.166667  0.025000     24.000000
  0.266667  0.166667  0.025000     24.000000
  0.300000  0.166667  0.025000     24.000000
  0.333333  0.166667  0.025000     24.000000
  0.366667  0.166667  0.025000     24.000000
  0.400000  0.166667  0.025000     24.000000
  0.200000  0.200000  0.025000     12.000000
  0.233333  0.200000  0.025000     24.000000
  0.266667  0.200000  0.025000     24.000000
  0.300000  0.200000  0.025000     24.000000
  0.333333  0.200000  0.025000     24.000000
  0.366667  0.200000  0.025000     24.000000
  0.400000  0.200000  0.025000     12.000000
  0.233333  0.233333  0.025000     12.000000
  0.266667  0.233333  0.025000     24.000000
  0.300000  0.233333  0.025000     24.000000
  0.333333  0.233333  0.025000     24.000000
  0.366667  0.233333  0.025000     24.000000
  0.266667  0.266667  0.025000     12.000000
  0.300000  0.266667  0.025000     24.000000
  0.333333  0.266667  0.025000     24.000000
  0.366667  0.266667  0.025000     12.000000
  0.300000  0.300000  0.025000     12.000000
  0.333333  0.300000  0.025000     24.000000
  0.333333  0.333333  0.025000      4.000000
  0.000000  0.000000  0.075000      2.000000
  0.033333 -0.000000  0.075000     12.000000
  0.066667 -0.000000  0.075000     12.000000
  0.100000 -0.000000  0.075000     12.000000
  0.133333 -0.000000  0.075000     12.000000
  0.166667 -0.000000  0.075000     12.000000
  0.200000 -0.000000  0.075000     12.000000
  0.233333 -0.000000  0.075000     12.000000
  0.266667 -0.000000  0.075000     12.000000
  0.300000  0.000000  0.075000     12.000000
  0.333333 -0.000000  0.075000     12.000000
  0.366667  0.000000  0.075000     12.000000
  0.400000 -0.000000  0.075000     12.000000
  0.433333 -0.000000  0.075000     12.000000
  0.466667 -0.000000  0.075000     12.000000
  0.500000 -0.000000  0.075000      6.000000
  0.033333  0.033333  0.075000     12.000000
  0.066667  0.033333  0.075000     24.000000
  0.100000  0.033333  0.075000     24.000000
  0.133333  0.033333  0.075000     24.000000
  0.166667  0.033333  0.075000     24.000000
  0.200000  0.033333  0.075000     24.000000
  0.233333  0.033333  0.075000     24.000000
  0.266667  0.033333  0.075000     24.000000
  0.300000  0.033333  0.075000     24.000000
  0.333333  0.033333  0.075000     24.000000
  0.366667  0.033333  0.075000     24.000000
  0.400000  0.033333  0.075000     24.000000
  0.433333  0.033333  0.075000     24.000000
  0.466667  0.033333  0.075000     24.000000
  0.066667  0.066667  0.075000     12.000000
  0.100000  0.066667  0.075000     24.000000
  0.133333  0.066667  0.075000     24.000000
  0.166667  0.066667  0.075000     24.000000
  0.200000  0.066667  0.075000     24.000000
  0.233333  0.066667  0.075000     24.000000
  0.266667  0.066667  0.075000     24.000000
  0.300000  0.066667  0.075000     24.000000
  0.333333  0.066667  0.075000     24.000000
  0.366667  0.066667  0.075000     24.000000
  0.400000  0.066667  0.075000     24.000000
  0.433333  0.066667  0.075000     24.000000
  0.466667  0.066667  0.075000     12.000000
  0.100000  0.100000  0.075000     12.000000
  0.133333  0.100000  0.075000     24.000000
  0.166667  0.100000  0.075000     24.000000
  0.200000  0.100000  0.075000     24.000000
  0.233333  0.100000  0.075000     24.000000
  0.266667  0.100000  0.075000     24.000000
  0.300000  0.100000  0.075000     24.000000
  0.333333  0.100000  0.075000     24.000000
  0.366667  0.100000  0.075000     24.000000
  0.400000  0.100000  0.075000     24.000000
  0.433333  0.100000  0.075000     24.000000
  0.133333  0.133333  0.075000     12.000000
  0.166667  0.133333  0.075000     24.000000
  0.200000  0.133333  0.075000     24.000000
  0.233333  0.133333  0.075000     24.000000
  0.266667  0.133333  0.075000     24.000000
  0.300000  0.133333  0.075000     24.000000
  0.333333  0.133333  0.075000     24.000000
  0.366667  0.133333  0.075000     24.000000
  0.400000  0.133333  0.075000     24.000000
  0.433333  0.133333  0.075000     12.000000
  0.166667  0.166667  0.075000     12.000000
  0.200000  0.166667  0.075000     24.000000
  0.233333  0.166667  0.075000     24.000000
  0.266667  0.166667  0.075000     24.000000
  0.300000  0.166667  0.075000     24.000000
  0.333333  0.166667  0.075000     24.000000
  0.366667  0.166667  0.075000     24.000000
  0.400000  0.166667  0.075000     24.000000
  0.200000  0.200000  0.075000     12.000000
  0.233333  0.200000  0.075000     24.000000
  0.266667  0.200000  0.075000     24.000000
  0.300000  0.200000  0.075000     24.000000
  0.333333  0.200000  0.075000     24.000000
  0.366667  0.200000  0.075000     24.000000
  0.400000  0.200000  0.075000     12.000000
  0.233333  0.233333  0.075000     12.000000
  0.266667  0.233333  0.075000     24.000000
  0.300000  0.233333  0.075000     24.000000
  0.333333  0.233333  0.075000     24.000000
  0.366667  0.233333  0.075000     24.000000
  0.266667  0.266667  0.075000     12.000000
  0.300000  0.266667  0.075000     24.000000
  0.333333  0.266667  0.075000     24.000000
  0.366667  0.266667  0.075000     12.000000
  0.300000  0.300000  0.075000     12.000000
  0.333333  0.300000  0.075000     24.000000
  0.333333  0.333333  0.075000      4.000000
  0.000000  0.000000  0.125000      2.000000
  0.033333 -0.000000  0.125000     12.000000
  0.066667 -0.000000  0.125000     12.000000
  0.100000 -0.000000  0.125000     12.000000
  0.133333 -0.000000  0.125000     12.000000
  0.166667 -0.000000  0.125000     12.000000
  0.200000 -0.000000  0.125000     12.000000
  0.233333 -0.000000  0.125000     12.000000
  0.266667 -0.000000  0.125000     12.000000
  0.300000  0.000000  0.125000     12.000000
  0.333333 -0.000000  0.125000     12.000000
  0.366667  0.000000  0.125000     12.000000
  0.400000 -0.000000  0.125000     12.000000
  0.433333 -0.000000  0.125000     12.000000
  0.466667 -0.000000  0.125000     12.000000
  0.500000 -0.000000  0.125000      6.000000
  0.033333  0.033333  0.125000     12.000000
  0.066667  0.033333  0.125000     24.000000
  0.100000  0.033333  0.125000     24.000000
  0.133333  0.033333  0.125000     24.000000
  0.166667  0.033333  0.125000     24.000000
  0.200000  0.033333  0.125000     24.000000
  0.233333  0.033333  0.125000     24.000000
  0.266667  0.033333  0.125000     24.000000
  0.300000  0.033333  0.125000     24.000000
  0.333333  0.033333  0.125000     24.000000
  0.366667  0.033333  0.125000     24.000000
  0.400000  0.033333  0.125000     24.000000
  0.433333  0.033333  0.125000     24.000000
  0.466667  0.033333  0.125000     24.000000
  0.066667  0.066667  0.125000     12.000000
  0.100000  0.066667  0.125000     24.000000
  0.133333  0.066667  0.125000     24.000000
  0.166667  0.066667  0.125000     24.000000
  0.200000  0.066667  0.125000     24.000000
  0.233333  0.066667  0.125000     24.000000
  0.266667  0.066667  0.125000     24.000000
  0.300000  0.066667  0.125000     24.000000
  0.333333  0.066667  0.125000     24.000000
  0.366667  0.066667  0.125000     24.000000
  0.400000  0.066667  0.125000     24.000000
  0.433333  0.066667  0.125000     24.000000
  0.466667  0.066667  0.125000     12.000000
  0.100000  0.100000  0.125000     12.000000
  0.133333  0.100000  0.125000     24.000000
  0.166667  0.100000  0.125000     24.000000
  0.200000  0.100000  0.125000     24.000000
  0.233333  0.100000  0.125000     24.000000
  0.266667  0.100000  0.125000     24.000000
  0.300000  0.100000  0.125000     24.000000
  0.333333  0.100000  0.125000     24.000000
  0.366667  0.100000  0.125000     24.000000
  0.400000  0.100000  0.125000     24.000000
  0.433333  0.100000  0.125000     24.000000
  0.133333  0.133333  0.125000     12.000000
  0.166667  0.133333  0.125000     24.000000
  0.200000  0.133333  0.125000     24.000000
  0.233333  0.133333  0.125000     24.000000
  0.266667  0.133333  0.125000     24.000000
  0.300000  0.133333  0.125000     24.000000
  0.333333  0.133333  0.125000     24.000000
  0.366667  0.133333  0.125000     24.000000
  0.400000  0.133333  0.125000     24.000000
  0.433333  0.133333  0.125000     12.000000
  0.166667  0.166667  0.125000     12.000000
  0.200000  0.166667  0.125000     24.000000
  0.233333  0.166667  0.125000     24.000000
  0.266667  0.166667  0.125000     24.000000
  0.300000  0.166667  0.125000     24.000000
  0.333333  0.166667  0.125000     24.000000
  0.366667  0.166667  0.125000     24.000000
  0.400000  0.166667  0.125000     24.000000
  0.200000  0.200000  0.125000     12.000000
  0.233333  0.200000  0.125000     24.000000
  0.266667  0.200000  0.125000     24.000000
  0.300000  0.200000  0.125000     24.000000
  0.333333  0.200000  0.125000     24.000000
  0.366667  0.200000  0.125000     24.000000
  0.400000  0.200000  0.125000     12.000000
  0.233333  0.233333  0.125000     12.000000
  0.266667  0.233333  0.125000     24.000000
  0.300000  0.233333  0.125000     24.000000
  0.333333  0.233333  0.125000     24.000000
  0.366667  0.233333  0.125000     24.000000
  0.266667  0.266667  0.125000     12.000000
  0.300000  0.266667  0.125000     24.000000
  0.333333  0.266667  0.125000     24.000000
  0.366667  0.266667  0.125000     12.000000
  0.300000  0.300000  0.125000     12.000000
  0.333333  0.300000  0.125000     24.000000
  0.333333  0.333333  0.125000      4.000000
  0.000000  0.000000  0.175000      2.000000
  0.033333 -0.000000  0.175000     12.000000
  0.066667 -0.000000  0.175000     12.000000
  0.100000 -0.000000  0.175000     12.000000
  0.133333 -0.000000  0.175000     12.000000
  0.166667 -0.000000  0.175000     12.000000
  0.200000 -0.000000  0.175000     12.000000
  0.233333 -0.000000  0.175000     12.000000
  0.266667 -0.000000  0.175000     12.000000
  0.300000  0.000000  0.175000     12.000000
  0.333333 -0.000000  0.175000     12.000000
  0.366667  0.000000  0.175000     12.000000
  0.400000 -0.000000  0.175000     12.000000
  0.433333 -0.000000  0.175000     12.000000
  0.466667 -0.000000  0.175000     12.000000
  0.500000 -0.000000  0.175000      6.000000
  0.033333  0.033333  0.175000     12.000000
  0.066667  0.033333  0.175000     24.000000
  0.100000  0.033333  0.175000     24.000000
  0.133333  0.033333  0.175000     24.000000
  0.166667  0.033333  0.175000     24.000000
  0.200000  0.033333  0.175000     24.000000
  0.233333  0.033333  0.175000     24.000000
  0.266667  0.033333  0.175000     24.000000
  0.300000  0.033333  0.175000     24.000000
  0.333333  0.033333  0.175000     24.000000
  0.366667  0.033333  0.175000     24.000000
  0.400000  0.033333  0.175000     24.000000
  0.433333  0.033333  0.175000     24.000000
  0.466667  0.033333  0.175000     24.000000
  0.066667  0.066667  0.175000     12.000000
  0.100000  0.066667  0.175000     24.000000
  0.133333  0.066667  0.175000     24.000000
  0.166667  0.066667  0.175000     24.000000
  0.200000  0.066667  0.175000     24.000000
  0.233333  0.066667  0.175000     24.000000
  0.266667  0.066667  0.175000     24.000000
  0.300000  0.066667  0.175000     24.000000
  0.333333  0.066667  0.175000     24.000000
  0.366667  0.066667  0.175000     24.000000
  0.400000  0.066667  0.175000     24.000000
  0.433333  0.066667  0.175000     24.000000
  0.466667  0.066667  0.175000     12.000000
  0.100000  0.100000  0.175000     12.000000
  0.133333  0.100000  0.175000     24.000000
  0.166667  0.100000  0.175000     24.000000
  0.200000  0.100000  0.175000     24.000000
  0.233333  0.100000  0.175000     24.000000
  0.266667  0.100000  0.175000     24.000000
  0.300000  0.100000  0.175000     24.000000
  0.333333  0.100000  0.175000     24.000000
  0.366667  0.100000  0.175000     24.000000
  0.400000  0.100000  0.175000     24.000000
  0.433333  0.100000  0.175000     24.000000
  0.133333  0.133333  0.175000     12.000000
  0.166667  0.133333  0.175000     24.000000
  0.200000  0.133333  0.175000     24.000000
  0.233333  0.133333  0.175000     24.000000
  0.266667  0.133333  0.175000     24.000000
  0.300000  0.133333  0.175000     24.000000
  0.333333  0.133333  0.175000     24.000000
  0.366667  0.133333  0.175000     24.000000
  0.400000  0.133333  0.175000     24.000000
  0.433333  0.133333  0.175000     12.000000
  0.166667  0.166667  0.175000     12.000000
  0.200000  0.166667  0.175000     24.000000
  0.233333  0.166667  0.175000     24.000000
  0.266667  0.166667  0.175000     24.000000
  0.300000  0.166667  0.175000     24.000000
  0.333333  0.166667  0.175000     24.000000
  0.366667  0.166667  0.175000     24.000000
  0.400000  0.166667  0.175000     24.000000
  0.200000  0.200000  0.175000     12.000000
  0.233333  0.200000  0.175000     24.000000
  0.266667  0.200000  0.175000     24.000000
  0.300000  0.200000  0.175000     24.000000
  0.333333  0.200000  0.175000     24.000000
  0.366667  0.200000  0.175000     24.000000
  0.400000  0.200000  0.175000     12.000000
  0.233333  0.233333  0.175000     12.000000
  0.266667  0.233333  0.175000     24.000000
  0.300000  0.233333  0.175000     24.000000
  0.333333  0.233333  0.175000     24.000000
  0.366667  0.233333  0.175000     24.000000
  0.266667  0.266667  0.175000     12.000000
  0.300000  0.266667  0.175000     24.000000
  0.333333  0.266667  0.175000     24.000000
  0.366667  0.266667  0.175000     12.000000
  0.300000  0.300000  0.175000     12.000000
  0.333333  0.300000  0.175000     24.000000
  0.333333  0.333333  0.175000      4.000000
  0.000000  0.000000  0.225000      2.000000
  0.033333 -0.000000  0.225000     12.000000
  0.066667 -0.000000  0.225000     12.000000
  0.100000 -0.000000  0.225000     12.000000
  0.133333 -0.000000  0.225000     12.000000
  0.166667 -0.000000  0.225000     12.000000
  0.200000 -0.000000  0.225000     12.000000
  0.233333 -0.000000  0.225000     12.000000
  0.266667 -0.000000  0.225000     12.000000
  0.300000  0.000000  0.225000     12.000000
  0.333333 -0.000000  0.225000     12.000000
  0.366667  0.000000  0.225000     12.000000
  0.400000 -0.000000  0.225000     12.000000
  0.433333 -0.000000  0.225000     12.000000
  0.466667 -0.000000  0.225000     12.000000
  0.500000 -0.000000  0.225000      6.000000
  0.033333  0.033333  0.225000     12.000000
  0.066667  0.033333  0.225000     24.000000
  0.100000  0.033333  0.225000     24.000000
  0.133333  0.033333  0.225000     24.000000
  0.166667  0.033333  0.225000     24.000000
  0.200000  0.033333  0.225000     24.000000
  0.233333  0.033333  0.225000     24.000000
  0.266667  0.033333  0.225000     24.000000
  0.300000  0.033333  0.225000     24.000000
  0.333333  0.033333  0.225000     24.000000
  0.366667  0.033333  0.225000     24.000000
  0.400000  0.033333  0.225000     24.000000
  0.433333  0.033333  0.225000     24.000000
  0.466667  0.033333  0.225000     24.000000
  0.066667  0.066667  0.225000     12.000000
  0.100000  0.066667  0.225000     24.000000
  0.133333  0.066667  0.225000     24.000000
  0.166667  0.066667  0.225000     24.000000
  0.200000  0.066667  0.225000     24.000000
  0.233333  0.066667  0.225000     24.000000
  0.266667  0.066667  0.225000     24.000000
  0.300000  0.066667  0.225000     24.000000
  0.333333  0.066667  0.225000     24.000000
  0.366667  0.066667  0.225000     24.000000
  0.400000  0.066667  0.225000     24.000000
  0.433333  0.066667  0.225000     24.000000
  0.466667  0.066667  0.225000     12.000000
  0.100000  0.100000  0.225000     12.000000
  0.133333  0.100000  0.225000     24.000000
  0.166667  0.100000  0.225000     24.000000
  0.200000  0.100000  0.225000     24.000000
  0.233333  0.100000  0.225000     24.000000
  0.266667  0.100000  0.225000     24.000000
  0.300000  0.100000  0.225000     24.000000
  0.333333  0.100000  0.225000     24.000000
  0.366667  0.100000  0.225000     24.000000
  0.400000  0.100000  0.225000     24.000000
  0.433333  0.100000  0.225000     24.000000
  0.133333  0.133333  0.225000     12.000000
  0.166667  0.133333  0.225000     24.000000
  0.200000  0.133333  0.225000     24.000000
  0.233333  0.133333  0.225000     24.000000
  0.266667  0.133333  0.225000     24.000000
  0.300000  0.133333  0.225000     24.000000
  0.333333  0.133333  0.225000     24.000000
  0.366667  0.133333  0.225000     24.000000
  0.400000  0.133333  0.225000     24.000000
  0.433333  0.133333  0.225000     12.000000
  0.166667  0.166667  0.225000     12.000000
  0.200000  0.166667  0.225000     24.000000
  0.233333  0.166667  0.225000     24.000000
  0.266667  0.166667  0.225000     24.000000
  0.300000  0.166667  0.225000     24.000000
  0.333333  0.166667  0.225000     24.000000
  0.366667  0.166667  0.225000     24.000000
  0.400000  0.166667  0.225000     24.000000
  0.200000  0.200000  0.225000     12.000000
  0.233333  0.200000  0.225000     24.000000
  0.266667  0.200000  0.225000     24.000000
  0.300000  0.200000  0.225000     24.000000
  0.333333  0.200000  0.225000     24.000000
  0.366667  0.200000  0.225000     24.000000
  0.400000  0.200000  0.225000     12.000000
  0.233333  0.233333  0.225000     12.000000
  0.266667  0.233333  0.225000     24.000000
  0.300000  0.233333  0.225000     24.000000
  0.333333  0.233333  0.225000     24.000000
  0.366667  0.233333  0.225000     24.000000
  0.266667  0.266667  0.225000     12.000000
  0.300000  0.266667  0.225000     24.000000
  0.333333  0.266667  0.225000     24.000000
  0.366667  0.266667  0.225000     12.000000
  0.300000  0.300000  0.225000     12.000000
  0.333333  0.300000  0.225000     24.000000
  0.333333  0.333333  0.225000      4.000000
  0.000000  0.000000  0.275000      2.000000
  0.033333 -0.000000  0.275000     12.000000
  0.066667 -0.000000  0.275000     12.000000
  0.100000 -0.000000  0.275000     12.000000
  0.133333 -0.000000  0.275000     12.000000
  0.166667 -0.000000  0.275000     12.000000
  0.200000 -0.000000  0.275000     12.000000
  0.233333 -0.000000  0.275000     12.000000
  0.266667 -0.000000  0.275000     12.000000
  0.300000  0.000000  0.275000     12.000000
  0.333333 -0.000000  0.275000     12.000000
  0.366667  0.000000  0.275000     12.000000
  0.400000 -0.000000  0.275000     12.000000
  0.433333 -0.000000  0.275000     12.000000
  0.466667 -0.000000  0.275000     12.000000
  0.500000 -0.000000  0.275000      6.000000
  0.033333  0.033333  0.275000     12.000000
  0.066667  0.033333  0.275000     24.000000
  0.100000  0.033333  0.275000     24.000000
  0.133333  0.033333  0.275000     24.000000
  0.166667  0.033333  0.275000     24.000000
  0.200000  0.033333  0.275000     24.000000
  0.233333  0.033333  0.275000     24.000000
  0.266667  0.033333  0.275000     24.000000
  0.300000  0.033333  0.275000     24.000000
  0.333333  0.033333  0.275000     24.000000
  0.366667  0.033333  0.275000     24.000000
  0.400000  0.033333  0.275000     24.000000
  0.433333  0.033333  0.275000     24.000000
  0.466667  0.033333  0.275000     24.000000
  0.066667  0.066667  0.275000     12.000000
  0.100000  0.066667  0.275000     24.000000
  0.133333  0.066667  0.275000     24.000000
  0.166667  0.066667  0.275000     24.000000
  0.200000  0.066667  0.275000     24.000000
  0.233333  0.066667  0.275000     24.000000
  0.266667  0.066667  0.275000     24.000000
  0.300000  0.066667  0.275000     24.000000
  0.333333  0.066667  0.275000     24.000000
  0.366667  0.066667  0.275000     24.000000
  0.400000  0.066667  0.275000     24.000000
  0.433333  0.066667  0.275000     24.000000
  0.466667  0.066667  0.275000     12.000000
  0.100000  0.100000  0.275000     12.000000
  0.133333  0.100000  0.275000     24.000000
  0.166667  0.100000  0.275000     24.000000
  0.200000  0.100000  0.275000     24.000000
  0.233333  0.100000  0.275000     24.000000
  0.266667  0.100000  0.275000     24.000000
  0.300000  0.100000  0.275000     24.000000
  0.333333  0.100000  0.275000     24.000000
  0.366667  0.100000  0.275000     24.000000
  0.400000  0.100000  0.275000     24.000000
  0.433333  0.100000  0.275000     24.000000
  0.133333  0.133333  0.275000     12.000000
  0.166667  0.133333  0.275000     24.000000
  0.200000  0.133333  0.275000     24.000000
  0.233333  0.133333  0.275000     24.000000
  0.266667  0.133333  0.275000     24.000000
  0.300000  0.133333  0.275000     24.000000
  0.333333  0.133333  0.275000     24.000000
  0.366667  0.133333  0.275000     24.000000
  0.400000  0.133333  0.275000     24.000000
  0.433333  0.133333  0.275000     12.000000
  0.166667  0.166667  0.275000     12.000000
  0.200000  0.166667  0.275000     24.000000
  0.233333  0.166667  0.275000     24.000000
  0.266667  0.166667  0.275000     24.000000
  0.300000  0.166667  0.275000     24.000000
  0.333333  0.166667  0.275000     24.000000
  0.366667  0.166667  0.275000     24.000000
  0.400000  0.166667  0.275000     24.000000
  0.200000  0.200000  0.275000     12.000000
  0.233333  0.200000  0.275000     24.000000
  0.266667  0.200000  0.275000     24.000000
  0.300000  0.200000  0.275000     24.000000
  0.333333  0.200000  0.275000     24.000000
  0.366667  0.200000  0.275000     24.000000
  0.400000  0.200000  0.275000     12.000000
  0.233333  0.233333  0.275000     12.000000
  0.266667  0.233333  0.275000     24.000000
  0.300000  0.233333  0.275000     24.000000
  0.333333  0.233333  0.275000     24.000000
  0.366667  0.233333  0.275000     24.000000
  0.266667  0.266667  0.275000     12.000000
  0.300000  0.266667  0.275000     24.000000
  0.333333  0.266667  0.275000     24.000000
  0.366667  0.266667  0.275000     12.000000
  0.300000  0.300000  0.275000     12.000000
  0.333333  0.300000  0.275000     24.000000
  0.333333  0.333333  0.275000      4.000000
  0.000000  0.000000  0.325000      2.000000
  0.033333 -0.000000  0.325000     12.000000
  0.066667 -0.000000  0.325000     12.000000
  0.100000 -0.000000  0.325000     12.000000
  0.133333 -0.000000  0.325000     12.000000
  0.166667 -0.000000  0.325000     12.000000
  0.200000 -0.000000  0.325000     12.000000
  0.233333 -0.000000  0.325000     12.000000
  0.266667 -0.000000  0.325000     12.000000
  0.300000  0.000000  0.325000     12.000000
  0.333333 -0.000000  0.325000     12.000000
  0.366667  0.000000  0.325000     12.000000
  0.400000 -0.000000  0.325000     12.000000
  0.433333 -0.000000  0.325000     12.000000
  0.466667 -0.000000  0.325000     12.000000
  0.500000 -0.000000  0.325000      6.000000
  0.033333  0.033333  0.325000     12.000000
  0.066667  0.033333  0.325000     24.000000
  0.100000  0.033333  0.325000     24.000000
  0.133333  0.033333  0.325000     24.000000
  0.166667  0.033333  0.325000     24.000000
  0.200000  0.033333  0.325000     24.000000
  0.233333  0.033333  0.325000     24.000000
  0.266667  0.033333  0.325000     24.000000
  0.300000  0.033333  0.325000     24.000000
  0.333333  0.033333  0.325000     24.000000
  0.366667  0.033333  0.325000     24.000000
  0.400000  0.033333  0.325000     24.000000
  0.433333  0.033333  0.325000     24.000000
  0.466667  0.033333  0.325000     24.000000
  0.066667  0.066667  0.325000     12.000000
  0.100000  0.066667  0.325000     24.000000
  0.133333  0.066667  0.325000     24.000000
  0.166667  0.066667  0.325000     24.000000
  0.200000  0.066667  0.325000     24.000000
  0.233333  0.066667  0.325000     24.000000
  0.266667  0.066667  0.325000     24.000000
  0.300000  0.066667  0.325000     24.000000
  0.333333  0.066667  0.325000     24.000000
  0.366667  0.066667  0.325000     24.000000
  0.400000  0.066667  0.325000     24.000000
  0.433333  0.066667  0.325000     24.000000
  0.466667  0.066667  0.325000     12.000000
  0.100000  0.100000  0.325000     12.000000
  0.133333  0.100000  0.325000     24.000000
  0.166667  0.100000  0.325000     24.000000
  0.200000  0.100000  0.325000     24.000000
  0.233333  0.100000  0.325000     24.000000
  0.266667  0.100000  0.325000     24.000000
  0.300000  0.100000  0.325000     24.000000
  0.333333  0.100000  0.325000     24.000000
  0.366667  0.100000  0.325000     24.000000
  0.400000  0.100000  0.325000     24.000000
  0.433333  0.100000  0.325000     24.000000
  0.133333  0.133333  0.325000     12.000000
  0.166667  0.133333  0.325000     24.000000
  0.200000  0.133333  0.325000     24.000000
  0.233333  0.133333  0.325000     24.000000
  0.266667  0.133333  0.325000     24.000000
  0.300000  0.133333  0.325000     24.000000
  0.333333  0.133333  0.325000     24.000000
  0.366667  0.133333  0.325000     24.000000
  0.400000  0.133333  0.325000     24.000000
  0.433333  0.133333  0.325000     12.000000
  0.166667  0.166667  0.325000     12.000000
  0.200000  0.166667  0.325000     24.000000
  0.233333  0.166667  0.325000     24.000000
  0.266667  0.166667  0.325000     24.000000
  0.300000  0.166667  0.325000     24.000000
  0.333333  0.166667  0.325000     24.000000
  0.366667  0.166667  0.325000     24.000000
  0.400000  0.166667  0.325000     24.000000
  0.200000  0.200000  0.325000     12.000000
  0.233333  0.200000  0.325000     24.000000
  0.266667  0.200000  0.325000     24.000000
  0.300000  0.200000  0.325000     24.000000
  0.333333  0.200000  0.325000     24.000000
  0.366667  0.200000  0.325000     24.000000
  0.400000  0.200000  0.325000     12.000000
  0.233333  0.233333  0.325000     12.000000
  0.266667  0.233333  0.325000     24.000000
  0.300000  0.233333  0.325000     24.000000
  0.333333  0.233333  0.325000     24.000000
  0.366667  0.233333  0.325000     24.000000
  0.266667  0.266667  0.325000     12.000000
  0.300000  0.266667  0.325000     24.000000
  0.333333  0.266667  0.325000     24.000000
  0.366667  0.266667  0.325000     12.000000
  0.300000  0.300000  0.325000     12.000000
  0.333333  0.300000  0.325000     24.000000
  0.333333  0.333333  0.325000      4.000000
  0.000000  0.000000  0.375000      2.000000
  0.033333 -0.000000  0.375000     12.000000
  0.066667 -0.000000  0.375000     12.000000
  0.100000 -0.000000  0.375000     12.000000
  0.133333 -0.000000  0.375000     12.000000
  0.166667 -0.000000  0.375000     12.000000
  0.200000 -0.000000  0.375000     12.000000
  0.233333 -0.000000  0.375000     12.000000
  0.266667 -0.000000  0.375000     12.000000
  0.300000  0.000000  0.375000     12.000000
  0.333333 -0.000000  0.375000     12.000000
  0.366667  0.000000  0.375000     12.000000
  0.400000 -0.000000  0.375000     12.000000
  0.433333 -0.000000  0.375000     12.000000
  0.466667 -0.000000  0.375000     12.000000
  0.500000 -0.000000  0.375000      6.000000
  0.033333  0.033333  0.375000     12.000000
  0.066667  0.033333  0.375000     24.000000
  0.100000  0.033333  0.375000     24.000000
  0.133333  0.033333  0.375000     24.000000
  0.166667  0.033333  0.375000     24.000000
  0.200000  0.033333  0.375000     24.000000
  0.233333  0.033333  0.375000     24.000000
  0.266667  0.033333  0.375000     24.000000
  0.300000  0.033333  0.375000     24.000000
  0.333333  0.033333  0.375000     24.000000
  0.366667  0.033333  0.375000     24.000000
  0.400000  0.033333  0.375000     24.000000
  0.433333  0.033333  0.375000     24.000000
  0.466667  0.033333  0.375000     24.000000
  0.066667  0.066667  0.375000     12.000000
  0.100000  0.066667  0.375000     24.000000
  0.133333  0.066667  0.375000     24.000000
  0.166667  0.066667  0.375000     24.000000
  0.200000  0.066667  0.375000     24.000000
  0.233333  0.066667  0.375000     24.000000
  0.266667  0.066667  0.375000     24.000000
  0.300000  0.066667  0.375000     24.000000
  0.333333  0.066667  0.375000     24.000000
  0.366667  0.066667  0.375000     24.000000
  0.400000  0.066667  0.375000     24.000000
  0.433333  0.066667  0.375000     24.000000
  0.466667  0.066667  0.375000     12.000000
  0.100000  0.100000  0.375000     12.000000
  0.133333  0.100000  0.375000     24.000000
  0.166667  0.100000  0.375000     24.000000
  0.200000  0.100000  0.375000     24.000000
  0.233333  0.100000  0.375000     24.000000
  0.266667  0.100000  0.375000     24.000000
  0.300000  0.100000  0.375000     24.000000
  0.333333  0.100000  0.375000     24.000000
  0.366667  0.100000  0.375000     24.000000
  0.400000  0.100000  0.375000     24.000000
  0.433333  0.100000  0.375000     24.000000
  0.133333  0.133333  0.375000     12.000000
  0.166667  0.133333  0.375000     24.000000
  0.200000  0.133333  0.375000     24.000000
  0.233333  0.133333  0.375000     24.000000
  0.266667  0.133333  0.375000     24.000000
  0.300000  0.133333  0.375000     24.000000
  0.333333  0.133333  0.375000     24.000000
  0.366667  0.133333  0.375000     24.000000
  0.400000  0.133333  0.375000     24.000000
  0.433333  0.133333  0.375000     12.000000
  0.166667  0.166667  0.375000     12.000000
  0.200000  0.166667  0.375000     24.000000
  0.233333  0.166667  0.375000     24.000000
  0.266667  0.166667  0.375000     24.000000
  0.300000  0.166667  0.375000     24.000000
  0.333333  0.166667  0.375000     24.000000
  0.366667  0.166667  0.375000     24.000000
  0.400000  0.166667  0.375000     24.000000
  0.200000  0.200000  0.375000     12.000000
  0.233333  0.200000  0.375000     24.000000
  0.266667  0.200000  0.375000     24.000000
  0.300000  0.200000  0.375000     24.000000
  0.333333  0.200000  0.375000     24.000000
  0.366667  0.200000  0.375000     24.000000
  0.400000  0.200000  0.375000     12.000000
  0.233333  0.233333  0.375000     12.000000
  0.266667  0.233333  0.375000     24.000000
  0.300000  0.233333  0.375000     24.000000
  0.333333  0.233333  0.375000     24.000000
  0.366667  0.233333  0.375000     24.000000
  0.266667  0.266667  0.375000     12.000000
  0.300000  0.266667  0.375000     24.000000
  0.333333  0.266667  0.375000     24.000000
  0.366667  0.266667  0.375000     12.000000
  0.300000  0.300000  0.375000     12.000000
  0.333333  0.300000  0.375000     24.000000
  0.333333  0.333333  0.375000      4.000000
  0.000000  0.000000  0.425000      2.000000
  0.033333 -0.000000  0.425000     12.000000
  0.066667 -0.000000  0.425000     12.000000
  0.100000 -0.000000  0.425000     12.000000
  0.133333 -0.000000  0.425000     12.000000
  0.166667 -0.000000  0.425000     12.000000
  0.200000 -0.000000  0.425000     12.000000
  0.233333 -0.000000  0.425000     12.000000
  0.266667 -0.000000  0.425000     12.000000
  0.300000  0.000000  0.425000     12.000000
  0.333333 -0.000000  0.425000     12.000000
  0.366667  0.000000  0.425000     12.000000
  0.400000 -0.000000  0.425000     12.000000
  0.433333 -0.000000  0.425000     12.000000
  0.466667 -0.000000  0.425000     12.000000
  0.500000 -0.000000  0.425000      6.000000
  0.033333  0.033333  0.425000     12.000000
  0.066667  0.033333  0.425000     24.000000
  0.100000  0.033333  0.425000     24.000000
  0.133333  0.033333  0.425000     24.000000
  0.166667  0.033333  0.425000     24.000000
  0.200000  0.033333  0.425000     24.000000
  0.233333  0.033333  0.425000     24.000000
  0.266667  0.033333  0.425000     24.000000
  0.300000  0.033333  0.425000     24.000000
  0.333333  0.033333  0.425000     24.000000
  0.366667  0.033333  0.425000     24.000000
  0.400000  0.033333  0.425000     24.000000
  0.433333  0.033333  0.425000     24.000000
  0.466667  0.033333  0.425000     24.000000
  0.066667  0.066667  0.425000     12.000000
  0.100000  0.066667  0.425000     24.000000
  0.133333  0.066667  0.425000     24.000000
  0.166667  0.066667  0.425000     24.000000
  0.200000  0.066667  0.425000     24.000000
  0.233333  0.066667  0.425000     24.000000
  0.266667  0.066667  0.425000     24.000000
  0.300000  0.066667  0.425000     24.000000
  0.333333  0.066667  0.425000     24.000000
  0.366667  0.066667  0.425000     24.000000
  0.400000  0.066667  0.425000     24.000000
  0.433333  0.066667  0.425000     24.000000
  0.466667  0.066667  0.425000     12.000000
  0.100000  0.100000  0.425000     12.000000
  0.133333  0.100000  0.425000     24.000000
  0.166667  0.100000  0.425000     24.000000
  0.200000  0.100000  0.425000     24.000000
  0.233333  0.100000  0.425000     24.000000
  0.266667  0.100000  0.425000     24.000000
  0.300000  0.100000  0.425000     24.000000
  0.333333  0.100000  0.425000     24.000000
  0.366667  0.100000  0.425000     24.000000
  0.400000  0.100000  0.425000     24.000000
  0.433333  0.100000  0.425000     24.000000
  0.133333  0.133333  0.425000     12.000000
  0.166667  0.133333  0.425000     24.000000
  0.200000  0.133333  0.425000     24.000000
  0.233333  0.133333  0.425000     24.000000
  0.266667  0.133333  0.425000     24.000000
  0.300000  0.133333  0.425000     24.000000
  0.333333  0.133333  0.425000     24.000000
  0.366667  0.133333  0.425000     24.000000
  0.400000  0.133333  0.425000     24.000000
  0.433333  0.133333  0.425000     12.000000
  0.166667  0.166667  0.425000     12.000000
  0.200000  0.166667  0.425000     24.000000
  0.233333  0.166667  0.425000     24.000000
  0.266667  0.166667  0.425000     24.000000
  0.300000  0.166667  0.425000     24.000000
  0.333333  0.166667  0.425000     24.000000
  0.366667  0.166667  0.425000     24.000000
  0.400000  0.166667  0.425000     24.000000
  0.200000  0.200000  0.425000     12.000000
  0.233333  0.200000  0.425000     24.000000
  0.266667  0.200000  0.425000     24.000000
  0.300000  0.200000  0.425000     24.000000
  0.333333  0.200000  0.425000     24.000000
  0.366667  0.200000  0.425000     24.000000
  0.400000  0.200000  0.425000     12.000000
  0.233333  0.233333  0.425000     12.000000
  0.266667  0.233333  0.425000     24.000000
  0.300000  0.233333  0.425000     24.000000
  0.333333  0.233333  0.425000     24.000000
  0.366667  0.233333  0.425000     24.000000
  0.266667  0.266667  0.425000     12.000000
  0.300000  0.266667  0.425000     24.000000
  0.333333  0.266667  0.425000     24.000000
  0.366667  0.266667  0.425000     12.000000
  0.300000  0.300000  0.425000     12.000000
  0.333333  0.300000  0.425000     24.000000
  0.333333  0.333333  0.425000      4.000000
  0.000000  0.000000  0.475000      2.000000
  0.033333 -0.000000  0.475000     12.000000
  0.066667 -0.000000  0.475000     12.000000
  0.100000 -0.000000  0.475000     12.000000
  0.133333 -0.000000  0.475000     12.000000
  0.166667 -0.000000  0.475000     12.000000
  0.200000 -0.000000  0.475000     12.000000
  0.233333 -0.000000  0.475000     12.000000
  0.266667 -0.000000  0.475000     12.000000
  0.300000  0.000000  0.475000     12.000000
  0.333333 -0.000000  0.475000     12.000000
  0.366667  0.000000  0.475000     12.000000
  0.400000 -0.000000  0.475000     12.000000
  0.433333 -0.000000  0.475000     12.000000
  0.466667 -0.000000  0.475000     12.000000
  0.500000 -0.000000  0.475000      6.000000
  0.033333  0.033333  0.475000     12.000000
  0.066667  0.033333  0.475000     24.000000
  0.100000  0.033333  0.475000     24.000000
  0.133333  0.033333  0.475000     24.000000
  0.166667  0.033333  0.475000     24.000000
  0.200000  0.033333  0.475000     24.000000
  0.233333  0.033333  0.475000     24.000000
  0.266667  0.033333  0.475000     24.000000
  0.300000  0.033333  0.475000     24.000000
  0.333333  0.033333  0.475000     24.000000
  0.366667  0.033333  0.475000     24.000000
  0.400000  0.033333  0.475000     24.000000
  0.433333  0.033333  0.475000     24.000000
  0.466667  0.033333  0.475000     24.000000
  0.066667  0.066667  0.475000     12.000000
  0.100000  0.066667  0.475000     24.000000
  0.133333  0.066667  0.475000     24.000000
  0.166667  0.066667  0.475000     24.000000
  0.200000  0.066667  0.475000     24.000000
  0.233333  0.066667  0.475000     24.000000
  0.266667  0.066667  0.475000     24.000000
  0.300000  0.066667  0.475000     24.000000
  0.333333  0.066667  0.475000     24.000000
  0.366667  0.066667  0.475000     24.000000
  0.400000  0.066667  0.475000     24.000000
  0.433333  0.066667  0.475000     24.000000
  0.466667  0.066667  0.475000     12.000000
  0.100000  0.100000  0.475000     12.000000
  0.133333  0.100000  0.475000     24.000000
  0.166667  0.100000  0.475000     24.000000
  0.200000  0.100000  0.475000     24.000000
  0.233333  0.100000  0.475000     24.000000
  0.266667  0.100000  0.475000     24.000000
  0.300000  0.100000  0.475000     24.000000
  0.333333  0.100000  0.475000     24.000000
  0.366667  0.100000  0.475000     24.000000
  0.400000  0.100000  0.475000     24.000000
  0.433333  0.100000  0.475000     24.000000
  0.133333  0.133333  0.475000     12.000000
  0.166667  0.133333  0.475000     24.000000
  0.200000  0.133333  0.475000     24.000000
  0.233333  0.133333  0.475000     24.000000
  0.266667  0.133333  0.475000     24.000000
  0.300000  0.133333  0.475000     24.000000
  0.333333  0.133333  0.475000     24.000000
  0.366667  0.133333  0.475000     24.000000
  0.400000  0.133333  0.475000     24.000000
  0.433333  0.133333  0.475000     12.000000
  0.166667  0.166667  0.475000     12.000000
  0.200000  0.166667  0.475000     24.000000
  0.233333  0.166667  0.475000     24.000000
  0.266667  0.166667  0.475000     24.000000
  0.300000  0.166667  0.475000     24.000000
  0.333333  0.166667  0.475000     24.000000
  0.366667  0.166667  0.475000     24.000000
  0.400000  0.166667  0.475000     24.000000
  0.200000  0.200000  0.475000     12.000000
  0.233333  0.200000  0.475000     24.000000
  0.266667  0.200000  0.475000     24.000000
  0.300000  0.200000  0.475000     24.000000
  0.333333  0.200000  0.475000     24.000000
  0.366667  0.200000  0.475000     24.000000
  0.400000  0.200000  0.475000     12.000000
  0.233333  0.233333  0.475000     12.000000
  0.266667  0.233333  0.475000     24.000000
  0.300000  0.233333  0.475000     24.000000
  0.333333  0.233333  0.475000     24.000000
  0.366667  0.233333  0.475000     24.000000
  0.266667  0.266667  0.475000     12.000000
  0.300000  0.266667  0.475000     24.000000
  0.333333  0.266667  0.475000     24.000000
  0.366667  0.266667  0.475000     12.000000
  0.300000  0.300000  0.475000     12.000000
  0.333333  0.300000  0.475000     24.000000
  0.333333  0.333333  0.475000      4.000000
 
 Following cartesian coordinates:
            Coordinates               Weight
  0.000000  0.000000  0.004808      2.000000
  0.010467  0.006043  0.004808     12.000000
  0.020934  0.012086  0.004808     12.000000
  0.031401  0.018129  0.004808     12.000000
  0.041868  0.024172  0.004808     12.000000
  0.052335  0.030216  0.004808     12.000000
  0.062802  0.036259  0.004808     12.000000
  0.073269  0.042302  0.004808     12.000000
  0.083736  0.048345  0.004808     12.000000
  0.094203  0.054388  0.004808     12.000000
  0.104670  0.060431  0.004808     12.000000
  0.115137  0.066474  0.004808     12.000000
  0.125604  0.072517  0.004808     12.000000
  0.136071  0.078560  0.004808     12.000000
  0.146538  0.084604  0.004808     12.000000
  0.157005  0.090647  0.004808      6.000000
  0.010467  0.018129  0.004808     12.000000
  0.020934  0.024172  0.004808     24.000000
  0.031401  0.030216  0.004808     24.000000
  0.041868  0.036259  0.004808     24.000000
  0.052335  0.042302  0.004808     24.000000
  0.062802  0.048345  0.004808     24.000000
  0.073269  0.054388  0.004808     24.000000
  0.083736  0.060431  0.004808     24.000000
  0.094203  0.066474  0.004808     24.000000
  0.104670  0.072517  0.004808     24.000000
  0.115137  0.078560  0.004808     24.000000
  0.125604  0.084604  0.004808     24.000000
  0.136071  0.090647  0.004808     24.000000
  0.146538  0.096690  0.004808     24.000000
  0.020934  0.036259  0.004808     12.000000
  0.031401  0.042302  0.004808     24.000000
  0.041868  0.048345  0.004808     24.000000
  0.052335  0.054388  0.004808     24.000000
  0.062802  0.060431  0.004808     24.000000
  0.073269  0.066474  0.004808     24.000000
  0.083736  0.072517  0.004808     24.000000
  0.094203  0.078560  0.004808     24.000000
  0.104670  0.084604  0.004808     24.000000
  0.115137  0.090647  0.004808     24.000000
  0.125604  0.096690  0.004808     24.000000
  0.136071  0.102733  0.004808     24.000000
  0.146538  0.108776  0.004808     12.000000
  0.031401  0.054388  0.004808     12.000000
  0.041868  0.060431  0.004808     24.000000
  0.052335  0.066474  0.004808     24.000000
  0.062802  0.072517  0.004808     24.000000
  0.073269  0.078560  0.004808     24.000000
  0.083736  0.084604  0.004808     24.000000
  0.094203  0.090647  0.004808     24.000000
  0.104670  0.096690  0.004808     24.000000
  0.115137  0.102733  0.004808     24.000000
  0.125604  0.108776  0.004808     24.000000
  0.136071  0.114819  0.004808     24.000000
  0.041868  0.072517  0.004808     12.000000
  0.052335  0.078560  0.004808     24.000000
  0.062802  0.084604  0.004808     24.000000
  0.073269  0.090647  0.004808     24.000000
  0.083736  0.096690  0.004808     24.000000
  0.094203  0.102733  0.004808     24.000000
  0.104670  0.108776  0.004808     24.000000
  0.115137  0.114819  0.004808     24.000000
  0.125604  0.120862  0.004808     24.000000
  0.136071  0.126905  0.004808     12.000000
  0.052335  0.090647  0.004808     12.000000
  0.062802  0.096690  0.004808     24.000000
  0.073269  0.102733  0.004808     24.000000
  0.083736  0.108776  0.004808     24.000000
  0.094203  0.114819  0.004808     24.000000
  0.104670  0.120862  0.004808     24.000000
  0.115137  0.126905  0.004808     24.000000
  0.125604  0.132949  0.004808     24.000000
  0.062802  0.108776  0.004808     12.000000
  0.073269  0.114819  0.004808     24.000000
  0.083736  0.120862  0.004808     24.000000
  0.094203  0.126905  0.004808     24.000000
  0.104670  0.132949  0.004808     24.000000
  0.115137  0.138992  0.004808     24.000000
  0.125604  0.145035  0.004808     12.000000
  0.073269  0.126905  0.004808     12.000000
  0.083736  0.132949  0.004808     24.000000
  0.094203  0.138992  0.004808     24.000000
  0.104670  0.145035  0.004808     24.000000
  0.115137  0.151078  0.004808     24.000000
  0.083736  0.145035  0.004808     12.000000
  0.094203  0.151078  0.004808     24.000000
  0.104670  0.157121  0.004808     24.000000
  0.115137  0.163164  0.004808     12.000000
  0.094203  0.163164  0.004808     12.000000
  0.104670  0.169207  0.004808     24.000000
  0.104670  0.181293  0.004808      4.000000
  0.000000  0.000000  0.014424      2.000000
  0.010467  0.006043  0.014424     12.000000
  0.020934  0.012086  0.014424     12.000000
  0.031401  0.018129  0.014424     12.000000
  0.041868  0.024172  0.014424     12.000000
  0.052335  0.030216  0.014424     12.000000
  0.062802  0.036259  0.014424     12.000000
  0.073269  0.042302  0.014424     12.000000
  0.083736  0.048345  0.014424     12.000000
  0.094203  0.054388  0.014424     12.000000
  0.104670  0.060431  0.014424     12.000000
  0.115137  0.066474  0.014424     12.000000
  0.125604  0.072517  0.014424     12.000000
  0.136071  0.078560  0.014424     12.000000
  0.146538  0.084604  0.014424     12.000000
  0.157005  0.090647  0.014424      6.000000
  0.010467  0.018129  0.014424     12.000000
  0.020934  0.024172  0.014424     24.000000
  0.031401  0.030216  0.014424     24.000000
  0.041868  0.036259  0.014424     24.000000
  0.052335  0.042302  0.014424     24.000000
  0.062802  0.048345  0.014424     24.000000
  0.073269  0.054388  0.014424     24.000000
  0.083736  0.060431  0.014424     24.000000
  0.094203  0.066474  0.014424     24.000000
  0.104670  0.072517  0.014424     24.000000
  0.115137  0.078560  0.014424     24.000000
  0.125604  0.084604  0.014424     24.000000
  0.136071  0.090647  0.014424     24.000000
  0.146538  0.096690  0.014424     24.000000
  0.020934  0.036259  0.014424     12.000000
  0.031401  0.042302  0.014424     24.000000
  0.041868  0.048345  0.014424     24.000000
  0.052335  0.054388  0.014424     24.000000
  0.062802  0.060431  0.014424     24.000000
  0.073269  0.066474  0.014424     24.000000
  0.083736  0.072517  0.014424     24.000000
  0.094203  0.078560  0.014424     24.000000
  0.104670  0.084604  0.014424     24.000000
  0.115137  0.090647  0.014424     24.000000
  0.125604  0.096690  0.014424     24.000000
  0.136071  0.102733  0.014424     24.000000
  0.146538  0.108776  0.014424     12.000000
  0.031401  0.054388  0.014424     12.000000
  0.041868  0.060431  0.014424     24.000000
  0.052335  0.066474  0.014424     24.000000
  0.062802  0.072517  0.014424     24.000000
  0.073269  0.078560  0.014424     24.000000
  0.083736  0.084604  0.014424     24.000000
  0.094203  0.090647  0.014424     24.000000
  0.104670  0.096690  0.014424     24.000000
  0.115137  0.102733  0.014424     24.000000
  0.125604  0.108776  0.014424     24.000000
  0.136071  0.114819  0.014424     24.000000
  0.041868  0.072517  0.014424     12.000000
  0.052335  0.078560  0.014424     24.000000
  0.062802  0.084604  0.014424     24.000000
  0.073269  0.090647  0.014424     24.000000
  0.083736  0.096690  0.014424     24.000000
  0.094203  0.102733  0.014424     24.000000
  0.104670  0.108776  0.014424     24.000000
  0.115137  0.114819  0.014424     24.000000
  0.125604  0.120862  0.014424     24.000000
  0.136071  0.126905  0.014424     12.000000
  0.052335  0.090647  0.014424     12.000000
  0.062802  0.096690  0.014424     24.000000
  0.073269  0.102733  0.014424     24.000000
  0.083736  0.108776  0.014424     24.000000
  0.094203  0.114819  0.014424     24.000000
  0.104670  0.120862  0.014424     24.000000
  0.115137  0.126905  0.014424     24.000000
  0.125604  0.132949  0.014424     24.000000
  0.062802  0.108776  0.014424     12.000000
  0.073269  0.114819  0.014424     24.000000
  0.083736  0.120862  0.014424     24.000000
  0.094203  0.126905  0.014424     24.000000
  0.104670  0.132949  0.014424     24.000000
  0.115137  0.138992  0.014424     24.000000
  0.125604  0.145035  0.014424     12.000000
  0.073269  0.126905  0.014424     12.000000
  0.083736  0.132949  0.014424     24.000000
  0.094203  0.138992  0.014424     24.000000
  0.104670  0.145035  0.014424     24.000000
  0.115137  0.151078  0.014424     24.000000
  0.083736  0.145035  0.014424     12.000000
  0.094203  0.151078  0.014424     24.000000
  0.104670  0.157121  0.014424     24.000000
  0.115137  0.163164  0.014424     12.000000
  0.094203  0.163164  0.014424     12.000000
  0.104670  0.169207  0.014424     24.000000
  0.104670  0.181293  0.014424      4.000000
  0.000000  0.000000  0.024040      2.000000
  0.010467  0.006043  0.024040     12.000000
  0.020934  0.012086  0.024040     12.000000
  0.031401  0.018129  0.024040     12.000000
  0.041868  0.024172  0.024040     12.000000
  0.052335  0.030216  0.024040     12.000000
  0.062802  0.036259  0.024040     12.000000
  0.073269  0.042302  0.024040     12.000000
  0.083736  0.048345  0.024040     12.000000
  0.094203  0.054388  0.024040     12.000000
  0.104670  0.060431  0.024040     12.000000
  0.115137  0.066474  0.024040     12.000000
  0.125604  0.072517  0.024040     12.000000
  0.136071  0.078560  0.024040     12.000000
  0.146538  0.084604  0.024040     12.000000
  0.157005  0.090647  0.024040      6.000000
  0.010467  0.018129  0.024040     12.000000
  0.020934  0.024172  0.024040     24.000000
  0.031401  0.030216  0.024040     24.000000
  0.041868  0.036259  0.024040     24.000000
  0.052335  0.042302  0.024040     24.000000
  0.062802  0.048345  0.024040     24.000000
  0.073269  0.054388  0.024040     24.000000
  0.083736  0.060431  0.024040     24.000000
  0.094203  0.066474  0.024040     24.000000
  0.104670  0.072517  0.024040     24.000000
  0.115137  0.078560  0.024040     24.000000
  0.125604  0.084604  0.024040     24.000000
  0.136071  0.090647  0.024040     24.000000
  0.146538  0.096690  0.024040     24.000000
  0.020934  0.036259  0.024040     12.000000
  0.031401  0.042302  0.024040     24.000000
  0.041868  0.048345  0.024040     24.000000
  0.052335  0.054388  0.024040     24.000000
  0.062802  0.060431  0.024040     24.000000
  0.073269  0.066474  0.024040     24.000000
  0.083736  0.072517  0.024040     24.000000
  0.094203  0.078560  0.024040     24.000000
  0.104670  0.084604  0.024040     24.000000
  0.115137  0.090647  0.024040     24.000000
  0.125604  0.096690  0.024040     24.000000
  0.136071  0.102733  0.024040     24.000000
  0.146538  0.108776  0.024040     12.000000
  0.031401  0.054388  0.024040     12.000000
  0.041868  0.060431  0.024040     24.000000
  0.052335  0.066474  0.024040     24.000000
  0.062802  0.072517  0.024040     24.000000
  0.073269  0.078560  0.024040     24.000000
  0.083736  0.084604  0.024040     24.000000
  0.094203  0.090647  0.024040     24.000000
  0.104670  0.096690  0.024040     24.000000
  0.115137  0.102733  0.024040     24.000000
  0.125604  0.108776  0.024040     24.000000
  0.136071  0.114819  0.024040     24.000000
  0.041868  0.072517  0.024040     12.000000
  0.052335  0.078560  0.024040     24.000000
  0.062802  0.084604  0.024040     24.000000
  0.073269  0.090647  0.024040     24.000000
  0.083736  0.096690  0.024040     24.000000
  0.094203  0.102733  0.024040     24.000000
  0.104670  0.108776  0.024040     24.000000
  0.115137  0.114819  0.024040     24.000000
  0.125604  0.120862  0.024040     24.000000
  0.136071  0.126905  0.024040     12.000000
  0.052335  0.090647  0.024040     12.000000
  0.062802  0.096690  0.024040     24.000000
  0.073269  0.102733  0.024040     24.000000
  0.083736  0.108776  0.024040     24.000000
  0.094203  0.114819  0.024040     24.000000
  0.104670  0.120862  0.024040     24.000000
  0.115137  0.126905  0.024040     24.000000
  0.125604  0.132949  0.024040     24.000000
  0.062802  0.108776  0.024040     12.000000
  0.073269  0.114819  0.024040     24.000000
  0.083736  0.120862  0.024040     24.000000
  0.094203  0.126905  0.024040     24.000000
  0.104670  0.132949  0.024040     24.000000
  0.115137  0.138992  0.024040     24.000000
  0.125604  0.145035  0.024040     12.000000
  0.073269  0.126905  0.024040     12.000000
  0.083736  0.132949  0.024040     24.000000
  0.094203  0.138992  0.024040     24.000000
  0.104670  0.145035  0.024040     24.000000
  0.115137  0.151078  0.024040     24.000000
  0.083736  0.145035  0.024040     12.000000
  0.094203  0.151078  0.024040     24.000000
  0.104670  0.157121  0.024040     24.000000
  0.115137  0.163164  0.024040     12.000000
  0.094203  0.163164  0.024040     12.000000
  0.104670  0.169207  0.024040     24.000000
  0.104670  0.181293  0.024040      4.000000
  0.000000  0.000000  0.033656      2.000000
  0.010467  0.006043  0.033656     12.000000
  0.020934  0.012086  0.033656     12.000000
  0.031401  0.018129  0.033656     12.000000
  0.041868  0.024172  0.033656     12.000000
  0.052335  0.030216  0.033656     12.000000
  0.062802  0.036259  0.033656     12.000000
  0.073269  0.042302  0.033656     12.000000
  0.083736  0.048345  0.033656     12.000000
  0.094203  0.054388  0.033656     12.000000
  0.104670  0.060431  0.033656     12.000000
  0.115137  0.066474  0.033656     12.000000
  0.125604  0.072517  0.033656     12.000000
  0.136071  0.078560  0.033656     12.000000
  0.146538  0.084604  0.033656     12.000000
  0.157005  0.090647  0.033656      6.000000
  0.010467  0.018129  0.033656     12.000000
  0.020934  0.024172  0.033656     24.000000
  0.031401  0.030216  0.033656     24.000000
  0.041868  0.036259  0.033656     24.000000
  0.052335  0.042302  0.033656     24.000000
  0.062802  0.048345  0.033656     24.000000
  0.073269  0.054388  0.033656     24.000000
  0.083736  0.060431  0.033656     24.000000
  0.094203  0.066474  0.033656     24.000000
  0.104670  0.072517  0.033656     24.000000
  0.115137  0.078560  0.033656     24.000000
  0.125604  0.084604  0.033656     24.000000
  0.136071  0.090647  0.033656     24.000000
  0.146538  0.096690  0.033656     24.000000
  0.020934  0.036259  0.033656     12.000000
  0.031401  0.042302  0.033656     24.000000
  0.041868  0.048345  0.033656     24.000000
  0.052335  0.054388  0.033656     24.000000
  0.062802  0.060431  0.033656     24.000000
  0.073269  0.066474  0.033656     24.000000
  0.083736  0.072517  0.033656     24.000000
  0.094203  0.078560  0.033656     24.000000
  0.104670  0.084604  0.033656     24.000000
  0.115137  0.090647  0.033656     24.000000
  0.125604  0.096690  0.033656     24.000000
  0.136071  0.102733  0.033656     24.000000
  0.146538  0.108776  0.033656     12.000000
  0.031401  0.054388  0.033656     12.000000
  0.041868  0.060431  0.033656     24.000000
  0.052335  0.066474  0.033656     24.000000
  0.062802  0.072517  0.033656     24.000000
  0.073269  0.078560  0.033656     24.000000
  0.083736  0.084604  0.033656     24.000000
  0.094203  0.090647  0.033656     24.000000
  0.104670  0.096690  0.033656     24.000000
  0.115137  0.102733  0.033656     24.000000
  0.125604  0.108776  0.033656     24.000000
  0.136071  0.114819  0.033656     24.000000
  0.041868  0.072517  0.033656     12.000000
  0.052335  0.078560  0.033656     24.000000
  0.062802  0.084604  0.033656     24.000000
  0.073269  0.090647  0.033656     24.000000
  0.083736  0.096690  0.033656     24.000000
  0.094203  0.102733  0.033656     24.000000
  0.104670  0.108776  0.033656     24.000000
  0.115137  0.114819  0.033656     24.000000
  0.125604  0.120862  0.033656     24.000000
  0.136071  0.126905  0.033656     12.000000
  0.052335  0.090647  0.033656     12.000000
  0.062802  0.096690  0.033656     24.000000
  0.073269  0.102733  0.033656     24.000000
  0.083736  0.108776  0.033656     24.000000
  0.094203  0.114819  0.033656     24.000000
  0.104670  0.120862  0.033656     24.000000
  0.115137  0.126905  0.033656     24.000000
  0.125604  0.132949  0.033656     24.000000
  0.062802  0.108776  0.033656     12.000000
  0.073269  0.114819  0.033656     24.000000
  0.083736  0.120862  0.033656     24.000000
  0.094203  0.126905  0.033656     24.000000
  0.104670  0.132949  0.033656     24.000000
  0.115137  0.138992  0.033656     24.000000
  0.125604  0.145035  0.033656     12.000000
  0.073269  0.126905  0.033656     12.000000
  0.083736  0.132949  0.033656     24.000000
  0.094203  0.138992  0.033656     24.000000
  0.104670  0.145035  0.033656     24.000000
  0.115137  0.151078  0.033656     24.000000
  0.083736  0.145035  0.033656     12.000000
  0.094203  0.151078  0.033656     24.000000
  0.104670  0.157121  0.033656     24.000000
  0.115137  0.163164  0.033656     12.000000
  0.094203  0.163164  0.033656     12.000000
  0.104670  0.169207  0.033656     24.000000
  0.104670  0.181293  0.033656      4.000000
  0.000000  0.000000  0.043272      2.000000
  0.010467  0.006043  0.043272     12.000000
  0.020934  0.012086  0.043272     12.000000
  0.031401  0.018129  0.043272     12.000000
  0.041868  0.024172  0.043272     12.000000
  0.052335  0.030216  0.043272     12.000000
  0.062802  0.036259  0.043272     12.000000
  0.073269  0.042302  0.043272     12.000000
  0.083736  0.048345  0.043272     12.000000
  0.094203  0.054388  0.043272     12.000000
  0.104670  0.060431  0.043272     12.000000
  0.115137  0.066474  0.043272     12.000000
  0.125604  0.072517  0.043272     12.000000
  0.136071  0.078560  0.043272     12.000000
  0.146538  0.084604  0.043272     12.000000
  0.157005  0.090647  0.043272      6.000000
  0.010467  0.018129  0.043272     12.000000
  0.020934  0.024172  0.043272     24.000000
  0.031401  0.030216  0.043272     24.000000
  0.041868  0.036259  0.043272     24.000000
  0.052335  0.042302  0.043272     24.000000
  0.062802  0.048345  0.043272     24.000000
  0.073269  0.054388  0.043272     24.000000
  0.083736  0.060431  0.043272     24.000000
  0.094203  0.066474  0.043272     24.000000
  0.104670  0.072517  0.043272     24.000000
  0.115137  0.078560  0.043272     24.000000
  0.125604  0.084604  0.043272     24.000000
  0.136071  0.090647  0.043272     24.000000
  0.146538  0.096690  0.043272     24.000000
  0.020934  0.036259  0.043272     12.000000
  0.031401  0.042302  0.043272     24.000000
  0.041868  0.048345  0.043272     24.000000
  0.052335  0.054388  0.043272     24.000000
  0.062802  0.060431  0.043272     24.000000
  0.073269  0.066474  0.043272     24.000000
  0.083736  0.072517  0.043272     24.000000
  0.094203  0.078560  0.043272     24.000000
  0.104670  0.084604  0.043272     24.000000
  0.115137  0.090647  0.043272     24.000000
  0.125604  0.096690  0.043272     24.000000
  0.136071  0.102733  0.043272     24.000000
  0.146538  0.108776  0.043272     12.000000
  0.031401  0.054388  0.043272     12.000000
  0.041868  0.060431  0.043272     24.000000
  0.052335  0.066474  0.043272     24.000000
  0.062802  0.072517  0.043272     24.000000
  0.073269  0.078560  0.043272     24.000000
  0.083736  0.084604  0.043272     24.000000
  0.094203  0.090647  0.043272     24.000000
  0.104670  0.096690  0.043272     24.000000
  0.115137  0.102733  0.043272     24.000000
  0.125604  0.108776  0.043272     24.000000
  0.136071  0.114819  0.043272     24.000000
  0.041868  0.072517  0.043272     12.000000
  0.052335  0.078560  0.043272     24.000000
  0.062802  0.084604  0.043272     24.000000
  0.073269  0.090647  0.043272     24.000000
  0.083736  0.096690  0.043272     24.000000
  0.094203  0.102733  0.043272     24.000000
  0.104670  0.108776  0.043272     24.000000
  0.115137  0.114819  0.043272     24.000000
  0.125604  0.120862  0.043272     24.000000
  0.136071  0.126905  0.043272     12.000000
  0.052335  0.090647  0.043272     12.000000
  0.062802  0.096690  0.043272     24.000000
  0.073269  0.102733  0.043272     24.000000
  0.083736  0.108776  0.043272     24.000000
  0.094203  0.114819  0.043272     24.000000
  0.104670  0.120862  0.043272     24.000000
  0.115137  0.126905  0.043272     24.000000
  0.125604  0.132949  0.043272     24.000000
  0.062802  0.108776  0.043272     12.000000
  0.073269  0.114819  0.043272     24.000000
  0.083736  0.120862  0.043272     24.000000
  0.094203  0.126905  0.043272     24.000000
  0.104670  0.132949  0.043272     24.000000
  0.115137  0.138992  0.043272     24.000000
  0.125604  0.145035  0.043272     12.000000
  0.073269  0.126905  0.043272     12.000000
  0.083736  0.132949  0.043272     24.000000
  0.094203  0.138992  0.043272     24.000000
  0.104670  0.145035  0.043272     24.000000
  0.115137  0.151078  0.043272     24.000000
  0.083736  0.145035  0.043272     12.000000
  0.094203  0.151078  0.043272     24.000000
  0.104670  0.157121  0.043272     24.000000
  0.115137  0.163164  0.043272     12.000000
  0.094203  0.163164  0.043272     12.000000
  0.104670  0.169207  0.043272     24.000000
  0.104670  0.181293  0.043272      4.000000
  0.000000  0.000000  0.052888      2.000000
  0.010467  0.006043  0.052888     12.000000
  0.020934  0.012086  0.052888     12.000000
  0.031401  0.018129  0.052888     12.000000
  0.041868  0.024172  0.052888     12.000000
  0.052335  0.030216  0.052888     12.000000
  0.062802  0.036259  0.052888     12.000000
  0.073269  0.042302  0.052888     12.000000
  0.083736  0.048345  0.052888     12.000000
  0.094203  0.054388  0.052888     12.000000
  0.104670  0.060431  0.052888     12.000000
  0.115137  0.066474  0.052888     12.000000
  0.125604  0.072517  0.052888     12.000000
  0.136071  0.078560  0.052888     12.000000
  0.146538  0.084604  0.052888     12.000000
  0.157005  0.090647  0.052888      6.000000
  0.010467  0.018129  0.052888     12.000000
  0.020934  0.024172  0.052888     24.000000
  0.031401  0.030216  0.052888     24.000000
  0.041868  0.036259  0.052888     24.000000
  0.052335  0.042302  0.052888     24.000000
  0.062802  0.048345  0.052888     24.000000
  0.073269  0.054388  0.052888     24.000000
  0.083736  0.060431  0.052888     24.000000
  0.094203  0.066474  0.052888     24.000000
  0.104670  0.072517  0.052888     24.000000
  0.115137  0.078560  0.052888     24.000000
  0.125604  0.084604  0.052888     24.000000
  0.136071  0.090647  0.052888     24.000000
  0.146538  0.096690  0.052888     24.000000
  0.020934  0.036259  0.052888     12.000000
  0.031401  0.042302  0.052888     24.000000
  0.041868  0.048345  0.052888     24.000000
  0.052335  0.054388  0.052888     24.000000
  0.062802  0.060431  0.052888     24.000000
  0.073269  0.066474  0.052888     24.000000
  0.083736  0.072517  0.052888     24.000000
  0.094203  0.078560  0.052888     24.000000
  0.104670  0.084604  0.052888     24.000000
  0.115137  0.090647  0.052888     24.000000
  0.125604  0.096690  0.052888     24.000000
  0.136071  0.102733  0.052888     24.000000
  0.146538  0.108776  0.052888     12.000000
  0.031401  0.054388  0.052888     12.000000
  0.041868  0.060431  0.052888     24.000000
  0.052335  0.066474  0.052888     24.000000
  0.062802  0.072517  0.052888     24.000000
  0.073269  0.078560  0.052888     24.000000
  0.083736  0.084604  0.052888     24.000000
  0.094203  0.090647  0.052888     24.000000
  0.104670  0.096690  0.052888     24.000000
  0.115137  0.102733  0.052888     24.000000
  0.125604  0.108776  0.052888     24.000000
  0.136071  0.114819  0.052888     24.000000
  0.041868  0.072517  0.052888     12.000000
  0.052335  0.078560  0.052888     24.000000
  0.062802  0.084604  0.052888     24.000000
  0.073269  0.090647  0.052888     24.000000
  0.083736  0.096690  0.052888     24.000000
  0.094203  0.102733  0.052888     24.000000
  0.104670  0.108776  0.052888     24.000000
  0.115137  0.114819  0.052888     24.000000
  0.125604  0.120862  0.052888     24.000000
  0.136071  0.126905  0.052888     12.000000
  0.052335  0.090647  0.052888     12.000000
  0.062802  0.096690  0.052888     24.000000
  0.073269  0.102733  0.052888     24.000000
  0.083736  0.108776  0.052888     24.000000
  0.094203  0.114819  0.052888     24.000000
  0.104670  0.120862  0.052888     24.000000
  0.115137  0.126905  0.052888     24.000000
  0.125604  0.132949  0.052888     24.000000
  0.062802  0.108776  0.052888     12.000000
  0.073269  0.114819  0.052888     24.000000
  0.083736  0.120862  0.052888     24.000000
  0.094203  0.126905  0.052888     24.000000
  0.104670  0.132949  0.052888     24.000000
  0.115137  0.138992  0.052888     24.000000
  0.125604  0.145035  0.052888     12.000000
  0.073269  0.126905  0.052888     12.000000
  0.083736  0.132949  0.052888     24.000000
  0.094203  0.138992  0.052888     24.000000
  0.104670  0.145035  0.052888     24.000000
  0.115137  0.151078  0.052888     24.000000
  0.083736  0.145035  0.052888     12.000000
  0.094203  0.151078  0.052888     24.000000
  0.104670  0.157121  0.052888     24.000000
  0.115137  0.163164  0.052888     12.000000
  0.094203  0.163164  0.052888     12.000000
  0.104670  0.169207  0.052888     24.000000
  0.104670  0.181293  0.052888      4.000000
  0.000000  0.000000  0.062503      2.000000
  0.010467  0.006043  0.062503     12.000000
  0.020934  0.012086  0.062503     12.000000
  0.031401  0.018129  0.062503     12.000000
  0.041868  0.024172  0.062503     12.000000
  0.052335  0.030216  0.062503     12.000000
  0.062802  0.036259  0.062503     12.000000
  0.073269  0.042302  0.062503     12.000000
  0.083736  0.048345  0.062503     12.000000
  0.094203  0.054388  0.062503     12.000000
  0.104670  0.060431  0.062503     12.000000
  0.115137  0.066474  0.062503     12.000000
  0.125604  0.072517  0.062503     12.000000
  0.136071  0.078560  0.062503     12.000000
  0.146538  0.084604  0.062503     12.000000
  0.157005  0.090647  0.062503      6.000000
  0.010467  0.018129  0.062503     12.000000
  0.020934  0.024172  0.062503     24.000000
  0.031401  0.030216  0.062503     24.000000
  0.041868  0.036259  0.062503     24.000000
  0.052335  0.042302  0.062503     24.000000
  0.062802  0.048345  0.062503     24.000000
  0.073269  0.054388  0.062503     24.000000
  0.083736  0.060431  0.062503     24.000000
  0.094203  0.066474  0.062503     24.000000
  0.104670  0.072517  0.062503     24.000000
  0.115137  0.078560  0.062503     24.000000
  0.125604  0.084604  0.062503     24.000000
  0.136071  0.090647  0.062503     24.000000
  0.146538  0.096690  0.062503     24.000000
  0.020934  0.036259  0.062503     12.000000
  0.031401  0.042302  0.062503     24.000000
  0.041868  0.048345  0.062503     24.000000
  0.052335  0.054388  0.062503     24.000000
  0.062802  0.060431  0.062503     24.000000
  0.073269  0.066474  0.062503     24.000000
  0.083736  0.072517  0.062503     24.000000
  0.094203  0.078560  0.062503     24.000000
  0.104670  0.084604  0.062503     24.000000
  0.115137  0.090647  0.062503     24.000000
  0.125604  0.096690  0.062503     24.000000
  0.136071  0.102733  0.062503     24.000000
  0.146538  0.108776  0.062503     12.000000
  0.031401  0.054388  0.062503     12.000000
  0.041868  0.060431  0.062503     24.000000
  0.052335  0.066474  0.062503     24.000000
  0.062802  0.072517  0.062503     24.000000
  0.073269  0.078560  0.062503     24.000000
  0.083736  0.084604  0.062503     24.000000
  0.094203  0.090647  0.062503     24.000000
  0.104670  0.096690  0.062503     24.000000
  0.115137  0.102733  0.062503     24.000000
  0.125604  0.108776  0.062503     24.000000
  0.136071  0.114819  0.062503     24.000000
  0.041868  0.072517  0.062503     12.000000
  0.052335  0.078560  0.062503     24.000000
  0.062802  0.084604  0.062503     24.000000
  0.073269  0.090647  0.062503     24.000000
  0.083736  0.096690  0.062503     24.000000
  0.094203  0.102733  0.062503     24.000000
  0.104670  0.108776  0.062503     24.000000
  0.115137  0.114819  0.062503     24.000000
  0.125604  0.120862  0.062503     24.000000
  0.136071  0.126905  0.062503     12.000000
  0.052335  0.090647  0.062503     12.000000
  0.062802  0.096690  0.062503     24.000000
  0.073269  0.102733  0.062503     24.000000
  0.083736  0.108776  0.062503     24.000000
[...]
      6       8.2594      0.00000
      7      10.0517      0.00000
      8      10.6993      0.00000

 k-point   879 :       0.3000    0.1333    0.4750
  band No.  band energies     occupation 
      1      -0.1944      2.00000
      2       0.0710      2.00000
      3       4.8145      0.00000
      4       5.0633      0.00000
      5       7.8743      0.00000
      6       8.1249      0.00000
      7      10.3703      0.00000
      8      11.0493      0.00000

 k-point   880 :       0.3333    0.1333    0.4750
  band No.  band energies     occupation 
      1       0.2858      2.00000
      2       0.5481      2.00000
      3       4.0774      0.00000
      4       4.3278      0.00000
      5       7.7618      0.00000
      6       8.0113      0.00000
      7      10.7609      0.00000
      8      11.4530      0.00000

 k-point   881 :       0.3667    0.1333    0.4750
  band No.  band energies     occupation 
      1       0.7999      2.00000
      2       1.0556      2.00000
      3       3.3822      0.00000
      4       3.6303      0.00000
      5       7.6766      0.00000
      6       7.9262      0.00000
      7      11.2050      0.00000
      8      11.8988      0.00000

 k-point   882 :       0.4000    0.1333    0.4750
  band No.  band energies     occupation 
      1       1.3339      2.00000
      2       1.5645      2.00000
      3       2.7596      0.02139
      4       2.9865      0.00000
      5       7.6240      0.00000
      6       7.8738      0.00000
      7      11.6896      0.00000
      8      12.3709      0.00000

 k-point   883 :       0.4333    0.1333    0.4750
  band No.  band energies     occupation 
      1       1.7694      2.00000
      2       1.7862      2.00000
      3       2.4986      2.00000
      4       2.5155      2.00000
      5       7.6063      0.00000
      6       7.8562      0.00000
      7      12.1295      0.00000
      8      12.3062      0.00000

 k-point   884 :       0.1667    0.1667    0.4750
  band No.  band energies     occupation 
      1      -1.4236      2.00000
      2      -1.1533      2.00000
      3       7.6017      0.00000
      4       7.6158      0.00000
      5       7.9503      0.00000
      6       8.1962      0.00000
      7       9.6924      0.00000
      8      10.2020      0.00000

 k-point   885 :       0.2000    0.1667    0.4750
  band No.  band energies     occupation 
      1      -1.0824      2.00000
      2      -0.8133      2.00000
      3       6.8565      0.00000
      4       7.0241      0.00000
      5       7.6881      0.00000
      6       7.9074      0.00000
      7       9.7409      0.00000
      8      10.3618      0.00000

 k-point   886 :       0.2333    0.1667    0.4750
  band No.  band energies     occupation 
      1      -0.7003      2.00000
      2      -0.4326      2.00000
      3       6.0796      0.00000
      4       6.2957      0.00000
      5       7.4597      0.00000
      6       7.6893      0.00000
      7       9.9609      0.00000
      8      10.6346      0.00000

 k-point   887 :       0.2667    0.1667    0.4750
  band No.  band energies     occupation 
      1      -0.2783      2.00000
      2      -0.0124      2.00000
      3       5.3104      0.00000
      4       5.5452      0.00000
      5       7.2664      0.00000
      6       7.5045      0.00000
      7      10.2804      0.00000
      8      10.9785      0.00000

 k-point   888 :       0.3000    0.1667    0.4750
  band No.  band energies     occupation 
      1       0.1824      2.00000
      2       0.4457      2.00000
      3       4.5648      0.00000
      4       4.8081      0.00000
      5       7.1099      0.00000
      6       7.3533      0.00000
      7      10.6670      0.00000
      8      11.3755      0.00000

 k-point   889 :       0.3333    0.1667    0.4750
  band No.  band energies     occupation 
      1       0.6790      2.00000
      2       0.9379      2.00000
      3       3.8531      0.00000
      4       4.0992      0.00000
      5       6.9916      0.00000
      6       7.2382      0.00000
      7      11.1053      0.00000
      8      11.8157      0.00000

 k-point   890 :       0.3667    0.1667    0.4750
  band No.  band energies     occupation 
      1       1.2046      2.00000
      2       1.4517      2.00000
      3       3.1909      0.00000
      4       3.4308      0.00000
      5       6.9124      0.00000
      6       7.1607      0.00000
      7      11.5857      0.00000
      8      12.2878      0.00000

 k-point   891 :       0.4000    0.1667    0.4750
  band No.  band energies     occupation 
      1       1.7242      2.00000
      2       1.8965      2.00000
      3       2.6706      1.17147
      4       2.8404      0.00000
      5       6.8726      0.00000
      6       7.1218      0.00000
      7      12.0925      0.00000
      8      12.6140      0.00000

 k-point   892 :       0.2000    0.2000    0.4750
  band No.  band energies     occupation 
      1      -0.7215      2.00000
      2      -0.4537      2.00000
      3       6.4480      0.00000
      4       6.4979      0.00000
      5       7.2084      0.00000
      6       7.3170      0.00000
      7       9.9317      0.00000
      8      10.6129      0.00000

 k-point   893 :       0.2333    0.2000    0.4750
  band No.  band energies     occupation 
      1      -0.3203      2.00000
      2      -0.0541      2.00000
      3       5.7827      0.00000
      4       5.9375      0.00000
      5       6.8062      0.00000
      6       6.9721      0.00000
      7      10.2356      0.00000
      8      10.9416      0.00000

 k-point   894 :       0.2667    0.2000    0.4750
  band No.  band energies     occupation 
      1       0.1201      2.00000
      2       0.3840      2.00000
      3       5.0616      0.00000
      4       5.2732      0.00000
      5       6.5398      0.00000
      6       6.7538      0.00000
      7      10.6089      0.00000
      8      11.3254      0.00000

 k-point   895 :       0.3000    0.2000    0.4750
  band No.  band energies     occupation 
      1       0.5978      2.00000
      2       0.8582      2.00000
      3       4.3495      0.00000
      4       4.5821      0.00000
      5       6.3634      0.00000
      6       6.5966      0.00000
      7      11.0347      0.00000
      8      11.7536      0.00000

 k-point   896 :       0.3333    0.2000    0.4750
  band No.  band energies     occupation 
      1       1.1085      2.00000
      2       1.3619      2.00000
      3       3.6695      0.00000
      4       3.9076      0.00000
      5       6.2462      0.00000
      6       6.4876      0.00000
      7      11.5038      0.00000
      8      12.2176      0.00000

 k-point   897 :       0.3667    0.2000    0.4750
  band No.  band energies     occupation 
      1       1.6378      2.00000
      2       1.8649      2.00000
      3       3.0579      0.00000
      4       3.2780      0.00000
      5       6.1781      0.00000
      6       6.4231      0.00000
      7      12.0074      0.00000
      8      12.6830      0.00000

 k-point   898 :       0.4000    0.2000    0.4750
  band No.  band energies     occupation 
      1       2.0673      2.00000
      2       2.0810      2.00000
      3       2.8067      0.00028
      4       2.8133      0.00013
      5       6.1556      0.00000
      6       6.4018      0.00000
      7      12.4487      0.00000
      8      12.6352      0.00000

 k-point   899 :       0.2333    0.2333    0.4750
  band No.  band energies     occupation 
      1       0.0993      2.00000
      2       0.3634      2.00000
      3       5.4166      0.00000
      4       5.4749      0.00000
      5       6.2962      0.00000
      6       6.3710      0.00000
      7      10.5894      0.00000
      8      11.3082      0.00000

 k-point   900 :       0.2667    0.2333    0.4750
  band No.  band energies     occupation 
      1       0.5569      2.00000
      2       0.8181      2.00000
      3       4.8197      0.00000
      4       4.9725      0.00000
      5       5.8992      0.00000
      6       6.0545      0.00000
      7      10.9984      0.00000
      8      11.7212      0.00000

 k-point   901 :       0.3000    0.2333    0.4750
  band No.  band energies     occupation 
      1       1.0497      2.00000
      2       1.3058      2.00000
      3       4.1627      0.00000
      4       4.3718      0.00000
      5       5.6688      0.00000
      6       5.8791      0.00000
      7      11.4525      0.00000
      8      12.1722      0.00000

 k-point   902 :       0.3333    0.2333    0.4750
  band No.  band energies     occupation 
      1       1.5702      2.00000
      2       1.8133      2.00000
      3       3.5275      0.00000
      4       3.7498      0.00000
      5       5.5443      0.00000
      6       5.7747      0.00000
      7      11.9443      0.00000
      8      12.6466      0.00000

 k-point   903 :       0.3667    0.2333    0.4750
  band No.  band energies     occupation 
      1       2.0822      2.00000
      2       2.2493      2.00000
      3       3.0225      0.00000
      4       3.1834      0.00000
      5       5.4876      0.00000
      6       5.7249      0.00000
      7      12.4569      0.00000
      8      12.9421      0.00000

 k-point   904 :       0.2667    0.2667    0.4750
  band No.  band energies     occupation 
      1       1.0300      2.00000
      2       1.2868      2.00000
      3       4.5099      0.00000
      4       4.5776      0.00000
      5       5.4258      0.00000
      6       5.4931      0.00000
      7      11.4351      0.00000
      8      12.1567      0.00000

 k-point   905 :       0.3000    0.2667    0.4750
  band No.  band energies     occupation 
      1       1.5346      2.00000
      2       1.7827      2.00000
      3       3.9848      0.00000
      4       4.1378      0.00000
      5       5.0789      0.00000
      6       5.2303      0.00000
      7      11.9115      0.00000
      8      12.6218      0.00000

 k-point   906 :       0.3333    0.2667    0.4750
  band No.  band energies     occupation 
      1       2.0552      2.00000
      2       2.2747      2.00000
      3       3.4273      0.00000
      4       3.6158      0.00000
      5       4.9133      0.00000
      6       5.1167      0.00000
      7      12.4186      0.00000
      8      13.0710      0.00000

 k-point   907 :       0.3667    0.2667    0.4750
  band No.  band energies     occupation 
      1       2.4786      2.00000
      2       2.4810      2.00000
      3       3.1701      0.00000
      4       3.2078      0.00000
      5       4.8672      0.00000
      6       5.0829      0.00000
      7      12.8627      0.00000
      8      13.0212      0.00000

 k-point   908 :       0.3000    0.3000    0.4750
  band No.  band energies     occupation 
      1       2.0431      2.00000
      2       2.2730      2.00000
      3       3.7332      0.00000
      4       3.8282      0.00000
      5       4.6717      0.00000
      6       4.7380      0.00000
      7      12.4042      0.00000
      8      13.0814      0.00000

 k-point   909 :       0.3333    0.3000    0.4750
  band No.  band energies     occupation 
      1       2.5369      1.99994
      2       2.6883      0.77657
      3       3.3491      0.00000
      4       3.4955      0.00000
      5       4.4272      0.00000
      6       4.5586      0.00000
      7      12.9140      0.00000
      8      13.3621      0.00000

 k-point   910 :       0.3333    0.3333    0.4750
  band No.  band energies     occupation 
      1       2.8643      0.00000
      2       2.8643      0.00000
      3       3.2145      0.00000
      4       3.4722      0.00000
      5       4.2621      0.00000
      6       4.2621      0.00000
      7      13.3528      0.00000
      8      13.4370      0.00000


--------------------------------------------------------------------------------------------------------


 soft charge-density along one line, spin component           1
         0         1         2         3         4         5         6         7         8         9
 total charge-density along one line
 
 pseudopotential strength for first ion, spin component:           1
  2.997   9.601  -0.000  -0.000   0.000  -0.000  -0.000   0.000
  9.601  30.567  -0.000  -0.000   0.000  -0.000  -0.000   0.000
 -0.000  -0.000   7.068   0.000  -0.000  10.445   0.000  -0.000
 -0.000  -0.000   0.000   7.068  -0.000   0.000  10.445  -0.000
  0.000   0.000  -0.000  -0.000   7.068  -0.000  -0.000  10.445
 -0.000  -0.000  10.445   0.000  -0.000  14.571   0.000  -0.000
 -0.000  -0.000   0.000  10.445  -0.000   0.000  14.572  -0.000
  0.000   0.000  -0.000  -0.000  10.445  -0.000  -0.000  14.571
 -0.000  -0.000   0.000  -0.000   0.000   0.000  -0.000   0.000
  0.000   0.000  -0.000  -0.000  -0.000  -0.000  -0.000  -0.000
  0.000   0.000   0.000  -0.000  -0.000   0.000  -0.000  -0.000
 -0.000  -0.000  -0.000   0.000  -0.000  -0.000   0.000  -0.000
  0.000   0.000   0.000   0.000   0.000   0.000   0.000   0.000
 total augmentation occupancy for first ion, spin component:           1
  1.256  -0.021  -0.000   0.000   0.000   0.000   0.000   0.000   0.000   0.000  -0.001   0.000   0.000
 -0.021   0.001   0.000   0.000   0.000   0.000   0.000   0.000   0.000   0.000  -0.000   0.000   0.000
 -0.000   0.000   0.079  -0.000   0.000  -0.006   0.000  -0.000   0.000   0.000   0.000   0.000  -0.004
  0.000   0.000  -0.000   0.077   0.000  -0.000  -0.005   0.000  -0.000   0.000   0.000  -0.000  -0.000
  0.000  -0.000   0.000  -0.000   0.079  -0.000  -0.000  -0.006  -0.004   0.000   0.000   0.000  -0.000
  0.000   0.000  -0.006  -0.000  -0.000   0.000   0.000   0.000  -0.000   0.000  -0.000   0.000   0.000
  0.000   0.000   0.000  -0.005  -0.000  -0.000   0.000  -0.000   0.000   0.000  -0.000   0.000  -0.000
 -0.000   0.000  -0.000   0.000  -0.006   0.000  -0.000   0.000   0.000   0.000  -0.000   0.000   0.000
  0.000   0.000   0.000   0.000  -0.004  -0.000  -0.000   0.000   0.004   0.000  -0.000  -0.000   0.000
  0.000   0.000  -0.000   0.000  -0.000   0.000   0.000   0.000  -0.000   0.004  -0.000   0.000   0.000
 -0.001  -0.000   0.000  -0.000   0.000  -0.000  -0.000  -0.000  -0.000   0.000   0.005   0.000  -0.000
 -0.000   0.000   0.000  -0.000   0.000   0.000   0.000   0.000  -0.000   0.000   0.000   0.004   0.000
  0.000   0.000  -0.004  -0.000  -0.000   0.000   0.000   0.000   0.000   0.000  -0.000   0.000   0.004


------------------------ aborting loop because EDIFF is reached ----------------------------------------


    CHARGE:  cpu time    0.0920: real time    0.0918
    FORLOC:  cpu time    0.0000: real time    0.0003
    FORNL :  cpu time    1.1520: real time    1.1547
    STRESS:  cpu time    3.4720: real time    3.4731
    FORCOR:  cpu time    0.0080: real time    0.0080
    FORHAR:  cpu time    0.0000: real time    0.0019
    MIXING:  cpu time    0.0000: real time    0.0004
    OFIELD:  cpu time    0.0000: real time    0.0000

  FORCE on cell =-STRESS in cart. coord.  units (eV):
  Direction    XX          YY          ZZ          XY          YZ          ZX
  --------------------------------------------------------------------------------------
  Alpha Z     3.94188     3.94188     3.94188
  Ewald     -19.56030   -19.56029   -19.51669     0.00000     0.00000    -0.00000
  Hartree     0.03420     0.03420     0.05027     0.00000     0.00000    -0.00000
  E(xc)      -9.70677    -9.70677    -9.69613    -0.00000     0.00000     0.00000
  Local      -0.42175    -0.42175    -0.42146    -0.00000    -0.00000    -0.00000
  n-local    13.34872    13.14477    13.15398     0.26320    -0.09932    -0.16727
  augment     0.11283     0.11283     0.11686     0.00000     0.00000     0.00000
  Kinetic    14.32959    10.47354    12.36444     9.42930    -1.92013    -2.57313
  Fock        0.00000     0.00000     0.00000     0.00000     0.00000     0.00000
  -------------------------------------------------------------------------------------
  Total       0.04840     0.04840    -0.00685     0.00000    -0.00000     0.00000
  in kB       1.69794     1.69794    -0.24022     0.00000    -0.00000     0.00000
  external pressure =        1.05 kB  Pullay stress =        0.00 kB


 VOLUME and BASIS-vectors are now :
 -----------------------------------------------------------------------------
  energy-cutoff  :      520.00
  volume of cell :       45.67
      direct lattice vectors                 reciprocal lattice vectors
     3.184617572  0.000000000  0.000000000     0.314009446  0.181293401  0.000000000
    -1.592308286  2.757959420  0.000000000    -0.000000000  0.362586916  0.000000000
     0.000000000  0.000000000  5.199714371     0.000000000  0.000000000  0.192318256

  length of vectors
     3.184617572  3.184617063  5.199714371     0.362586858  0.362586916  0.192318256


 FORCES acting on ions
    electron-ion (+dipol)            ewald-force                    non-local-force                 convergence-correction
 -----------------------------------------------------------------------------------------------
   -.751E-05 0.454E-05 0.774E-06   0.195E-05 -.154E-05 -.724E-15   -.260E-17 -.104E-16 0.954E-17   -.754E-13 0.478E-13 -.146E-14
   0.180E-04 -.106E-04 0.774E-06   -.195E-05 0.154E-05 0.724E-15   0.000E+00 0.121E-16 0.173E-17   0.727E-13 -.462E-13 -.135E-14
 -----------------------------------------------------------------------------------------------
   0.105E-04 -.608E-05 0.155E-05   -.102E-15 0.239E-15 0.000E+00   -.260E-17 0.173E-17 0.113E-16   -.275E-14 0.160E-14 -.281E-14
 
 
 POSITION                                       TOTAL-FORCE (eV/Angst)
 -----------------------------------------------------------------------------------
     -0.00000      1.83864      1.29993         0.000000     -0.000000      0.000000
      1.59231      0.91932      3.89979        -0.000000      0.000000      0.000000
 -----------------------------------------------------------------------------------
    total drift:                                0.000011     -0.000006      0.000002


--------------------------------------------------------------------------------------------------------



  FREE ENERGIE OF THE ION-ELECTRON SYSTEM (eV)
  ---------------------------------------------------
  free  energy   TOTEN  =        -3.01318834 eV

  energy  without entropy=       -3.01242340  energy(sigma->0) =       -3.01280587
 


--------------------------------------------------------------------------------------------------------


    POTLOK:  cpu time    0.2080: real time    0.2068


--------------------------------------------------------------------------------------------------------




--------------------------------------------------------------------------------------------------------


  
 reached required accuracy - stopping structural energy minimisation
 writing wavefunctions
     LOOP+:  cpu time   20.0840: real time   20.1035
    4ORBIT:  cpu time    0.0000: real time    0.0000

 total amount of memory used by VASP on root node    50262. kBytes
========================================================================

   base      :      30000. kBytes
   nonlr-proj:        264. kBytes
   fftplans  :        511. kBytes
   grid      :        726. kBytes
   one-center:          8. kBytes
   wavefun   :      18753. kBytes
 
  
  
 General timing and accounting informations for this job:
 ========================================================
  
                  Total CPU time used (sec):       23.312
                            User time (sec):       22.896
                          System time (sec):        0.416
                         Elapsed time (sec):       23.381
  
                   Maximum memory used (kb):       81284.
                   Average memory used (kb):           0.
  
                          Minor page faults:        13808
                          Major page faults:            6
                 Voluntary context switches:          732
