 running on    8 total cores
 distrk:  each k-point on    8 cores,    1 groups
 distr:  one band on    2 cores,    4 groups
 using from now: INCAR     
 vasp.5.4.1 05Feb16 (build Mar 31 2016 13:39:20) complex                        
  
 POSCAR found type information on POSCAR  Mg
 POSCAR found :  1 types and       2 ions
 scaLAPACK will be used

 ----------------------------------------------------------------------------- 
|                                                                             |
|  ADVICE TO THIS USER RUNNING 'VASP/VAMP'   (HEAR YOUR MASTER'S VOICE ...):  |
|                                                                             |
|      You have a (more or less) 'small supercell' and for smaller cells      |
|      it is recommended  to use the reciprocal-space projection scheme!      |
|      The real space optimization is not  efficient for small cells and it   |
|      is also less accurate ...                                              |
|      Therefore set LREAL=.FALSE. in the  INCAR file                         |
|                                                                             |
 ----------------------------------------------------------------------------- 

 LDA part: xc-table for Pade appr. of Perdew
 found WAVECAR, reading the header
 WAVECAR: different cutoff or change in lattice found
 POSCAR, INCAR and KPOINTS ok, starting setup
 WARNING: small aliasing (wrap around) errors must be expected
 FFT: planning ...
 reading WAVECAR
 the WAVECAR file was read successfully
 initial charge from wavefunction
 entering main loop
       N       E                     dE             d eps       ncg     rms          rms(c)
DAV:   1    -0.301318833795E+01   -0.30132E+01   -0.17281E-07  8840   0.306E-03    0.109E-05
DAV:   2    -0.301318833813E+01   -0.18832E-09   -0.43311E-10  7904   0.138E-04    0.637E-06
DAV:   3    -0.301318833927E+01   -0.11396E-08   -0.38993E-11  7808   0.513E-05    0.241E-06
DAV:   4    -0.301318833990E+01   -0.62651E-09   -0.49613E-12  7632   0.134E-05
   1 F= -.30131883E+01 E0= -.30128059E+01  d E =-.301319E+01
 curvature:   0.00 expect dE= 0.000E+00 dE for cont linesearch  0.000E+00
 trial: gam= 0.00000 g(F)=  0.118E-42 g(S)=  0.114E-03 ort = 0.000E+00 (trialstep = 0.100E+01)
 search vector abs. value=  0.114E-03
 reached required accuracy - stopping structural energy minimisation
 writing wavefunctions
