 running on    8 total cores
 distrk:  each k-point on    8 cores,    1 groups
 distr:  one band on    2 cores,    4 groups
 using from now: INCAR     
 vasp.5.4.1 05Feb16 (build Mar 31 2016 13:39:20) complex                        
  
 POSCAR found type information on POSCAR  Mg
 POSCAR found :  1 types and       2 ions
 scaLAPACK will be used

 ----------------------------------------------------------------------------- 
|                                                                             |
|  ADVICE TO THIS USER RUNNING 'VASP/VAMP'   (HEAR YOUR MASTER'S VOICE ...):  |
|                                                                             |
|      You have a (more or less) 'small supercell' and for smaller cells      |
|      it is recommended  to use the reciprocal-space projection scheme!      |
|      The real space optimization is not  efficient for small cells and it   |
|      is also less accurate ...                                              |
|      Therefore set LREAL=.FALSE. in the  INCAR file                         |
|                                                                             |
 ----------------------------------------------------------------------------- 

 LDA part: xc-table for Pade appr. of Perdew
 POSCAR, INCAR and KPOINTS ok, starting setup
 WARNING: small aliasing (wrap around) errors must be expected
 FFT: planning ...
 WAVECAR not read
 entering main loop
       N       E                     dE             d eps       ncg     rms          rms(c)
DAV:   1    -0.669895001203E+00   -0.66990E+00   -0.13034E+03 14560   0.353E+02
DAV:   2    -0.301267509293E+01   -0.23428E+01   -0.22785E+01 19904   0.214E+01
DAV:   3    -0.302557542638E+01   -0.12900E-01   -0.12889E-01 19080   0.207E+00
DAV:   4    -0.302561024395E+01   -0.34818E-04   -0.34817E-04 21088   0.923E-02
DAV:   5    -0.302561032264E+01   -0.78697E-07   -0.79006E-07 19208   0.321E-03    0.957E-01
DAV:   6    -0.301955482572E+01    0.60555E-02   -0.65454E-04 17480   0.219E-01    0.613E-01
DAV:   7    -0.301212330182E+01    0.74315E-02   -0.25374E-03 15416   0.379E-01    0.341E-02
DAV:   8    -0.301213524522E+01   -0.11943E-04   -0.17040E-05 23584   0.274E-02    0.744E-03
DAV:   9    -0.301213393498E+01    0.13102E-05   -0.11678E-06 16072   0.575E-03    0.621E-04
DAV:  10    -0.301213370100E+01    0.23398E-06   -0.47211E-09 10136   0.478E-04
   1 F= -.30121337E+01 E0= -.30117445E+01  d E =-.301213E+01
 curvature:   0.00 expect dE= 0.000E+00 dE for cont linesearch  0.000E+00
 trial: gam= 0.00000 g(F)=  0.879E-44 g(S)=  0.106E-02 ort = 0.000E+00 (trialstep = 0.100E+01)
 search vector abs. value=  0.106E-02
 bond charge predicted
       N       E                     dE             d eps       ncg     rms          rms(c)
DAV:   1    -0.301294411217E+01   -0.81018E-03   -0.27215E-03 20320   0.219E-01    0.215E-02
DAV:   2    -0.301293913653E+01    0.49756E-05   -0.11351E-05 16600   0.205E-02    0.136E-02
DAV:   3    -0.301293566439E+01    0.34721E-05   -0.36838E-06 20744   0.755E-03    0.360E-04
DAV:   4    -0.301293563677E+01    0.27616E-07   -0.37209E-08  9888   0.129E-03
   2 F= -.30129356E+01 E0= -.30125722E+01  d E =-.801936E-03
 trial-energy change:   -0.000802  1 .order   -0.000794   -0.001055   -0.000533
 step:   1.8789(harm=  2.0220)  dis= 0.00000  next Energy=    -3.013175 (dE=-0.104E-02)
 bond charge predicted
       N       E                     dE             d eps       ncg     rms          rms(c)
DAV:   1    -0.301319929836E+01   -0.26363E-03   -0.20752E-03 20232   0.192E-01    0.182E-02
DAV:   2    -0.301319606673E+01    0.32316E-05   -0.84087E-06 16648   0.178E-02    0.115E-02
DAV:   3    -0.301319389856E+01    0.21682E-05   -0.24783E-06 20232   0.632E-03    0.309E-04
DAV:   4    -0.301319387039E+01    0.28171E-07   -0.25819E-08  9504   0.108E-03
   3 F= -.30131939E+01 E0= -.30128114E+01  d E =-.106017E-02
 curvature:  -0.99 expect dE=-0.112E-03 dE for cont linesearch -0.222E-05
 trial: gam= 0.06141 g(F)=  0.529E-44 g(S)=  0.113E-03 ort = 0.487E-04 (trialstep = 0.118E+01)
 search vector abs. value=  0.123E-03
 reached required accuracy - stopping structural energy minimisation
 writing wavefunctions
