unknown system                          
   1.00000000000000     
     3.184618    0.000000    0.000000
    -1.592308    2.757959    0.000000
     0.000000    0.000000    5.199714
   Mg
     2
Direct
  0.333333  0.666667  0.250000
  0.666667  0.333333  0.750000
 
   36   36   60
  3.2770      3.2854      3.3104      3.3520      3.4095      3.4817      3.5668      3.6619      3.7640      3.8699    
  3.9762      4.0798      4.1778      4.2671      4.3449      4.4084      4.4555      4.4844      4.4941      4.4844    
  4.4555      4.4084      4.3449      4.2671      4.1778      4.0798      3.9762      3.8699      3.7640      3.6619    
  3.5668      3.4817      3.4095      3.3520      3.3104      3.2854      3.2854      3.2854      3.3021      3.3354    
  3.3849      3.4498      3.5283      3.6184      3.7169      3.8208      3.9268      4.0317      4.1324      4.2259    
  4.3093      4.3798      4.4349      4.4727      4.4920      4.4920      4.4727      4.4349      4.3798      4.3093    
  4.2259      4.1324      4.0317      3.9268      3.8208      3.7169      3.6184      3.5283      3.4497      3.3849    
  3.3354      3.3021      3.3104      3.3021      3.3104      3.3354      3.3766      3.4335      3.5046      3.5881    
  3.6814      3.7815      3.8853      3.9897      4.0913      4.1873      4.2746      4.3504      4.4122      4.4578    
  4.4857      4.4952      4.4857      4.4578      4.4122      4.3504      4.2746      4.1873      4.0913      3.9896    
  3.8853      3.7815      3.6814      3.5881      3.5046      3.4335      3.3766      3.3354      3.3520      3.3354    
  3.3354      3.3520      3.3849      3.4335      3.4966      3.5725      3.6592      3.7539      3.8538      3.9557    
  4.0565      4.1531      4.2426      4.3220      4.3887      4.4406      4.4760      4.4940      4.4940      4.4760    
  4.4406      4.3887      4.3220      4.2426      4.1531      4.0565      3.9557      3.8538      3.7539      3.6592    
  3.5725      3.4966      3.4335      3.3849      3.4095      3.3849      3.3766      3.3849      3.4095      3.4498    
  3.5046      3.5725      3.6516      3.7396      3.8339      3.9316      4.0297      4.1251      4.2148      4.2960    
  4.3659      4.4224      4.4638      4.4891      4.4976      4.4891      4.4638      4.4224      4.3659      4.2960    
  4.2148      4.1251      4.0297      3.9316      3.8339      3.7396      3.6516      3.5725      3.5046      3.4497    
  3.4817      3.4497      3.4335      3.4335      3.4497      3.4817      3.5283      3.5881      3.6592      3.7396    
  3.8271      3.9191      4.0127      4.1051      4.1932      4.2741      4.3453      4.4046      4.4504      4.4814    
  4.4971      4.4971      4.4814      4.4504      4.4046      4.3453      4.2741      4.1932      4.1051      4.0127    
  3.9191      3.8271      3.7396      3.6592      3.5881      3.5283      3.5668      3.5283      3.5046      3.4966    
  3.5046      3.5283      3.5668      3.6184      3.6814      3.7539      3.8339      3.9191      4.0069      4.0946    
  4.1793      4.2582      4.3288      4.3890      4.4372      4.4724      4.4937      4.5008      4.4937      4.4724    
  4.4372      4.3890      4.3288      4.2582      4.1793      4.0946      4.0069      3.9191      3.8339      3.7539    
  3.6814      3.6184      3.6619      3.6184      3.5881      3.5725      3.5725      3.5881      3.6184      3.6619    
  3.7169      3.7815      3.8538      3.9316      4.0127      4.0946      4.1745      4.2497      4.3180      4.3773    
  4.4261      4.4635      4.4887      4.5014      4.5014      4.4887      4.4635      4.4261      4.3773      4.3180    
  4.2497      4.1745      4.0946      4.0127      3.9316      3.8538      3.7815      3.7169      3.7640      3.7169    
  3.6814      3.6592      3.6516      3.6592      3.6814      3.7169      3.7640      3.8208      3.8853      3.9557    
  4.0297      4.1051      4.1793      4.2497      4.3142      4.3710      4.4187      4.4564      4.4837      4.5003    
  4.5058      4.5003      4.4837      4.4564      4.4187      4.3710      4.3142      4.2497      4.1793      4.1051    
  4.0297      3.9557      3.8853      3.8208      3.8699      3.8208      3.7815      3.7539      3.7396      3.7396    
  3.7539      3.7815      3.8208      3.8699      3.9268      3.9897      4.0565      4.1251      4.1932      4.2582    
  4.3180      4.3710      4.4160      4.4525      4.4801      4.4986      4.5079      4.5079      4.4986      4.4801    
  4.4525      4.4160      4.3710      4.3180      4.2582      4.1932      4.1251      4.0565      3.9896      3.9268    
  3.9762      3.9268      3.8853      3.8538      3.8339      3.8271      3.8339      3.8538      3.8853      3.9268    
  3.9762      4.0317      4.0913      4.1531      4.2148      4.2741      4.3288      4.3773      4.4187      4.4525    
  4.4788      4.4975      4.5087      4.5125      4.5087      4.4975      4.4788      4.4525      4.4187      4.3773    
  4.3288      4.2741      4.2148      4.1531      4.0913      4.0317      4.0798      4.0317      3.9896      3.9557    
  3.9316      3.9191      3.9191      3.9316      3.9557      3.9897      4.0317      4.0798      4.1324      4.1873    
  4.2426      4.2960      4.3453      4.3890      4.4261      4.4564      4.4801      4.4975      4.5089      4.5146    
  4.5146      4.5089      4.4975      4.4801      4.4564      4.4261      4.3890      4.3453      4.2960      4.2426    
  4.1873      4.1324      4.1778      4.1324      4.0913      4.0565      4.0297      4.0127      4.0069      4.0127    
  4.0297      4.0565      4.0913      4.1324      4.1778      4.2259      4.2746      4.3220      4.3659      4.4046    
  4.4372      4.4635      4.4837      4.4986      4.5087      4.5146      4.5165      4.5146      4.5087      4.4986    
  4.4837      4.4635      4.4372      4.4046      4.3659      4.3220      4.2746      4.2259      4.2671      4.2259    
  4.1873      4.1531      4.1251      4.1051      4.0946      4.0946      4.1051      4.1251      4.1531      4.1873    
  4.2259      4.2671      4.3093      4.3504      4.3887      4.4224      4.4504      4.4724      4.4887      4.5003    
  4.5079      4.5125      4.5146      4.5146      4.5125      4.5079      4.5003      4.4887      4.4724      4.4504    
  4.4224      4.3887      4.3504      4.3093      4.3449      4.3093      4.2746      4.2426      4.2148      4.1932    
  4.1793      4.1745      4.1793      4.1932      4.2148      4.2426      4.2746      4.3093      4.3449      4.3798    
  4.4122      4.4406      4.4638      4.4814      4.4937      4.5014      4.5058      4.5079      4.5087      4.5089    
  4.5087      4.5079      4.5058      4.5014      4.4937      4.4814      4.4638      4.4406      4.4122      4.3798    
  4.4084      4.3798      4.3504      4.3220      4.2960      4.2741      4.2582      4.2497      4.2497      4.2582    
  4.2741      4.2960      4.3220      4.3504      4.3798      4.4084      4.4349      4.4578      4.4760      4.4891    
  4.4971      4.5008      4.5014      4.5003      4.4986      4.4975      4.4975      4.4986      4.5003      4.5014    
  4.5008      4.4971      4.4891      4.4760      4.4578      4.4349      4.4555      4.4349      4.4122      4.3887    
  4.3659      4.3453      4.3288      4.3180      4.3142      4.3180      4.3288      4.3453      4.3659      4.3887    
  4.4122      4.4349      4.4555      4.4727      4.4857      4.4940      4.4976      4.4971      4.4937      4.4887    
  4.4837      4.4801      4.4788      4.4801      4.4837      4.4887      4.4937      4.4971      4.4976      4.4940    
  4.4857      4.4727      4.4844      4.4727      4.4578      4.4406      4.4224      4.4046      4.3890      4.3773    
  4.3710      4.3710      4.3773      4.3890      4.4046      4.4224      4.4406      4.4578      4.4727      4.4844    
  4.4920      4.4952      4.4940      4.4891      4.4814      4.4724      4.4635      4.4564      4.4525      4.4525    
  4.4564      4.4635      4.4724      4.4814      4.4891      4.4940      4.4952      4.4920      4.4941      4.4920    
  4.4857      4.4760      4.4638      4.4504      4.4372      4.4261      4.4187      4.4160      4.4187      4.4261    
  4.4372      4.4504      4.4638      4.4760      4.4857      4.4920      4.4941      4.4920      4.4857      4.4760    
  4.4638      4.4504      4.4372      4.4261      4.4187      4.4160      4.4187      4.4261      4.4372      4.4504    
  4.4638      4.4760      4.4857      4.4920      4.4844      4.4920      4.4952      4.4940      4.4891      4.4814    
  4.4724      4.4635      4.4564      4.4525      4.4525      4.4564      4.4635      4.4724      4.4814      4.4891    
  4.4940      4.4952      4.4920      4.4844      4.4727      4.4578      4.4406      4.4224      4.4046      4.3890    
  4.3773      4.3710      4.3710      4.3773      4.3890      4.4046      4.4224      4.4406      4.4578      4.4727    
  4.4555      4.4727      4.4857      4.4940      4.4976      4.4971      4.4937      4.4887      4.4837      4.4801    
  4.4788      4.4801      4.4837      4.4887      4.4937      4.4971      4.4976      4.4940      4.4857      4.4727    
  4.4555      4.4349      4.4122      4.3887      4.3659      4.3453      4.3288      4.3180      4.3142      4.3180    
  4.3288      4.3453      4.3659      4.3887      4.4122      4.4349      4.4084      4.4349      4.4578      4.4760    
  4.4891      4.4971      4.5008      4.5014      4.5003      4.4986      4.4975      4.4975      4.4986      4.5003    
  4.5014      4.5008      4.4971      4.4891      4.4760      4.4578      4.4349      4.4084      4.3798      4.3504    
  4.3220      4.2960      4.2741      4.2582      4.2497      4.2497      4.2582      4.2741      4.2960      4.3220    
  4.3504      4.3798      4.3449      4.3798      4.4122      4.4406      4.4638      4.4814      4.4937      4.5014    
  4.5058      4.5079      4.5087      4.5089      4.5087      4.5079      4.5058      4.5014      4.4937      4.4814    
  4.4638      4.4406      4.4122      4.3798      4.3449      4.3093      4.2746      4.2426      4.2148      4.1932    
  4.1793      4.1745      4.1793      4.1932      4.2148      4.2426      4.2746      4.3093      4.2671      4.3093    
  4.3504      4.3887      4.4224      4.4504      4.4724      4.4887      4.5003      4.5079      4.5125      4.5146    
  4.5146      4.5125      4.5079      4.5003      4.4887      4.4724      4.4504      4.4224      4.3887      4.3504    
  4.3093      4.2671      4.2259      4.1873      4.1531      4.1251      4.1051      4.0946      4.0946      4.1051    
  4.1251      4.1531      4.1873      4.2259      4.1778      4.2259      4.2746      4.3220      4.3659      4.4046    
  4.4372      4.4635      4.4837      4.4986      4.5087      4.5146      4.5165      4.5146      4.5087      4.4986    
  4.4837      4.4635      4.4372      4.4046      4.3659      4.3220      4.2746      4.2259      4.1778      4.1324    
  4.0913      4.0565      4.0297      4.0127      4.0069      4.0127      4.0297      4.0565      4.0913      4.1324    
  4.0798      4.1324      4.1873      4.2426      4.2960      4.3453      4.3890      4.4261      4.4564      4.4801    
  4.4975      4.5089      4.5146      4.5146      4.5089      4.4975      4.4801      4.4564      4.4261      4.3890    
  4.3453      4.2960      4.2426      4.1873      4.1324      4.0798      4.0317      3.9897      3.9557      3.9316    
  3.9191      3.9191      3.9316      3.9557      3.9897      4.0317      3.9762      4.0317      4.0913      4.1531    
  4.2148      4.2741      4.3288      4.3773      4.4187      4.4525      4.4788      4.4975      4.5087      4.5125    
  4.5087      4.4975      4.4788      4.4525      4.4187      4.3773      4.3288      4.2741      4.2148      4.1531    
  4.0913      4.0317      3.9762      3.9268      3.8853      3.8538      3.8339      3.8271      3.8339      3.8538    
  3.8853      3.9268      3.8699      3.9268      3.9897      4.0565      4.1251      4.1932      4.2582      4.3180    
  4.3710      4.4160      4.4525      4.4801      4.4986      4.5079      4.5079      4.4986      4.4801      4.4525    
  4.4160      4.3710      4.3180      4.2582      4.1932      4.1251      4.0565      3.9897      3.9268      3.8699    
  3.8208      3.7815      3.7539      3.7396      3.7396      3.7539      3.7815      3.8208      3.7640      3.8208    
  3.8853      3.9557      4.0297      4.1051      4.1793      4.2497      4.3142      4.3710      4.4187      4.4564    
  4.4837      4.5003      4.5058      4.5003      4.4837      4.4564      4.4187      4.3710      4.3142      4.2497    
  4.1793      4.1051      4.0297      3.9557      3.8853      3.8208      3.7640      3.7169      3.6814      3.6592    
  3.6516      3.6592      3.6814      3.7169      3.6619      3.7169      3.7815      3.8538      3.9316      4.0127    
  4.0946      4.1745      4.2497      4.3180      4.3773      4.4261      4.4635      4.4887      4.5014      4.5014    
  4.4887      4.4635      4.4261      4.3773      4.3180      4.2497      4.1745      4.0946      4.0127      3.9316    
  3.8538      3.7815      3.7169      3.6619      3.6184      3.5881      3.5725      3.5725      3.5881      3.6184    
  3.5668      3.6184      3.6814      3.7539      3.8339      3.9191      4.0069      4.0946      4.1793      4.2582    
  4.3288      4.3890      4.4372      4.4724      4.4937      4.5008      4.4937      4.4724      4.4372      4.3890    
  4.3288      4.2582      4.1793      4.0946      4.0069      3.9191      3.8339      3.7539      3.6814      3.6184    
  3.5668      3.5283      3.5046      3.4966      3.5046      3.5283      3.4817      3.5283      3.5881      3.6592    
  3.7396      3.8271      3.9191      4.0127      4.1051      4.1932      4.2741      4.3453      4.4046      4.4504    
  4.4814      4.4971      4.4971      4.4814      4.4504      4.4046      4.3453      4.2741      4.1932      4.1051    
  4.0127      3.9191      3.8271      3.7396      3.6592      3.5881      3.5283      3.4817      3.4498      3.4335    
  3.4335      3.4498      3.4095      3.4498      3.5046      3.5725      3.6516      3.7396      3.8339      3.9316    
  4.0297      4.1251      4.2148      4.2960      4.3659      4.4224      4.4638      4.4891      4.4976      4.4891    
  4.4638      4.4224      4.3659      4.2960      4.2148      4.1251      4.0297      3.9316      3.8339      3.7396    
  3.6516      3.5725      3.5046      3.4498      3.4095      3.3849      3.3766      3.3849      3.3520      3.3849    
  3.4335      3.4966      3.5725      3.6592      3.7539      3.8538      3.9557      4.0565      4.1531      4.2426    
  4.3220      4.3887      4.4406      4.4760      4.4940      4.4940      4.4760      4.4406      4.3887      4.3220    
  4.2426      4.1531      4.0565      3.9557      3.8538      3.7539      3.6592      3.5725      3.4966      3.4335    
  3.3849      3.3520      3.3354      3.3354      3.3104      3.3354      3.3766      3.4335      3.5046      3.5881    
  3.6814      3.7815      3.8853      3.9897      4.0913      4.1873      4.2746      4.3504      4.4122      4.4578    
  4.4857      4.4952      4.4857      4.4578      4.4122      4.3504      4.2746      4.1873      4.0913      3.9896    
  3.8853      3.7815      3.6814      3.5881      3.5046      3.4335      3.3766      3.3354      3.3104      3.3021    
  3.2854      3.3021      3.3354      3.3849      3.4498      3.5283      3.6184      3.7169      3.8208      3.9268    
  4.0317      4.1324      4.2259      4.3093      4.3798      4.4349      4.4727      4.4920      4.4920      4.4727    
  4.4349      4.3798      4.3093      4.2259      4.1324      4.0317      3.9268      3.8208      3.7169      3.6184    
  3.5283      3.4497      3.3849      3.3354      3.3021      3.2854      3.2835      3.2920      3.3171      3.3589    
  3.4164      3.4886      3.5733      3.6680      3.7697      3.8751      3.9809      4.0841      4.1816      4.2705    
  4.3478      4.4109      4.4576      4.4862      4.4959      4.4862      4.4576      4.4109      4.3478      4.2705    
  4.1816      4.0841      3.9809      3.8750      3.7697      3.6680      3.5733      3.4885      3.4164      3.3589    
  3.3171      3.2920      3.2920      3.2920      3.3086      3.3417      3.3910      3.4555      3.5338      3.6235    
  3.7218      3.8254      3.9311      4.0357      4.1361      4.2294      4.3124      4.3826      4.4374      4.4750    
  4.4941      4.4941      4.4750      4.4374      4.3826      4.3124      4.2294      4.1361      4.0357      3.9311    
  3.8254      3.7217      3.6235      3.5338      3.4555      3.3910      3.3417      3.3086      3.3171      3.3090    
  3.3171      3.3417      3.3824      3.4386      3.5092      3.5923      3.6854      3.7853      3.8890      3.9932    
  4.0948      4.1906      4.2778      4.3534      4.4149      4.4603      4.4882      4.4975      4.4882      4.4603    
  4.4149      4.3534      4.2778      4.1906      4.0948      3.9932      3.8890      3.7853      3.6854      3.5923    
  3.5092      3.4386      3.3824      3.3417      3.3589      3.3427      3.3427      3.3589      3.3910      3.4386    
  3.5009      3.5762      3.6625      3.7571      3.8568      3.9586      4.0594      4.1560      4.2454      4.3249    
  4.3916      4.4436      4.4791      4.4971      4.4971      4.4791      4.4436      4.3916      4.3249      4.2454    
  4.1560      4.0594      3.9586      3.8568      3.7571      3.6625      3.5762      3.5009      3.4386      3.3910    
  3.4164      3.3927      3.3847      3.3927      3.4164      3.4555      3.5092      3.5762      3.6547      3.7424    
  3.8365      3.9340      4.0320      4.1273      4.2171      4.2985      4.3689      4.4259      4.4678      4.4934    
  4.5020      4.4934      4.4678      4.4259      4.3689      4.2985      4.2171      4.1273      4.0320      3.9340    
  3.8365      3.7424      3.6547      3.5762      3.5092      3.4555      3.4885      3.4578      3.4422      3.4422    
  3.4578      3.4885      3.5338      3.5923      3.6625      3.7424      3.8295      3.9211      4.0145      4.1067    
  4.1948      4.2762      4.3482      4.4085      4.4554      4.4873      4.5035      4.5035      4.4873      4.4553    
  4.4085      4.3482      4.2762      4.1948      4.1067      4.0145      3.9211      3.8295      3.7424      3.6625    
  3.5923      3.5338      3.5733      3.5363      3.5136      3.5059      3.5136      3.5363      3.5733      3.6235    
  3.6854      3.7571      3.8365      3.9211      4.0085      4.0958      4.1804      4.2597      4.3313      4.3930    
  4.4430      4.4797      4.5021      4.5097      4.5021      4.4797      4.4430      4.3930      4.3313      4.2597    
  4.1804      4.0958      4.0085      3.9211      3.8365      3.7571      3.6854      3.6235      3.6680      3.6259    
  3.5969      3.5820      3.5820      3.5969      3.6259      3.6680      3.7218      3.7853      3.8568      3.9340    
  4.0145      4.0958      4.1754      4.2510      4.3202      4.3813      4.4323      4.4720      4.4990      4.5128    
  4.5128      4.4990      4.4720      4.4323      4.3813      4.3202      4.2509      4.1754      4.0958      4.0145    
  3.9340      3.8568      3.7853      3.7217      3.7697      3.7239      3.6896      3.6684      3.6612      3.6684    
  3.6896      3.7239      3.7697      3.8254      3.8890      3.9586      4.0320      4.1067      4.1804      4.2510    
  4.3163      4.3749      4.4250      4.4656      4.4954      4.5137      4.5198      4.5137      4.4954      4.4656    
  4.4250      4.3749      4.3163      4.2509      4.1804      4.1067      4.0320      3.9586      3.8890      3.8254    
  3.8750      3.8271      3.7890      3.7625      3.7489      3.7489      3.7625      3.7890      3.8271      3.8751    
  3.9311      3.9932      4.0594      4.1273      4.1948      4.2597      4.3202      4.3749      4.4224      4.4620    
  4.4925      4.5134      4.5240      4.5240      4.5134      4.4925      4.4620      4.4224      4.3749      4.3202    
  4.2597      4.1948      4.1273      4.0594      3.9932      3.9311      3.9809      3.9324      3.8920      3.8615    
  3.8425      3.8360      3.8425      3.8615      3.8920      3.9324      3.9809      4.0357      4.0948      4.1560    
  4.2171      4.2762      4.3313      4.3813      4.4250      4.4620      4.4915      4.5130      4.5262      4.5306    
  4.5262      4.5130      4.4915      4.4620      4.4250      4.3813      4.3313      4.2762      4.2171      4.1560    
  4.0948      4.0357      4.0841      4.0365      3.9954      3.9624      3.9392      3.9273      3.9273      3.9392    
  3.9624      3.9954      4.0365      4.0841      4.1361      4.1906      4.2454      4.2985      4.3482      4.3930    
  4.4323      4.4656      4.4925      4.5130      4.5268      4.5338      4.5338      4.5268      4.5130      4.4925    
  4.4656      4.4323      4.3930      4.3482      4.2985      4.2454      4.1906      4.1361      4.1816      4.1366    
  4.0961      4.0620      4.0361      4.0199      4.0143      4.0199      4.0361      4.0620      4.0961      4.1366    
  4.1816      4.2294      4.2778      4.3249      4.3689      4.4085      4.4430      4.4720      4.4954      4.5134    
  4.5262      4.5338      4.5363      4.5338      4.5262      4.5134      4.4954      4.4720      4.4430      4.4085    
  4.3689      4.3249      4.2778      4.2294      4.2705      4.2294      4.1910      4.1573      4.1299      4.1106    
  4.1005      4.1005      4.1106      4.1299      4.1573      4.1910      4.2294      4.2705      4.3124      4.3534    
  4.3916      4.4259      4.4554      4.4797      4.4990      4.5137      4.5240      4.5306      4.5338      4.5338    
  4.5306      4.5240      4.5137      4.4990      4.4797      4.4553      4.4259      4.3916      4.3534      4.3124    
  4.3478      4.3121      4.2773      4.2451      4.2176      4.1963      4.1828      4.1781      4.1828      4.1963    
  4.2176      4.2452      4.2773      4.3121      4.3478      4.3826      4.4149      4.4436      4.4678      4.4873    
  4.5021      4.5128      4.5198      4.5240      4.5262      4.5268      4.5262      4.5240      4.5198      4.5128    
  4.5021      4.4873      4.4678      4.4436      4.4149      4.3826      4.4109      4.3819      4.3520      4.3228    
  4.2962      4.2741      4.2581      4.2498      4.2498      4.2581      4.2741      4.2962      4.3228      4.3520    
  4.3819      4.4109      4.4374      4.4603      4.4791      4.4934      4.5035      4.5097      4.5128      4.5137    
  4.5134      4.5130      4.5130      4.5134      4.5137      4.5128      4.5097      4.5035      4.4934      4.4791    
  4.4603      4.4374      4.4576      4.4365      4.4127      4.3877      4.3634      4.3416      4.3242      4.3131    
  4.3092      4.3131      4.3242      4.3416      4.3634      4.3878      4.4127      4.4365      4.4576      4.4750    
  4.4882      4.4971      4.5020      4.5035      4.5021      4.4990      4.4954      4.4925      4.4915      4.4925    
  4.4954      4.4990      4.5021      4.5035      4.5020      4.4971      4.4882      4.4750      4.4862      4.4739    
  4.4575      4.4381      4.4173      4.3970      4.3794      4.3663      4.3594      4.3594      4.3663      4.3794    
  4.3970      4.4173      4.4381      4.4575      4.4739      4.4862      4.4941      4.4975      4.4971      4.4934    
  4.4873      4.4797      4.4720      4.4656      4.4620      4.4620      4.4656      4.4720      4.4797      4.4873    
  4.4934      4.4971      4.4975      4.4941      4.4959      4.4929      4.4850      4.4724      4.4566      4.4392    
  4.4226      4.4087      4.3996      4.3964      4.3996      4.4087      4.4226      4.4392      4.4566      4.4724    
  4.4850      4.4929      4.4959      4.4941      4.4882      4.4791      4.4678      4.4554      4.4430      4.4323    
  4.4250      4.4224      4.4250      4.4323      4.4430      4.4554      4.4678      4.4791      4.4882      4.4941    
  4.4862      4.4929      4.4942      4.4898      4.4804      4.4676      4.4534      4.4402      4.4300      4.4245    
  4.4245      4.4300      4.4402      4.4534      4.4676      4.4804      4.4898      4.4942      4.4929      4.4862    
  4.4750      4.4603      4.4436      4.4259      4.4085      4.3930      4.3813      4.3749      4.3749      4.3813    
  4.3930      4.4085      4.4259      4.4436      4.4603      4.4750      4.4576      4.4739      4.4850      4.4898    
  4.4884      4.4818      4.4719      4.4608      4.4510      4.4443      4.4419      4.4443      4.4510      4.4608    
  4.4719      4.4818      4.4884      4.4898      4.4850      4.4739      4.4576      4.4374      4.4149      4.3916    
  4.3689      4.3482      4.3313      4.3202      4.3163      4.3202      4.3313      4.3482      4.3689      4.3916    
  4.4149      4.4374      4.4109      4.4365      4.4575      4.4724      4.4804      4.4818      4.4780      4.4711    
  4.4633      4.4569      4.4533      4.4533      4.4569      4.4633      4.4711      4.4780      4.4818      4.4804    
  4.4724      4.4575      4.4365      4.4109      4.3826      4.3534      4.3249      4.2985      4.2762      4.2597    
  4.2510      4.2510      4.2597      4.2762      4.2985      4.3249      4.3534      4.3826      4.3478      4.3819    
  4.4127      4.4381      4.4566      4.4676      4.4719      4.4711      4.4674      4.4630      4.4596      4.4583    
  4.4596      4.4630      4.4674      4.4711      4.4719      4.4676      4.4566      4.4381      4.4127      4.3819    
  4.3478      4.3124      4.2778      4.2454      4.2171      4.1948      4.1804      4.1754      4.1804      4.1948    
  4.2171      4.2454      4.2778      4.3124      4.2705      4.3121      4.3520      4.3878      4.4173      4.4392    
  4.4534      4.4608      4.4633      4.4630      4.4616      4.4606      4.4606      4.4616      4.4630      4.4633    
  4.4608      4.4534      4.4392      4.4173      4.3878      4.3520      4.3121      4.2705      4.2294      4.1906    
  4.1560      4.1273      4.1067      4.0958      4.0958      4.1067      4.1273      4.1560      4.1906      4.2294    
  4.1816      4.2294      4.2773      4.3228      4.3634      4.3970      4.4226      4.4402      4.4510      4.4569    
  4.4596      4.4606      4.4608      4.4606      4.4596      4.4569      4.4510      4.4402      4.4226      4.3970    
  4.3634      4.3228      4.2773      4.2294      4.1816      4.1361      4.0948      4.0594      4.0320      4.0145    
  4.0085      4.0145      4.0320      4.0594      4.0948      4.1362      4.0841      4.1366      4.1910      4.2452    
  4.2962      4.3416      4.3794      4.4087      4.4300      4.4443      4.4533      4.4583      4.4606      4.4606    
  4.4583      4.4533      4.4443      4.4300      4.4087      4.3794      4.3416      4.2962      4.2452      4.1910    
  4.1366      4.0841      4.0357      3.9932      3.9586      3.9340      3.9211      3.9211      3.9340      3.9586    
  3.9932      4.0357      3.9809      4.0366      4.0961      4.1573      4.2176      4.2741      4.3242      4.3663    
  4.3996      4.4245      4.4419      4.4533      4.4596      4.4616      4.4596      4.4533      4.4419      4.4245    
  4.3996      4.3663      4.3242      4.2741      4.2176      4.1573      4.0961      4.0366      3.9809      3.9311    
  3.8890      3.8568      3.8365      3.8295      3.8365      3.8568      3.8890      3.9311      3.8751      3.9324    
  3.9954      4.0620      4.1299      4.1963      4.2582      4.3131      4.3594      4.3964      4.4245      4.4443    
  4.4569      4.4630      4.4630      4.4569      4.4443      4.4245      4.3964      4.3594      4.3131      4.2581    
  4.1963      4.1299      4.0620      3.9954      3.9324      3.8751      3.8254      3.7853      3.7571      3.7424    
  3.7424      3.7571      3.7853      3.8254      3.7697      3.8271      3.8920      3.9624      4.0361      4.1106    
  4.1828      4.2498      4.3092      4.3594      4.3996      4.4300      4.4510      4.4633      4.4674      4.4633    
  4.4510      4.4300      4.3996      4.3594      4.3092      4.2498      4.1828      4.1106      4.0361      3.9624    
  3.8920      3.8271      3.7697      3.7218      3.6854      3.6625      3.6547      3.6625      3.6854      3.7218    
  3.6680      3.7239      3.7890      3.8615      3.9392      4.0199      4.1005      4.1782      4.2498      4.3131    
  4.3663      4.4087      4.4402      4.4608      4.4711      4.4711      4.4608      4.4402      4.4087      4.3663    
  4.3131      4.2498      4.1781      4.1005      4.0199      3.9392      3.8615      3.7890      3.7239      3.6680    
  3.6235      3.5923      3.5762      3.5762      3.5923      3.6235      3.5733      3.6259      3.6896      3.7625    
  3.8425      3.9273      4.0143      4.1005      4.1828      4.2582      4.3242      4.3794      4.4226      4.4534    
  4.4719      4.4780      4.4719      4.4534      4.4226      4.3794      4.3242      4.2581      4.1828      4.1005    
  4.0143      3.9273      3.8425      3.7625      3.6896      3.6259      3.5733      3.5338      3.5092      3.5009    
  3.5092      3.5338      3.4885      3.5363      3.5969      3.6684      3.7489      3.8360      3.9273      4.0199    
  4.1106      4.1963      4.2741      4.3416      4.3970      4.4392      4.4676      4.4818      4.4818      4.4676    
  4.4392      4.3970      4.3416      4.2741      4.1963      4.1106      4.0199      3.9273      3.8360      3.7489    
  3.6684      3.5969      3.5363      3.4885      3.4555      3.4386      3.4386      3.4555      3.4164      3.4578    