   2   2   0   0
  0.2283467E+02  0.3184618E-09  0.3184617E-09  0.5199714E-09  0.5000000E-15
  1.000000000000000E-004
  CAR 
 unknown system                          
     16.47800988     -5.27874162  301      2.67824795      1.00000000
     -5.279  0.0000E+00  0.0000E+00
     -5.206  0.0000E+00  0.0000E+00
     -5.134  0.0000E+00  0.0000E+00
     -5.061  0.0000E+00  0.0000E+00
     -4.989  0.0000E+00  0.0000E+00
     -4.916  0.0000E+00  0.0000E+00
     -4.844  0.0000E+00  0.0000E+00
     -4.771  0.0000E+00  0.0000E+00
     -4.699  0.0000E+00  0.0000E+00
     -4.626  0.0000E+00  0.0000E+00
     -4.554  0.6991E-17  0.5070E-18
     -4.481  0.5682E-11  0.4121E-12
     -4.408  0.9562E-07  0.6935E-08
     -4.336  0.4590E-04  0.3336E-05
     -4.263  0.1090E-02  0.8239E-04
     -4.191  0.3753E-02  0.3546E-03
     -4.118  0.5720E-02  0.7694E-03
     -4.046  0.6962E-02  0.1274E-02
     -3.973  0.8502E-02  0.1891E-02
     -3.901  0.8890E-02  0.2536E-02
     -3.828  0.1066E-01  0.3309E-02
     -3.756  0.1067E-01  0.4082E-02
     -3.683  0.1164E-01  0.4927E-02
     -3.611  0.1310E-01  0.5876E-02
     -3.538  0.1302E-01  0.6821E-02
     -3.466  0.1286E-01  0.7753E-02
     -3.393  0.1657E-01  0.8955E-02
     -3.321  0.1400E-01  0.9970E-02
     -3.248  0.1491E-01  0.1105E-01
     -3.176  0.1774E-01  0.1234E-01
     -3.103  0.1652E-01  0.1354E-01
     -3.031  0.1767E-01  0.1482E-01
     -2.958  0.1615E-01  0.1599E-01
     -2.885  0.2000E-01  0.1744E-01
     -2.813  0.2006E-01  0.1889E-01
     -2.740  0.1774E-01  0.2018E-01
     -2.668  0.1878E-01  0.2154E-01
     -2.595  0.2291E-01  0.2320E-01
     -2.523  0.1963E-01  0.2463E-01
     -2.450  0.2199E-01  0.2622E-01
     -2.378  0.2176E-01  0.2780E-01
     -2.305  0.1989E-01  0.2924E-01
     -2.233  0.2408E-01  0.3099E-01
     -2.160  0.2462E-01  0.3278E-01
     -2.088  0.2292E-01  0.3444E-01
     -2.015  0.2268E-01  0.3608E-01
     -1.943  0.2273E-01  0.3773E-01
     -1.870  0.2726E-01  0.3971E-01
     -1.798  0.2528E-01  0.4154E-01
     -1.725  0.2380E-01  0.4327E-01
     -1.653  0.2843E-01  0.4533E-01
     -1.580  0.2390E-01  0.4706E-01
     -1.508  0.2559E-01  0.4892E-01
     -1.435  0.2751E-01  0.5091E-01
     -1.363  0.2886E-01  0.5301E-01
     -1.290  0.3103E-01  0.5526E-01
     -1.217  0.2438E-01  0.5703E-01
     -1.145  0.2469E-01  0.5882E-01
     -1.072  0.3257E-01  0.6118E-01
     -1.000  0.3003E-01  0.6336E-01
     -0.927  0.2913E-01  0.6547E-01
     -0.855  0.2971E-01  0.6762E-01
     -0.782  0.3166E-01  0.6992E-01
     -0.710  0.2949E-01  0.7206E-01
     -0.637  0.2815E-01  0.7410E-01
     -0.565  0.3067E-01  0.7632E-01
     -0.492  0.3587E-01  0.7893E-01
     -0.420  0.3230E-01  0.8127E-01
     -0.347  0.3409E-01  0.8374E-01
     -0.275  0.3039E-01  0.8595E-01
     -0.202  0.2735E-01  0.8793E-01
     -0.130  0.3559E-01  0.9051E-01
     -0.057  0.3688E-01  0.9318E-01
      0.015  0.3460E-01  0.9569E-01
      0.088  0.3569E-01  0.9828E-01
      0.160  0.3166E-01  0.1006E+00
      0.233  0.3687E-01  0.1033E+00
      0.305  0.3213E-01  0.1056E+00
      0.378  0.3656E-01  0.1082E+00
      0.451  0.3655E-01  0.1109E+00
      0.523  0.3484E-01  0.1134E+00
      0.596  0.4158E-01  0.1164E+00
      0.668  0.4074E-01  0.1194E+00
      0.741  0.3341E-01  0.1218E+00
      0.813  0.3390E-01  0.1243E+00
      0.886  0.3517E-01  0.1268E+00
      0.958  0.4492E-01  0.1301E+00
      1.031  0.4181E-01  0.1331E+00
      1.103  0.3884E-01  0.1359E+00
      1.176  0.4213E-01  0.1390E+00
      1.248  0.3604E-01  0.1416E+00
      1.321  0.4082E-01  0.1445E+00
      1.393  0.4382E-01  0.1477E+00
      1.466  0.3734E-01  0.1504E+00
      1.538  0.4293E-01  0.1535E+00
      1.611  0.4693E-01  0.1570E+00
      1.683  0.4887E-01  0.1605E+00
      1.756  0.4622E-01  0.1638E+00
      1.828  0.4152E-01  0.1669E+00
      1.901  0.4206E-01  0.1699E+00
      1.974  0.3795E-01  0.1727E+00
      2.046  0.3029E-01  0.1749E+00
      2.119  0.4241E-01  0.1779E+00
      2.191  0.4378E-01  0.1811E+00
      2.264  0.3863E-01  0.1839E+00
      2.336  0.3695E-01  0.1866E+00
      2.409  0.3294E-01  0.1890E+00
      2.481  0.4359E-01  0.1921E+00
      2.554  0.4440E-01  0.1954E+00
      2.626  0.4178E-01  0.1984E+00
      2.699  0.3114E-01  0.2006E+00
      2.771  0.4183E-01  0.2037E+00
      2.844  0.5187E-01  0.2074E+00
      2.916  0.4348E-01  0.2106E+00
      2.989  0.4106E-01  0.2136E+00
      3.061  0.4303E-01  0.2167E+00
      3.134  0.3975E-01  0.2196E+00
      3.206  0.4048E-01  0.2225E+00
      3.279  0.4374E-01  0.2257E+00
      3.351  0.5004E-01  0.2293E+00
      3.424  0.5853E-01  0.2336E+00
      3.496  0.5673E-01  0.2377E+00
      3.569  0.4552E-01  0.2410E+00
      3.642  0.4854E-01  0.2445E+00
      3.714  0.4968E-01  0.2481E+00
      3.787  0.4260E-01  0.2512E+00
      3.859  0.4688E-01  0.2546E+00
      3.932  0.4077E-01  0.2575E+00
      4.004  0.5642E-01  0.2616E+00
      4.077  0.5416E-01  0.2656E+00
      4.149  0.4624E-01  0.2689E+00
      4.222  0.4343E-01  0.2721E+00
      4.294  0.3330E-01  0.2745E+00
      4.367  0.4516E-01  0.2778E+00
      4.439  0.4708E-01  0.2812E+00
      4.512  0.4957E-01  0.2848E+00
      4.584  0.5333E-01  0.2886E+00
      4.657  0.5436E-01  0.2926E+00
      4.729  0.4734E-01  0.2960E+00
      4.802  0.5099E-01  0.2997E+00
      4.874  0.4847E-01  0.3032E+00
      4.947  0.4692E-01  0.3066E+00
      5.019  0.5422E-01  0.3106E+00
      5.092  0.5357E-01  0.3144E+00
      5.164  0.5255E-01  0.3183E+00
      5.237  0.5478E-01  0.3222E+00
      5.310  0.4433E-01  0.3254E+00
      5.382  0.4562E-01  0.3288E+00
      5.455  0.5327E-01  0.3326E+00
      5.527  0.5885E-01  0.3369E+00
      5.600  0.5527E-01  0.3409E+00
      5.672  0.4973E-01  0.3445E+00
      5.745  0.4445E-01  0.3477E+00
      5.817  0.5764E-01  0.3519E+00
      5.890  0.5311E-01  0.3558E+00
      5.962  0.5415E-01  0.3597E+00
      6.035  0.5945E-01  0.3640E+00
      6.107  0.5538E-01  0.3680E+00
      6.180  0.6023E-01  0.3724E+00
      6.252  0.5879E-01  0.3766E+00
      6.325  0.5681E-01  0.3808E+00
      6.397  0.5524E-01  0.3848E+00
      6.470  0.6424E-01  0.3894E+00
      6.542  0.5346E-01  0.3933E+00
      6.615  0.5552E-01  0.3973E+00
      6.687  0.6413E-01  0.4020E+00
      6.760  0.5341E-01  0.4059E+00
      6.833  0.4966E-01  0.4095E+00
      6.905  0.5095E-01  0.4131E+00
      6.978  0.5305E-01  0.4170E+00
      7.050  0.5923E-01  0.4213E+00
      7.123  0.4611E-01  0.4246E+00
      7.195  0.5389E-01  0.4285E+00
      7.268  0.5542E-01  0.4326E+00
      7.340  0.6328E-01  0.4372E+00
      7.413  0.5408E-01  0.4411E+00
      7.485  0.5399E-01  0.4450E+00
      7.558  0.5088E-01  0.4487E+00
      7.630  0.5070E-01  0.4524E+00
      7.703  0.5445E-01  0.4563E+00
      7.775  0.5676E-01  0.4604E+00
      7.848  0.5645E-01  0.4645E+00
      7.920  0.4943E-01  0.4681E+00
      7.993  0.5433E-01  0.4720E+00
      8.065  0.5880E-01  0.4763E+00
      8.138  0.5951E-01  0.4806E+00
      8.210  0.6023E-01  0.4850E+00
      8.283  0.4867E-01  0.4885E+00
      8.355  0.5263E-01  0.4923E+00
      8.428  0.6531E-01  0.4971E+00
      8.501  0.7385E-01  0.5024E+00
      8.573  0.6264E-01  0.5070E+00
      8.646  0.5286E-01  0.5108E+00
      8.718  0.5319E-01  0.5147E+00
      8.791  0.5025E-01  0.5183E+00
      8.863  0.5792E-01  0.5225E+00
      8.936  0.7186E-01  0.5277E+00
      9.008  0.7147E-01  0.5329E+00
      9.081  0.6536E-01  0.5376E+00
      9.153  0.5324E-01  0.5415E+00
      9.226  0.5490E-01  0.5455E+00
      9.298  0.5861E-01  0.5497E+00
      9.371  0.6410E-01  0.5544E+00
      9.443  0.6641E-01  0.5592E+00
      9.516  0.6163E-01  0.5637E+00
      9.588  0.6285E-01  0.5682E+00
      9.661  0.6796E-01  0.5732E+00
      9.733  0.6286E-01  0.5777E+00
      9.806  0.6680E-01  0.5826E+00
      9.878  0.7085E-01  0.5877E+00
      9.951  0.7059E-01  0.5928E+00
     10.024  0.5135E-01  0.5965E+00
     10.096  0.5606E-01  0.6006E+00
     10.169  0.7396E-01  0.6060E+00
     10.241  0.6110E-01  0.6104E+00
     10.314  0.5996E-01  0.6147E+00
     10.386  0.6327E-01  0.6193E+00
     10.459  0.6654E-01  0.6242E+00
     10.531  0.6234E-01  0.6287E+00
     10.604  0.6189E-01  0.6332E+00
     10.676  0.5344E-01  0.6370E+00
     10.749  0.6080E-01  0.6415E+00
     10.821  0.6333E-01  0.6461E+00
     10.894  0.6762E-01  0.6510E+00
     10.966  0.5880E-01  0.6552E+00
     11.039  0.6103E-01  0.6596E+00
     11.111  0.6633E-01  0.6645E+00
     11.184  0.6331E-01  0.6690E+00
     11.256  0.6369E-01  0.6737E+00
     11.329  0.5598E-01  0.6777E+00
     11.401  0.5614E-01  0.6818E+00
     11.474  0.7493E-01  0.6872E+00
     11.546  0.6823E-01  0.6922E+00
     11.619  0.5717E-01  0.6963E+00
     11.692  0.6688E-01  0.7012E+00
     11.764  0.6880E-01  0.7062E+00
     11.837  0.6492E-01  0.7109E+00
     11.909  0.4653E-01  0.7142E+00
     11.982  0.4925E-01  0.7178E+00
     12.054  0.5547E-01  0.7218E+00
     12.127  0.6544E-01  0.7266E+00
     12.199  0.5418E-01  0.7305E+00
     12.272  0.5427E-01  0.7345E+00
     12.344  0.5033E-01  0.7381E+00
     12.417  0.4544E-01  0.7414E+00
     12.489  0.5093E-01  0.7451E+00
     12.562  0.4443E-01  0.7483E+00
     12.634  0.4520E-01  0.7516E+00
     12.707  0.3662E-01  0.7542E+00
     12.779  0.3830E-01  0.7570E+00
     12.852  0.4161E-01  0.7600E+00
     12.924  0.3671E-01  0.7627E+00
     12.997  0.3522E-01  0.7653E+00
     13.069  0.3729E-01  0.7680E+00
     13.142  0.3279E-01  0.7703E+00
     13.214  0.2300E-01  0.7720E+00
     13.287  0.2807E-01  0.7740E+00
     13.360  0.3186E-01  0.7764E+00
     13.432  0.2640E-01  0.7783E+00
     13.505  0.1760E-01  0.7795E+00
     13.577  0.1697E-01  0.7808E+00
     13.650  0.1876E-01  0.7821E+00
     13.722  0.2196E-01  0.7837E+00
     13.795  0.2156E-01  0.7853E+00
     13.867  0.1875E-01  0.7867E+00
     13.940  0.1231E-01  0.7875E+00
     14.012  0.1470E-01  0.7886E+00
     14.085  0.1614E-01  0.7898E+00
     14.157  0.1590E-01  0.7909E+00
     14.230  0.1285E-01  0.7919E+00
     14.302  0.1229E-01  0.7928E+00
     14.375  0.1565E-01  0.7939E+00
     14.447  0.1388E-01  0.7949E+00
     14.520  0.9601E-02  0.7956E+00
     14.592  0.8852E-02  0.7962E+00
     14.665  0.6949E-02  0.7967E+00
     14.737  0.7685E-02  0.7973E+00
     14.810  0.6894E-02  0.7978E+00
     14.883  0.4934E-02  0.7982E+00
     14.955  0.7482E-02  0.7987E+00
     15.028  0.3864E-02  0.7990E+00
     15.100  0.1257E-02  0.7991E+00
     15.173  0.3295E-02  0.7993E+00
     15.245  0.4981E-02  0.7997E+00
     15.318  0.8424E-03  0.7997E+00
     15.390  0.7783E-03  0.7998E+00
     15.463  0.1737E-02  0.7999E+00
     15.535  0.1049E-02  0.8000E+00
     15.608  0.9821E-04  0.8000E+00
     15.680  0.3694E-06  0.8000E+00
     15.753  0.2940E-10  0.8000E+00
     15.825  0.4001E-16  0.8000E+00
     15.898  0.0000E+00  0.8000E+00
     15.970  0.0000E+00  0.8000E+00
     16.043  0.0000E+00  0.8000E+00
     16.115  0.0000E+00  0.8000E+00
     16.188  0.0000E+00  0.8000E+00
     16.260  0.0000E+00  0.8000E+00
     16.333  0.0000E+00  0.8000E+00
     16.405  0.0000E+00  0.8000E+00
     16.478  0.0000E+00  0.8000E+00
