    2    2   20    1
  0.2283467E+02  0.3184618E-09  0.3184617E-09  0.5199714E-09  0.5000000E-15
  1.000000000000000E-004
  CAR 
 unknown system                          
      4    910      8
 
  0.0000000E+00  0.0000000E+00  0.2500000E-01  0.1111111E-03
    1       -4.289798   1.000000
    2        0.816025   1.000000
    3        1.497712   1.000000
    4       13.694478   0.000000
    5       13.694482   0.000000
    6       13.832533   0.000000
    7       13.832538   0.000000
    8       14.445544   0.000000
 
  0.3333333E-01 -0.3469447E-17  0.2500000E-01  0.6666667E-03
    1       -4.267751   1.000000
    2        0.836462   1.000000
    3        1.518880   1.000000
    4       12.930313   0.000000
    5       13.228309   0.000000
    6       13.863657   0.000000
    7       14.329740   0.000000
    8       14.799714   0.000000
 
  0.6666667E-01 -0.6938894E-17  0.2500000E-01  0.6666667E-03
    1       -4.201640   1.000000
    2        0.897748   1.000000
    3        1.582291   1.000000
    4       11.925855   0.000000
    5       12.733993   0.000000
    6       13.509215   0.000000
    7       14.911804   0.000000
    8       15.163327   0.000000
 
  0.1000000E+00 -0.6938894E-17  0.2500000E-01  0.6666667E-03
    1       -4.091557   1.000000
    2        0.999828   1.000000
    3        1.687661   1.000000
    4       10.893220   0.000000
    5       12.274125   0.000000
    6       13.050841   0.000000
    7       15.211653   0.000000
    8       15.489067   0.000000
 
  0.1333333E+00 -0.1387779E-16  0.2500000E-01  0.6666667E-03
    1       -3.937657   1.000000
    2        1.142600   1.000000
    3        1.834456   1.000000
    4        9.869894   0.000000
    5       11.850491   0.000000
    6       12.557908   0.000000
    7       14.503258   0.000000
    8       15.089908   0.000000
 
  0.1666667E+00 -0.1387779E-16  0.2500000E-01  0.6666667E-03
    1       -3.740152   1.000000
    2        1.325921   1.000000
    3        2.021771   1.000000
    4        8.870288   0.000000
    5       11.463650   0.000000
    6       12.048469   0.000000
    7       13.542853   0.000000
    8       14.499159   0.000000
 
  0.2000000E+00 -0.1387779E-16  0.2500000E-01  0.6666667E-03
    1       -3.499316   1.000000
    2        1.549585   1.000000
    3        2.248072   1.000000
    4        7.901916   0.000000
    5       11.113800   0.000000
    6       11.521684   0.000000
    7       12.593026   0.000000
    8       13.844767   0.000000
 
  0.2333333E+00 -0.2775558E-16  0.2500000E-01  0.6666667E-03
    1       -3.215482   1.000000
    2        1.813242   1.000000
    3        2.510508   0.999999
    4        6.970626   0.000000
    5       10.800998   0.000000
    6       10.965150   0.000000
    7       11.679930   0.000000
    8       13.220247   0.000000
 
  0.2666667E+00 -0.2775558E-16  0.2500000E-01  0.6666667E-03
    1       -2.889040   1.000000
    2        2.116197   1.000000
    3        2.802811   0.000213
    4        6.084541   0.000000
    5       10.355324   0.000000
    6       10.525223   0.000000
    7       10.825443   0.000000
    8       12.664832   0.000000
 
  0.3000000E+00  0.0000000E+00  0.2500000E-01  0.6666667E-03
    1       -2.520446   1.000000
    2        2.456445   1.000000
    3        3.106916   0.000000
    4        5.263966   0.000000
    5        9.663936   0.000000
    6       10.058121   0.000000
    7       10.286427   0.000000
    8       12.195598   0.000000
 
  0.3333333E+00 -0.2775558E-16  0.2500000E-01  0.6666667E-03
    1       -2.110221   1.000000
    2        2.823743   0.000019
    3        3.347006   0.000000
    4        4.594589   0.000000
    5        8.910790   0.000000
    6        9.365804   0.000000
    7       10.084539   0.000000
    8       11.815117   0.000000
 
  0.3666667E+00  0.0000000E+00  0.2500000E-01  0.6666667E-03
    1       -1.658976   1.000000
    2        3.022513   0.000000
    3        3.391669   0.000000
    4        4.402383   0.000000
    5        8.152741   0.000000
    6        8.704658   0.000000
    7        9.919481   0.000000
    8       11.517559   0.000000
 
  0.4000000E+00 -0.2775558E-16  0.2500000E-01  0.6666667E-03
    1       -1.167430   1.000000
    2        2.504867   1.000000
    3        3.779202   0.000000
    4        4.694898   0.000000
    5        7.419397   0.000000
    6        8.059413   0.000000
    7        9.791182   0.000000
    8       11.294891   0.000000
 
  0.4333333E+00 -0.5551115E-16  0.2500000E-01  0.6666667E-03
    1       -0.636491   1.000000
    2        1.840460   1.000000
    3        4.272090   0.000000
    4        5.134917   0.000000
    5        6.723127   0.000000
    6        7.432760   0.000000
    7        9.699585   0.000000
    8       11.140338   0.000000
 
  0.4666667E+00 -0.5551115E-16  0.2500000E-01  0.6666667E-03
    1       -0.067387   1.000000
    2        1.176737   1.000000
    3        4.806477   0.000000
    4        5.608553   0.000000
    5        6.089811   0.000000
    6        6.836356   0.000000
    7        9.644646   0.000000
    8       11.049303   0.000000
 
  0.5000000E+00 -0.2775558E-16  0.2500000E-01  0.3333333E-03
    1        0.527568   1.000000
    2        0.548800   1.000000
    3        5.270103   0.000000
    4        5.514628   0.000000
    5        6.082667   0.000000
    6        6.400979   0.000000
    7        9.626336   0.000000
    8       11.019227   0.000000
 
  0.3333333E-01  0.3333333E-01  0.2500000E-01  0.6666667E-03
    1       -4.223672   1.000000
    2        0.877322   1.000000
    3        1.561169   1.000000
    4       12.355608   0.000000
    5       12.542412   0.000000
    6       14.123192   0.000000
    7       14.297937   0.000000
    8       15.188133   0.000000
 
  0.6666667E-01  0.3333333E-01  0.2500000E-01  0.1333333E-02
    1       -4.135575   1.000000
    2        0.959005   1.000000
    3        1.645563   1.000000
    4       11.407601   0.000000
    5       11.992457   0.000000
    6       13.801351   0.000000
    7       14.757542   0.000000
    8       15.397944   0.000000
 
  0.1000000E+00  0.3333333E-01  0.2500000E-01  0.1333333E-02
    1       -4.003583   1.000000
    2        1.081432   1.000000
    3        1.771658   1.000000
    4       10.386718   0.000000
    5       11.526227   0.000000
    6       13.343628   0.000000
    7       14.931418   0.000000
    8       15.202774   0.000000
 
  0.1333333E+00  0.3333333E-01  0.2500000E-01  0.1333333E-02
    1       -3.827881   1.000000
    2        1.244481   1.000000
    3        1.938751   1.000000
    4        9.377204   0.000000
    5       11.093915   0.000000
    6       12.856237   0.000000
    7       14.033559   0.000000
    8       14.820642   0.000000
 
  0.1666667E+00  0.3333333E-01  0.2500000E-01  0.1333333E-02
    1       -3.608711   1.000000
    2        1.447981   1.000000
    3        2.145666   1.000000
    4        8.393962   0.000000
    5       10.691243   0.000000
    6       12.344605   0.000000
    7       13.086118   0.000000
    8       14.217905   0.000000
 
  0.2000000E+00  0.3333333E-01  0.2500000E-01  0.1333333E-02
    1       -3.346376   1.000000
    2        1.691672   1.000000
    3        2.390333   1.000000
    4        7.444243   0.000000
    5       10.313493   0.000000
    6       11.786040   0.000000
    7       12.184445   0.000000
    8       13.614089   0.000000
 
  0.2333333E+00  0.3333333E-01  0.2500000E-01  0.1333333E-02
    1       -3.041238   1.000000
    2        1.975071   1.000000
    3        2.668629   0.607209
    4        6.534761   0.000000
    5        9.950489   0.000000
    6       11.094638   0.000000
    7       11.427924   0.000000
    8       13.076199   0.000000
 
  0.2666667E+00  0.3333333E-01  0.2500000E-01  0.1333333E-02
    1       -2.693719   1.000000
    2        2.297053   1.000000
    3        2.970355   0.000000
    4        5.677575   0.000000
    5        9.577440   0.000000
    6       10.287561   0.000000
    7       10.829541   0.000000
    8       12.625584   0.000000
 
  0.3000000E+00  0.3333333E-01  0.2500000E-01  0.1333333E-02
    1       -2.304308   1.000000
    2        2.653520   0.757851
    3        3.260228   0.000000
    4        4.912007   0.000000
    5        9.128849   0.000000
    6        9.519388   0.000000
    7       10.314747   0.000000
    8       12.261475   0.000000
 
  0.3333333E+00  0.3333333E-01  0.2500000E-01  0.1333333E-02
    1       -1.873567   1.000000
    2        3.007374   0.000000
    3        3.385383   0.000000
    4        4.427314   0.000000
    5        8.502722   0.000000
    6        8.882559   0.000000
    7        9.911494   0.000000
    8       11.974234   0.000000
 
  0.3666667E+00  0.3333333E-01  0.2500000E-01  0.1333333E-02
    1       -1.402157   1.000000
    2        2.823583   0.000020
    3        3.573765   0.000000
    4        4.529095   0.000000
    5        7.784237   0.000000
    6        8.296968   0.000000
    7        9.631259   0.000000
    8       11.754057   0.000000
 
  0.4000000E+00  0.3333333E-01  0.2500000E-01  0.1333333E-02
    1       -0.890880   1.000000
    2        2.191063   1.000000
    3        4.034204   0.000000
    4        4.916492   0.000000
    5        7.075544   0.000000
    6        7.701094   0.000000
    7        9.447360   0.000000
    8       11.593838   0.000000
 
  0.4333333E+00  0.3333333E-01  0.2500000E-01  0.1333333E-02
    1       -0.340775   1.000000
    2        1.521700   1.000000
    3        4.550061   0.000000
    4        5.384309   0.000000
    5        6.405460   0.000000
    6        7.108364   0.000000
    7        9.334860   0.000000
    8       11.489098   0.000000
 
  0.4666667E+00  0.3333333E-01  0.2500000E-01  0.1333333E-02
    1        0.246588   1.000000
    2        0.869385   1.000000
    3        5.093045   0.000000
    4        5.691215   0.000000
    5        5.975330   0.000000
    6        6.551070   0.000000
    7        9.281055   0.000000
    8       11.437296   0.000000
 
  0.6666667E-01  0.6666667E-01  0.2500000E-01  0.6666667E-03
    1       -4.025569   1.000000
    2        1.061036   1.000000
    3        1.750691   1.000000
    4       10.813637   0.000000
    5       11.095077   0.000000
    6       14.291232   0.000000
    7       14.396383   0.000000
    8       15.222073   0.000000
 
  0.1000000E+00  0.6666667E-01  0.2500000E-01  0.1333333E-02
    1       -3.871776   1.000000
    2        1.203742   1.000000
    3        1.897122   1.000000
    4        9.895290   0.000000
    5       10.543858   0.000000
    6       13.851658   0.000000
    7       14.485248   0.000000
    8       14.744074   0.000000
 
  0.1333333E+00  0.6666667E-01  0.2500000E-01  0.1333333E-02
    1       -3.674408   1.000000
    2        1.386979   1.000000
    3        2.083932   1.000000
    4        8.912748   0.000000
    5       10.109167   0.000000
    6       13.259993   0.000000
    7       13.619159   0.000000
    8       14.593288   0.000000
 
  0.1666667E+00  0.6666667E-01  0.2500000E-01  0.1333333E-02
    1       -3.433740   1.000000
    2        1.610538   1.000000
    3        2.309551   1.000000
    4        7.950891   0.000000
    5        9.715748   0.000000
    6       12.499260   0.000000
    7       12.837358   0.000000
    8       14.148665   0.000000
 
  0.2000000E+00  0.6666667E-01  0.2500000E-01  0.1333333E-02
    1       -3.150102   1.000000
    2        1.874069   1.000000
    3        2.571090   0.998781
    4        7.023124   0.000000
    5        9.354732   0.000000
    6       11.624699   0.000000
    7       12.136018   0.000000
    8       13.717606   0.000000
 
  0.2333333E+00  0.6666667E-01  0.2500000E-01  0.1333333E-02
    1       -2.823887   1.000000
    2        2.176857   1.000000
    3        2.862256   0.000000
    4        6.139213   0.000000
    5        9.020131   0.000000
    6       10.747678   0.000000
    7       11.444108   0.000000
    8       13.346917   0.000000
 
  0.2666667E+00  0.6666667E-01  0.2500000E-01  0.1333333E-02
    1       -2.455549   1.000000
    2        2.516868   0.999997
    3        3.165083   0.000000
    4        5.319851   0.000000
    5        8.701678   0.000000
    6        9.899709   0.000000
    7       10.768331   0.000000
    8       13.036323   0.000000
 
  0.3000000E+00  0.6666667E-01  0.2500000E-01  0.1333333E-02
    1       -2.045613   1.000000
    2        2.883698   0.000000
    3        3.404802   0.000000
    4        4.649861   0.000000
    5        8.376677   0.000000
    6        9.096107   0.000000
    7       10.135642   0.000000
    8       12.780229   0.000000
 
  0.3333333E+00  0.6666667E-01  0.2500000E-01  0.1333333E-02
    1       -1.594689   1.000000
    2        3.081437   0.000000
    3        3.452378   0.000000
    4        4.452984   0.000000
    5        7.985187   0.000000
    6        8.371613   0.000000
    7        9.584630   0.000000
    8       12.574371   0.000000
 
  0.3666667E+00  0.6666667E-01  0.2500000E-01  0.1333333E-02
    1       -1.103502   1.000000
    2        2.565371   0.999295
    3        3.839294   0.000000
    4        4.740043   0.000000
    5        7.418803   0.000000
    6        7.799910   0.000000
    7        9.160196   0.000000
    8       12.416112   0.000000
 
  0.4000000E+00  0.6666667E-01  0.2500000E-01  0.1333333E-02
    1       -0.572961   1.000000
    2        1.901835   1.000000
    3        4.331454   0.000000
    4        5.173538   0.000000
    5        6.760449   0.000000
    6        7.288182   0.000000
    7        8.882703   0.000000
    8       12.303907   0.000000
 
  0.4333333E+00  0.6666667E-01  0.2500000E-01  0.1333333E-02
    1       -0.004309   1.000000
    2        1.238785   1.000000
    3        4.864804   0.000000
    4        5.644880   0.000000
    5        6.133000   0.000000
    6        6.760824   0.000000
    7        8.733356   0.000000
    8       12.236877   0.000000
 
  0.4666667E+00  0.6666667E-01  0.2500000E-01  0.6666667E-03
    1        0.589334   1.000000
    2        0.612227   1.000000
    3        5.325918   0.000000
    4        5.575444   0.000000
    5        6.140125   0.000000
    6        6.310111   0.000000
    7        8.686746   0.000000
    8       12.214579   0.000000
 
  0.1000000E+00  0.1000000E+00  0.2500000E-01  0.6666667E-03
    1       -3.696318   1.000000
    2        1.366638   1.000000
    3        2.063306   1.000000
    4        9.330611   0.000000
    5        9.666585   0.000000
    6       13.850044   0.000000
    7       13.961739   0.000000
    8       14.463921   0.000000
 
  0.1333333E+00  0.1000000E+00  0.2500000E-01  0.1333333E-02
    1       -3.477452   1.000000
    2        1.569948   1.000000
    3        2.268974   1.000000
    4        8.466572   0.000000
    5        9.147272   0.000000
    6       13.032386   0.000000
    7       13.425060   0.000000
    8       14.021784   0.000000
 
  0.1666667E+00  0.1000000E+00  0.2500000E-01  0.1333333E-02
    1       -3.215481   1.000000
    2        1.813397   1.000000
    3        2.511973   0.999999
    4        7.539279   0.000000
    5        8.758735   0.000000
    6       12.141959   0.000000
    7       12.738858   0.000000
    8       13.556057   0.000000
 
  0.2000000E+00  0.1000000E+00  0.2500000E-01  0.1333333E-02
    1       -2.910766   1.000000
    2        2.096491   1.000000
    3        2.788087   0.000946
    4        6.638679   0.000000
    5        8.417164   0.000000
    6       11.251659   0.000000
    7       11.999583   0.000000
    8       13.190397   0.000000
 
  0.2333333E+00  0.1000000E+00  0.2500000E-01  0.1333333E-02
    1       -2.563730   1.000000
    2        2.418050   1.000000
    3        3.087142   0.000000
    4        5.786029   0.000000
    5        8.111079   0.000000
    6       10.384024   0.000000
    7       11.259480   0.000000
    8       12.886182   0.000000
 
  0.2666667E+00  0.1000000E+00  0.2500000E-01  0.1333333E-02
    1       -2.174864   1.000000
    2        2.773826   0.003432
    3        3.374697   0.000000
    4        5.021674   0.000000
    5        7.833668   0.000000
    6        9.549146   0.000000
    7       10.542341   0.000000
    8       12.630794   0.000000
 
  0.3000000E+00  0.1000000E+00  0.2500000E-01  0.1333333E-02
    1       -1.744734   1.000000
    2        3.125777   0.000000
    3        3.503357   0.000000
    4        4.530342   0.000000
    5        7.574058   0.000000
    6        8.753877   0.000000
    7        9.866317   0.000000
    8       12.420032   0.000000
 
  0.3333333E+00  0.1000000E+00  0.2500000E-01  0.1333333E-02
    1       -1.274004   1.000000
    2        2.943108   0.000000
    3        3.694508   0.000000
    4        4.619062   0.000000
    5        7.308185   0.000000
    6        8.008694   0.000000
    7        9.254955   0.000000
    8       12.252270   0.000000
 
  0.3666667E+00  0.1000000E+00  0.2500000E-01  0.1333333E-02
    1       -0.763485   1.000000
    2        2.312945   1.000000
    3        4.153200   0.000000
    4        4.990838   0.000000
    5        6.970710   0.000000
    6        7.351209   0.000000
    7        8.745582   0.000000
    8       12.126794   0.000000
 
  0.4000000E+00  0.1000000E+00  0.2500000E-01  0.1333333E-02
    1       -0.214231   1.000000
    2        1.645072   1.000000
    3        4.666821   0.000000
    4        5.437823   0.000000
    5        6.455884   0.000000
    6        6.852827   0.000000
    7        8.386674   0.000000
    8       12.043275   0.000000
 
  0.4333333E+00  0.1000000E+00  0.2500000E-01  0.1333333E-02
    1        0.372156   1.000000
    2        0.994011   1.000000
    3        5.205574   0.000000
    4        5.805421   0.000000
    5        5.974451   0.000000
    6        6.405891   0.000000
    7        8.207975   0.000000
    8       12.001548   0.000000
 
  0.1333333E+00  0.1333333E+00  0.2500000E-01  0.6666667E-03
    1       -3.237284   1.000000
    2        1.793162   1.000000
    3        2.492177   1.000000
    4        7.944271   0.000000
    5        8.325348   0.000000
    6       12.498366   0.000000
    7       12.900413   0.000000
    8       13.418731   0.000000
 
  0.1666667E+00  0.1333333E+00  0.2500000E-01  0.1333333E-02
    1       -2.954235   1.000000
    2        2.056246   1.000000
    3        2.750466   0.020545
    4        7.144867   0.000000
    5        7.853057   0.000000
    6       11.737925   0.000000
    7       12.343406   0.000000
    8       12.792239   0.000000
 
  0.2000000E+00  0.1333333E+00  0.2500000E-01  0.1333333E-02
    1       -2.628700   1.000000
    2        2.358427   1.000000
    3        3.037421   0.000000
    4        6.287161   0.000000
    5        7.520088   0.000000
    6       10.892411   0.000000
    7       11.704651   0.000000
    8       12.322436   0.000000
 
  0.2333333E+00  0.1333333E+00  0.2500000E-01  0.1333333E-02
    1       -2.261134   1.000000
    2        2.697507   0.292967
    3        3.335519   0.000000
    4        5.476279   0.000000
    5        7.240071   0.000000
    6       10.051444   0.000000
    7       10.990010   0.000000
    8       12.000301   0.000000
 
  0.2666667E+00  0.1333333E+00  0.2500000E-01  0.1333333E-02
    1       -1.852066   1.000000
    2        3.062463   0.000000
    3        3.574673   0.000000
    4        4.802580   0.000000
    5        7.000287   0.000000
    6        9.237963   0.000000
    7       10.277071   0.000000
    8       11.751835   0.000000
 
  0.3000000E+00  0.1333333E+00  0.2500000E-01  0.1333333E-02
    1       -1.402112   1.000000
    2        3.256780   0.000000
    3        3.634366   0.000000
    4        4.581679   0.000000
    5        6.794438   0.000000
    6        8.460855   0.000000
    7        9.595927   0.000000
    8       11.555618   0.000000
 
  0.3333333E+00  0.1333333E+00  0.2500000E-01  0.1333333E-02
    1       -0.912005   1.000000
    2        2.746488   0.026796
    3        4.017940   0.000000
    4        4.837102   0.000000
    5        6.612482   0.000000
    6        7.727256   0.000000
    7        8.968306   0.000000
    8       11.405449   0.000000
 
  0.3666667E+00  0.1333333E+00  0.2500000E-01  0.1333333E-02
    1       -0.382670   1.000000
    2        2.085629   1.000000
    3        4.505502   0.000000
    4        5.218022   0.000000
    5        6.427456   0.000000
    6        7.053793   0.000000
    7        8.427151   0.000000
    8       11.299064   0.000000
 
  0.4000000E+00  0.1333333E+00  0.2500000E-01  0.1333333E-02
    1        0.184619   1.000000
    2        1.424596   1.000000
    3        5.029152   0.000000
    4        5.597324   0.000000
    5        6.141734   0.000000
    6        6.523958   0.000000
    7        8.035050   0.000000
    8       11.235501   0.000000
 
  0.4333333E+00  0.1333333E+00  0.2500000E-01  0.6666667E-03
    1        0.774583   1.000000
    2        0.801913   1.000000
    3        5.455666   0.000000
    4        5.756894   0.000000
    5        5.817807   0.000000
    6        6.310359   0.000000
    7        7.886250   0.000000
    8       11.214350   0.000000
 
  0.1666667E+00  0.1666667E+00  0.2500000E-01  0.6666667E-03
    1       -2.650366   1.000000
    2        2.338505   1.000000
    3        3.020433   0.000000
    4        6.668045   0.000000
    5        7.107675   0.000000
    6       11.248557   0.000000
    7       11.725055   0.000000
    8       12.216520   0.000000
 
  0.2000000E+00  0.1666667E+00  0.2500000E-01  0.1333333E-02
    1       -2.304299   1.000000
    2        2.658803   0.708834
    3        3.311600   0.000000
    4        5.946948   0.000000
    5        6.697203   0.000000
    6       10.542194   0.000000
    7       11.225107   0.000000
    8       11.625914   0.000000
 
  0.2333333E+00  0.1666667E+00  0.2500000E-01  0.1333333E-02
    1       -1.916528   1.000000
    2        3.012307   0.000000
    3        3.592415   0.000000
    4        5.203629   0.000000
    5        6.435164   0.000000
    6        9.749597   0.000000
    7       10.671317   0.000000
    8       11.178548   0.000000
 
  0.2666667E+00  0.1666667E+00  0.2500000E-01  0.1333333E-02
    1       -1.487625   1.000000
    2        3.358076   0.000000
    3        3.735334   0.000000
    4        4.683106   0.000000
    5        6.242073   0.000000
    6        8.964690   0.000000
    7       10.009966   0.000000
    8       10.910653   0.000000
 
  0.3000000E+00  0.1666667E+00  0.2500000E-01  0.1333333E-02
    1       -1.018267   1.000000
    2        3.180572   0.000000
    3        3.933327   0.000000
    4        4.704249   0.000000
    5        6.114799   0.000000
    6        8.210552   0.000000
    7        9.348890   0.000000
    8       10.723058   0.000000
 
  0.3333333E+00  0.1666667E+00  0.2500000E-01  0.1333333E-02
    1       -0.509281   1.000000
    2        2.555968   0.999729
    3        4.380739   0.000000
    4        4.962727   0.000000
    5        6.070885   0.000000
    6        7.497498   0.000000
    7        8.731057   0.000000
    8       10.588817   0.000000
 
  0.3666667E+00  0.1666667E+00  0.2500000E-01  0.1333333E-02
    1        0.038251   1.000000
    2        1.891110   1.000000
    3        4.858606   0.000000
    4        5.206537   0.000000
    5        6.124954   0.000000
    6        6.845685   0.000000
    7        8.197965   0.000000
    8       10.501101   0.000000
 
  0.4000000E+00  0.1666667E+00  0.2500000E-01  0.1333333E-02
    1        0.622650   1.000000
    2        1.242590   1.000000
    3        5.164501   0.000000
    4        5.527965   0.000000
    5        6.047629   0.000000
    6        6.449307   0.000000
    7        7.844387   0.000000
    8       10.457634   0.000000
 
  0.2000000E+00  0.2000000E+00  0.2500000E-01  0.6666667E-03
    1       -1.938025   1.000000
    2        2.994636   0.000000
    3        3.593508   0.000000
    4        5.507857   0.000000
    5        6.079770   0.000000
    6       10.114260   0.000000
    7       10.605086   0.000000
    8       11.115794   0.000000
 
  0.2333333E+00  0.2000000E+00  0.2500000E-01  0.1333333E-02
    1       -1.530414   1.000000
    2        3.351960   0.000000
    3        3.830366   0.000000
    4        4.912807   0.000000
    5        5.790780   0.000000
    6        9.462219   0.000000
    7       10.177598   0.000000
    8       10.568353   0.000000
 
  0.2666667E+00  0.2000000E+00  0.2500000E-01  0.1333333E-02
    1       -1.082094   1.000000
    2        3.536929   0.000000
    3        3.936992   0.000000
    4        4.569774   0.000000
    5        5.698078   0.000000
    6        8.725047   0.000000
    7        9.721211   0.000000
    8       10.145718   0.000000
 
  0.3000000E+00  0.2000000E+00  0.2500000E-01  0.1333333E-02
    1       -0.593818   1.000000
    2        3.046491   0.000000
    3        4.282275   0.000000
    4        4.632751   0.000000
    5        5.773917   0.000000
    6        8.000157   0.000000
    7        9.127465   0.000000
    8        9.935317   0.000000
 
  0.3333333E+00  0.2000000E+00  0.2500000E-01  0.1333333E-02
    1       -0.066535   1.000000
    2        2.390673   1.000000
    3        4.552275   0.000000
    4        4.899226   0.000000
    5        6.003025   0.000000
    6        7.313781   0.000000
    7        8.544546   0.000000
    8        9.811068   0.000000
 
  0.3666667E+00  0.2000000E+00  0.2500000E-01  0.1333333E-02
    1        0.498431   1.000000
    2        1.733056   1.000000
    3        4.604642   0.000000
    4        5.387109   0.000000
    5        6.251484   0.000000
    6        6.717743   0.000000
    7        8.058433   0.000000
    8        9.740802   0.000000
 
  0.4000000E+00  0.2000000E+00  0.2500000E-01  0.6666667E-03
    1        1.083172   1.000000
    2        1.115941   1.000000
    3        4.611586   0.000000
    4        5.835039   0.000000
    5        6.054613   0.000000
    6        6.583648   0.000000
    7        7.837401   0.000000
    8        9.717839   0.000000
 
  0.2333333E+00  0.2333333E+00  0.2500000E-01  0.6666667E-03
    1       -1.103381   1.000000
    2        3.651373   0.000000
    3        4.030269   0.000000
    4        4.466655   0.000000
    5        5.527231   0.000000
    6        9.098905   0.000000
    7        9.585018   0.000000
    8       10.131577   0.000000
 
  0.2666667E+00  0.2333333E+00  0.2500000E-01  0.1333333E-02
    1       -0.636125   1.000000
    2        3.520432   0.000000
    3        4.095994   0.000000
    4        4.361204   0.000000
    5        5.630496   0.000000
    6        8.502412   0.000000
    7        9.236046   0.000000
    8        9.635426   0.000000
 
  0.3000000E+00  0.2333333E+00  0.2500000E-01  0.1333333E-02
    1       -0.129499   1.000000
    2        2.917978   0.000000
    3        4.036819   0.000000
    4        4.797844   0.000000
    5        5.919536   0.000000
    6        7.825296   0.000000
    7        8.897323   0.000000
    8        9.234093   0.000000
 
  0.3333333E+00  0.2333333E+00  0.2500000E-01  0.1333333E-02
    1        0.415369   1.000000
    2        2.258133   1.000000
    3        4.001260   0.000000
    4        5.302414   0.000000
    5        6.267910   0.000000
    6        7.176526   0.000000
    7        8.411360   0.000000
    8        9.081926   0.000000
 
  0.3666667E+00  0.2333333E+00  0.2500000E-01  0.1333333E-02
    1        0.996697   1.000000
    2        1.613524   1.000000
    3        3.980427   0.000000
    4        5.834643   0.000000
    5        6.386158   0.000000
    6        6.750887   0.000000
    7        8.031570   0.000000
    8        9.024663   0.000000
 
  0.2666667E+00  0.2666667E+00  0.2500000E-01  0.6666667E-03
    1       -0.150499   1.000000
    2        3.402185   0.000000
    3        3.546028   0.000000
    4        4.771257   0.000000
    5        5.891479   0.000000
    6        8.203642   0.000000
    7        8.688708   0.000000
    8        9.284699   0.000000
 
  0.3000000E+00  0.2666667E+00  0.2500000E-01  0.1333333E-02
    1        0.373775   1.000000
    2        2.814138   0.000061
    3        3.400203   0.000000
    4        5.260871   0.000000
    5        6.254812   0.000000
    6        7.668478   0.000000
    7        8.428864   0.000000
    8        8.860518   0.000000
 
  0.3333333E+00  0.2666667E+00  0.2500000E-01  0.1333333E-02
    1        0.935319   1.000000
    2        2.161828   1.000000
    3        3.351489   0.000000
    4        5.787700   0.000000
    5        6.581462   0.000000
    6        7.091488   0.000000
    7        8.292391   0.000000
    8        8.470752   0.000000
 
  0.3666667E+00  0.2666667E+00  0.2500000E-01  0.6666667E-03
    1        1.514815   1.000000
    2        1.550448   1.000000
    3        3.335257   0.000000
    4        6.241440   0.000000
    5        6.451687   0.000000
    6        6.915134   0.000000
    7        8.161742   0.000000
    8        8.366097   0.000000
 
  0.3000000E+00  0.3000000E+00  0.2500000E-01  0.6666667E-03
    1        0.914806   1.000000
    2        2.738335   0.044610
    3        2.746959   0.025981
    4        5.770337   0.000000
    5        6.611955   0.000000
    6        7.428799   0.000000
    7        7.962052   0.000000
    8        8.653422   0.000000
 
  0.3333333E+00  0.3000000E+00  0.2500000E-01  0.1333333E-02
    1        1.491736   1.000000
    2        2.103507   1.000000
    3        2.705949   0.216668
    4        6.300292   0.000000
    5        6.785201   0.000000
    6        7.045811   0.000000
    7        7.826520   0.000000
    8        8.440778   0.000000
 
  0.3333333E+00  0.3333333E+00  0.2500000E-01  0.2222222E-03
    1        2.055432   1.000000
    2        2.097661   1.000000
    3        2.097663   1.000000
    4        6.774502   0.000000
    5        6.774505   0.000000
    6        6.862675   0.000000
    7        7.613173   0.000000
    8        8.673898   0.000000
 