Automatically generated mesh
     910
Reciprocal lattice
    0.00000000000000    0.00000000000000    0.02500000000000             2
    0.03333333333333   -0.00000000000000    0.02500000000000            12
    0.06666666666667   -0.00000000000000    0.02500000000000            12
    0.10000000000000   -0.00000000000000    0.02500000000000            12
    0.13333333333333   -0.00000000000000    0.02500000000000            12
    0.16666666666667   -0.00000000000000    0.02500000000000            12
    0.20000000000000   -0.00000000000000    0.02500000000000            12
    0.23333333333333   -0.00000000000000    0.02500000000000            12
    0.26666666666667   -0.00000000000000    0.02500000000000            12
    0.30000000000000    0.00000000000000    0.02500000000000            12
    0.33333333333333   -0.00000000000000    0.02500000000000            12
    0.36666666666667    0.00000000000000    0.02500000000000            12
    0.40000000000000   -0.00000000000000    0.02500000000000            12
    0.43333333333333   -0.00000000000000    0.02500000000000            12
    0.46666666666667   -0.00000000000000    0.02500000000000            12
    0.50000000000000   -0.00000000000000    0.02500000000000             6
    0.03333333333333    0.03333333333333    0.02500000000000            12
    0.06666666666667    0.03333333333333    0.02500000000000            24
    0.10000000000000    0.03333333333333    0.02500000000000            24
    0.13333333333333    0.03333333333333    0.02500000000000            24
    0.16666666666667    0.03333333333333    0.02500000000000            24
    0.20000000000000    0.03333333333333    0.02500000000000            24
    0.23333333333333    0.03333333333333    0.02500000000000            24
    0.26666666666667    0.03333333333333    0.02500000000000            24
    0.30000000000000    0.03333333333333    0.02500000000000            24
    0.33333333333333    0.03333333333333    0.02500000000000            24
    0.36666666666667    0.03333333333333    0.02500000000000            24
    0.40000000000000    0.03333333333333    0.02500000000000            24
    0.43333333333333    0.03333333333333    0.02500000000000            24
    0.46666666666667    0.03333333333333    0.02500000000000            24
    0.06666666666667    0.06666666666667    0.02500000000000            12
    0.10000000000000    0.06666666666667    0.02500000000000            24
    0.13333333333333    0.06666666666667    0.02500000000000            24
    0.16666666666667    0.06666666666667    0.02500000000000            24
    0.20000000000000    0.06666666666667    0.02500000000000            24
    0.23333333333333    0.06666666666667    0.02500000000000            24
    0.26666666666667    0.06666666666667    0.02500000000000            24
    0.30000000000000    0.06666666666667    0.02500000000000            24
    0.33333333333333    0.06666666666667    0.02500000000000            24
    0.36666666666667    0.06666666666667    0.02500000000000            24
    0.40000000000000    0.06666666666667    0.02500000000000            24
    0.43333333333333    0.06666666666667    0.02500000000000            24
    0.46666666666667    0.06666666666667    0.02500000000000            12
    0.10000000000000    0.10000000000000    0.02500000000000            12
    0.13333333333333    0.10000000000000    0.02500000000000            24
    0.16666666666667    0.10000000000000    0.02500000000000            24
    0.20000000000000    0.10000000000000    0.02500000000000            24
    0.23333333333333    0.10000000000000    0.02500000000000            24
    0.26666666666667    0.10000000000000    0.02500000000000            24
    0.30000000000000    0.10000000000000    0.02500000000000            24
    0.33333333333333    0.10000000000000    0.02500000000000            24
    0.36666666666667    0.10000000000000    0.02500000000000            24
    0.40000000000000    0.10000000000000    0.02500000000000            24
    0.43333333333333    0.10000000000000    0.02500000000000            24
    0.13333333333333    0.13333333333333    0.02500000000000            12
    0.16666666666667    0.13333333333333    0.02500000000000            24
    0.20000000000000    0.13333333333333    0.02500000000000            24
    0.23333333333333    0.13333333333333    0.02500000000000            24
    0.26666666666667    0.13333333333333    0.02500000000000            24
    0.30000000000000    0.13333333333333    0.02500000000000            24
    0.33333333333333    0.13333333333333    0.02500000000000            24
    0.36666666666667    0.13333333333333    0.02500000000000            24
    0.40000000000000    0.13333333333333    0.02500000000000            24
    0.43333333333333    0.13333333333333    0.02500000000000            12
    0.16666666666667    0.16666666666667    0.02500000000000            12
    0.20000000000000    0.16666666666667    0.02500000000000            24
    0.23333333333333    0.16666666666667    0.02500000000000            24
    0.26666666666667    0.16666666666667    0.02500000000000            24
    0.30000000000000    0.16666666666667    0.02500000000000            24
    0.33333333333333    0.16666666666667    0.02500000000000            24
    0.36666666666667    0.16666666666667    0.02500000000000            24
    0.40000000000000    0.16666666666667    0.02500000000000            24
    0.20000000000000    0.20000000000000    0.02500000000000            12
    0.23333333333333    0.20000000000000    0.02500000000000            24
    0.26666666666667    0.20000000000000    0.02500000000000            24
    0.30000000000000    0.20000000000000    0.02500000000000            24
    0.33333333333333    0.20000000000000    0.02500000000000            24
    0.36666666666667    0.20000000000000    0.02500000000000            24
    0.40000000000000    0.20000000000000    0.02500000000000            12
    0.23333333333333    0.23333333333333    0.02500000000000            12
    0.26666666666667    0.23333333333333    0.02500000000000            24
    0.30000000000000    0.23333333333333    0.02500000000000            24
    0.33333333333333    0.23333333333333    0.02500000000000            24
    0.36666666666667    0.23333333333333    0.02500000000000            24
    0.26666666666667    0.26666666666667    0.02500000000000            12
    0.30000000000000    0.26666666666667    0.02500000000000            24
    0.33333333333333    0.26666666666667    0.02500000000000            24
    0.36666666666667    0.26666666666667    0.02500000000000            12
    0.30000000000000    0.30000000000000    0.02500000000000            12
    0.33333333333333    0.30000000000000    0.02500000000000            24
    0.33333333333333    0.33333333333333    0.02500000000000             4
    0.00000000000000    0.00000000000000    0.07500000000000             2
    0.03333333333333   -0.00000000000000    0.07500000000000            12
    0.06666666666667   -0.00000000000000    0.07500000000000            12
    0.10000000000000   -0.00000000000000    0.07500000000000            12
    0.13333333333333   -0.00000000000000    0.07500000000000            12
    0.16666666666667   -0.00000000000000    0.07500000000000            12
    0.20000000000000   -0.00000000000000    0.07500000000000            12
    0.23333333333333   -0.00000000000000    0.07500000000000            12
    0.26666666666667   -0.00000000000000    0.07500000000000            12
    0.30000000000000    0.00000000000000    0.07500000000000            12
    0.33333333333333   -0.00000000000000    0.07500000000000            12
    0.36666666666667    0.00000000000000    0.07500000000000            12
    0.40000000000000   -0.00000000000000    0.07500000000000            12
    0.43333333333333   -0.00000000000000    0.07500000000000            12
    0.46666666666667   -0.00000000000000    0.07500000000000            12
    0.50000000000000   -0.00000000000000    0.07500000000000             6
    0.03333333333333    0.03333333333333    0.07500000000000            12
    0.06666666666667    0.03333333333333    0.07500000000000            24
    0.10000000000000    0.03333333333333    0.07500000000000            24
    0.13333333333333    0.03333333333333    0.07500000000000            24
    0.16666666666667    0.03333333333333    0.07500000000000            24
    0.20000000000000    0.03333333333333    0.07500000000000            24
    0.23333333333333    0.03333333333333    0.07500000000000            24
    0.26666666666667    0.03333333333333    0.07500000000000            24
    0.30000000000000    0.03333333333333    0.07500000000000            24
    0.33333333333333    0.03333333333333    0.07500000000000            24
    0.36666666666667    0.03333333333333    0.07500000000000            24
    0.40000000000000    0.03333333333333    0.07500000000000            24
    0.43333333333333    0.03333333333333    0.07500000000000            24
    0.46666666666667    0.03333333333333    0.07500000000000            24
    0.06666666666667    0.06666666666667    0.07500000000000            12
    0.10000000000000    0.06666666666667    0.07500000000000            24
    0.13333333333333    0.06666666666667    0.07500000000000            24
    0.16666666666667    0.06666666666667    0.07500000000000            24
    0.20000000000000    0.06666666666667    0.07500000000000            24
    0.23333333333333    0.06666666666667    0.07500000000000            24
    0.26666666666667    0.06666666666667    0.07500000000000            24
    0.30000000000000    0.06666666666667    0.07500000000000            24
    0.33333333333333    0.06666666666667    0.07500000000000            24
    0.36666666666667    0.06666666666667    0.07500000000000            24
    0.40000000000000    0.06666666666667    0.07500000000000            24
    0.43333333333333    0.06666666666667    0.07500000000000            24
    0.46666666666667    0.06666666666667    0.07500000000000            12
    0.10000000000000    0.10000000000000    0.07500000000000            12
    0.13333333333333    0.10000000000000    0.07500000000000            24
    0.16666666666667    0.10000000000000    0.07500000000000            24
    0.20000000000000    0.10000000000000    0.07500000000000            24
    0.23333333333333    0.10000000000000    0.07500000000000            24
    0.26666666666667    0.10000000000000    0.07500000000000            24
    0.30000000000000    0.10000000000000    0.07500000000000            24
    0.33333333333333    0.10000000000000    0.07500000000000            24
    0.36666666666667    0.10000000000000    0.07500000000000            24
    0.40000000000000    0.10000000000000    0.07500000000000            24
    0.43333333333333    0.10000000000000    0.07500000000000            24
    0.13333333333333    0.13333333333333    0.07500000000000            12
    0.16666666666667    0.13333333333333    0.07500000000000            24
    0.20000000000000    0.13333333333333    0.07500000000000            24
    0.23333333333333    0.13333333333333    0.07500000000000            24
    0.26666666666667    0.13333333333333    0.07500000000000            24
    0.30000000000000    0.13333333333333    0.07500000000000            24
    0.33333333333333    0.13333333333333    0.07500000000000            24
    0.36666666666667    0.13333333333333    0.07500000000000            24
    0.40000000000000    0.13333333333333    0.07500000000000            24
    0.43333333333333    0.13333333333333    0.07500000000000            12
    0.16666666666667    0.16666666666667    0.07500000000000            12
    0.20000000000000    0.16666666666667    0.07500000000000            24
    0.23333333333333    0.16666666666667    0.07500000000000            24
    0.26666666666667    0.16666666666667    0.07500000000000            24
    0.30000000000000    0.16666666666667    0.07500000000000            24
    0.33333333333333    0.16666666666667    0.07500000000000            24
    0.36666666666667    0.16666666666667    0.07500000000000            24
    0.40000000000000    0.16666666666667    0.07500000000000            24
    0.20000000000000    0.20000000000000    0.07500000000000            12
    0.23333333333333    0.20000000000000    0.07500000000000            24
    0.26666666666667    0.20000000000000    0.07500000000000            24
    0.30000000000000    0.20000000000000    0.07500000000000            24
    0.33333333333333    0.20000000000000    0.07500000000000            24
    0.36666666666667    0.20000000000000    0.07500000000000            24
    0.40000000000000    0.20000000000000    0.07500000000000            12
    0.23333333333333    0.23333333333333    0.07500000000000            12
    0.26666666666667    0.23333333333333    0.07500000000000            24
    0.30000000000000    0.23333333333333    0.07500000000000            24
    0.33333333333333    0.23333333333333    0.07500000000000            24
    0.36666666666667    0.23333333333333    0.07500000000000            24
    0.26666666666667    0.26666666666667    0.07500000000000            12
    0.30000000000000    0.26666666666667    0.07500000000000            24
    0.33333333333333    0.26666666666667    0.07500000000000            24
    0.36666666666667    0.26666666666667    0.07500000000000            12
    0.30000000000000    0.30000000000000    0.07500000000000            12
    0.33333333333333    0.30000000000000    0.07500000000000            24
    0.33333333333333    0.33333333333333    0.07500000000000             4
    0.00000000000000    0.00000000000000    0.12500000000000             2
    0.03333333333333   -0.00000000000000    0.12500000000000            12
    0.06666666666667   -0.00000000000000    0.12500000000000            12
    0.10000000000000   -0.00000000000000    0.12500000000000            12
    0.13333333333333   -0.00000000000000    0.12500000000000            12
    0.16666666666667   -0.00000000000000    0.12500000000000            12
    0.20000000000000   -0.00000000000000    0.12500000000000            12
    0.23333333333333   -0.00000000000000    0.12500000000000            12
    0.26666666666667   -0.00000000000000    0.12500000000000            12
    0.30000000000000    0.00000000000000    0.12500000000000            12
    0.33333333333333   -0.00000000000000    0.12500000000000            12
    0.36666666666667    0.00000000000000    0.12500000000000            12
    0.40000000000000   -0.00000000000000    0.12500000000000            12
    0.43333333333333   -0.00000000000000    0.12500000000000            12
    0.46666666666667   -0.00000000000000    0.12500000000000            12
    0.50000000000000   -0.00000000000000    0.12500000000000             6
    0.03333333333333    0.03333333333333    0.12500000000000            12
    0.06666666666667    0.03333333333333    0.12500000000000            24
    0.10000000000000    0.03333333333333    0.12500000000000            24
    0.13333333333333    0.03333333333333    0.12500000000000            24
    0.16666666666667    0.03333333333333    0.12500000000000            24
    0.20000000000000    0.03333333333333    0.12500000000000            24
    0.23333333333333    0.03333333333333    0.12500000000000            24
    0.26666666666667    0.03333333333333    0.12500000000000            24
    0.30000000000000    0.03333333333333    0.12500000000000            24
    0.33333333333333    0.03333333333333    0.12500000000000            24
    0.36666666666667    0.03333333333333    0.12500000000000            24
    0.40000000000000    0.03333333333333    0.12500000000000            24
    0.43333333333333    0.03333333333333    0.12500000000000            24
    0.46666666666667    0.03333333333333    0.12500000000000            24
    0.06666666666667    0.06666666666667    0.12500000000000            12
    0.10000000000000    0.06666666666667    0.12500000000000            24
    0.13333333333333    0.06666666666667    0.12500000000000            24
    0.16666666666667    0.06666666666667    0.12500000000000            24
    0.20000000000000    0.06666666666667    0.12500000000000            24
    0.23333333333333    0.06666666666667    0.12500000000000            24
    0.26666666666667    0.06666666666667    0.12500000000000            24
    0.30000000000000    0.06666666666667    0.12500000000000            24
    0.33333333333333    0.06666666666667    0.12500000000000            24
    0.36666666666667    0.06666666666667    0.12500000000000            24
    0.40000000000000    0.06666666666667    0.12500000000000            24
    0.43333333333333    0.06666666666667    0.12500000000000            24
    0.46666666666667    0.06666666666667    0.12500000000000            12
    0.10000000000000    0.10000000000000    0.12500000000000            12
    0.13333333333333    0.10000000000000    0.12500000000000            24
    0.16666666666667    0.10000000000000    0.12500000000000            24
    0.20000000000000    0.10000000000000    0.12500000000000            24
    0.23333333333333    0.10000000000000    0.12500000000000            24
    0.26666666666667    0.10000000000000    0.12500000000000            24
    0.30000000000000    0.10000000000000    0.12500000000000            24
    0.33333333333333    0.10000000000000    0.12500000000000            24
    0.36666666666667    0.10000000000000    0.12500000000000            24
    0.40000000000000    0.10000000000000    0.12500000000000            24
    0.43333333333333    0.10000000000000    0.12500000000000            24
    0.13333333333333    0.13333333333333    0.12500000000000            12
    0.16666666666667    0.13333333333333    0.12500000000000            24
    0.20000000000000    0.13333333333333    0.12500000000000            24
    0.23333333333333    0.13333333333333    0.12500000000000            24
    0.26666666666667    0.13333333333333    0.12500000000000            24
    0.30000000000000    0.13333333333333    0.12500000000000            24
    0.33333333333333    0.13333333333333    0.12500000000000            24
    0.36666666666667    0.13333333333333    0.12500000000000            24
    0.40000000000000    0.13333333333333    0.12500000000000            24
    0.43333333333333    0.13333333333333    0.12500000000000            12
    0.16666666666667    0.16666666666667    0.12500000000000            12
    0.20000000000000    0.16666666666667    0.12500000000000            24
    0.23333333333333    0.16666666666667    0.12500000000000            24
    0.26666666666667    0.16666666666667    0.12500000000000            24
    0.30000000000000    0.16666666666667    0.12500000000000            24
    0.33333333333333    0.16666666666667    0.12500000000000            24
    0.36666666666667    0.16666666666667    0.12500000000000            24
    0.40000000000000    0.16666666666667    0.12500000000000            24
    0.20000000000000    0.20000000000000    0.12500000000000            12
    0.23333333333333    0.20000000000000    0.12500000000000            24
    0.26666666666667    0.20000000000000    0.12500000000000            24
    0.30000000000000    0.20000000000000    0.12500000000000            24
    0.33333333333333    0.20000000000000    0.12500000000000            24
    0.36666666666667    0.20000000000000    0.12500000000000            24
    0.40000000000000    0.20000000000000    0.12500000000000            12
    0.23333333333333    0.23333333333333    0.12500000000000            12
    0.26666666666667    0.23333333333333    0.12500000000000            24
    0.30000000000000    0.23333333333333    0.12500000000000            24
    0.33333333333333    0.23333333333333    0.12500000000000            24
    0.36666666666667    0.23333333333333    0.12500000000000            24
    0.26666666666667    0.26666666666667    0.12500000000000            12
    0.30000000000000    0.26666666666667    0.12500000000000            24
    0.33333333333333    0.26666666666667    0.12500000000000            24
    0.36666666666667    0.26666666666667    0.12500000000000            12
    0.30000000000000    0.30000000000000    0.12500000000000            12
    0.33333333333333    0.30000000000000    0.12500000000000            24
    0.33333333333333    0.33333333333333    0.12500000000000             4
    0.00000000000000    0.00000000000000    0.17500000000000             2
    0.03333333333333   -0.00000000000000    0.17500000000000            12
    0.06666666666667   -0.00000000000000    0.17500000000000            12
    0.10000000000000   -0.00000000000000    0.17500000000000            12
    0.13333333333333   -0.00000000000000    0.17500000000000            12
    0.16666666666667   -0.00000000000000    0.17500000000000            12
    0.20000000000000   -0.00000000000000    0.17500000000000            12
    0.23333333333333   -0.00000000000000    0.17500000000000            12
    0.26666666666667   -0.00000000000000    0.17500000000000            12
    0.30000000000000    0.00000000000000    0.17500000000000            12
    0.33333333333333   -0.00000000000000    0.17500000000000            12
    0.36666666666667    0.00000000000000    0.17500000000000            12
    0.40000000000000   -0.00000000000000    0.17500000000000            12
    0.43333333333333   -0.00000000000000    0.17500000000000            12
    0.46666666666667   -0.00000000000000    0.17500000000000            12
    0.50000000000000   -0.00000000000000    0.17500000000000             6
    0.03333333333333    0.03333333333333    0.17500000000000            12
    0.06666666666667    0.03333333333333    0.17500000000000            24
    0.10000000000000    0.03333333333333    0.17500000000000            24
    0.13333333333333    0.03333333333333    0.17500000000000            24
    0.16666666666667    0.03333333333333    0.17500000000000            24
    0.20000000000000    0.03333333333333    0.17500000000000            24
    0.23333333333333    0.03333333333333    0.17500000000000            24
    0.26666666666667    0.03333333333333    0.17500000000000            24
    0.30000000000000    0.03333333333333    0.17500000000000            24
    0.33333333333333    0.03333333333333    0.17500000000000            24
    0.36666666666667    0.03333333333333    0.17500000000000            24
    0.40000000000000    0.03333333333333    0.17500000000000            24
    0.43333333333333    0.03333333333333    0.17500000000000            24
    0.46666666666667    0.03333333333333    0.17500000000000            24
    0.06666666666667    0.06666666666667    0.17500000000000            12
    0.10000000000000    0.06666666666667    0.17500000000000            24
    0.13333333333333    0.06666666666667    0.17500000000000            24
    0.16666666666667    0.06666666666667    0.17500000000000            24
    0.20000000000000    0.06666666666667    0.17500000000000            24
    0.23333333333333    0.06666666666667    0.17500000000000            24
    0.26666666666667    0.06666666666667    0.17500000000000            24
    0.30000000000000    0.06666666666667    0.17500000000000            24
    0.33333333333333    0.06666666666667    0.17500000000000            24
    0.36666666666667    0.06666666666667    0.17500000000000            24
    0.40000000000000    0.06666666666667    0.17500000000000            24
    0.43333333333333    0.06666666666667    0.17500000000000            24
    0.46666666666667    0.06666666666667    0.17500000000000            12
    0.10000000000000    0.10000000000000    0.17500000000000            12
    0.13333333333333    0.10000000000000    0.17500000000000            24
    0.16666666666667    0.10000000000000    0.17500000000000            24
    0.20000000000000    0.10000000000000    0.17500000000000            24
    0.23333333333333    0.10000000000000    0.17500000000000            24
    0.26666666666667    0.10000000000000    0.17500000000000            24
    0.30000000000000    0.10000000000000    0.17500000000000            24
    0.33333333333333    0.10000000000000    0.17500000000000            24
    0.36666666666667    0.10000000000000    0.17500000000000            24
    0.40000000000000    0.10000000000000    0.17500000000000            24
    0.43333333333333    0.10000000000000    0.17500000000000            24
    0.13333333333333    0.13333333333333    0.17500000000000            12
    0.16666666666667    0.13333333333333    0.17500000000000            24
    0.20000000000000    0.13333333333333    0.17500000000000            24
    0.23333333333333    0.13333333333333    0.17500000000000            24
    0.26666666666667    0.13333333333333    0.17500000000000            24
    0.30000000000000    0.13333333333333    0.17500000000000            24
    0.33333333333333    0.13333333333333    0.17500000000000            24
    0.36666666666667    0.13333333333333    0.17500000000000            24
    0.40000000000000    0.13333333333333    0.17500000000000            24
    0.43333333333333    0.13333333333333    0.17500000000000            12
    0.16666666666667    0.16666666666667    0.17500000000000            12
    0.20000000000000    0.16666666666667    0.17500000000000            24
    0.23333333333333    0.16666666666667    0.17500000000000            24
    0.26666666666667    0.16666666666667    0.17500000000000            24
    0.30000000000000    0.16666666666667    0.17500000000000            24
    0.33333333333333    0.16666666666667    0.17500000000000            24
    0.36666666666667    0.16666666666667    0.17500000000000            24
    0.40000000000000    0.16666666666667    0.17500000000000            24
    0.20000000000000    0.20000000000000    0.17500000000000            12
    0.23333333333333    0.20000000000000    0.17500000000000            24
    0.26666666666667    0.20000000000000    0.17500000000000            24
    0.30000000000000    0.20000000000000    0.17500000000000            24
    0.33333333333333    0.20000000000000    0.17500000000000            24
    0.36666666666667    0.20000000000000    0.17500000000000            24
    0.40000000000000    0.20000000000000    0.17500000000000            12
    0.23333333333333    0.23333333333333    0.17500000000000            12
    0.26666666666667    0.23333333333333    0.17500000000000            24
    0.30000000000000    0.23333333333333    0.17500000000000            24
    0.33333333333333    0.23333333333333    0.17500000000000            24
    0.36666666666667    0.23333333333333    0.17500000000000            24
    0.26666666666667    0.26666666666667    0.17500000000000            12
    0.30000000000000    0.26666666666667    0.17500000000000            24
    0.33333333333333    0.26666666666667    0.17500000000000            24
    0.36666666666667    0.26666666666667    0.17500000000000            12
    0.30000000000000    0.30000000000000    0.17500000000000            12
    0.33333333333333    0.30000000000000    0.17500000000000            24
    0.33333333333333    0.33333333333333    0.17500000000000             4
    0.00000000000000    0.00000000000000    0.22500000000000             2
    0.03333333333333   -0.00000000000000    0.22500000000000            12
    0.06666666666667   -0.00000000000000    0.22500000000000            12
    0.10000000000000   -0.00000000000000    0.22500000000000            12
    0.13333333333333   -0.00000000000000    0.22500000000000            12
    0.16666666666667   -0.00000000000000    0.22500000000000            12
    0.20000000000000   -0.00000000000000    0.22500000000000            12
    0.23333333333333   -0.00000000000000    0.22500000000000            12
    0.26666666666667   -0.00000000000000    0.22500000000000            12
    0.30000000000000    0.00000000000000    0.22500000000000            12
    0.33333333333333   -0.00000000000000    0.22500000000000            12
    0.36666666666667    0.00000000000000    0.22500000000000            12
    0.40000000000000   -0.00000000000000    0.22500000000000            12
    0.43333333333333   -0.00000000000000    0.22500000000000            12
    0.46666666666667   -0.00000000000000    0.22500000000000            12
    0.50000000000000   -0.00000000000000    0.22500000000000             6
    0.03333333333333    0.03333333333333    0.22500000000000            12
    0.06666666666667    0.03333333333333    0.22500000000000            24
    0.10000000000000    0.03333333333333    0.22500000000000            24
    0.13333333333333    0.03333333333333    0.22500000000000            24
    0.16666666666667    0.03333333333333    0.22500000000000            24
    0.20000000000000    0.03333333333333    0.22500000000000            24
    0.23333333333333    0.03333333333333    0.22500000000000            24
    0.26666666666667    0.03333333333333    0.22500000000000            24
    0.30000000000000    0.03333333333333    0.22500000000000            24
    0.33333333333333    0.03333333333333    0.22500000000000            24
    0.36666666666667    0.03333333333333    0.22500000000000            24
    0.40000000000000    0.03333333333333    0.22500000000000            24
    0.43333333333333    0.03333333333333    0.22500000000000            24
    0.46666666666667    0.03333333333333    0.22500000000000            24
    0.06666666666667    0.06666666666667    0.22500000000000            12
    0.10000000000000    0.06666666666667    0.22500000000000            24
    0.13333333333333    0.06666666666667    0.22500000000000            24
    0.16666666666667    0.06666666666667    0.22500000000000            24
    0.20000000000000    0.06666666666667    0.22500000000000            24