       N       E                     dE             d eps       ncg     rms          rms(c)
DAV:   1    -0.301318833795E+01   -0.30132E+01   -0.17281E-07  8840   0.306E-03    0.109E-05
DAV:   2    -0.301318833813E+01   -0.18832E-09   -0.43311E-10  7904   0.138E-04    0.637E-06
DAV:   3    -0.301318833927E+01   -0.11396E-08   -0.38993E-11  7808   0.513E-05    0.241E-06
DAV:   4    -0.301318833990E+01   -0.62651E-09   -0.49613E-12  7632   0.134E-05
   1 F= -.30131883E+01 E0= -.30128059E+01  d E =-.301319E+01
