<?xml version="1.0" encoding="ISO-8859-1"?>
<modeling>
 <generator>
  <i name="program" type="string">vasp </i>
  <i name="version" type="string">5.4.1  </i>
  <i name="subversion" type="string">05Feb16 (build Mar 31 2016 13:39:20) complex                          parallel </i>
  <i name="platform" type="string">IFC91_ompi </i>
  <i name="date" type="string">2016 05 20 </i>
  <i name="time" type="string">13:46:50 </i>
 </generator>
 <incar>
  <i type="string" name="PREC">n</i>
  <i type="string" name="ALGO"> N</i>
  <i type="int" name="NELM">   100</i>
  <i type="int" name="NELMIN">     4</i>
  <i type="int" name="IBRION">     2</i>
  <i name="EDIFF">      0.00000100</i>
  <i name="EDIFFG">     -0.05000000</i>
  <i type="int" name="NSW">    20</i>
  <i type="int" name="ISIF">     3</i>
  <i name="ENCUT">    520.00000000</i>
  <i type="string" name="LREAL"> A</i>
  <i type="int" name="ISMEAR">     0</i>
  <i name="SIGMA">      0.05000000</i>
  <i type="logical" name="LWAVE"> T  </i>
  <i type="logical" name="LCHARG"> T  </i>
  <i type="logical" name="LASPH"> T  </i>
  <v type="int" name="KPOINT_BSE">    -1     0     0     0</v>
  <i type="int" name="NELM">   100</i>
  <i type="logical" name="LASPH"> T  </i>
 </incar>
 <kpoints>
  <generation param="Gamma">
   <v type="int" name="divisions">      30       30       20 </v>
   <v name="usershift">      0.00000000       0.00000000       0.50000000 </v>
   <v name="genvec1">      0.03333333       0.00000000       0.00000000 </v>
   <v name="genvec2">      0.00000000       0.03333333       0.00000000 </v>
   <v name="genvec3">      0.00000000       0.00000000       0.05000000 </v>
   <v name="shift">      0.00000000       0.00000000       0.50000000 </v>
  </generation>
  <varray name="kpointlist" >
   <v>       0.00000000       0.00000000       0.02500000 </v>
   <v>       0.03333333      -0.00000000       0.02500000 </v>
   <v>       0.06666667      -0.00000000       0.02500000 </v>
   <v>       0.10000000      -0.00000000       0.02500000 </v>
   <v>       0.13333333      -0.00000000       0.02500000 </v>
   <v>       0.16666667      -0.00000000       0.02500000 </v>
   <v>       0.20000000      -0.00000000       0.02500000 </v>
   <v>       0.23333333      -0.00000000       0.02500000 </v>
   <v>       0.26666667      -0.00000000       0.02500000 </v>
   <v>       0.30000000       0.00000000       0.02500000 </v>
   <v>       0.33333333      -0.00000000       0.02500000 </v>
   <v>       0.36666667       0.00000000       0.02500000 </v>
   <v>       0.40000000      -0.00000000       0.02500000 </v>
   <v>       0.43333333      -0.00000000       0.02500000 </v>
   <v>       0.46666667      -0.00000000       0.02500000 </v>
   <v>       0.50000000      -0.00000000       0.02500000 </v>
   <v>       0.03333333       0.03333333       0.02500000 </v>
   <v>       0.06666667       0.03333333       0.02500000 </v>
   <v>       0.10000000       0.03333333       0.02500000 </v>
   <v>       0.13333333       0.03333333       0.02500000 </v>
   <v>       0.16666667       0.03333333       0.02500000 </v>
   <v>       0.20000000       0.03333333       0.02500000 </v>
   <v>       0.23333333       0.03333333       0.02500000 </v>
   <v>       0.26666667       0.03333333       0.02500000 </v>
   <v>       0.30000000       0.03333333       0.02500000 </v>
   <v>       0.33333333       0.03333333       0.02500000 </v>
   <v>       0.36666667       0.03333333       0.02500000 </v>
   <v>       0.40000000       0.03333333       0.02500000 </v>
   <v>       0.43333333       0.03333333       0.02500000 </v>
   <v>       0.46666667       0.03333333       0.02500000 </v>
   <v>       0.06666667       0.06666667       0.02500000 </v>
   <v>       0.10000000       0.06666667       0.02500000 </v>
   <v>       0.13333333       0.06666667       0.02500000 </v>
   <v>       0.16666667       0.06666667       0.02500000 </v>
   <v>       0.20000000       0.06666667       0.02500000 </v>
   <v>       0.23333333       0.06666667       0.02500000 </v>
   <v>       0.26666667       0.06666667       0.02500000 </v>
   <v>       0.30000000       0.06666667       0.02500000 </v>
   <v>       0.33333333       0.06666667       0.02500000 </v>
   <v>       0.36666667       0.06666667       0.02500000 </v>
   <v>       0.40000000       0.06666667       0.02500000 </v>
   <v>       0.43333333       0.06666667       0.02500000 </v>
   <v>       0.46666667       0.06666667       0.02500000 </v>
   <v>       0.10000000       0.10000000       0.02500000 </v>
   <v>       0.13333333       0.10000000       0.02500000 </v>
   <v>       0.16666667       0.10000000       0.02500000 </v>
   <v>       0.20000000       0.10000000       0.02500000 </v>
   <v>       0.23333333       0.10000000       0.02500000 </v>
   <v>       0.26666667       0.10000000       0.02500000 </v>
   <v>       0.30000000       0.10000000       0.02500000 </v>
   <v>       0.33333333       0.10000000       0.02500000 </v>
   <v>       0.36666667       0.10000000       0.02500000 </v>
   <v>       0.40000000       0.10000000       0.02500000 </v>
   <v>       0.43333333       0.10000000       0.02500000 </v>
   <v>       0.13333333       0.13333333       0.02500000 </v>
   <v>       0.16666667       0.13333333       0.02500000 </v>
   <v>       0.20000000       0.13333333       0.02500000 </v>
   <v>       0.23333333       0.13333333       0.02500000 </v>
   <v>       0.26666667       0.13333333       0.02500000 </v>
   <v>       0.30000000       0.13333333       0.02500000 </v>
   <v>       0.33333333       0.13333333       0.02500000 </v>
   <v>       0.36666667       0.13333333       0.02500000 </v>
   <v>       0.40000000       0.13333333       0.02500000 </v>
   <v>       0.43333333       0.13333333       0.02500000 </v>
   <v>       0.16666667       0.16666667       0.02500000 </v>
   <v>       0.20000000       0.16666667       0.02500000 </v>
   <v>       0.23333333       0.16666667       0.02500000 </v>
   <v>       0.26666667       0.16666667       0.02500000 </v>
   <v>       0.30000000       0.16666667       0.02500000 </v>
   <v>       0.33333333       0.16666667       0.02500000 </v>
   <v>       0.36666667       0.16666667       0.02500000 </v>
   <v>       0.40000000       0.16666667       0.02500000 </v>
   <v>       0.20000000       0.20000000       0.02500000 </v>
   <v>       0.23333333       0.20000000       0.02500000 </v>
   <v>       0.26666667       0.20000000       0.02500000 </v>
   <v>       0.30000000       0.20000000       0.02500000 </v>
   <v>       0.33333333       0.20000000       0.02500000 </v>
   <v>       0.36666667       0.20000000       0.02500000 </v>
   <v>       0.40000000       0.20000000       0.02500000 </v>
   <v>       0.23333333       0.23333333       0.02500000 </v>
   <v>       0.26666667       0.23333333       0.02500000 </v>
   <v>       0.30000000       0.23333333       0.02500000 </v>
   <v>       0.33333333       0.23333333       0.02500000 </v>
   <v>       0.36666667       0.23333333       0.02500000 </v>
   <v>       0.26666667       0.26666667       0.02500000 </v>
   <v>       0.30000000       0.26666667       0.02500000 </v>
   <v>       0.33333333       0.26666667       0.02500000 </v>
   <v>       0.36666667       0.26666667       0.02500000 </v>
   <v>       0.30000000       0.30000000       0.02500000 </v>
   <v>       0.33333333       0.30000000       0.02500000 </v>
   <v>       0.33333333       0.33333333       0.02500000 </v>
   <v>       0.00000000       0.00000000       0.07500000 </v>
   <v>       0.03333333      -0.00000000       0.07500000 </v>
   <v>       0.06666667      -0.00000000       0.07500000 </v>
   <v>       0.10000000      -0.00000000       0.07500000 </v>
   <v>       0.13333333      -0.00000000       0.07500000 </v>
   <v>       0.16666667      -0.00000000       0.07500000 </v>
   <v>       0.20000000      -0.00000000       0.07500000 </v>
   <v>       0.23333333      -0.00000000       0.07500000 </v>
   <v>       0.26666667      -0.00000000       0.07500000 </v>
   <v>       0.30000000       0.00000000       0.07500000 </v>
   <v>       0.33333333      -0.00000000       0.07500000 </v>
   <v>       0.36666667       0.00000000       0.07500000 </v>
   <v>       0.40000000      -0.00000000       0.07500000 </v>
   <v>       0.43333333      -0.00000000       0.07500000 </v>
   <v>       0.46666667      -0.00000000       0.07500000 </v>
   <v>       0.50000000      -0.00000000       0.07500000 </v>
   <v>       0.03333333       0.03333333       0.07500000 </v>
   <v>       0.06666667       0.03333333       0.07500000 </v>
   <v>       0.10000000       0.03333333       0.07500000 </v>
   <v>       0.13333333       0.03333333       0.07500000 </v>
   <v>       0.16666667       0.03333333       0.07500000 </v>
   <v>       0.20000000       0.03333333       0.07500000 </v>
   <v>       0.23333333       0.03333333       0.07500000 </v>
   <v>       0.26666667       0.03333333       0.07500000 </v>
   <v>       0.30000000       0.03333333       0.07500000 </v>
   <v>       0.33333333       0.03333333       0.07500000 </v>
   <v>       0.36666667       0.03333333       0.07500000 </v>
   <v>       0.40000000       0.03333333       0.07500000 </v>
   <v>       0.43333333       0.03333333       0.07500000 </v>
   <v>       0.46666667       0.03333333       0.07500000 </v>
   <v>       0.06666667       0.06666667       0.07500000 </v>
   <v>       0.10000000       0.06666667       0.07500000 </v>
   <v>       0.13333333       0.06666667       0.07500000 </v>
   <v>       0.16666667       0.06666667       0.07500000 </v>
   <v>       0.20000000       0.06666667       0.07500000 </v>
   <v>       0.23333333       0.06666667       0.07500000 </v>
   <v>       0.26666667       0.06666667       0.07500000 </v>
   <v>       0.30000000       0.06666667       0.07500000 </v>
   <v>       0.33333333       0.06666667       0.07500000 </v>
   <v>       0.36666667       0.06666667       0.07500000 </v>
   <v>       0.40000000       0.06666667       0.07500000 </v>
   <v>       0.43333333       0.06666667       0.07500000 </v>
   <v>       0.46666667       0.06666667       0.07500000 </v>
   <v>       0.10000000       0.10000000       0.07500000 </v>
   <v>       0.13333333       0.10000000       0.07500000 </v>
   <v>       0.16666667       0.10000000       0.07500000 </v>
   <v>       0.20000000       0.10000000       0.07500000 </v>
   <v>       0.23333333       0.10000000       0.07500000 </v>
   <v>       0.26666667       0.10000000       0.07500000 </v>
   <v>       0.30000000       0.10000000       0.07500000 </v>
   <v>       0.33333333       0.10000000       0.07500000 </v>
   <v>       0.36666667       0.10000000       0.07500000 </v>
   <v>       0.40000000       0.10000000       0.07500000 </v>
   <v>       0.43333333       0.10000000       0.07500000 </v>
   <v>       0.13333333       0.13333333       0.07500000 </v>
   <v>       0.16666667       0.13333333       0.07500000 </v>
   <v>       0.20000000       0.13333333       0.07500000 </v>
   <v>       0.23333333       0.13333333       0.07500000 </v>
   <v>       0.26666667       0.13333333       0.07500000 </v>
   <v>       0.30000000       0.13333333       0.07500000 </v>
   <v>       0.33333333       0.13333333       0.07500000 </v>
   <v>       0.36666667       0.13333333       0.07500000 </v>
   <v>       0.40000000       0.13333333       0.07500000 </v>
   <v>       0.43333333       0.13333333       0.07500000 </v>
   <v>       0.16666667       0.16666667       0.07500000 </v>
   <v>       0.20000000       0.16666667       0.07500000 </v>
   <v>       0.23333333       0.16666667       0.07500000 </v>
   <v>       0.26666667       0.16666667       0.07500000 </v>
   <v>       0.30000000       0.16666667       0.07500000 </v>
   <v>       0.33333333       0.16666667       0.07500000 </v>
   <v>       0.36666667       0.16666667       0.07500000 </v>
   <v>       0.40000000       0.16666667       0.07500000 </v>
   <v>       0.20000000       0.20000000       0.07500000 </v>
   <v>       0.23333333       0.20000000       0.07500000 </v>
   <v>       0.26666667       0.20000000       0.07500000 </v>
   <v>       0.30000000       0.20000000       0.07500000 </v>
   <v>       0.33333333       0.20000000       0.07500000 </v>
   <v>       0.36666667       0.20000000       0.07500000 </v>
   <v>       0.40000000       0.20000000       0.07500000 </v>
   <v>       0.23333333       0.23333333       0.07500000 </v>
   <v>       0.26666667       0.23333333       0.07500000 </v>
   <v>       0.30000000       0.23333333       0.07500000 </v>
   <v>       0.33333333       0.23333333       0.07500000 </v>
   <v>       0.36666667       0.23333333       0.07500000 </v>
   <v>       0.26666667       0.26666667       0.07500000 </v>
   <v>       0.30000000       0.26666667       0.07500000 </v>
   <v>       0.33333333       0.26666667       0.07500000 </v>
   <v>       0.36666667       0.26666667       0.07500000 </v>
   <v>       0.30000000       0.30000000       0.07500000 </v>
   <v>       0.33333333       0.30000000       0.07500000 </v>
   <v>       0.33333333       0.33333333       0.07500000 </v>
   <v>       0.00000000       0.00000000       0.12500000 </v>
   <v>       0.03333333      -0.00000000       0.12500000 </v>
   <v>       0.06666667      -0.00000000       0.12500000 </v>
   <v>       0.10000000      -0.00000000       0.12500000 </v>
   <v>       0.13333333      -0.00000000       0.12500000 </v>
   <v>       0.16666667      -0.00000000       0.12500000 </v>
   <v>       0.20000000      -0.00000000       0.12500000 </v>
   <v>       0.23333333      -0.00000000       0.12500000 </v>
   <v>       0.26666667      -0.00000000       0.12500000 </v>
   <v>       0.30000000       0.00000000       0.12500000 </v>
   <v>       0.33333333      -0.00000000       0.12500000 </v>
   <v>       0.36666667       0.00000000       0.12500000 </v>
   <v>       0.40000000      -0.00000000       0.12500000 </v>
   <v>       0.43333333      -0.00000000       0.12500000 </v>
   <v>       0.46666667      -0.00000000       0.12500000 </v>
   <v>       0.50000000      -0.00000000       0.12500000 </v>
   <v>       0.03333333       0.03333333       0.12500000 </v>
   <v>       0.06666667       0.03333333       0.12500000 </v>
   <v>       0.10000000       0.03333333       0.12500000 </v>
   <v>       0.13333333       0.03333333       0.12500000 </v>
   <v>       0.16666667       0.03333333       0.12500000 </v>
   <v>       0.20000000       0.03333333       0.12500000 </v>
   <v>       0.23333333       0.03333333       0.12500000 </v>
   <v>       0.26666667       0.03333333       0.12500000 </v>
   <v>       0.30000000       0.03333333       0.12500000 </v>
   <v>       0.33333333       0.03333333       0.12500000 </v>
   <v>       0.36666667       0.03333333       0.12500000 </v>
   <v>       0.40000000       0.03333333       0.12500000 </v>
   <v>       0.43333333       0.03333333       0.12500000 </v>
   <v>       0.46666667       0.03333333       0.12500000 </v>
   <v>       0.06666667       0.06666667       0.12500000 </v>
   <v>       0.10000000       0.06666667       0.12500000 </v>
   <v>       0.13333333       0.06666667       0.12500000 </v>
   <v>       0.16666667       0.06666667       0.12500000 </v>
   <v>       0.20000000       0.06666667       0.12500000 </v>
   <v>       0.23333333       0.06666667       0.12500000 </v>
   <v>       0.26666667       0.06666667       0.12500000 </v>
   <v>       0.30000000       0.06666667       0.12500000 </v>
   <v>       0.33333333       0.06666667       0.12500000 </v>
   <v>       0.36666667       0.06666667       0.12500000 </v>
   <v>       0.40000000       0.06666667       0.12500000 </v>
   <v>       0.43333333       0.06666667       0.12500000 </v>
   <v>       0.46666667       0.06666667       0.12500000 </v>
   <v>       0.10000000       0.10000000       0.12500000 </v>
   <v>       0.13333333       0.10000000       0.12500000 </v>
   <v>       0.16666667       0.10000000       0.12500000 </v>
   <v>       0.20000000       0.10000000       0.12500000 </v>
   <v>       0.23333333       0.10000000       0.12500000 </v>
   <v>       0.26666667       0.10000000       0.12500000 </v>
   <v>       0.30000000       0.10000000       0.12500000 </v>
   <v>       0.33333333       0.10000000       0.12500000 </v>
   <v>       0.36666667       0.10000000       0.12500000 </v>
   <v>       0.40000000       0.10000000       0.12500000 </v>
   <v>       0.43333333       0.10000000       0.12500000 </v>
   <v>       0.13333333       0.13333333       0.12500000 </v>
   <v>       0.16666667       0.13333333       0.12500000 </v>
   <v>       0.20000000       0.13333333       0.12500000 </v>
   <v>       0.23333333       0.13333333       0.12500000 </v>
   <v>       0.26666667       0.13333333       0.12500000 </v>
   <v>       0.30000000       0.13333333       0.12500000 </v>
   <v>       0.33333333       0.13333333       0.12500000 </v>
   <v>       0.36666667       0.13333333       0.12500000 </v>
   <v>       0.40000000       0.13333333       0.12500000 </v>
   <v>       0.43333333       0.13333333       0.12500000 </v>
   <v>       0.16666667       0.16666667       0.12500000 </v>
   <v>       0.20000000       0.16666667       0.12500000 </v>
   <v>       0.23333333       0.16666667       0.12500000 </v>
   <v>       0.26666667       0.16666667       0.12500000 </v>
   <v>       0.30000000       0.16666667       0.12500000 </v>
   <v>       0.33333333       0.16666667       0.12500000 </v>
   <v>       0.36666667       0.16666667       0.12500000 </v>
   <v>       0.40000000       0.16666667       0.12500000 </v>
   <v>       0.20000000       0.20000000       0.12500000 </v>
   <v>       0.23333333       0.20000000       0.12500000 </v>
   <v>       0.26666667       0.20000000       0.12500000 </v>
   <v>       0.30000000       0.20000000       0.12500000 </v>
   <v>       0.33333333       0.20000000       0.12500000 </v>
   <v>       0.36666667       0.20000000       0.12500000 </v>
   <v>       0.40000000       0.20000000       0.12500000 </v>
   <v>       0.23333333       0.23333333       0.12500000 </v>
   <v>       0.26666667       0.23333333       0.12500000 </v>
   <v>       0.30000000       0.23333333       0.12500000 </v>
   <v>       0.33333333       0.23333333       0.12500000 </v>
   <v>       0.36666667       0.23333333       0.12500000 </v>
   <v>       0.26666667       0.26666667       0.12500000 </v>
   <v>       0.30000000       0.26666667       0.12500000 </v>
   <v>       0.33333333       0.26666667       0.12500000 </v>
   <v>       0.36666667       0.26666667       0.12500000 </v>
   <v>       0.30000000       0.30000000       0.12500000 </v>
   <v>       0.33333333       0.30000000       0.12500000 </v>
   <v>       0.33333333       0.33333333       0.12500000 </v>
   <v>       0.00000000       0.00000000       0.17500000 </v>
   <v>       0.03333333      -0.00000000       0.17500000 </v>
   <v>       0.06666667      -0.00000000       0.17500000 </v>
   <v>       0.10000000      -0.00000000       0.17500000 </v>
   <v>       0.13333333      -0.00000000       0.17500000 </v>
   <v>       0.16666667      -0.00000000       0.17500000 </v>
   <v>       0.20000000      -0.00000000       0.17500000 </v>
   <v>       0.23333333      -0.00000000       0.17500000 </v>
   <v>       0.26666667      -0.00000000       0.17500000 </v>
   <v>       0.30000000       0.00000000       0.17500000 </v>
   <v>       0.33333333      -0.00000000       0.17500000 </v>
   <v>       0.36666667       0.00000000       0.17500000 </v>
   <v>       0.40000000      -0.00000000       0.17500000 </v>
   <v>       0.43333333      -0.00000000       0.17500000 </v>
   <v>       0.46666667      -0.00000000       0.17500000 </v>
   <v>       0.50000000      -0.00000000       0.17500000 </v>
   <v>       0.03333333       0.03333333       0.17500000 </v>
   <v>       0.06666667       0.03333333       0.17500000 </v>
   <v>       0.10000000       0.03333333       0.17500000 </v>
   <v>       0.13333333       0.03333333       0.17500000 </v>
   <v>       0.16666667       0.03333333       0.17500000 </v>
   <v>       0.20000000       0.03333333       0.17500000 </v>
   <v>       0.23333333       0.03333333       0.17500000 </v>
   <v>       0.26666667       0.03333333       0.17500000 </v>
   <v>       0.30000000       0.03333333       0.17500000 </v>
   <v>       0.33333333       0.03333333       0.17500000 </v>
   <v>       0.36666667       0.03333333       0.17500000 </v>
   <v>       0.40000000       0.03333333       0.17500000 </v>
   <v>       0.43333333       0.03333333       0.17500000 </v>
   <v>       0.46666667       0.03333333       0.17500000 </v>
   <v>       0.06666667       0.06666667       0.17500000 </v>
   <v>       0.10000000       0.06666667       0.17500000 </v>
   <v>       0.13333333       0.06666667       0.17500000 </v>
   <v>       0.16666667       0.06666667       0.17500000 </v>
   <v>       0.20000000       0.06666667       0.17500000 </v>
   <v>       0.23333333       0.06666667       0.17500000 </v>
   <v>       0.26666667       0.06666667       0.17500000 </v>
   <v>       0.30000000       0.06666667       0.17500000 </v>
   <v>       0.33333333       0.06666667       0.17500000 </v>
   <v>       0.36666667       0.06666667       0.17500000 </v>
   <v>       0.40000000       0.06666667       0.17500000 </v>
   <v>       0.43333333       0.06666667       0.17500000 </v>
   <v>       0.46666667       0.06666667       0.17500000 </v>
   <v>       0.10000000       0.10000000       0.17500000 </v>
   <v>       0.13333333       0.10000000       0.17500000 </v>
   <v>       0.16666667       0.10000000       0.17500000 </v>
   <v>       0.20000000       0.10000000       0.17500000 </v>
   <v>       0.23333333       0.10000000       0.17500000 </v>
   <v>       0.26666667       0.10000000       0.17500000 </v>
   <v>       0.30000000       0.10000000       0.17500000 </v>
   <v>       0.33333333       0.10000000       0.17500000 </v>
   <v>       0.36666667       0.10000000       0.17500000 </v>
   <v>       0.40000000       0.10000000       0.17500000 </v>
   <v>       0.43333333       0.10000000       0.17500000 </v>
   <v>       0.13333333       0.13333333       0.17500000 </v>
   <v>       0.16666667       0.13333333       0.17500000 </v>
   <v>       0.20000000       0.13333333       0.17500000 </v>
   <v>       0.23333333       0.13333333       0.17500000 </v>
   <v>       0.26666667       0.13333333       0.17500000 </v>
   <v>       0.30000000       0.13333333       0.17500000 </v>
   <v>       0.33333333       0.13333333       0.17500000 </v>
   <v>       0.36666667       0.13333333       0.17500000 </v>
   <v>       0.40000000       0.13333333       0.17500000 </v>
   <v>       0.43333333       0.13333333       0.17500000 </v>
   <v>       0.16666667       0.16666667       0.17500000 </v>
   <v>       0.20000000       0.16666667       0.17500000 </v>
   <v>       0.23333333       0.16666667       0.17500000 </v>
   <v>       0.26666667       0.16666667       0.17500000 </v>
   <v>       0.30000000       0.16666667       0.17500000 </v>
   <v>       0.33333333       0.16666667       0.17500000 </v>
   <v>       0.36666667       0.16666667       0.17500000 </v>
   <v>       0.40000000       0.16666667       0.17500000 </v>
   <v>       0.20000000       0.20000000       0.17500000 </v>
   <v>       0.23333333       0.20000000       0.17500000 </v>
   <v>       0.26666667       0.20000000       0.17500000 </v>
   <v>       0.30000000       0.20000000       0.17500000 </v>
   <v>       0.33333333       0.20000000       0.17500000 </v>
   <v>       0.36666667       0.20000000       0.17500000 </v>
   <v>       0.40000000       0.20000000       0.17500000 </v>
   <v>       0.23333333       0.23333333       0.17500000 </v>
   <v>       0.26666667       0.23333333       0.17500000 </v>
   <v>       0.30000000       0.23333333       0.17500000 </v>
   <v>       0.33333333       0.23333333       0.17500000 </v>
   <v>       0.36666667       0.23333333       0.17500000 </v>
   <v>       0.26666667       0.26666667       0.17500000 </v>
   <v>       0.30000000       0.26666667       0.17500000 </v>
   <v>       0.33333333       0.26666667       0.17500000 </v>
   <v>       0.36666667       0.26666667       0.17500000 </v>
   <v>       0.30000000       0.30000000       0.17500000 </v>
   <v>       0.33333333       0.30000000       0.17500000 </v>
   <v>       0.33333333       0.33333333       0.17500000 </v>
   <v>       0.00000000       0.00000000       0.22500000 </v>
   <v>       0.03333333      -0.00000000       0.22500000 </v>
   <v>       0.06666667      -0.00000000       0.22500000 </v>
   <v>       0.10000000      -0.00000000       0.22500000 </v>
   <v>       0.13333333      -0.00000000       0.22500000 </v>
   <v>       0.16666667      -0.00000000       0.22500000 </v>
   <v>       0.20000000      -0.00000000       0.22500000 </v>
   <v>       0.23333333      -0.00000000       0.22500000 </v>
   <v>       0.26666667      -0.00000000       0.22500000 </v>
   <v>       0.30000000       0.00000000       0.22500000 </v>
   <v>       0.33333333      -0.00000000       0.22500000 </v>
   <v>       0.36666667       0.00000000       0.22500000 </v>
   <v>       0.40000000      -0.00000000       0.22500000 </v>
   <v>       0.43333333      -0.00000000       0.22500000 </v>
   <v>       0.46666667      -0.00000000       0.22500000 </v>
   <v>       0.50000000      -0.00000000       0.22500000 </v>
   <v>       0.03333333       0.03333333       0.22500000 </v>
   <v>       0.06666667       0.03333333       0.22500000 </v>
   <v>       0.10000000       0.03333333       0.22500000 </v>
   <v>       0.13333333       0.03333333       0.22500000 </v>
   <v>       0.16666667       0.03333333       0.22500000 </v>
   <v>       0.20000000       0.03333333       0.22500000 </v>
   <v>       0.23333333       0.03333333       0.22500000 </v>
   <v>       0.26666667       0.03333333       0.22500000 </v>
   <v>       0.30000000       0.03333333       0.22500000 </v>
   <v>       0.33333333       0.03333333       0.22500000 </v>
   <v>       0.36666667       0.03333333       0.22500000 </v>
   <v>       0.40000000       0.03333333       0.22500000 </v>
   <v>       0.43333333       0.03333333       0.22500000 </v>
   <v>       0.46666667       0.03333333       0.22500000 </v>
   <v>       0.06666667       0.06666667       0.22500000 </v>
   <v>       0.10000000       0.06666667       0.22500000 </v>
   <v>       0.13333333       0.06666667       0.22500000 </v>
   <v>       0.16666667       0.06666667       0.22500000 </v>
   <v>       0.20000000       0.06666667       0.22500000 </v>
   <v>       0.23333333       0.06666667       0.22500000 </v>
   <v>       0.26666667       0.06666667       0.22500000 </v>
   <v>       0.30000000       0.06666667       0.22500000 </v>
   <v>       0.33333333       0.06666667       0.22500000 </v>
   <v>       0.36666667       0.06666667       0.22500000 </v>
   <v>       0.40000000       0.06666667       0.22500000 </v>
   <v>       0.43333333       0.06666667       0.22500000 </v>
   <v>       0.46666667       0.06666667       0.22500000 </v>
   <v>       0.10000000       0.10000000       0.22500000 </v>
   <v>       0.13333333       0.10000000       0.22500000 </v>
   <v>       0.16666667       0.10000000       0.22500000 </v>
   <v>       0.20000000       0.10000000       0.22500000 </v>
   <v>       0.23333333       0.10000000       0.22500000 </v>
   <v>       0.26666667       0.10000000       0.22500000 </v>
   <v>       0.30000000       0.10000000       0.22500000 </v>
   <v>       0.33333333       0.10000000       0.22500000 </v>
   <v>       0.36666667       0.10000000       0.22500000 </v>
   <v>       0.40000000       0.10000000       0.22500000 </v>
   <v>       0.43333333       0.10000000       0.22500000 </v>
   <v>       0.13333333       0.13333333       0.22500000 </v>
   <v>       0.16666667       0.13333333       0.22500000 </v>
   <v>       0.20000000       0.13333333       0.22500000 </v>
   <v>       0.23333333       0.13333333       0.22500000 </v>
   <v>       0.26666667       0.13333333       0.22500000 </v>
   <v>       0.30000000       0.13333333       0.22500000 </v>
   <v>       0.33333333       0.13333333       0.22500000 </v>
   <v>       0.36666667       0.13333333       0.22500000 </v>
   <v>       0.40000000       0.13333333       0.22500000 </v>
   <v>       0.43333333       0.13333333       0.22500000 </v>
   <v>       0.16666667       0.16666667       0.22500000 </v>
   <v>       0.20000000       0.16666667       0.22500000 </v>
   <v>       0.23333333       0.16666667       0.22500000 </v>
   <v>       0.26666667       0.16666667       0.22500000 </v>
   <v>       0.30000000       0.16666667       0.22500000 </v>
   <v>       0.33333333       0.16666667       0.22500000 </v>
   <v>       0.36666667       0.16666667       0.22500000 </v>
   <v>       0.40000000       0.16666667       0.22500000 </v>
   <v>       0.20000000       0.20000000       0.22500000 </v>
   <v>       0.23333333       0.20000000       0.22500000 </v>
   <v>       0.26666667       0.20000000       0.22500000 </v>
   <v>       0.30000000       0.20000000       0.22500000 </v>
   <v>       0.33333333       0.20000000       0.22500000 </v>
   <v>       0.36666667       0.20000000       0.22500000 </v>
   <v>       0.40000000       0.20000000       0.22500000 </v>
   <v>       0.23333333       0.23333333       0.22500000 </v>
   <v>       0.26666667       0.23333333       0.22500000 </v>
   <v>       0.30000000       0.23333333       0.22500000 </v>
   <v>       0.33333333       0.23333333       0.22500000 </v>
   <v>       0.36666667       0.23333333       0.22500000 </v>
   <v>       0.26666667       0.26666667       0.22500000 </v>
   <v>       0.30000000       0.26666667       0.22500000 </v>
   <v>       0.33333333       0.26666667       0.22500000 </v>
   <v>       0.36666667       0.26666667       0.22500000 </v>
   <v>       0.30000000       0.30000000       0.22500000 </v>
   <v>       0.33333333       0.30000000       0.22500000 </v>
   <v>       0.33333333       0.33333333       0.22500000 </v>
   <v>       0.00000000       0.00000000       0.27500000 </v>
   <v>       0.03333333      -0.00000000       0.27500000 </v>
   <v>       0.06666667      -0.00000000       0.27500000 </v>
   <v>       0.10000000      -0.00000000       0.27500000 </v>
   <v>       0.13333333      -0.00000000       0.27500000 </v>
   <v>       0.16666667      -0.00000000       0.27500000 </v>
   <v>       0.20000000      -0.00000000       0.27500000 </v>
   <v>       0.23333333      -0.00000000       0.27500000 </v>
   <v>       0.26666667      -0.00000000       0.27500000 </v>
   <v>       0.30000000       0.00000000       0.27500000 </v>
   <v>       0.33333333      -0.00000000       0.27500000 </v>
   <v>       0.36666667       0.00000000       0.27500000 </v>
   <v>       0.40000000      -0.00000000       0.27500000 </v>
   <v>       0.43333333      -0.00000000       0.27500000 </v>
   <v>       0.46666667      -0.00000000       0.27500000 </v>
   <v>       0.50000000      -0.00000000       0.27500000 </v>
   <v>       0.03333333       0.03333333       0.27500000 </v>
   <v>       0.06666667       0.03333333       0.27500000 </v>
   <v>       0.10000000       0.03333333       0.27500000 </v>
   <v>       0.13333333       0.03333333       0.27500000 </v>
   <v>       0.16666667       0.03333333       0.27500000 </v>
   <v>       0.20000000       0.03333333       0.27500000 </v>
   <v>       0.23333333       0.03333333       0.27500000 </v>
   <v>       0.26666667       0.03333333       0.27500000 </v>
   <v>       0.30000000       0.03333333       0.27500000 </v>
   <v>       0.33333333       0.03333333       0.27500000 </v>
   <v>       0.36666667       0.03333333       0.27500000 </v>
   <v>       0.40000000       0.03333333       0.27500000 </v>
   <v>       0.43333333       0.03333333       0.27500000 </v>
   <v>       0.46666667       0.03333333       0.27500000 </v>
   <v>       0.06666667       0.06666667       0.27500000 </v>
   <v>       0.10000000       0.06666667       0.27500000 </v>
   <v>       0.13333333       0.06666667       0.27500000 </v>
   <v>       0.16666667       0.06666667       0.27500000 </v>
   <v>       0.20000000       0.06666667       0.27500000 </v>
   <v>       0.23333333       0.06666667       0.27500000 </v>
   <v>       0.26666667       0.06666667       0.27500000 </v>
   <v>       0.30000000       0.06666667       0.27500000 </v>
   <v>       0.33333333       0.06666667       0.27500000 </v>
   <v>       0.36666667       0.06666667       0.27500000 </v>
   <v>       0.40000000       0.06666667       0.27500000 </v>
   <v>       0.43333333       0.06666667       0.27500000 </v>
   <v>       0.46666667       0.06666667       0.27500000 </v>
   <v>       0.10000000       0.10000000       0.27500000 </v>
   <v>       0.13333333       0.10000000       0.27500000 </v>
   <v>       0.16666667       0.10000000       0.27500000 </v>
   <v>       0.20000000       0.10000000       0.27500000 </v>
   <v>       0.23333333       0.10000000       0.27500000 </v>
   <v>       0.26666667       0.10000000       0.27500000 </v>
   <v>       0.30000000       0.10000000       0.27500000 </v>
   <v>       0.33333333       0.10000000       0.27500000 </v>
   <v>       0.36666667       0.10000000       0.27500000 </v>
   <v>       0.40000000       0.10000000       0.27500000 </v>
   <v>       0.43333333       0.10000000       0.27500000 </v>
   <v>       0.13333333       0.13333333       0.27500000 </v>
   <v>       0.16666667       0.13333333       0.27500000 </v>
   <v>       0.20000000       0.13333333       0.27500000 </v>
   <v>       0.23333333       0.13333333       0.27500000 </v>
   <v>       0.26666667       0.13333333       0.27500000 </v>
   <v>       0.30000000       0.13333333       0.27500000 </v>
   <v>       0.33333333       0.13333333       0.27500000 </v>
   <v>       0.36666667       0.13333333       0.27500000 </v>
   <v>       0.40000000       0.13333333       0.27500000 </v>
   <v>       0.43333333       0.13333333       0.27500000 </v>
   <v>       0.16666667       0.16666667       0.27500000 </v>
   <v>       0.20000000       0.16666667       0.27500000 </v>
   <v>       0.23333333       0.16666667       0.27500000 </v>
   <v>       0.26666667       0.16666667       0.27500000 </v>
   <v>       0.30000000       0.16666667       0.27500000 </v>
   <v>       0.33333333       0.16666667       0.27500000 </v>
   <v>       0.36666667       0.16666667       0.27500000 </v>
   <v>       0.40000000       0.16666667       0.27500000 </v>
   <v>       0.20000000       0.20000000       0.27500000 </v>
   <v>       0.23333333       0.20000000       0.27500000 </v>
   <v>       0.26666667       0.20000000       0.27500000 </v>
   <v>       0.30000000       0.20000000       0.27500000 </v>
   <v>       0.33333333       0.20000000       0.27500000 </v>
   <v>       0.36666667       0.20000000       0.27500000 </v>
   <v>       0.40000000       0.20000000       0.27500000 </v>
   <v>       0.23333333       0.23333333       0.27500000 </v>
   <v>       0.26666667       0.23333333       0.27500000 </v>
   <v>       0.30000000       0.23333333       0.27500000 </v>
   <v>       0.33333333       0.23333333       0.27500000 </v>
   <v>       0.36666667       0.23333333       0.27500000 </v>
   <v>       0.26666667       0.26666667       0.27500000 </v>
   <v>       0.30000000       0.26666667       0.27500000 </v>
   <v>       0.33333333       0.26666667       0.27500000 </v>
   <v>       0.36666667       0.26666667       0.27500000 </v>
   <v>       0.30000000       0.30000000       0.27500000 </v>
   <v>       0.33333333       0.30000000       0.27500000 </v>
   <v>       0.33333333       0.33333333       0.27500000 </v>
   <v>       0.00000000       0.00000000       0.32500000 </v>
   <v>       0.03333333      -0.00000000       0.32500000 </v>
   <v>       0.06666667      -0.00000000       0.32500000 </v>
   <v>       0.10000000      -0.00000000       0.32500000 </v>
   <v>       0.13333333      -0.00000000       0.32500000 </v>
   <v>       0.16666667      -0.00000000       0.32500000 </v>
   <v>       0.20000000      -0.00000000       0.32500000 </v>
   <v>       0.23333333      -0.00000000       0.32500000 </v>
   <v>       0.26666667      -0.00000000       0.32500000 </v>
   <v>       0.30000000       0.00000000       0.32500000 </v>
   <v>       0.33333333      -0.00000000       0.32500000 </v>
   <v>       0.36666667       0.00000000       0.32500000 </v>
   <v>       0.40000000      -0.00000000       0.32500000 </v>
   <v>       0.43333333      -0.00000000       0.32500000 </v>
   <v>       0.46666667      -0.00000000       0.32500000 </v>
   <v>       0.50000000      -0.00000000       0.32500000 </v>
   <v>       0.03333333       0.03333333       0.32500000 </v>
   <v>       0.06666667       0.03333333       0.32500000 </v>
   <v>       0.10000000       0.03333333       0.32500000 </v>
   <v>       0.13333333       0.03333333       0.32500000 </v>
   <v>       0.16666667       0.03333333       0.32500000 </v>
   <v>       0.20000000       0.03333333       0.32500000 </v>
   <v>       0.23333333       0.03333333       0.32500000 </v>
   <v>       0.26666667       0.03333333       0.32500000 </v>
   <v>       0.30000000       0.03333333       0.32500000 </v>
   <v>       0.33333333       0.03333333       0.32500000 </v>
   <v>       0.36666667       0.03333333       0.32500000 </v>
   <v>       0.40000000       0.03333333       0.32500000 </v>
   <v>       0.43333333       0.03333333       0.32500000 </v>
   <v>       0.46666667       0.03333333       0.32500000 </v>
   <v>       0.06666667       0.06666667       0.32500000 </v>
   <v>       0.10000000       0.06666667       0.32500000 </v>
   <v>       0.13333333       0.06666667       0.32500000 </v>
   <v>       0.16666667       0.06666667       0.32500000 </v>
   <v>       0.20000000       0.06666667       0.32500000 </v>
   <v>       0.23333333       0.06666667       0.32500000 </v>
   <v>       0.26666667       0.06666667       0.32500000 </v>
   <v>       0.30000000       0.06666667       0.32500000 </v>
   <v>       0.33333333       0.06666667       0.32500000 </v>
   <v>       0.36666667       0.06666667       0.32500000 </v>
   <v>       0.40000000       0.06666667       0.32500000 </v>
   <v>       0.43333333       0.06666667       0.32500000 </v>
   <v>       0.46666667       0.06666667       0.32500000 </v>
   <v>       0.10000000       0.10000000       0.32500000 </v>
   <v>       0.13333333       0.10000000       0.32500000 </v>
   <v>       0.16666667       0.10000000       0.32500000 </v>
   <v>       0.20000000       0.10000000       0.32500000 </v>
   <v>       0.23333333       0.10000000       0.32500000 </v>
   <v>       0.26666667       0.10000000       0.32500000 </v>
   <v>       0.30000000       0.10000000       0.32500000 </v>
   <v>       0.33333333       0.10000000       0.32500000 </v>
   <v>       0.36666667       0.10000000       0.32500000 </v>
   <v>       0.40000000       0.10000000       0.32500000 </v>
   <v>       0.43333333       0.10000000       0.32500000 </v>
   <v>       0.13333333       0.13333333       0.32500000 </v>
   <v>       0.16666667       0.13333333       0.32500000 </v>
   <v>       0.20000000       0.13333333       0.32500000 </v>
   <v>       0.23333333       0.13333333       0.32500000 </v>
   <v>       0.26666667       0.13333333       0.32500000 </v>
   <v>       0.30000000       0.13333333       0.32500000 </v>
   <v>       0.33333333       0.13333333       0.32500000 </v>
   <v>       0.36666667       0.13333333       0.32500000 </v>
   <v>       0.40000000       0.13333333       0.32500000 </v>
   <v>       0.43333333       0.13333333       0.32500000 </v>
   <v>       0.16666667       0.16666667       0.32500000 </v>
   <v>       0.20000000       0.16666667       0.32500000 </v>
   <v>       0.23333333       0.16666667       0.32500000 </v>
   <v>       0.26666667       0.16666667       0.32500000 </v>
   <v>       0.30000000       0.16666667       0.32500000 </v>
   <v>       0.33333333       0.16666667       0.32500000 </v>
   <v>       0.36666667       0.16666667       0.32500000 </v>
   <v>       0.40000000       0.16666667       0.32500000 </v>
   <v>       0.20000000       0.20000000       0.32500000 </v>
   <v>       0.23333333       0.20000000       0.32500000 </v>
   <v>       0.26666667       0.20000000       0.32500000 </v>
   <v>       0.30000000       0.20000000       0.32500000 </v>
   <v>       0.33333333       0.20000000       0.32500000 </v>
   <v>       0.36666667       0.20000000       0.32500000 </v>
   <v>       0.40000000       0.20000000       0.32500000 </v>
   <v>       0.23333333       0.23333333       0.32500000 </v>
   <v>       0.26666667       0.23333333       0.32500000 </v>
   <v>       0.30000000       0.23333333       0.32500000 </v>
   <v>       0.33333333       0.23333333       0.32500000 </v>
   <v>       0.36666667       0.23333333       0.32500000 </v>
   <v>       0.26666667       0.26666667       0.32500000 </v>
   <v>       0.30000000       0.26666667       0.32500000 </v>
   <v>       0.33333333       0.26666667       0.32500000 </v>
   <v>       0.36666667       0.26666667       0.32500000 </v>
   <v>       0.30000000       0.30000000       0.32500000 </v>
   <v>       0.33333333       0.30000000       0.32500000 </v>
   <v>       0.33333333       0.33333333       0.32500000 </v>
   <v>       0.00000000       0.00000000       0.37500000 </v>
   <v>       0.03333333      -0.00000000       0.37500000 </v>
   <v>       0.06666667      -0.00000000       0.37500000 </v>
   <v>       0.10000000      -0.00000000       0.37500000 </v>
   <v>       0.13333333      -0.00000000       0.37500000 </v>
   <v>       0.16666667      -0.00000000       0.37500000 </v>
   <v>       0.20000000      -0.00000000       0.37500000 </v>
   <v>       0.23333333      -0.00000000       0.37500000 </v>
   <v>       0.26666667      -0.00000000       0.37500000 </v>
   <v>       0.30000000       0.00000000       0.37500000 </v>
   <v>       0.33333333      -0.00000000       0.37500000 </v>
   <v>       0.36666667       0.00000000       0.37500000 </v>
   <v>       0.40000000      -0.00000000       0.37500000 </v>
   <v>       0.43333333      -0.00000000       0.37500000 </v>
   <v>       0.46666667      -0.00000000       0.37500000 </v>
   <v>       0.50000000      -0.00000000       0.37500000 </v>
   <v>       0.03333333       0.03333333       0.37500000 </v>
   <v>       0.06666667       0.03333333       0.37500000 </v>
   <v>       0.10000000       0.03333333       0.37500000 </v>
   <v>       0.13333333       0.03333333       0.37500000 </v>
   <v>       0.16666667       0.03333333       0.37500000 </v>
   <v>       0.20000000       0.03333333       0.37500000 </v>
   <v>       0.23333333       0.03333333       0.37500000 </v>
   <v>       0.26666667       0.03333333       0.37500000 </v>
   <v>       0.30000000       0.03333333       0.37500000 </v>
   <v>       0.33333333       0.03333333       0.37500000 </v>
   <v>       0.36666667       0.03333333       0.37500000 </v>
   <v>       0.40000000       0.03333333       0.37500000 </v>
   <v>       0.43333333       0.03333333       0.37500000 </v>
   <v>       0.46666667       0.03333333       0.37500000 </v>
   <v>       0.06666667       0.06666667       0.37500000 </v>
   <v>       0.10000000       0.06666667       0.37500000 </v>
   <v>       0.13333333       0.06666667       0.37500000 </v>
   <v>       0.16666667       0.06666667       0.37500000 </v>
   <v>       0.20000000       0.06666667       0.37500000 </v>
   <v>       0.23333333       0.06666667       0.37500000 </v>
   <v>       0.26666667       0.06666667       0.37500000 </v>
   <v>       0.30000000       0.06666667       0.37500000 </v>
   <v>       0.33333333       0.06666667       0.37500000 </v>
   <v>       0.36666667       0.06666667       0.37500000 </v>
   <v>       0.40000000       0.06666667       0.37500000 </v>
   <v>       0.43333333       0.06666667       0.37500000 </v>
   <v>       0.46666667       0.06666667       0.37500000 </v>
   <v>       0.10000000       0.10000000       0.37500000 </v>
   <v>       0.13333333       0.10000000       0.37500000 </v>
   <v>       0.16666667       0.10000000       0.37500000 </v>
   <v>       0.20000000       0.10000000       0.37500000 </v>
   <v>       0.23333333       0.10000000       0.37500000 </v>
   <v>       0.26666667       0.10000000       0.37500000 </v>
   <v>       0.30000000       0.10000000       0.37500000 </v>
   <v>       0.33333333       0.10000000       0.37500000 </v>
   <v>       0.36666667       0.10000000       0.37500000 </v>
   <v>       0.40000000       0.10000000       0.37500000 </v>
   <v>       0.43333333       0.10000000       0.37500000 </v>
   <v>       0.13333333       0.13333333       0.37500000 </v>
   <v>       0.16666667       0.13333333       0.37500000 </v>
   <v>       0.20000000       0.13333333       0.37500000 </v>
   <v>       0.23333333       0.13333333       0.37500000 </v>
   <v>       0.26666667       0.13333333       0.37500000 </v>
   <v>       0.30000000       0.13333333       0.37500000 </v>
   <v>       0.33333333       0.13333333       0.37500000 </v>
   <v>       0.36666667       0.13333333       0.37500000 </v>
   <v>       0.40000000       0.13333333       0.37500000 </v>
   <v>       0.43333333       0.13333333       0.37500000 </v>
   <v>       0.16666667       0.16666667       0.37500000 </v>
   <v>       0.20000000       0.16666667       0.37500000 </v>
   <v>       0.23333333       0.16666667       0.37500000 </v>
   <v>       0.26666667       0.16666667       0.37500000 </v>
   <v>       0.30000000       0.16666667       0.37500000 </v>
   <v>       0.33333333       0.16666667       0.37500000 </v>
   <v>       0.36666667       0.16666667       0.37500000 </v>
   <v>       0.40000000       0.16666667       0.37500000 </v>
   <v>       0.20000000       0.20000000       0.37500000 </v>
   <v>       0.23333333       0.20000000       0.37500000 </v>
   <v>       0.26666667       0.20000000       0.37500000 </v>
   <v>       0.30000000       0.20000000       0.37500000 </v>
   <v>       0.33333333       0.20000000       0.37500000 </v>
   <v>       0.36666667       0.20000000       0.37500000 </v>
   <v>       0.40000000       0.20000000       0.37500000 </v>
   <v>       0.23333333       0.23333333       0.37500000 </v>
   <v>       0.26666667       0.23333333       0.37500000 </v>
   <v>       0.30000000       0.23333333       0.37500000 </v>
   <v>       0.33333333       0.23333333       0.37500000 </v>
   <v>       0.36666667       0.23333333       0.37500000 </v>
   <v>       0.26666667       0.26666667       0.37500000 </v>
   <v>       0.30000000       0.26666667       0.37500000 </v>
   <v>       0.33333333       0.26666667       0.37500000 </v>
   <v>       0.36666667       0.26666667       0.37500000 </v>
   <v>       0.30000000       0.30000000       0.37500000 </v>
   <v>       0.33333333       0.30000000       0.37500000 </v>
   <v>       0.33333333       0.33333333       0.37500000 </v>
   <v>       0.00000000       0.00000000       0.42500000 </v>
   <v>       0.03333333      -0.00000000       0.42500000 </v>
   <v>       0.06666667      -0.00000000       0.42500000 </v>
   <v>       0.10000000      -0.00000000       0.42500000 </v>
   <v>       0.13333333      -0.00000000       0.42500000 </v>
   <v>       0.16666667      -0.00000000       0.42500000 </v>
   <v>       0.20000000      -0.00000000       0.42500000 </v>
   <v>       0.23333333      -0.00000000       0.42500000 </v>
   <v>       0.26666667      -0.00000000       0.42500000 </v>
   <v>       0.30000000       0.00000000       0.42500000 </v>
   <v>       0.33333333      -0.00000000       0.42500000 </v>
   <v>       0.36666667       0.00000000       0.42500000 </v>
   <v>       0.40000000      -0.00000000       0.42500000 </v>
   <v>       0.43333333      -0.00000000       0.42500000 </v>
   <v>       0.46666667      -0.00000000       0.42500000 </v>
   <v>       0.50000000      -0.00000000       0.42500000 </v>
   <v>       0.03333333       0.03333333       0.42500000 </v>
   <v>       0.06666667       0.03333333       0.42500000 </v>
   <v>       0.10000000       0.03333333       0.42500000 </v>
   <v>       0.13333333       0.03333333       0.42500000 </v>
   <v>       0.16666667       0.03333333       0.42500000 </v>
   <v>       0.20000000       0.03333333       0.42500000 </v>
   <v>       0.23333333       0.03333333       0.42500000 </v>
   <v>       0.26666667       0.03333333       0.42500000 </v>
   <v>       0.30000000       0.03333333       0.42500000 </v>
   <v>       0.33333333       0.03333333       0.42500000 </v>
   <v>       0.36666667       0.03333333       0.42500000 </v>
   <v>       0.40000000       0.03333333       0.42500000 </v>
   <v>       0.43333333       0.03333333       0.42500000 </v>
   <v>       0.46666667       0.03333333       0.42500000 </v>
   <v>       0.06666667       0.06666667       0.42500000 </v>
   <v>       0.10000000       0.06666667       0.42500000 </v>
   <v>       0.13333333       0.06666667       0.42500000 </v>
   <v>       0.16666667       0.06666667       0.42500000 </v>
   <v>       0.20000000       0.06666667       0.42500000 </v>
   <v>       0.23333333       0.06666667       0.42500000 </v>
   <v>       0.26666667       0.06666667       0.42500000 </v>
   <v>       0.30000000       0.06666667       0.42500000 </v>
   <v>       0.33333333       0.06666667       0.42500000 </v>
   <v>       0.36666667       0.06666667       0.42500000 </v>
   <v>       0.40000000       0.06666667       0.42500000 </v>
   <v>       0.43333333       0.06666667       0.42500000 </v>
   <v>       0.46666667       0.06666667       0.42500000 </v>
   <v>       0.10000000       0.10000000       0.42500000 </v>
   <v>       0.13333333       0.10000000       0.42500000 </v>
   <v>       0.16666667       0.10000000       0.42500000 </v>
   <v>       0.20000000       0.10000000       0.42500000 </v>
   <v>       0.23333333       0.10000000       0.42500000 </v>
   <v>       0.26666667       0.10000000       0.42500000 </v>
   <v>       0.30000000       0.10000000       0.42500000 </v>
   <v>       0.33333333       0.10000000       0.42500000 </v>
   <v>       0.36666667       0.10000000       0.42500000 </v>
   <v>       0.40000000       0.10000000       0.42500000 </v>
   <v>       0.43333333       0.10000000       0.42500000 </v>
   <v>       0.13333333       0.13333333       0.42500000 </v>
   <v>       0.16666667       0.13333333       0.42500000 </v>
   <v>       0.20000000       0.13333333       0.42500000 </v>
   <v>       0.23333333       0.13333333       0.42500000 </v>
   <v>       0.26666667       0.13333333       0.42500000 </v>
   <v>       0.30000000       0.13333333       0.42500000 </v>
   <v>       0.33333333       0.13333333       0.42500000 </v>
   <v>       0.36666667       0.13333333       0.42500000 </v>
   <v>       0.40000000       0.13333333       0.42500000 </v>
   <v>       0.43333333       0.13333333       0.42500000 </v>
   <v>       0.16666667       0.16666667       0.42500000 </v>
   <v>       0.20000000       0.16666667       0.42500000 </v>
   <v>       0.23333333       0.16666667       0.42500000 </v>
   <v>       0.26666667       0.16666667       0.42500000 </v>
   <v>       0.30000000       0.16666667       0.42500000 </v>
   <v>       0.33333333       0.16666667       0.42500000 </v>
   <v>       0.36666667       0.16666667       0.42500000 </v>
   <v>       0.40000000       0.16666667       0.42500000 </v>
   <v>       0.20000000       0.20000000       0.42500000 </v>
   <v>       0.23333333       0.20000000       0.42500000 </v>
   <v>       0.26666667       0.20000000       0.42500000 </v>
   <v>       0.30000000       0.20000000       0.42500000 </v>
   <v>       0.33333333       0.20000000       0.42500000 </v>
   <v>       0.36666667       0.20000000       0.42500000 </v>
   <v>       0.40000000       0.20000000       0.42500000 </v>
   <v>       0.23333333       0.23333333       0.42500000 </v>
   <v>       0.26666667       0.23333333       0.42500000 </v>
   <v>       0.30000000       0.23333333       0.42500000 </v>
   <v>       0.33333333       0.23333333       0.42500000 </v>
   <v>       0.36666667       0.23333333       0.42500000 </v>
   <v>       0.26666667       0.26666667       0.42500000 </v>
   <v>       0.30000000       0.26666667       0.42500000 </v>
   <v>       0.33333333       0.26666667       0.42500000 </v>
   <v>       0.36666667       0.26666667       0.42500000 </v>
   <v>       0.30000000       0.30000000       0.42500000 </v>
   <v>       0.33333333       0.30000000       0.42500000 </v>
   <v>       0.33333333       0.33333333       0.42500000 </v>
   <v>       0.00000000       0.00000000       0.47500000 </v>
   <v>       0.03333333      -0.00000000       0.47500000 </v>
   <v>       0.06666667      -0.00000000       0.47500000 </v>
   <v>       0.10000000      -0.00000000       0.47500000 </v>
   <v>       0.13333333      -0.00000000       0.47500000 </v>
   <v>       0.16666667      -0.00000000       0.47500000 </v>
   <v>       0.20000000      -0.00000000       0.47500000 </v>
   <v>       0.23333333      -0.00000000       0.47500000 </v>
   <v>       0.26666667      -0.00000000       0.47500000 </v>
   <v>       0.30000000       0.00000000       0.47500000 </v>
   <v>       0.33333333      -0.00000000       0.47500000 </v>
   <v>       0.36666667       0.00000000       0.47500000 </v>
   <v>       0.40000000      -0.00000000       0.47500000 </v>
   <v>       0.43333333      -0.00000000       0.47500000 </v>
   <v>       0.46666667      -0.00000000       0.47500000 </v>
   <v>       0.50000000      -0.00000000       0.47500000 </v>
   <v>       0.03333333       0.03333333       0.47500000 </v>
   <v>       0.06666667       0.03333333       0.47500000 </v>
   <v>       0.10000000       0.03333333       0.47500000 </v>
   <v>       0.13333333       0.03333333       0.47500000 </v>
   <v>       0.16666667       0.03333333       0.47500000 </v>
   <v>       0.20000000       0.03333333       0.47500000 </v>
   <v>       0.23333333       0.03333333       0.47500000 </v>
   <v>       0.26666667       0.03333333       0.47500000 </v>
   <v>       0.30000000       0.03333333       0.47500000 </v>
   <v>       0.33333333       0.03333333       0.47500000 </v>
   <v>       0.36666667       0.03333333       0.47500000 </v>
   <v>       0.40000000       0.03333333       0.47500000 </v>
   <v>       0.43333333       0.03333333       0.47500000 </v>
   <v>       0.46666667       0.03333333       0.47500000 </v>
   <v>       0.06666667       0.06666667       0.47500000 </v>
   <v>       0.10000000       0.06666667       0.47500000 </v>
   <v>       0.13333333       0.06666667       0.47500000 </v>
   <v>       0.16666667       0.06666667       0.47500000 </v>
   <v>       0.20000000       0.06666667       0.47500000 </v>
   <v>       0.23333333       0.06666667       0.47500000 </v>
   <v>       0.26666667       0.06666667       0.47500000 </v>
   <v>       0.30000000       0.06666667       0.47500000 </v>
   <v>       0.33333333       0.06666667       0.47500000 </v>
   <v>       0.36666667       0.06666667       0.47500000 </v>
   <v>       0.40000000       0.06666667       0.47500000 </v>
   <v>       0.43333333       0.06666667       0.47500000 </v>
   <v>       0.46666667       0.06666667       0.47500000 </v>
   <v>       0.10000000       0.10000000       0.47500000 </v>
   <v>       0.13333333       0.10000000       0.47500000 </v>
   <v>       0.16666667       0.10000000       0.47500000 </v>
   <v>       0.20000000       0.10000000       0.47500000 </v>
   <v>       0.23333333       0.10000000       0.47500000 </v>
   <v>       0.26666667       0.10000000       0.47500000 </v>
   <v>       0.30000000       0.10000000       0.47500000 </v>
   <v>       0.33333333       0.10000000       0.47500000 </v>
   <v>       0.36666667       0.10000000       0.47500000 </v>
   <v>       0.40000000       0.10000000       0.47500000 </v>
   <v>       0.43333333       0.10000000       0.47500000 </v>
   <v>       0.13333333       0.13333333       0.47500000 </v>
   <v>       0.16666667       0.13333333       0.47500000 </v>
   <v>       0.20000000       0.13333333       0.47500000 </v>
   <v>       0.23333333       0.13333333       0.47500000 </v>
   <v>       0.26666667       0.13333333       0.47500000 </v>
   <v>       0.30000000       0.13333333       0.47500000 </v>
   <v>       0.33333333       0.13333333       0.47500000 </v>
   <v>       0.36666667       0.13333333       0.47500000 </v>
   <v>       0.40000000       0.13333333       0.47500000 </v>
   <v>       0.43333333       0.13333333       0.47500000 </v>
   <v>       0.16666667       0.16666667       0.47500000 </v>
   <v>       0.20000000       0.16666667       0.47500000 </v>
   <v>       0.23333333       0.16666667       0.47500000 </v>
   <v>       0.26666667       0.16666667       0.47500000 </v>
   <v>       0.30000000       0.16666667       0.47500000 </v>
   <v>       0.33333333       0.16666667       0.47500000 </v>
   <v>       0.36666667       0.16666667       0.47500000 </v>
   <v>       0.40000000       0.16666667       0.47500000 </v>
   <v>       0.20000000       0.20000000       0.47500000 </v>
   <v>       0.23333333       0.20000000       0.47500000 </v>
   <v>       0.26666667       0.20000000       0.47500000 </v>
   <v>       0.30000000       0.20000000       0.47500000 </v>
   <v>       0.33333333       0.20000000       0.47500000 </v>
   <v>       0.36666667       0.20000000       0.47500000 </v>
   <v>       0.40000000       0.20000000       0.47500000 </v>
   <v>       0.23333333       0.23333333       0.47500000 </v>
   <v>       0.26666667       0.23333333       0.47500000 </v>
   <v>       0.30000000       0.23333333       0.47500000 </v>
   <v>       0.33333333       0.23333333       0.47500000 </v>
   <v>       0.36666667       0.23333333       0.47500000 </v>
   <v>       0.26666667       0.26666667       0.47500000 </v>
   <v>       0.30000000       0.26666667       0.47500000 </v>
   <v>       0.33333333       0.26666667       0.47500000 </v>
   <v>       0.36666667       0.26666667       0.47500000 </v>
   <v>       0.30000000       0.30000000       0.47500000 </v>
   <v>       0.33333333       0.30000000       0.47500000 </v>
   <v>       0.33333333       0.33333333       0.47500000 </v>
  </varray>
  <varray name="weights" >
   <v>       0.00011111 </v>
   <v>       0.00066667 </v>
   <v>       0.00066667 </v>
   <v>       0.00066667 </v>
   <v>       0.00066667 </v>
   <v>       0.00066667 </v>
   <v>       0.00066667 </v>
   <v>       0.00066667 </v>
   <v>       0.00066667 </v>
   <v>       0.00066667 </v>
   <v>       0.00066667 </v>
   <v>       0.00066667 </v>
   <v>       0.00066667 </v>
   <v>       0.00066667 </v>
   <v>       0.00066667 </v>
   <v>       0.00033333 </v>
   <v>       0.00066667 </v>
   <v>       0.00133333 </v>
   <v>       0.00133333 </v>
   <v>       0.00133333 </v>
   <v>       0.00133333 </v>
   <v>       0.00133333 </v>
   <v>       0.00133333 </v>
   <v>       0.00133333 </v>
   <v>       0.00133333 </v>
   <v>       0.00133333 </v>
   <v>       0.00133333 </v>
   <v>       0.00133333 </v>
   <v>       0.00133333 </v>
   <v>       0.00133333 </v>
   <v>       0.00066667 </v>
   <v>       0.00133333 </v>
   <v>       0.00133333 </v>
   <v>       0.00133333 </v>
   <v>       0.00133333 </v>
   <v>       0.00133333 </v>
   <v>       0.00133333 </v>
   <v>       0.00133333 </v>
   <v>       0.00133333 </v>
   <v>       0.00133333 </v>
   <v>       0.00133333 </v>
   <v>       0.00133333 </v>
   <v>       0.00066667 </v>
   <v>       0.00066667 </v>
   <v>       0.00133333 </v>
   <v>       0.00133333 </v>
   <v>       0.00133333 </v>
   <v>       0.00133333 </v>
   <v>       0.00133333 </v>
   <v>       0.00133333 </v>
   <v>       0.00133333 </v>
   <v>       0.00133333 </v>
   <v>       0.00133333 </v>
   <v>       0.00133333 </v>
   <v>       0.00066667 </v>
   <v>       0.00133333 </v>
   <v>       0.00133333 </v>
   <v>       0.00133333 </v>
   <v>       0.00133333 </v>
   <v>       0.00133333 </v>
   <v>       0.00133333 </v>
   <v>       0.00133333 </v>
   <v>       0.00133333 </v>
   <v>       0.00066667 </v>
   <v>       0.00066667 </v>
   <v>       0.00133333 </v>
   <v>       0.00133333 </v>
   <v>       0.00133333 </v>
   <v>       0.00133333 </v>
   <v>       0.00133333 </v>
   <v>       0.00133333 </v>
   <v>       0.00133333 </v>
   <v>       0.00066667 </v>
   <v>       0.00133333 </v>
   <v>       0.00133333 </v>
   <v>       0.00133333 </v>
   <v>       0.00133333 </v>
   <v>       0.00133333 </v>
   <v>       0.00066667 </v>
   <v>       0.00066667 </v>
   <v>       0.00133333 </v>
   <v>       0.00133333 </v>
   <v>       0.00133333 </v>
   <v>       0.00133333 </v>
   <v>       0.00066667 </v>
   <v>       0.00133333 </v>
   <v>       0.00133333 </v>
   <v>       0.00066667 </v>
   <v>       0.00066667 </v>
   <v>       0.00133333 </v>
   <v>       0.00022222 </v>
   <v>       0.00011111 </v>
   <v>       0.00066667 </v>
   <v>       0.00066667 </v>
   <v>       0.00066667 </v>
   <v>       0.00066667 </v>
   <v>       0.00066667 </v>
   <v>       0.00066667 </v>
   <v>       0.00066667 </v>
   <v>       0.00066667 </v>
   <v>       0.00066667 </v>
   <v>       0.00066667 </v>
   <v>       0.00066667 </v>
   <v>       0.00066667 </v>
   <v>       0.00066667 </v>
   <v>       0.00066667 </v>
   <v>       0.00033333 </v>
   <v>       0.00066667 </v>
   <v>       0.00133333 </v>
   <v>       0.00133333 </v>
   <v>       0.00133333 </v>
   <v>       0.00133333 </v>
   <v>       0.00133333 </v>
   <v>       0.00133333 </v>
   <v>       0.00133333 </v>
   <v>       0.00133333 </v>
   <v>       0.00133333 </v>
   <v>       0.00133333 </v>
   <v>       0.00133333 </v>
   <v>       0.00133333 </v>
   <v>       0.00133333 </v>
   <v>       0.00066667 </v>
   <v>       0.00133333 </v>
   <v>       0.00133333 </v>
   <v>       0.00133333 </v>
   <v>       0.00133333 </v>
   <v>       0.00133333 </v>
   <v>       0.00133333 </v>
   <v>       0.00133333 </v>
   <v>       0.00133333 </v>
   <v>       0.00133333 </v>
   <v>       0.00133333 </v>
   <v>       0.00133333 </v>
   <v>       0.00066667 </v>
   <v>       0.00066667 </v>
   <v>       0.00133333 </v>
   <v>       0.00133333 </v>
   <v>       0.00133333 </v>
   <v>       0.00133333 </v>
   <v>       0.00133333 </v>
   <v>       0.00133333 </v>
   <v>       0.00133333 </v>
   <v>       0.00133333 </v>
   <v>       0.00133333 </v>
   <v>       0.00133333 </v>
   <v>       0.00066667 </v>
   <v>       0.00133333 </v>
   <v>       0.00133333 </v>
   <v>       0.00133333 </v>
   <v>       0.00133333 </v>
   <v>       0.00133333 </v>
   <v>       0.00133333 </v>
   <v>       0.00133333 </v>
   <v>       0.00133333 </v>
   <v>       0.00066667 </v>
   <v>       0.00066667 </v>
   <v>       0.00133333 </v>
   <v>       0.00133333 </v>
   <v>       0.00133333 </v>
   <v>       0.00133333 </v>
   <v>       0.00133333 </v>
   <v>       0.00133333 </v>
   <v>       0.00133333 </v>
   <v>       0.00066667 </v>
   <v>       0.00133333 </v>
   <v>       0.00133333 </v>
   <v>       0.00133333 </v>
   <v>       0.00133333 </v>
   <v>       0.00133333 </v>
   <v>       0.00066667 </v>
   <v>       0.00066667 </v>
   <v>       0.00133333 </v>
   <v>       0.00133333 </v>
   <v>       0.00133333 </v>
   <v>       0.00133333 </v>
   <v>       0.00066667 </v>
   <v>       0.00133333 </v>
   <v>       0.00133333 </v>
   <v>       0.00066667 </v>
   <v>       0.00066667 </v>
   <v>       0.00133333 </v>
   <v>       0.00022222 </v>
   <v>       0.00011111 </v>
   <v>       0.00066667 </v>
   <v>       0.00066667 </v>
   <v>       0.00066667 </v>
   <v>       0.00066667 </v>
   <v>       0.00066667 </v>
   <v>       0.00066667 </v>
   <v>       0.00066667 </v>
   <v>       0.00066667 </v>
   <v>       0.00066667 </v>
   <v>       0.00066667 </v>
   <v>       0.00066667 </v>
   <v>       0.00066667 </v>
   <v>       0.00066667 </v>
   <v>       0.00066667 </v>
   <v>       0.00033333 </v>
   <v>       0.00066667 </v>
   <v>       0.00133333 </v>
   <v>       0.00133333 </v>
   <v>       0.00133333 </v>
   <v>       0.00133333 </v>
   <v>       0.00133333 </v>
   <v>       0.00133333 </v>
   <v>       0.00133333 </v>
   <v>       0.00133333 </v>
   <v>       0.00133333 </v>
   <v>       0.00133333 </v>
   <v>       0.00133333 </v>
   <v>       0.00133333 </v>
   <v>       0.00133333 </v>
   <v>       0.00066667 </v>
   <v>       0.00133333 </v>
   <v>       0.00133333 </v>
   <v>       0.00133333 </v>
   <v>       0.00133333 </v>
   <v>       0.00133333 </v>
   <v>       0.00133333 </v>
   <v>       0.00133333 </v>
   <v>       0.00133333 </v>
   <v>       0.00133333 </v>
   <v>       0.00133333 </v>
   <v>       0.00133333 </v>
   <v>       0.00066667 </v>
   <v>       0.00066667 </v>
   <v>       0.00133333 </v>
   <v>       0.00133333 </v>
   <v>       0.00133333 </v>
   <v>       0.00133333 </v>
   <v>       0.00133333 </v>
   <v>       0.00133333 </v>
   <v>       0.00133333 </v>
   <v>       0.00133333 </v>
   <v>       0.00133333 </v>
   <v>       0.00133333 </v>
   <v>       0.00066667 </v>
   <v>       0.00133333 </v>
   <v>       0.00133333 </v>
   <v>       0.00133333 </v>
   <v>       0.00133333 </v>
   <v>       0.00133333 </v>
   <v>       0.00133333 </v>
   <v>       0.00133333 </v>
   <v>       0.00133333 </v>
   <v>       0.00066667 </v>
   <v>       0.00066667 </v>
   <v>       0.00133333 </v>
   <v>       0.00133333 </v>
   <v>       0.00133333 </v>
   <v>       0.00133333 </v>
   <v>       0.00133333 </v>
   <v>       0.00133333 </v>
   <v>       0.00133333 </v>
   <v>       0.00066667 </v>
   <v>       0.00133333 </v>
   <v>       0.00133333 </v>
   <v>       0.00133333 </v>
   <v>       0.00133333 </v>
   <v>       0.00133333 </v>
   <v>       0.00066667 </v>
   <v>       0.00066667 </v>
   <v>       0.00133333 </v>
   <v>       0.00133333 </v>
   <v>       0.00133333 </v>
   <v>       0.00133333 </v>
   <v>       0.00066667 </v>
   <v>       0.00133333 </v>
   <v>       0.00133333 </v>
   <v>       0.00066667 </v>
   <v>       0.00066667 </v>
   <v>       0.00133333 </v>
   <v>       0.00022222 </v>
   <v>       0.00011111 </v>
   <v>       0.00066667 </v>
   <v>       0.00066667 </v>
   <v>       0.00066667 </v>
   <v>       0.00066667 </v>
   <v>       0.00066667 </v>
   <v>       0.00066667 </v>
   <v>       0.00066667 </v>
   <v>       0.00066667 </v>
   <v>       0.00066667 </v>
   <v>       0.00066667 </v>
   <v>       0.00066667 </v>
   <v>       0.00066667 </v>
   <v>       0.00066667 </v>
   <v>       0.00066667 </v>
   <v>       0.00033333 </v>
   <v>       0.00066667 </v>
   <v>       0.00133333 </v>
   <v>       0.00133333 </v>
   <v>       0.00133333 </v>
   <v>       0.00133333 </v>
   <v>       0.00133333 </v>
   <v>       0.00133333 </v>
   <v>       0.00133333 </v>
   <v>       0.00133333 </v>
   <v>       0.00133333 </v>
   <v>       0.00133333 </v>
   <v>       0.00133333 </v>
   <v>       0.00133333 </v>
   <v>       0.00133333 </v>
   <v>       0.00066667 </v>
   <v>       0.00133333 </v>
   <v>       0.00133333 </v>
   <v>       0.00133333 </v>
   <v>       0.00133333 </v>
   <v>       0.00133333 </v>
   <v>       0.00133333 </v>
   <v>       0.00133333 </v>
   <v>       0.00133333 </v>
   <v>       0.00133333 </v>
   <v>       0.00133333 </v>
   <v>       0.00133333 </v>
   <v>       0.00066667 </v>
   <v>       0.00066667 </v>
   <v>       0.00133333 </v>
   <v>       0.00133333 </v>
   <v>       0.00133333 </v>
   <v>       0.00133333 </v>
   <v>       0.00133333 </v>
   <v>       0.00133333 </v>
   <v>       0.00133333 </v>
   <v>       0.00133333 </v>
   <v>       0.00133333 </v>
   <v>       0.00133333 </v>
   <v>       0.00066667 </v>
   <v>       0.00133333 </v>
   <v>       0.00133333 </v>
   <v>       0.00133333 </v>
   <v>       0.00133333 </v>
   <v>       0.00133333 </v>
   <v>       0.00133333 </v>
   <v>       0.00133333 </v>
   <v>       0.00133333 </v>
   <v>       0.00066667 </v>
   <v>       0.00066667 </v>
   <v>       0.00133333 </v>
   <v>       0.00133333 </v>
   <v>       0.00133333 </v>
   <v>       0.00133333 </v>
   <v>       0.00133333 </v>
   <v>       0.00133333 </v>
   <v>       0.00133333 </v>
   <v>       0.00066667 </v>
   <v>       0.00133333 </v>
   <v>       0.00133333 </v>
   <v>       0.00133333 </v>
   <v>       0.00133333 </v>
   <v>       0.00133333 </v>
   <v>       0.00066667 </v>
   <v>       0.00066667 </v>
   <v>       0.00133333 </v>
   <v>       0.00133333 </v>
   <v>       0.00133333 </v>
   <v>       0.00133333 </v>
   <v>       0.00066667 </v>
   <v>       0.00133333 </v>
   <v>       0.00133333 </v>
   <v>       0.00066667 </v>
   <v>       0.00066667 </v>
   <v>       0.00133333 </v>
   <v>       0.00022222 </v>
   <v>       0.00011111 </v>
   <v>       0.00066667 </v>
   <v>       0.00066667 </v>
   <v>       0.00066667 </v>
   <v>       0.00066667 </v>
   <v>       0.00066667 </v>
   <v>       0.00066667 </v>
   <v>       0.00066667 </v>
   <v>       0.00066667 </v>
   <v>       0.00066667 </v>
   <v>       0.00066667 </v>
   <v>       0.00066667 </v>
   <v>       0.00066667 </v>
   <v>       0.00066667 </v>
   <v>       0.00066667 </v>
   <v>       0.00033333 </v>
   <v>       0.00066667 </v>
   <v>       0.00133333 </v>
   <v>       0.00133333 </v>
   <v>       0.00133333 </v>
   <v>       0.00133333 </v>
   <v>       0.00133333 </v>
   <v>       0.00133333 </v>
   <v>       0.00133333 </v>
   <v>       0.00133333 </v>
   <v>       0.00133333 </v>
   <v>       0.00133333 </v>
   <v>       0.00133333 </v>
   <v>       0.00133333 </v>
   <v>       0.00133333 </v>
   <v>       0.00066667 </v>
   <v>       0.00133333 </v>
   <v>       0.00133333 </v>
   <v>       0.00133333 </v>
   <v>       0.00133333 </v>
   <v>       0.00133333 </v>
   <v>       0.00133333 </v>
   <v>       0.00133333 </v>
   <v>       0.00133333 </v>
   <v>       0.00133333 </v>
   <v>       0.00133333 </v>
   <v>       0.00133333 </v>
   <v>       0.00066667 </v>
   <v>       0.00066667 </v>
   <v>       0.00133333 </v>
   <v>       0.00133333 </v>
   <v>       0.00133333 </v>
   <v>       0.00133333 </v>
   <v>       0.00133333 </v>
   <v>       0.00133333 </v>
   <v>       0.00133333 </v>
   <v>       0.00133333 </v>
   <v>       0.00133333 </v>
   <v>       0.00133333 </v>
   <v>       0.00066667 </v>
   <v>       0.00133333 </v>
   <v>       0.00133333 </v>
   <v>       0.00133333 </v>
   <v>       0.00133333 </v>
   <v>       0.00133333 </v>
   <v>       0.00133333 </v>
   <v>       0.00133333 </v>
   <v>       0.00133333 </v>
   <v>       0.00066667 </v>
   <v>       0.00066667 </v>
   <v>       0.00133333 </v>
   <v>       0.00133333 </v>
   <v>       0.00133333 </v>
   <v>       0.00133333 </v>
   <v>       0.00133333 </v>
   <v>       0.00133333 </v>
   <v>       0.00133333 </v>
   <v>       0.00066667 </v>
   <v>       0.00133333 </v>
   <v>       0.00133333 </v>
   <v>       0.00133333 </v>
   <v>       0.00133333 </v>
   <v>       0.00133333 </v>
   <v>       0.00066667 </v>
   <v>       0.00066667 </v>
   <v>       0.00133333 </v>
   <v>       0.00133333 </v>
   <v>       0.00133333 </v>
   <v>       0.00133333 </v>
   <v>       0.00066667 </v>
   <v>       0.00133333 </v>
   <v>       0.00133333 </v>
   <v>       0.00066667 </v>
   <v>       0.00066667 </v>
   <v>       0.00133333 </v>
   <v>       0.00022222 </v>
   <v>       0.00011111 </v>
   <v>       0.00066667 </v>
   <v>       0.00066667 </v>
   <v>       0.00066667 </v>
   <v>       0.00066667 </v>
   <v>       0.00066667 </v>
   <v>       0.00066667 </v>
   <v>       0.00066667 </v>
   <v>       0.00066667 </v>
   <v>       0.00066667 </v>
   <v>       0.00066667 </v>
   <v>       0.00066667 </v>
   <v>       0.00066667 </v>
   <v>       0.00066667 </v>
   <v>       0.00066667 </v>
   <v>       0.00033333 </v>
   <v>       0.00066667 </v>
   <v>       0.00133333 </v>
   <v>       0.00133333 </v>
   <v>       0.00133333 </v>
   <v>       0.00133333 </v>
   <v>       0.00133333 </v>
   <v>       0.00133333 </v>
   <v>       0.00133333 </v>
   <v>       0.00133333 </v>
   <v>       0.00133333 </v>
   <v>       0.00133333 </v>
   <v>       0.00133333 </v>
   <v>       0.00133333 </v>
   <v>       0.00133333 </v>
   <v>       0.00066667 </v>
   <v>       0.00133333 </v>
   <v>       0.00133333 </v>
   <v>       0.00133333 </v>
   <v>       0.00133333 </v>
   <v>       0.00133333 </v>
   <v>       0.00133333 </v>
   <v>       0.00133333 </v>
   <v>       0.00133333 </v>
   <v>       0.00133333 </v>
   <v>       0.00133333 </v>
   <v>       0.00133333 </v>
   <v>       0.00066667 </v>
   <v>       0.00066667 </v>
   <v>       0.00133333 </v>
   <v>       0.00133333 </v>
   <v>       0.00133333 </v>
   <v>       0.00133333 </v>
   <v>       0.00133333 </v>
   <v>       0.00133333 </v>
   <v>       0.00133333 </v>
   <v>       0.00133333 </v>
   <v>       0.00133333 </v>
   <v>       0.00133333 </v>
   <v>       0.00066667 </v>
   <v>       0.00133333 </v>
   <v>       0.00133333 </v>
   <v>       0.00133333 </v>
   <v>       0.00133333 </v>
   <v>       0.00133333 </v>
   <v>       0.00133333 </v>
   <v>       0.00133333 </v>
   <v>       0.00133333 </v>
   <v>       0.00066667 </v>
   <v>       0.00066667 </v>
   <v>       0.00133333 </v>
   <v>       0.00133333 </v>
   <v>       0.00133333 </v>
   <v>       0.00133333 </v>
   <v>       0.00133333 </v>
   <v>       0.00133333 </v>
   <v>       0.00133333 </v>
   <v>       0.00066667 </v>
   <v>       0.00133333 </v>
   <v>       0.00133333 </v>
   <v>       0.00133333 </v>
   <v>       0.00133333 </v>
   <v>       0.00133333 </v>
   <v>       0.00066667 </v>
   <v>       0.00066667 </v>
   <v>       0.00133333 </v>
   <v>       0.00133333 </v>
   <v>       0.00133333 </v>
   <v>       0.00133333 </v>
   <v>       0.00066667 </v>
   <v>       0.00133333 </v>
   <v>       0.00133333 </v>
   <v>       0.00066667 </v>
   <v>       0.00066667 </v>
   <v>       0.00133333 </v>
   <v>       0.00022222 </v>
   <v>       0.00011111 </v>
   <v>       0.00066667 </v>
   <v>       0.00066667 </v>
   <v>       0.00066667 </v>
   <v>       0.00066667 </v>
   <v>       0.00066667 </v>
   <v>       0.00066667 </v>
   <v>       0.00066667 </v>
   <v>       0.00066667 </v>
   <v>       0.00066667 </v>
   <v>       0.00066667 </v>
   <v>       0.00066667 </v>
   <v>       0.00066667 </v>
   <v>       0.00066667 </v>
   <v>       0.00066667 </v>
   <v>       0.00033333 </v>
   <v>       0.00066667 </v>
   <v>       0.00133333 </v>
   <v>       0.00133333 </v>
   <v>       0.00133333 </v>
   <v>       0.00133333 </v>
   <v>       0.00133333 </v>
   <v>       0.00133333 </v>
   <v>       0.00133333 </v>
   <v>       0.00133333 </v>
   <v>       0.00133333 </v>
   <v>       0.00133333 </v>
   <v>       0.00133333 </v>
   <v>       0.00133333 </v>
   <v>       0.00133333 </v>
   <v>       0.00066667 </v>
   <v>       0.00133333 </v>
   <v>       0.00133333 </v>
   <v>       0.00133333 </v>
   <v>       0.00133333 </v>
   <v>       0.00133333 </v>
   <v>       0.00133333 </v>
   <v>       0.00133333 </v>
   <v>       0.00133333 </v>
   <v>       0.00133333 </v>
   <v>       0.00133333 </v>
   <v>       0.00133333 </v>
   <v>       0.00066667 </v>
   <v>       0.00066667 </v>
   <v>       0.00133333 </v>
   <v>       0.00133333 </v>
   <v>       0.00133333 </v>
   <v>       0.00133333 </v>
   <v>       0.00133333 </v>
   <v>       0.00133333 </v>
   <v>       0.00133333 </v>
   <v>       0.00133333 </v>
   <v>       0.00133333 </v>
   <v>       0.00133333 </v>
   <v>       0.00066667 </v>
   <v>       0.00133333 </v>
   <v>       0.00133333 </v>
   <v>       0.00133333 </v>
   <v>       0.00133333 </v>
   <v>       0.00133333 </v>
   <v>       0.00133333 </v>
   <v>       0.00133333 </v>
   <v>       0.00133333 </v>
   <v>       0.00066667 </v>
   <v>       0.00066667 </v>
   <v>       0.00133333 </v>
   <v>       0.00133333 </v>
   <v>       0.00133333 </v>
   <v>       0.00133333 </v>
   <v>       0.00133333 </v>
   <v>       0.00133333 </v>
   <v>       0.00133333 </v>
   <v>       0.00066667 </v>
   <v>       0.00133333 </v>
   <v>       0.00133333 </v>
   <v>       0.00133333 </v>
   <v>       0.00133333 </v>
   <v>       0.00133333 </v>
   <v>       0.00066667 </v>
   <v>       0.00066667 </v>
   <v>       0.00133333 </v>
   <v>       0.00133333 </v>
   <v>       0.00133333 </v>
   <v>       0.00133333 </v>
   <v>       0.00066667 </v>
   <v>       0.00133333 </v>
   <v>       0.00133333 </v>
   <v>       0.00066667 </v>
   <v>       0.00066667 </v>
   <v>       0.00133333 </v>
   <v>       0.00022222 </v>
   <v>       0.00011111 </v>
   <v>       0.00066667 </v>
   <v>       0.00066667 </v>
   <v>       0.00066667 </v>
   <v>       0.00066667 </v>
   <v>       0.00066667 </v>
   <v>       0.00066667 </v>
   <v>       0.00066667 </v>
   <v>       0.00066667 </v>
   <v>       0.00066667 </v>
   <v>       0.00066667 </v>
   <v>       0.00066667 </v>
   <v>       0.00066667 </v>
   <v>       0.00066667 </v>
   <v>       0.00066667 </v>
   <v>       0.00033333 </v>
   <v>       0.00066667 </v>
   <v>       0.00133333 </v>
   <v>       0.00133333 </v>
   <v>       0.00133333 </v>
   <v>       0.00133333 </v>
   <v>       0.00133333 </v>
   <v>       0.00133333 </v>
   <v>       0.00133333 </v>
   <v>       0.00133333 </v>
   <v>       0.00133333 </v>
   <v>       0.00133333 </v>
   <v>       0.00133333 </v>
   <v>       0.00133333 </v>
   <v>       0.00133333 </v>
   <v>       0.00066667 </v>
   <v>       0.00133333 </v>
   <v>       0.00133333 </v>
   <v>       0.00133333 </v>
   <v>       0.00133333 </v>
   <v>       0.00133333 </v>
   <v>       0.00133333 </v>
   <v>       0.00133333 </v>
   <v>       0.00133333 </v>
   <v>       0.00133333 </v>
   <v>       0.00133333 </v>
   <v>       0.00133333 </v>
   <v>       0.00066667 </v>
   <v>       0.00066667 </v>
   <v>       0.00133333 </v>
   <v>       0.00133333 </v>
   <v>       0.00133333 </v>
   <v>       0.00133333 </v>
   <v>       0.00133333 </v>
   <v>       0.00133333 </v>
   <v>       0.00133333 </v>
   <v>       0.00133333 </v>
   <v>       0.00133333 </v>
   <v>       0.00133333 </v>
   <v>       0.00066667 </v>
   <v>       0.00133333 </v>
   <v>       0.00133333 </v>
   <v>       0.00133333 </v>
   <v>       0.00133333 </v>
   <v>       0.00133333 </v>
   <v>       0.00133333 </v>
   <v>       0.00133333 </v>
   <v>       0.00133333 </v>
   <v>       0.00066667 </v>
   <v>       0.00066667 </v>
   <v>       0.00133333 </v>
   <v>       0.00133333 </v>
   <v>       0.00133333 </v>
   <v>       0.00133333 </v>
   <v>       0.00133333 </v>
   <v>       0.00133333 </v>
   <v>       0.00133333 </v>
   <v>       0.00066667 </v>
   <v>       0.00133333 </v>
   <v>       0.00133333 </v>
   <v>       0.00133333 </v>
   <v>       0.00133333 </v>
   <v>       0.00133333 </v>
   <v>       0.00066667 </v>
   <v>       0.00066667 </v>
   <v>       0.00133333 </v>
   <v>       0.00133333 </v>
[...]
       <r>    0.3634    1.0000 </r>
       <r>    5.4166    0.0000 </r>
       <r>    5.4749    0.0000 </r>
       <r>    6.2962    0.0000 </r>
       <r>    6.3710    0.0000 </r>
       <r>   10.5894    0.0000 </r>
       <r>   11.3082    0.0000 </r>
      </set>
      <set comment="kpoint 900">
       <r>    0.5569    1.0000 </r>
       <r>    0.8181    1.0000 </r>
       <r>    4.8197    0.0000 </r>
       <r>    4.9725    0.0000 </r>
       <r>    5.8992    0.0000 </r>
       <r>    6.0545    0.0000 </r>
       <r>   10.9984    0.0000 </r>
       <r>   11.7212    0.0000 </r>
      </set>
      <set comment="kpoint 901">
       <r>    1.0497    1.0000 </r>
       <r>    1.3058    1.0000 </r>
       <r>    4.1627    0.0000 </r>
       <r>    4.3718    0.0000 </r>
       <r>    5.6688    0.0000 </r>
       <r>    5.8791    0.0000 </r>
       <r>   11.4525    0.0000 </r>
       <r>   12.1722    0.0000 </r>
      </set>
      <set comment="kpoint 902">
       <r>    1.5702    1.0000 </r>
       <r>    1.8133    1.0000 </r>
       <r>    3.5275    0.0000 </r>
       <r>    3.7498    0.0000 </r>
       <r>    5.5443    0.0000 </r>
       <r>    5.7747    0.0000 </r>
       <r>   11.9443    0.0000 </r>
       <r>   12.6466    0.0000 </r>
      </set>
      <set comment="kpoint 903">
       <r>    2.0822    1.0000 </r>
       <r>    2.2493    1.0000 </r>
       <r>    3.0225    0.0000 </r>
       <r>    3.1834    0.0000 </r>
       <r>    5.4876    0.0000 </r>
       <r>    5.7249    0.0000 </r>
       <r>   12.4569    0.0000 </r>
       <r>   12.9421    0.0000 </r>
      </set>
      <set comment="kpoint 904">
       <r>    1.0300    1.0000 </r>
       <r>    1.2868    1.0000 </r>
       <r>    4.5099    0.0000 </r>
       <r>    4.5776    0.0000 </r>
       <r>    5.4258    0.0000 </r>
       <r>    5.4931    0.0000 </r>
       <r>   11.4351    0.0000 </r>
       <r>   12.1567    0.0000 </r>
      </set>
      <set comment="kpoint 905">
       <r>    1.5346    1.0000 </r>
       <r>    1.7827    1.0000 </r>
       <r>    3.9848    0.0000 </r>
       <r>    4.1378    0.0000 </r>
       <r>    5.0789    0.0000 </r>
       <r>    5.2303    0.0000 </r>
       <r>   11.9115    0.0000 </r>
       <r>   12.6218    0.0000 </r>
      </set>
      <set comment="kpoint 906">
       <r>    2.0552    1.0000 </r>
       <r>    2.2747    1.0000 </r>
       <r>    3.4273    0.0000 </r>
       <r>    3.6158    0.0000 </r>
       <r>    4.9133    0.0000 </r>
       <r>    5.1167    0.0000 </r>
       <r>   12.4186    0.0000 </r>
       <r>   13.0710    0.0000 </r>
      </set>
      <set comment="kpoint 907">
       <r>    2.4786    1.0000 </r>
       <r>    2.4810    1.0000 </r>
       <r>    3.1701    0.0000 </r>
       <r>    3.2078    0.0000 </r>
       <r>    4.8672    0.0000 </r>
       <r>    5.0829    0.0000 </r>
       <r>   12.8627    0.0000 </r>
       <r>   13.0212    0.0000 </r>
      </set>
      <set comment="kpoint 908">
       <r>    2.0431    1.0000 </r>
       <r>    2.2730    1.0000 </r>
       <r>    3.7332    0.0000 </r>
       <r>    3.8282    0.0000 </r>
       <r>    4.6717    0.0000 </r>
       <r>    4.7380    0.0000 </r>
       <r>   12.4042    0.0000 </r>
       <r>   13.0814    0.0000 </r>
      </set>
      <set comment="kpoint 909">
       <r>    2.5369    1.0000 </r>
       <r>    2.6883    0.3883 </r>
       <r>    3.3491    0.0000 </r>
       <r>    3.4955    0.0000 </r>
       <r>    4.4272    0.0000 </r>
       <r>    4.5586    0.0000 </r>
       <r>   12.9140    0.0000 </r>
       <r>   13.3621    0.0000 </r>
      </set>
      <set comment="kpoint 910">
       <r>    2.8643    0.0000 </r>
       <r>    2.8643    0.0000 </r>
       <r>    3.2145    0.0000 </r>
       <r>    3.4722    0.0000 </r>
       <r>    4.2621    0.0000 </r>
       <r>    4.2621    0.0000 </r>
       <r>   13.3528    0.0000 </r>
       <r>   13.4370    0.0000 </r>
      </set>
     </set>
    </set>
   </array>
  </eigenvalues>
  <separator name="orbital magnetization" >
   <v name="MAGDIPOLOUT">      0.00000000      0.00000000      0.00000000</v>
  </separator>
  <dos>
   <i name="efermi">      2.67824795 </i>
   <total>
    <array>
     <dimension dim="1">gridpoints</dimension>
     <dimension dim="2">spin</dimension>
     <field>energy</field>
     <field>total</field>
     <field>integrated</field>
     <set>
      <set comment="spin 1">
       <r>    -5.2787     0.0000     0.0000 </r>
       <r>    -5.2062     0.0000     0.0000 </r>
       <r>    -5.1337     0.0000     0.0000 </r>
       <r>    -5.0612     0.0000     0.0000 </r>
       <r>    -4.9887     0.0000     0.0000 </r>
       <r>    -4.9161     0.0000     0.0000 </r>
       <r>    -4.8436     0.0000     0.0000 </r>
       <r>    -4.7711     0.0000     0.0000 </r>
       <r>    -4.6986     0.0000     0.0000 </r>
       <r>    -4.6260     0.0000     0.0000 </r>
       <r>    -4.5535     0.0000     0.0000 </r>
       <r>    -4.4810     0.0000     0.0000 </r>
       <r>    -4.4085     0.0000     0.0000 </r>
       <r>    -4.3359     0.0009     0.0001 </r>
       <r>    -4.2634     0.0218     0.0016 </r>
       <r>    -4.1909     0.0751     0.0071 </r>
       <r>    -4.1184     0.1144     0.0154 </r>
       <r>    -4.0459     0.1392     0.0255 </r>
       <r>    -3.9733     0.1700     0.0378 </r>
       <r>    -3.9008     0.1778     0.0507 </r>
       <r>    -3.8283     0.2132     0.0662 </r>
       <r>    -3.7558     0.2134     0.0816 </r>
       <r>    -3.6832     0.2328     0.0985 </r>
       <r>    -3.6107     0.2620     0.1175 </r>
       <r>    -3.5382     0.2604     0.1364 </r>
       <r>    -3.4657     0.2571     0.1551 </r>
       <r>    -3.3932     0.3315     0.1791 </r>
       <r>    -3.3206     0.2799     0.1994 </r>
       <r>    -3.2481     0.2982     0.2210 </r>
       <r>    -3.1756     0.3549     0.2468 </r>
       <r>    -3.1031     0.3304     0.2707 </r>
       <r>    -3.0305     0.3534     0.2963 </r>
       <r>    -2.9580     0.3231     0.3198 </r>
       <r>    -2.8855     0.4001     0.3488 </r>
       <r>    -2.8130     0.4012     0.3779 </r>
       <r>    -2.7405     0.3547     0.4036 </r>
       <r>    -2.6679     0.3757     0.4309 </r>
       <r>    -2.5954     0.4582     0.4641 </r>
       <r>    -2.5229     0.3926     0.4926 </r>
       <r>    -2.4504     0.4397     0.5245 </r>
       <r>    -2.3778     0.4353     0.5560 </r>
       <r>    -2.3053     0.3979     0.5849 </r>
       <r>    -2.2328     0.4816     0.6198 </r>
       <r>    -2.1603     0.4925     0.6555 </r>
       <r>    -2.0878     0.4583     0.6888 </r>
       <r>    -2.0152     0.4537     0.7217 </r>
       <r>    -1.9427     0.4547     0.7546 </r>
       <r>    -1.8702     0.5452     0.7942 </r>
       <r>    -1.7977     0.5057     0.8308 </r>
       <r>    -1.7251     0.4760     0.8654 </r>
       <r>    -1.6526     0.5687     0.9066 </r>
       <r>    -1.5801     0.4781     0.9413 </r>
       <r>    -1.5076     0.5118     0.9784 </r>
       <r>    -1.4350     0.5502     1.0183 </r>
       <r>    -1.3625     0.5771     1.0602 </r>
       <r>    -1.2900     0.6205     1.1052 </r>
       <r>    -1.2175     0.4876     1.1405 </r>
       <r>    -1.1450     0.4938     1.1763 </r>
       <r>    -1.0724     0.6515     1.2236 </r>
       <r>    -0.9999     0.6007     1.2671 </r>
       <r>    -0.9274     0.5826     1.3094 </r>
       <r>    -0.8549     0.5942     1.3525 </r>
       <r>    -0.7823     0.6332     1.3984 </r>
       <r>    -0.7098     0.5899     1.4412 </r>
       <r>    -0.6373     0.5629     1.4820 </r>
       <r>    -0.5648     0.6134     1.5265 </r>
       <r>    -0.4923     0.7173     1.5785 </r>
       <r>    -0.4197     0.6461     1.6254 </r>
       <r>    -0.3472     0.6818     1.6748 </r>
       <r>    -0.2747     0.6078     1.7189 </r>
       <r>    -0.2022     0.5471     1.7586 </r>
       <r>    -0.1296     0.7118     1.8102 </r>
       <r>    -0.0571     0.7375     1.8637 </r>
       <r>     0.0154     0.6920     1.9139 </r>
       <r>     0.0879     0.7139     1.9656 </r>
       <r>     0.1604     0.6331     2.0116 </r>
       <r>     0.2330     0.7373     2.0650 </r>
       <r>     0.3055     0.6427     2.1116 </r>
       <r>     0.3780     0.7312     2.1647 </r>
       <r>     0.4505     0.7311     2.2177 </r>
       <r>     0.5231     0.6969     2.2682 </r>
       <r>     0.5956     0.8315     2.3285 </r>
       <r>     0.6681     0.8147     2.3876 </r>
       <r>     0.7406     0.6682     2.4361 </r>
       <r>     0.8131     0.6781     2.4853 </r>
       <r>     0.8857     0.7034     2.5363 </r>
       <r>     0.9582     0.8985     2.6014 </r>
       <r>     1.0307     0.8362     2.6621 </r>
       <r>     1.1032     0.7768     2.7184 </r>
       <r>     1.1758     0.8427     2.7795 </r>
       <r>     1.2483     0.7207     2.8318 </r>
       <r>     1.3208     0.8164     2.8910 </r>
       <r>     1.3933     0.8763     2.9545 </r>
       <r>     1.4659     0.7469     3.0087 </r>
       <r>     1.5384     0.8586     3.0710 </r>
       <r>     1.6109     0.9385     3.1390 </r>
       <r>     1.6834     0.9775     3.2099 </r>
       <r>     1.7559     0.9245     3.2770 </r>
       <r>     1.8285     0.8303     3.3372 </r>
       <r>     1.9010     0.8413     3.3982 </r>
       <r>     1.9735     0.7590     3.4532 </r>
       <r>     2.0460     0.6058     3.4972 </r>
       <r>     2.1186     0.8481     3.5587 </r>
       <r>     2.1911     0.8756     3.6222 </r>
       <r>     2.2636     0.7726     3.6782 </r>
       <r>     2.3361     0.7390     3.7318 </r>
       <r>     2.4086     0.6587     3.7796 </r>
       <r>     2.4812     0.8717     3.8428 </r>
       <r>     2.5537     0.8880     3.9072 </r>
       <r>     2.6262     0.8356     3.9678 </r>
       <r>     2.6987     0.6229     4.0130 </r>
       <r>     2.7713     0.8365     4.0736 </r>
       <r>     2.8438     1.0374     4.1489 </r>
       <r>     2.9163     0.8696     4.2119 </r>
       <r>     2.9888     0.8212     4.2715 </r>
       <r>     3.0613     0.8606     4.3339 </r>
       <r>     3.1339     0.7950     4.3916 </r>
       <r>     3.2064     0.8096     4.4503 </r>
       <r>     3.2789     0.8749     4.5137 </r>
       <r>     3.3514     1.0007     4.5863 </r>
       <r>     3.4240     1.1707     4.6712 </r>
       <r>     3.4965     1.1346     4.7535 </r>
       <r>     3.5690     0.9104     4.8195 </r>
       <r>     3.6415     0.9708     4.8899 </r>
       <r>     3.7140     0.9937     4.9620 </r>
       <r>     3.7866     0.8520     5.0238 </r>
       <r>     3.8591     0.9376     5.0918 </r>
       <r>     3.9316     0.8155     5.1509 </r>
       <r>     4.0041     1.1284     5.2328 </r>
       <r>     4.0767     1.0831     5.3113 </r>
       <r>     4.1492     0.9247     5.3784 </r>
       <r>     4.2217     0.8686     5.4414 </r>
       <r>     4.2942     0.6661     5.4897 </r>
       <r>     4.3668     0.9032     5.5552 </r>
       <r>     4.4393     0.9417     5.6235 </r>
       <r>     4.5118     0.9915     5.6954 </r>
       <r>     4.5843     1.0666     5.7727 </r>
       <r>     4.6568     1.0872     5.8516 </r>
       <r>     4.7294     0.9469     5.9202 </r>
       <r>     4.8019     1.0198     5.9942 </r>
       <r>     4.8744     0.9694     6.0645 </r>
       <r>     4.9469     0.9384     6.1326 </r>
       <r>     5.0195     1.0844     6.2112 </r>
       <r>     5.0920     1.0713     6.2889 </r>
       <r>     5.1645     1.0510     6.3651 </r>
       <r>     5.2370     1.0956     6.4446 </r>
       <r>     5.3095     0.8867     6.5089 </r>
       <r>     5.3821     0.9124     6.5750 </r>
       <r>     5.4546     1.0654     6.6523 </r>
       <r>     5.5271     1.1770     6.7377 </r>
       <r>     5.5996     1.1054     6.8178 </r>
       <r>     5.6722     0.9947     6.8900 </r>
       <r>     5.7447     0.8891     6.9545 </r>
       <r>     5.8172     1.1527     7.0381 </r>
       <r>     5.8897     1.0623     7.1151 </r>
       <r>     5.9622     1.0829     7.1936 </r>
       <r>     6.0348     1.1889     7.2799 </r>
       <r>     6.1073     1.1076     7.3602 </r>
       <r>     6.1798     1.2045     7.4475 </r>
       <r>     6.2523     1.1758     7.5328 </r>
       <r>     6.3249     1.1362     7.6152 </r>
       <r>     6.3974     1.1048     7.6953 </r>
       <r>     6.4699     1.2848     7.7885 </r>
       <r>     6.5424     1.0693     7.8661 </r>
       <r>     6.6149     1.1104     7.9466 </r>
       <r>     6.6875     1.2826     8.0396 </r>
       <r>     6.7600     1.0682     8.1171 </r>
       <r>     6.8325     0.9932     8.1891 </r>
       <r>     6.9050     1.0190     8.2630 </r>
       <r>     6.9776     1.0611     8.3399 </r>
       <r>     7.0501     1.1846     8.4259 </r>
       <r>     7.1226     0.9221     8.4927 </r>
       <r>     7.1951     1.0777     8.5709 </r>
       <r>     7.2677     1.1085     8.6513 </r>
       <r>     7.3402     1.2656     8.7431 </r>
       <r>     7.4127     1.0816     8.8215 </r>
       <r>     7.4852     1.0798     8.8998 </r>
       <r>     7.5577     1.0176     8.9736 </r>
       <r>     7.6303     1.0139     9.0471 </r>
       <r>     7.7028     1.0889     9.1261 </r>
       <r>     7.7753     1.1352     9.2084 </r>
       <r>     7.8478     1.1289     9.2903 </r>
       <r>     7.9204     0.9887     9.3620 </r>
       <r>     7.9929     1.0866     9.4408 </r>
       <r>     8.0654     1.1759     9.5261 </r>
       <r>     8.1379     1.1902     9.6124 </r>
       <r>     8.2104     1.2046     9.6998 </r>
       <r>     8.2830     0.9734     9.7704 </r>
       <r>     8.3555     1.0526     9.8467 </r>
       <r>     8.4280     1.3063     9.9414 </r>
       <r>     8.5005     1.4771    10.0486 </r>
       <r>     8.5731     1.2527    10.1394 </r>
       <r>     8.6456     1.0573    10.2161 </r>
       <r>     8.7181     1.0638    10.2932 </r>
       <r>     8.7906     1.0050    10.3661 </r>
       <r>     8.8631     1.1584    10.4501 </r>
       <r>     8.9357     1.4372    10.5544 </r>
       <r>     9.0082     1.4294    10.6580 </r>
       <r>     9.0807     1.3072    10.7528 </r>
       <r>     9.1532     1.0648    10.8301 </r>
       <r>     9.2258     1.0979    10.9097 </r>
       <r>     9.2983     1.1723    10.9947 </r>
       <r>     9.3708     1.2820    11.0877 </r>
       <r>     9.4433     1.3282    11.1840 </r>
       <r>     9.5158     1.2325    11.2734 </r>
       <r>     9.5884     1.2569    11.3645 </r>
       <r>     9.6609     1.3592    11.4631 </r>
       <r>     9.7334     1.2571    11.5543 </r>
       <r>     9.8059     1.3360    11.6512 </r>
       <r>     9.8785     1.4170    11.7539 </r>
       <r>     9.9510     1.4118    11.8563 </r>
       <r>    10.0235     1.0270    11.9308 </r>
       <r>    10.0960     1.1213    12.0121 </r>
       <r>    10.1686     1.4793    12.1194 </r>
       <r>    10.2411     1.2220    12.2080 </r>
       <r>    10.3136     1.1991    12.2950 </r>
       <r>    10.3861     1.2655    12.3868 </r>
       <r>    10.4586     1.3307    12.4833 </r>
       <r>    10.5312     1.2468    12.5737 </r>
       <r>    10.6037     1.2377    12.6634 </r>
       <r>    10.6762     1.0687    12.7410 </r>
       <r>    10.7487     1.2161    12.8291 </r>
       <r>    10.8213     1.2667    12.9210 </r>
       <r>    10.8938     1.3523    13.0191 </r>
       <r>    10.9663     1.1760    13.1044 </r>
       <r>    11.0388     1.2207    13.1929 </r>
       <r>    11.1113     1.3265    13.2891 </r>
       <r>    11.1839     1.2662    13.3809 </r>
       <r>    11.2564     1.2739    13.4733 </r>
       <r>    11.3289     1.1197    13.5545 </r>
       <r>    11.4014     1.1227    13.6359 </r>
       <r>    11.4740     1.4986    13.7446 </r>
       <r>    11.5465     1.3646    13.8436 </r>
       <r>    11.6190     1.1433    13.9265 </r>
       <r>    11.6915     1.3376    14.0235 </r>
       <r>    11.7640     1.3761    14.1233 </r>
       <r>    11.8366     1.2984    14.2175 </r>
       <r>    11.9091     0.9306    14.2850 </r>
       <r>    11.9816     0.9849    14.3564 </r>
       <r>    12.0541     1.1094    14.4369 </r>
       <r>    12.1267     1.3088    14.5318 </r>
       <r>    12.1992     1.0835    14.6104 </r>
       <r>    12.2717     1.0855    14.6891 </r>
       <r>    12.3442     1.0066    14.7621 </r>
       <r>    12.4167     0.9088    14.8280 </r>
       <r>    12.4893     1.0187    14.9019 </r>
       <r>    12.5618     0.8885    14.9663 </r>
       <r>    12.6343     0.9039    15.0319 </r>
       <r>    12.7068     0.7323    15.0850 </r>
       <r>    12.7794     0.7659    15.1405 </r>
       <r>    12.8519     0.8323    15.2009 </r>
       <r>    12.9244     0.7342    15.2541 </r>
       <r>    12.9969     0.7044    15.3052 </r>
       <r>    13.0695     0.7458    15.3593 </r>
       <r>    13.1420     0.6558    15.4069 </r>
       <r>    13.2145     0.4600    15.4402 </r>
       <r>    13.2870     0.5614    15.4809 </r>
       <r>    13.3595     0.6372    15.5271 </r>
       <r>    13.4321     0.5279    15.5654 </r>
       <r>    13.5046     0.3519    15.5909 </r>
       <r>    13.5771     0.3394    15.6156 </r>
       <r>    13.6496     0.3752    15.6428 </r>
       <r>    13.7222     0.4392    15.6746 </r>
       <r>    13.7947     0.4313    15.7059 </r>
       <r>    13.8672     0.3749    15.7331 </r>
       <r>    13.9397     0.2462    15.7509 </r>
       <r>    14.0122     0.2939    15.7723 </r>
       <r>    14.0848     0.3228    15.7957 </r>
       <r>    14.1573     0.3180    15.8187 </r>
       <r>    14.2298     0.2569    15.8374 </r>
       <r>    14.3023     0.2458    15.8552 </r>
       <r>    14.3749     0.3130    15.8779 </r>
       <r>    14.4474     0.2777    15.8980 </r>
       <r>    14.5199     0.1920    15.9120 </r>
       <r>    14.5924     0.1770    15.9248 </r>
       <r>    14.6649     0.1390    15.9349 </r>
       <r>    14.7375     0.1537    15.9460 </r>
       <r>    14.8100     0.1379    15.9560 </r>
       <r>    14.8825     0.0987    15.9632 </r>
       <r>    14.9550     0.1496    15.9740 </r>
       <r>    15.0276     0.0773    15.9796 </r>
       <r>    15.1001     0.0251    15.9815 </r>
       <r>    15.1726     0.0659    15.9862 </r>
       <r>    15.2451     0.0996    15.9935 </r>
       <r>    15.3176     0.0168    15.9947 </r>
       <r>    15.3902     0.0156    15.9958 </r>
       <r>    15.4627     0.0347    15.9983 </r>
       <r>    15.5352     0.0210    15.9999 </r>
       <r>    15.6077     0.0020    16.0000 </r>
       <r>    15.6803     0.0000    16.0000 </r>
       <r>    15.7528     0.0000    16.0000 </r>
       <r>    15.8253     0.0000    16.0000 </r>
       <r>    15.8978     0.0000    16.0000 </r>
       <r>    15.9704     0.0000    16.0000 </r>
       <r>    16.0429     0.0000    16.0000 </r>
       <r>    16.1154     0.0000    16.0000 </r>
       <r>    16.1879     0.0000    16.0000 </r>
       <r>    16.2604     0.0000    16.0000 </r>
       <r>    16.3330     0.0000    16.0000 </r>
       <r>    16.4055     0.0000    16.0000 </r>
       <r>    16.4780     0.0000    16.0000 </r>
      </set>
     </set>
    </array>
   </total>
  </dos>
 </calculation>
 <structure name="finalpos" >
  <crystal>
   <varray name="basis" >
    <v>       3.18461757       0.00000000       0.00000000 </v>
    <v>      -1.59230829       2.75795942       0.00000000 </v>
    <v>       0.00000000       0.00000000       5.19971437 </v>
   </varray>
   <i name="volume">     45.66933067 </i>
   <varray name="rec_basis" >
    <v>       0.31400945       0.18129340       0.00000000 </v>
    <v>      -0.00000000       0.36258692       0.00000000 </v>
    <v>       0.00000000       0.00000000       0.19231826 </v>
   </varray>
  </crystal>
  <varray name="positions" >
   <v>       0.33333300       0.66666700       0.25000000 </v>
   <v>       0.66666700       0.33333300       0.75000000 </v>
  </varray>
 </structure>
</modeling>
