unknown system                          
           1
     3.184618    0.000000    0.000000
    -1.592308    2.757959    0.000000
     0.000000    0.000000    5.199714
   Mg
   2
Direct configuration=     1
   0.33333300  0.66666700  0.25000000
   0.66666700  0.33333300  0.75000000
