   16   16   20    2
  0.9574673E+01  0.6006014E-09  0.6006014E-09  0.6006014E-09  0.5000000E-15
  1.000000000000000E-004
  CAR 
 unknown system                          
     59      8     48
 
  0.0000000E+00  0.0000000E+00  0.0000000E+00  0.1250000E+00
    1      -14.582541    -14.577043   1.000000   1.000000
    2      -13.273499    -13.259182   1.000000   1.000000
    3      -12.609854    -12.598434   1.000000   1.000000
    4      -12.514303    -12.502577   1.000000   1.000000
    5      -12.425992    -12.416005   1.000000   1.000000
    6      -12.273055    -12.262367   1.000000   1.000000
    7      -12.212337    -12.203271   1.000000   1.000000
    8       -1.690440     -1.682064   1.000000   1.000000
    9       -1.625707     -1.611857   1.000000   1.000000
   10       -1.624633     -1.610814   1.000000   1.000000
   11       -0.996936     -0.976836   1.000000   1.000000
   12       -0.419672     -0.344803   1.000000   1.000000
   13       -0.256992     -0.185444   1.000000   1.000000
   14       -0.186900     -0.142213   1.000000   1.000000
   15        1.309335      1.317215   1.000000   1.000000
   16        1.351817      1.365035   1.000000   1.000000
   17        1.406396      1.420073   1.000000   1.000000
   18        1.924151      1.939592   1.000000   1.000000
   19        1.995883      2.007914   1.000000   1.000000
   20        2.023684      2.035454   1.000000   1.000000
   21        2.657338      2.671358   1.000000   1.000000
   22        2.756171      2.785616   1.000000   1.000000
   23        2.777702      2.836224   1.000000   1.000000
   24        2.832471      2.888798   1.000000   1.000000
   25        2.872358      2.902939   1.000000   1.000000
   26        2.893089      2.908217   1.000000   1.000000
   27        3.045945      3.063973   1.000000   1.000000
   28        3.055885      3.068586   1.000000   1.000000
   29        3.163574      3.331077   1.000000   1.000000
   30        8.647384      8.666418   0.000000   0.000000
   31       10.154007     10.451809   0.000000   0.000000
   32       10.189307     10.480808   0.000000   0.000000
   33       10.481114     10.586035   0.000000   0.000000
   34       10.568312     10.693235   0.000000   0.000000
   35       10.732484     10.799123   0.000000   0.000000
   36       10.984535     11.133439   0.000000   0.000000
   37       11.668655     11.884786   0.000000   0.000000
   38       11.774793     11.900517   0.000000   0.000000
   39       11.923377     12.126298   0.000000   0.000000
   40       12.009531     12.133284   0.000000   0.000000
   41       12.142517     12.304628   0.000000   0.000000
   42       12.713031     12.728572   0.000000   0.000000
   43       15.277454     15.301789   0.000000   0.000000
   44       15.379630     15.395510   0.000000   0.000000
   45       15.550192     15.581872   0.000000   0.000000
   46       15.564051     15.619557   0.000000   0.000000
   47       17.965656     18.098264   0.000000   0.000000
   48       18.044912     18.175384   0.000000   0.000000
 
  0.5000000E+00  0.0000000E+00  0.0000000E+00  0.1250000E+00
    1      -14.501985    -14.497494   1.000000   1.000000
    2      -13.090541    -13.076510   1.000000   1.000000
    3      -12.882454    -12.869523   1.000000   1.000000
    4      -12.506469    -12.494850   1.000000   1.000000
    5      -12.363665    -12.352954   1.000000   1.000000
    6      -12.339293    -12.329510   1.000000   1.000000
    7      -12.328549    -12.318923   1.000000   1.000000
    8       -1.236134     -1.229410   1.000000   1.000000
    9       -1.198726     -1.189569   1.000000   1.000000
   10       -0.883495     -0.781712   1.000000   1.000000
   11       -0.498993     -0.489581   1.000000   1.000000
   12       -0.300789     -0.287607   1.000000   1.000000
   13        0.239196      0.292154   1.000000   1.000000
   14        0.344207      0.399135   1.000000   1.000000
   15        0.604450      0.656707   1.000000   1.000000
   16        0.865155      0.884672   1.000000   1.000000
   17        1.246589      1.259277   1.000000   1.000000
   18        1.319738      1.335555   1.000000   1.000000
   19        1.455951      1.489775   1.000000   1.000000
   20        1.624196      1.641221   1.000000   1.000000
   21        1.700956      1.720098   1.000000   1.000000
   22        1.763374      1.776941   1.000000   1.000000
   23        2.209489      2.222284   1.000000   1.000000
   24        2.578142      2.584196   1.000000   1.000000
   25        2.813538      2.831479   1.000000   1.000000
   26        2.835792      2.845810   1.000000   1.000000
   27        2.879007      2.893882   1.000000   1.000000
   28        2.943666      2.952900   1.000000   1.000000
   29        4.913421      5.110060   1.000000   1.000000
   30        7.518734      7.843656   0.999998   0.000002
   31        9.450012      9.688071   0.000000   0.000000
   32        9.644636      9.898184   0.000000   0.000000
   33       10.642006     10.698620   0.000000   0.000000
   34       11.135765     11.161444   0.000000   0.000000
   35       12.186543     12.297312   0.000000   0.000000
   36       12.263676     12.404312   0.000000   0.000000
   37       12.463233     12.595600   0.000000   0.000000
   38       12.580162     12.601474   0.000000   0.000000
   39       13.526948     13.577122   0.000000   0.000000
   40       13.802329     13.977627   0.000000   0.000000
   41       14.043665     14.174715   0.000000   0.000000
   42       14.259339     14.329433   0.000000   0.000000
   43       14.364689     14.471499   0.000000   0.000000
   44       14.547759     14.656863   0.000000   0.000000
   45       14.738434     14.896846   0.000000   0.000000
   46       15.403679     15.518298   0.000000   0.000000
   47       15.907732     15.964088   0.000000   0.000000
   48       16.285899     16.355988   0.000000   0.000000
 
  0.0000000E+00  0.5000000E+00  0.0000000E+00  0.1250000E+00
    1      -14.501905    -14.497417   1.000000   1.000000
    2      -13.090486    -13.076468   1.000000   1.000000
    3      -12.882811    -12.869835   1.000000   1.000000
    4      -12.506336    -12.494775   1.000000   1.000000
    5      -12.365346    -12.354616   1.000000   1.000000
    6      -12.339066    -12.329342   1.000000   1.000000
    7      -12.327034    -12.317340   1.000000   1.000000
    8       -1.236117     -1.229416   1.000000   1.000000
    9       -1.198629     -1.189507   1.000000   1.000000
   10       -0.879237     -0.777109   1.000000   1.000000
   11       -0.498290     -0.488777   1.000000   1.000000
   12       -0.300689     -0.287358   1.000000   1.000000
   13        0.232574      0.285280   1.000000   1.000000
   14        0.342594      0.397324   1.000000   1.000000
   15        0.605785      0.657870   1.000000   1.000000
   16        0.863929      0.883556   1.000000   1.000000
   17        1.245417      1.258087   1.000000   1.000000
   18        1.320147      1.336007   1.000000   1.000000
   19        1.456385      1.490151   1.000000   1.000000
   20        1.624237      1.640965   1.000000   1.000000
   21        1.704862      1.724336   1.000000   1.000000
   22        1.762805      1.776265   1.000000   1.000000
   23        2.210909      2.223673   1.000000   1.000000
   24        2.573692      2.579834   1.000000   1.000000
   25        2.810118      2.828149   1.000000   1.000000
   26        2.836844      2.846773   1.000000   1.000000
   27        2.882659      2.897623   1.000000   1.000000
   28        2.943900      2.953148   1.000000   1.000000
   29        4.916862      5.112500   1.000000   1.000000
   30        7.511746      7.839494   0.999999   0.000004
   31        9.453337      9.687662   0.000000   0.000000
   32        9.651374      9.906554   0.000000   0.000000
   33       10.640053     10.696879   0.000000   0.000000
   34       11.133134     11.159650   0.000000   0.000000
   35       12.180871     12.292114   0.000000   0.000000
   36       12.268424     12.409382   0.000000   0.000000
   37       12.461146     12.590896   0.000000   0.000000
   38       12.579154     12.599535   0.000000   0.000000
   39       13.532134     13.582261   0.000000   0.000000
   40       13.799107     13.974828   0.000000   0.000000
   41       14.037737     14.170109   0.000000   0.000000
   42       14.266279     14.337423   0.000000   0.000000
   43       14.368419     14.474757   0.000000   0.000000
   44       14.550986     14.660487   0.000000   0.000000
   45       14.748151     14.906497   0.000000   0.000000
   46       15.404478     15.518168   0.000000   0.000000
   47       15.902387     15.959232   0.000000   0.000000
   48       16.272226     16.344903   0.000000   0.000000
 
  0.5000000E+00  0.5000000E+00  0.0000000E+00  0.1250000E+00
    1      -14.479342    -14.475175   1.000000   1.000000
    2      -12.974606    -12.961361   1.000000   1.000000
    3      -12.852756    -12.838541   1.000000   1.000000
    4      -12.634516    -12.623875   1.000000   1.000000
    5      -12.520176    -12.509536   1.000000   1.000000
    6      -12.420007    -12.408720   1.000000   1.000000
    7      -12.168744    -12.159518   1.000000   1.000000
    8       -1.037638     -1.010982   1.000000   1.000000
    9       -0.866527     -0.856147   1.000000   1.000000
   10       -0.789532     -0.688515   1.000000   1.000000
   11       -0.371061     -0.366231   1.000000   1.000000
   12        0.126103      0.143538   1.000000   1.000000
   13        0.270296      0.299704   1.000000   1.000000
   14        0.405921      0.435754   1.000000   1.000000
   15        0.570746      0.591824   1.000000   1.000000
   16        0.851022      0.910208   1.000000   1.000000
   17        1.055474      1.089359   1.000000   1.000000
   18        1.077939      1.098558   1.000000   1.000000
   19        1.411029      1.432479   1.000000   1.000000
   20        1.453392      1.468895   1.000000   1.000000
   21        1.546833      1.561607   1.000000   1.000000
   22        1.650114      1.681087   1.000000   1.000000
   23        1.867333      1.876960   1.000000   1.000000
   24        2.043667      2.054727   1.000000   1.000000
   25        2.719557      2.728929   1.000000   1.000000
   26        2.758962      2.769270   1.000000   1.000000
   27        2.788247      2.808536   1.000000   1.000000
   28        2.939845      2.955240   1.000000   1.000000
   29        5.580580      5.745307   1.000000   1.000000
   30        7.358339      7.734958   1.000000   0.066132
   31        8.836692      9.087495   0.000000   0.000000
   32        9.309013      9.549608   0.000000   0.000000
   33       11.211568     11.238526   0.000000   0.000000
   34       11.985323     12.033498   0.000000   0.000000
   35       12.073834     12.124312   0.000000   0.000000
   36       12.823822     12.888045   0.000000   0.000000
   37       12.849294     12.908337   0.000000   0.000000
   38       13.573026     13.614071   0.000000   0.000000
   39       13.815489     13.943660   0.000000   0.000000
   40       14.029333     14.108810   0.000000   0.000000
   41       14.050332     14.179142   0.000000   0.000000
   42       14.211303     14.241875   0.000000   0.000000
   43       14.537795     14.699684   0.000000   0.000000
   44       14.572834     14.753069   0.000000   0.000000
   45       14.583093     14.883465   0.000000   0.000000
   46       14.970110     15.125304   0.000000   0.000000
   47       15.565311     15.597023   0.000000   0.000000
   48       16.191421     16.261598   0.000000   0.000000
 
  0.0000000E+00  0.0000000E+00  0.5000000E+00  0.1250000E+00
    1      -14.501290    -14.496992   1.000000   1.000000
    2      -13.082373    -13.067158   1.000000   1.000000
    3      -12.894016    -12.882761   1.000000   1.000000
    4      -12.503345    -12.491881   1.000000   1.000000
    5      -12.405811    -12.395426   1.000000   1.000000
    6      -12.327636    -12.316580   1.000000   1.000000
    7      -12.298460    -12.288642   1.000000   1.000000
    8       -1.299056     -1.294060   1.000000   1.000000
    9       -1.204660     -1.196887   1.000000   1.000000
   10       -0.745923     -0.665121   1.000000   1.000000
   11       -0.438355     -0.422526   1.000000   1.000000
   12       -0.359137     -0.339829   1.000000   1.000000
   13        0.159822      0.214201   1.000000   1.000000
   14        0.328764      0.399606   1.000000   1.000000
   15        0.637438      0.689150   1.000000   1.000000
   16        0.759813      0.783006   1.000000   1.000000
   17        1.251707      1.266681   1.000000   1.000000
   18        1.369336      1.386958   1.000000   1.000000
   19        1.569359      1.578788   1.000000   1.000000
   20        1.618284      1.634737   1.000000   1.000000
   21        1.709973      1.726125   1.000000   1.000000
   22        1.728584      1.755632   1.000000   1.000000
   23        2.234177      2.247237   1.000000   1.000000
   24        2.416345      2.426354   1.000000   1.000000
   25        2.807100      2.824009   1.000000   1.000000
   26        2.830006      2.848680   1.000000   1.000000
   27        2.951017      2.968517   1.000000   1.000000
   28        2.966919      2.978798   1.000000   1.000000
   29        4.997298      5.202786   1.000000   1.000000
   30        7.362957      7.617466   1.000000   0.965462
   31        9.466315      9.754641   0.000000   0.000000
   32       10.008726     10.255523   0.000000   0.000000
   33       10.459935     10.496422   0.000000   0.000000
   34       11.089352     11.132908   0.000000   0.000000
   35       11.934842     12.108882   0.000000   0.000000
   36       12.173403     12.243834   0.000000   0.000000
   37       12.364930     12.425694   0.000000   0.000000
   38       12.476035     12.604873   0.000000   0.000000
   39       13.607154     13.672066   0.000000   0.000000
   40       13.948938     14.096104   0.000000   0.000000
   41       14.026889     14.193232   0.000000   0.000000
   42       14.173695     14.305854   0.000000   0.000000
   43       14.802115     14.870927   0.000000   0.000000
   44       14.941629     15.043112   0.000000   0.000000
   45       15.048919     15.181847   0.000000   0.000000
   46       15.297240     15.366306   0.000000   0.000000
   47       15.663223     15.726821   0.000000   0.000000
   48       16.032289     16.094104   0.000000   0.000000
 
  0.5000000E+00  0.0000000E+00  0.5000000E+00  0.1250000E+00
    1      -14.476526    -14.472362   1.000000   1.000000
    2      -13.102067    -13.088653   1.000000   1.000000
    3      -12.710906    -12.698748   1.000000   1.000000
    4      -12.580595    -12.568321   1.000000   1.000000
    5      -12.491214    -12.481084   1.000000   1.000000
    6      -12.463707    -12.452665   1.000000   1.000000
    7      -12.223859    -12.213254   1.000000   1.000000
    8       -1.032498     -0.975760   1.000000   1.000000
    9       -0.881901     -0.873869   1.000000   1.000000
   10       -0.864404     -0.828079   1.000000   1.000000
   11       -0.346665     -0.335530   1.000000   1.000000
   12        0.041179      0.062082   1.000000   1.000000
   13        0.159630      0.199790   1.000000   1.000000
   14        0.443323      0.461864   1.000000   1.000000
   15        0.458628      0.476554   1.000000   1.000000
   16        1.058520      1.107024   1.000000   1.000000
   17        1.138175      1.202300   1.000000   1.000000
   18        1.294083      1.327412   1.000000   1.000000
   19        1.386936      1.419710   1.000000   1.000000
   20        1.478693      1.503596   1.000000   1.000000
   21        1.524289      1.547608   1.000000   1.000000
   22        1.624795      1.640890   1.000000   1.000000
   23        1.998672      2.011388   1.000000   1.000000
   24        2.025814      2.038758   1.000000   1.000000
   25        2.635139      2.648036   1.000000   1.000000
   26        2.711464      2.725132   1.000000   1.000000
   27        2.764307      2.773821   1.000000   1.000000
   28        2.891379      2.909229   1.000000   1.000000
   29        5.377986      5.593733   1.000000   1.000000
   30        7.787630      7.939826   0.001372   0.000000
   31        8.808031      9.128587   0.000000   0.000000
   32        9.054686      9.355768   0.000000   0.000000
   33       11.219213     11.230874   0.000000   0.000000
   34       12.056909     12.149589   0.000000   0.000000
   35       12.191499     12.218500   0.000000   0.000000
   36       12.884011     12.963113   0.000000   0.000000
   37       13.026429     13.073164   0.000000   0.000000
   38       13.488661     13.660798   0.000000   0.000000
   39       13.592170     13.668603   0.000000   0.000000
   40       13.837488     13.882148   0.000000   0.000000
   41       13.907199     14.140181   0.000000   0.000000
   42       14.211334     14.289342   0.000000   0.000000
   43       14.542551     14.661572   0.000000   0.000000
   44       14.627045     14.803725   0.000000   0.000000
   45       14.638310     14.817735   0.000000   0.000000
   46       14.993981     15.099778   0.000000   0.000000
   47       15.344906     15.417638   0.000000   0.000000
   48       16.308403     16.348123   0.000000   0.000000
 
  0.0000000E+00  0.5000000E+00  0.5000000E+00  0.1250000E+00
    1      -14.477961    -14.473817   1.000000   1.000000
    2      -13.054033    -13.039602   1.000000   1.000000
    3      -12.779457    -12.767936   1.000000   1.000000
    4      -12.578715    -12.567030   1.000000   1.000000
    5      -12.493135    -12.482375   1.000000   1.000000
    6      -12.475009    -12.463091   1.000000   1.000000
    7      -12.191199    -12.182214   1.000000   1.000000
    8       -1.041309     -0.994470   1.000000   1.000000
    9       -0.886958     -0.879208   1.000000   1.000000
   10       -0.813364     -0.742974   1.000000   1.000000
   11       -0.356997     -0.343128   1.000000   1.000000
   12        0.083339      0.103583   1.000000   1.000000
   13        0.204803      0.234158   1.000000   1.000000
   14        0.452196      0.477009   1.000000   1.000000
   15        0.485664      0.506591   1.000000   1.000000
   16        0.980454      1.017295   1.000000   1.000000
   17        1.067876      1.123955   1.000000   1.000000
   18        1.181263      1.202006   1.000000   1.000000
   19        1.438686      1.467068   1.000000   1.000000
   20        1.495123      1.521691   1.000000   1.000000
   21        1.538132      1.556535   1.000000   1.000000
   22        1.600729      1.623203   1.000000   1.000000
   23        1.924902      1.935712   1.000000   1.000000
   24        2.021611      2.032219   1.000000   1.000000
   25        2.660134      2.672388   1.000000   1.000000
   26        2.763894      2.778442   1.000000   1.000000
   27        2.772180      2.780895   1.000000   1.000000
   28        2.914717      2.929004   1.000000   1.000000
   29        5.490514      5.667748   1.000000   1.000000
   30        7.522342      7.854706   0.999997   0.000000
   31        8.767268      9.120834   0.000000   0.000000
   32        9.305058      9.467992   0.000000   0.000000
   33       11.221440     11.238396   0.000000   0.000000
   34       12.057690     12.118165   0.000000   0.000000
   35       12.091737     12.145978   0.000000   0.000000
   36       12.824466     12.901287   0.000000   0.000000
   37       12.980538     13.015824   0.000000   0.000000
   38       13.542586     13.602022   0.000000   0.000000
   39       13.715340     13.837006   0.000000   0.000000
   40       13.805939     13.948749   0.000000   0.000000
   41       13.900056     13.951927   0.000000   0.000000
   42       14.131779     14.232182   0.000000   0.000000
   43       14.581723     14.769624   0.000000   0.000000
   44       14.642497     14.833239   0.000000   0.000000
   45       14.808243     15.027060   0.000000   0.000000
   46       15.011465     15.127468   0.000000   0.000000
   47       15.397160     15.466796   0.000000   0.000000
   48       16.180217     16.279932   0.000000   0.000000
 
  0.5000000E+00  0.5000000E+00  0.5000000E+00  0.1250000E+00
    1      -14.501356    -14.497056   1.000000   1.000000
    2      -13.081863    -13.066674   1.000000   1.000000
    3      -12.894589    -12.883289   1.000000   1.000000
    4      -12.502320    -12.490896   1.000000   1.000000
    5      -12.408008    -12.397587   1.000000   1.000000
    6      -12.327039    -12.315973   1.000000   1.000000
    7      -12.297668    -12.287878   1.000000   1.000000
    8       -1.299704     -1.294701   1.000000   1.000000
    9       -1.205665     -1.197906   1.000000   1.000000
   10       -0.747874     -0.666801   1.000000   1.000000
   11       -0.438197     -0.422477   1.000000   1.000000
   12       -0.359171     -0.339726   1.000000   1.000000
   13        0.162916      0.217402   1.000000   1.000000
   14        0.330528      0.400712   1.000000   1.000000
   15        0.636092      0.687788   1.000000   1.000000
   16        0.758706      0.782138   1.000000   1.000000
   17        1.251769      1.266648   1.000000   1.000000
   18        1.367458      1.385199   1.000000   1.000000
   19        1.568022      1.577607   1.000000   1.000000
   20        1.619575      1.636045   1.000000   1.000000
   21        1.713531      1.729181   1.000000   1.000000
   22        1.727344      1.754675   1.000000   1.000000
   23        2.232999      2.246072   1.000000   1.000000
   24        2.419770      2.429763   1.000000   1.000000
   25        2.808952      2.825810   1.000000   1.000000
   26        2.830830      2.849365   1.000000   1.000000
   27        2.950455      2.968439   1.000000   1.000000
   28        2.965409      2.976975   1.000000   1.000000
   29        4.996624      5.201788   1.000000   1.000000
   30        7.360876      7.616725   1.000000   0.967033
   31        9.469938      9.755729   0.000000   0.000000
   32       10.008946     10.257220   0.000000   0.000000
   33       10.458932     10.495210   0.000000   0.000000
   34       11.089591     11.133409   0.000000   0.000000
   35       11.930012     12.104412   0.000000   0.000000
   36       12.171324     12.240443   0.000000   0.000000
   37       12.363018     12.423663   0.000000   0.000000
   38       12.474041     12.603873   0.000000   0.000000
   39       13.608916     13.674158   0.000000   0.000000
   40       13.945254     14.093674   0.000000   0.000000
   41       14.025701     14.191605   0.000000   0.000000
   42       14.179358     14.311241   0.000000   0.000000
   43       14.799899     14.868700   0.000000   0.000000
   44       14.934359     15.034555   0.000000   0.000000
   45       15.054494     15.186889   0.000000   0.000000
   46       15.300809     15.369982   0.000000   0.000000
   47       15.666389     15.731203   0.000000   0.000000
   48       16.033635     16.095583   0.000000   0.000000
