   16   16   20    2
  0.9574673E+01  0.6006014E-09  0.6006014E-09  0.6006014E-09  0.5000000E-15
  1.000000000000000E-004
  CAR 
 unknown system                          
     59     16     48
 
  0.2500000E+00  0.2500000E+00  0.2500000E+00  0.6250000E-01
    1      -14.536066    -14.533765   1.000000   1.000000
    2      -13.224811    -13.216365   1.000000   1.000000
    3      -12.704787    -12.697319   1.000000   1.000000
    4      -12.536992    -12.528889   1.000000   1.000000
    5      -12.438832    -12.429987   1.000000   1.000000
    6      -12.311120    -12.303793   1.000000   1.000000
    7      -12.256669    -12.248083   1.000000   1.000000
    8       -1.535393     -1.530822   1.000000   1.000000
    9       -1.433006     -1.428418   1.000000   1.000000
   10       -1.236825     -1.229423   1.000000   1.000000
   11       -0.691672     -0.682339   1.000000   1.000000
   12       -0.429586     -0.391701   1.000000   1.000000
   13       -0.127559     -0.100344   1.000000   1.000000
   14        0.031251      0.060258   1.000000   1.000000
   15        0.876072      0.882987   1.000000   1.000000
   16        1.325931      1.332160   1.000000   1.000000
   17        1.336439      1.342184   1.000000   1.000000
   18        1.722272      1.733497   1.000000   1.000000
   19        1.754569      1.762930   1.000000   1.000000
   20        1.979203      2.002958   1.000000   1.000000
   21        2.036835      2.045713   1.000000   1.000000
   22        2.310891      2.321488   1.000000   1.000000
   23        2.376548      2.386304   1.000000   1.000000
   24        2.593157      2.601433   1.000000   1.000000
   25        2.825315      2.833577   1.000000   1.000000
   26        2.854560      2.863473   1.000000   1.000000
   27        2.952396      2.963980   1.000000   1.000000
   28        2.995676      3.003953   1.000000   1.000000
   29        4.085496      4.186542   1.000000   1.000000
   30        8.586434      8.679670   0.000000   0.000000
   31        9.557090      9.606891   0.000000   0.000000
   32        9.796775      9.917509   0.000000   0.000000
   33       10.316299     10.416709   0.000000   0.000000
   34       11.137258     11.158640   0.000000   0.000000
   35       11.325707     11.360179   0.000000   0.000000
   36       11.469421     11.498674   0.000000   0.000000
   37       11.973278     12.032272   0.000000   0.000000
   38       12.351346     12.412754   0.000000   0.000000
   39       12.801256     12.878909   0.000000   0.000000
   40       13.023792     13.081932   0.000000   0.000000
   41       13.089165     13.149830   0.000000   0.000000
   42       13.239662     13.287347   0.000000   0.000000
   43       15.069382     15.084262   0.000000   0.000000
   44       15.199447     15.215179   0.000000   0.000000
   45       15.344706     15.366877   0.000000   0.000000
   46       15.422920     15.436094   0.000000   0.000000
   47       16.853633     16.899392   0.000000   0.000000
   48       17.068038     17.105362   0.000000   0.000000
 
  0.2500000E+00  0.0000000E+00  0.0000000E+00  0.6250000E-01
    1      -14.536458    -14.534146   1.000000   1.000000
    2      -13.225780    -13.217318   1.000000   1.000000
    3      -12.700773    -12.693261   1.000000   1.000000
    4      -12.542237    -12.534218   1.000000   1.000000
    5      -12.427392    -12.418536   1.000000   1.000000
    6      -12.312531    -12.305244   1.000000   1.000000
    7      -12.264154    -12.255544   1.000000   1.000000
    8       -1.476613     -1.472495   1.000000   1.000000
    9       -1.432303     -1.426328   1.000000   1.000000
   10       -1.292490     -1.285602   1.000000   1.000000
   11       -0.742469     -0.728357   1.000000   1.000000
   12       -0.476375     -0.445957   1.000000   1.000000
   13       -0.024694      0.002149   1.000000   1.000000
   14        0.050608      0.082492   1.000000   1.000000
   15        0.874539      0.880683   1.000000   1.000000
   16        1.298136      1.304835   1.000000   1.000000
   17        1.336965      1.342596   1.000000   1.000000
   18        1.698016      1.707481   1.000000   1.000000
   19        1.761463      1.770375   1.000000   1.000000
   20        1.968635      1.994896   1.000000   1.000000
   21        2.073195      2.081447   1.000000   1.000000
   22        2.270636      2.280808   1.000000   1.000000
   23        2.369492      2.380653   1.000000   1.000000
   24        2.706371      2.715036   1.000000   1.000000
   25        2.804170      2.811689   1.000000   1.000000
   26        2.837378      2.845181   1.000000   1.000000
   27        2.945401      2.954580   1.000000   1.000000
   28        2.981104      2.989693   1.000000   1.000000
   29        4.049899      4.153102   1.000000   1.000000
   30        8.640436      8.720200   0.000000   0.000000
   31        9.663158      9.723090   0.000000   0.000000
   32        9.753274      9.895991   0.000000   0.000000
   33       10.080699     10.159495   0.000000   0.000000
   34       11.181872     11.201241   0.000000   0.000000
   35       11.462129     11.495046   0.000000   0.000000
   36       11.515072     11.548638   0.000000   0.000000
   37       12.126273     12.188454   0.000000   0.000000
   38       12.237533     12.302767   0.000000   0.000000
   39       12.738289     12.814476   0.000000   0.000000
   40       13.015655     13.069525   0.000000   0.000000
   41       13.106399     13.152188   0.000000   0.000000
   42       13.296445     13.357191   0.000000   0.000000
   43       14.941630     14.960880   0.000000   0.000000
   44       15.086335     15.103969   0.000000   0.000000
   45       15.233192     15.257982   0.000000   0.000000
   46       15.444006     15.457596   0.000000   0.000000
   47       17.036139     17.072761   0.000000   0.000000
   48       17.139749     17.176020   0.000000   0.000000
 
  0.0000000E+00  0.0000000E+00 -0.2500000E+00  0.6250000E-01
    1      -14.536006    -14.533711   1.000000   1.000000
    2      -13.225001    -13.216532   1.000000   1.000000
    3      -12.704182    -12.696790   1.000000   1.000000
    4      -12.537846    -12.529737   1.000000   1.000000
    5      -12.438752    -12.429808   1.000000   1.000000
    6      -12.310889    -12.303588   1.000000   1.000000
    7      -12.256620    -12.248051   1.000000   1.000000
    8       -1.536040     -1.531515   1.000000   1.000000
    9       -1.431601     -1.426972   1.000000   1.000000
   10       -1.237347     -1.230051   1.000000   1.000000
   11       -0.690214     -0.681199   1.000000   1.000000
   12       -0.426507     -0.389540   1.000000   1.000000
   13       -0.129656     -0.102702   1.000000   1.000000
   14        0.027619      0.058367   1.000000   1.000000
   15        0.876089      0.883069   1.000000   1.000000
   16        1.325816      1.331830   1.000000   1.000000
   17        1.337136      1.343107   1.000000   1.000000
   18        1.724268      1.735318   1.000000   1.000000
   19        1.754186      1.762453   1.000000   1.000000
   20        1.978162      2.001894   1.000000   1.000000
   21        2.037337      2.046415   1.000000   1.000000
   22        2.312351      2.322957   1.000000   1.000000
   23        2.376662      2.386473   1.000000   1.000000
   24        2.590508      2.598962   1.000000   1.000000
   25        2.823985      2.832118   1.000000   1.000000
   26        2.852768      2.861995   1.000000   1.000000
   27        2.952383      2.963852   1.000000   1.000000
   28        2.997589      3.005864   1.000000   1.000000
   29        4.086621      4.187708   1.000000   1.000000
   30        8.588577      8.678313   0.000000   0.000000
   31        9.558543      9.606433   0.000000   0.000000
   32        9.791278      9.916541   0.000000   0.000000
   33       10.319714     10.420211   0.000000   0.000000
   34       11.137723     11.158354   0.000000   0.000000
   35       11.325249     11.360267   0.000000   0.000000
   36       11.468060     11.497906   0.000000   0.000000
   37       11.973800     12.033639   0.000000   0.000000
   38       12.350151     12.413057   0.000000   0.000000
   39       12.802006     12.880108   0.000000   0.000000
   40       13.028358     13.084653   0.000000   0.000000
   41       13.083446     13.145635   0.000000   0.000000
   42       13.239724     13.285065   0.000000   0.000000
   43       15.068934     15.083728   0.000000   0.000000
   44       15.203794     15.219781   0.000000   0.000000
   45       15.348615     15.370755   0.000000   0.000000
   46       15.421239     15.434311   0.000000   0.000000
   47       16.846805     16.892076   0.000000   0.000000
   48       17.068944     17.105815   0.000000   0.000000
 
  0.0000000E+00  0.2500000E+00  0.0000000E+00  0.6250000E-01
    1      -14.536442    -14.534128   1.000000   1.000000
    2      -13.225562    -13.217113   1.000000   1.000000
    3      -12.700664    -12.693191   1.000000   1.000000
    4      -12.542798    -12.534739   1.000000   1.000000
    5      -12.428021    -12.419135   1.000000   1.000000
    6      -12.312162    -12.304873   1.000000   1.000000
    7      -12.263722    -12.255127   1.000000   1.000000
    8       -1.480330     -1.476290   1.000000   1.000000
    9       -1.433218     -1.427263   1.000000   1.000000
   10       -1.287364     -1.280493   1.000000   1.000000
   11       -0.736986     -0.723759   1.000000   1.000000
   12       -0.475164     -0.444508   1.000000   1.000000
   13       -0.033707     -0.005660   1.000000   1.000000
   14        0.051215      0.082654   1.000000   1.000000
   15        0.876364      0.882663   1.000000   1.000000
   16        1.298240      1.304966   1.000000   1.000000
   17        1.336585      1.342096   1.000000   1.000000
   18        1.696039      1.705533   1.000000   1.000000
   19        1.764235      1.773274   1.000000   1.000000
   20        1.970266      1.996515   1.000000   1.000000
   21        2.069680      2.077799   1.000000   1.000000
   22        2.268746      2.279280   1.000000   1.000000
   23        2.373389      2.384830   1.000000   1.000000
   24        2.699531      2.707731   1.000000   1.000000
   25        2.805252      2.812619   1.000000   1.000000
   26        2.840279      2.848117   1.000000   1.000000
   27        2.943710      2.952871   1.000000   1.000000
   28        2.981989      2.990643   1.000000   1.000000
   29        4.052277      4.155787   1.000000   1.000000
   30        8.636587      8.715202   0.000000   0.000000
   31        9.654234      9.712045   0.000000   0.000000
   32        9.758654      9.897551   0.000000   0.000000
   33       10.096845     10.180752   0.000000   0.000000
   34       11.175552     11.195006   0.000000   0.000000
   35       11.462012     11.495233   0.000000   0.000000
   36       11.512902     11.547341   0.000000   0.000000
   37       12.123337     12.187508   0.000000   0.000000
   38       12.241457     12.307785   0.000000   0.000000
   39       12.732801     12.807564   0.000000   0.000000
   40       13.009032     13.066948   0.000000   0.000000
   41       13.106679     13.147447   0.000000   0.000000
   42       13.302748     13.363655   0.000000   0.000000
   43       14.947920     14.967252   0.000000   0.000000
   44       15.094034     15.111505   0.000000   0.000000
   45       15.240662     15.265497   0.000000   0.000000
   46       15.440793     15.453986   0.000000   0.000000
   47       17.028321     17.064659   0.000000   0.000000
   48       17.133345     17.170497   0.000000   0.000000
 
 -0.2500000E+00  0.2500000E+00  0.2500000E+00  0.6250000E-01
    1      -14.482773    -14.480887   1.000000   1.000000
    2      -13.081715    -13.073256   1.000000   1.000000
    3      -12.835214    -12.827226   1.000000   1.000000
    4      -12.609771    -12.601434   1.000000   1.000000
    5      -12.442152    -12.433973   1.000000   1.000000
    6      -12.381926    -12.373316   1.000000   1.000000
    7      -12.251927    -12.244274   1.000000   1.000000
    8       -1.119233     -1.111886   1.000000   1.000000
    9       -1.007192     -1.000640   1.000000   1.000000
   10       -0.793161     -0.761290   1.000000   1.000000
   11       -0.551950     -0.534678   1.000000   1.000000
   12       -0.110781     -0.101790   1.000000   1.000000
   13        0.078260      0.093415   1.000000   1.000000
   14        0.460615      0.483156   1.000000   1.000000
   15        0.638488      0.651929   1.000000   1.000000
   16        0.866857      0.879213   1.000000   1.000000
   17        0.968093      0.983030   1.000000   1.000000
   18        1.290001      1.302993   1.000000   1.000000
   19        1.523475      1.533223   1.000000   1.000000
   20        1.611135      1.623891   1.000000   1.000000
   21        1.743640      1.752970   1.000000   1.000000
   22        1.841834      1.851453   1.000000   1.000000
   23        2.149188      2.156641   1.000000   1.000000
   24        2.315610      2.325046   1.000000   1.000000
   25        2.579619      2.589131   1.000000   1.000000
   26        2.694795      2.703785   1.000000   1.000000
   27        2.776078      2.785014   1.000000   1.000000
   28        2.880107      2.887315   1.000000   1.000000
   29        5.189052      5.282922   1.000000   1.000000
   30        8.029210      8.170810   0.876627   0.002208
   31        8.791376      8.917070   0.000000   0.000000
   32        9.445099      9.538919   0.000000   0.000000
   33       10.894216     10.914875   0.000000   0.000000
   34       11.722813     11.738030   0.000000   0.000000
   35       12.321363     12.344633   0.000000   0.000000
   36       12.598844     12.629196   0.000000   0.000000
   37       12.843005     12.866940   0.000000   0.000000
   38       13.070677     13.128410   0.000000   0.000000
   39       13.392105     13.441240   0.000000   0.000000
   40       13.840136     13.884781   0.000000   0.000000
   41       13.978571     14.044817   0.000000   0.000000
   42       14.172700     14.226682   0.000000   0.000000
   43       14.424690     14.453974   0.000000   0.000000
   44       14.591030     14.640475   0.000000   0.000000
   45       14.803436     14.883751   0.000000   0.000000
   46       15.353361     15.393600   0.000000   0.000000
   47       15.600776     15.632471   0.000000   0.000000
   48       16.237263     16.268297   0.000000   0.000000
 
  0.2500000E+00 -0.2500000E+00  0.2500000E+00  0.6250000E-01
    1      -14.481996    -14.480100   1.000000   1.000000
    2      -13.107630    -13.099465   1.000000   1.000000
    3      -12.808920    -12.800806   1.000000   1.000000
    4      -12.599174    -12.591033   1.000000   1.000000
    5      -12.437700    -12.428728   1.000000   1.000000
    6      -12.370544    -12.362107   1.000000   1.000000
    7      -12.279057    -12.271602   1.000000   1.000000
    8       -1.096095     -1.088141   1.000000   1.000000
    9       -1.039915     -1.033431   1.000000   1.000000
   10       -0.816741     -0.790756   1.000000   1.000000
   11       -0.538814     -0.521244   1.000000   1.000000
   12       -0.133109     -0.123334   1.000000   1.000000
   13        0.051619      0.062574   1.000000   1.000000
   14        0.500332      0.526822   1.000000   1.000000
   15        0.624455      0.638925   1.000000   1.000000
   16        0.861123      0.874381   1.000000   1.000000
   17        0.981260      0.998459   1.000000   1.000000
   18        1.360970      1.375550   1.000000   1.000000
   19        1.495775      1.506604   1.000000   1.000000
   20        1.597835      1.611552   1.000000   1.000000
   21        1.800088      1.810211   1.000000   1.000000
   22        1.863868      1.874136   1.000000   1.000000
   23        2.130307      2.139112   1.000000   1.000000
   24        2.320438      2.329377   1.000000   1.000000
   25        2.574161      2.582740   1.000000   1.000000
   26        2.696241      2.704514   1.000000   1.000000
   27        2.749432      2.756877   1.000000   1.000000
   28        2.872221      2.879909   1.000000   1.000000
   29        5.139656      5.239241   1.000000   1.000000
   30        8.164612      8.266958   0.003776   0.000000
   31        8.820326      8.940015   0.000000   0.000000
   32        9.281412      9.406903   0.000000   0.000000
   33       10.888103     10.906041   0.000000   0.000000
   34       11.731663     11.750559   0.000000   0.000000
   35       12.402343     12.436377   0.000000   0.000000
   36       12.627361     12.650672   0.000000   0.000000
   37       12.800390     12.816890   0.000000   0.000000
   38       13.168065     13.237877   0.000000   0.000000
   39       13.339439     13.407031   0.000000   0.000000
   40       13.786039     13.828152   0.000000   0.000000
   41       14.045042     14.095988   0.000000   0.000000
   42       14.222178     14.290276   0.000000   0.000000
   43       14.338158     14.377773   0.000000   0.000000
   44       14.514009     14.552422   0.000000   0.000000
   45       14.808826     14.875868   0.000000   0.000000
   46       15.249725     15.281520   0.000000   0.000000
   47       15.589786     15.626315   0.000000   0.000000
   48       16.231741     16.255906   0.000000   0.000000
 
  0.2500000E+00  0.2500000E+00 -0.2500000E+00  0.6250000E-01
    1      -14.483123    -14.481253   1.000000   1.000000
    2      -13.051356    -13.042724   1.000000   1.000000
    3      -12.850913    -12.842963   1.000000   1.000000
    4      -12.659095    -12.651008   1.000000   1.000000
    5      -12.417668    -12.409707   1.000000   1.000000
    6      -12.391226    -12.383199   1.000000   1.000000
    7      -12.232374    -12.223707   1.000000   1.000000
    8       -1.175876     -1.171526   1.000000   1.000000
    9       -0.991152     -0.986652   1.000000   1.000000
   10       -0.727524     -0.695279   1.000000   1.000000
   11       -0.505212     -0.483900   1.000000   1.000000
   12       -0.092139     -0.082178   1.000000   1.000000
   13        0.115916      0.127257   1.000000   1.000000
   14        0.357565      0.381768   1.000000   1.000000
   15        0.634626      0.648810   1.000000   1.000000
   16        0.837637      0.849431   1.000000   1.000000
   17        0.953913      0.971749   1.000000   1.000000
   18        1.296901      1.307507   1.000000   1.000000
   19        1.441576      1.452862   1.000000   1.000000
   20        1.700380      1.707579   1.000000   1.000000
   21        1.745213      1.758766   1.000000   1.000000
   22        1.828424      1.839853   1.000000   1.000000
   23        2.097234      2.104984   1.000000   1.000000
   24        2.331323      2.341208   1.000000   1.000000
   25        2.542988      2.552605   1.000000   1.000000
   26        2.677568      2.685937   1.000000   1.000000
   27        2.830589      2.840615   1.000000   1.000000
   28        2.922013      2.931138   1.000000   1.000000
   29        5.260856      5.354743   1.000000   1.000000
   30        7.863898      7.982270   1.000000   0.993540
   31        8.779102      8.911455   0.000000   0.000000
   32        9.694896      9.803020   0.000000   0.000000
   33       10.764824     10.780352   0.000000   0.000000
   34       11.679852     11.701936   0.000000   0.000000
   35       12.284959     12.305742   0.000000   0.000000
   36       12.368403     12.393711   0.000000   0.000000
   37       12.804292     12.840250   0.000000   0.000000
   38       13.023715     13.073914   0.000000   0.000000
   39       13.513407     13.575803   0.000000   0.000000
   40       13.820599     13.865147   0.000000   0.000000
   41       14.060992     14.128313   0.000000   0.000000
   42       14.361695     14.430945   0.000000   0.000000
   43       14.624277     14.660912   0.000000   0.000000
   44       14.801073     14.849633   0.000000   0.000000
   45       14.877278     14.914604   0.000000   0.000000
   46       15.270855     15.322190   0.000000   0.000000
   47       15.453098     15.478224   0.000000   0.000000
   48       16.003094     16.033762   0.000000   0.000000
 
  0.2500000E+00  0.0000000E+00  0.5000000E+00  0.6250000E-01
    1      -14.481628    -14.479752   1.000000   1.000000
    2      -13.105086    -13.096924   1.000000   1.000000
    3      -12.816409    -12.808268   1.000000   1.000000
    4      -12.594151    -12.585996   1.000000   1.000000
    5      -12.450812    -12.441924   1.000000   1.000000
    6      -12.360587    -12.352114   1.000000   1.000000
    7      -12.276204    -12.268704   1.000000   1.000000
    8       -1.118997     -1.113327   1.000000   1.000000
    9       -1.047737     -1.042775   1.000000   1.000000
   10       -0.822034     -0.793999   1.000000   1.000000
   11       -0.479485     -0.458505   1.000000   1.000000
   12       -0.107926     -0.097857   1.000000   1.000000
   13        0.064359      0.074939   1.000000   1.000000
   14        0.487131      0.514142   1.000000   1.000000
   15        0.551247      0.564896   1.000000   1.000000
   16        0.879862      0.891602   1.000000   1.000000
   17        0.951694      0.968468   1.000000   1.000000
   18        1.363542      1.376703   1.000000   1.000000
   19        1.490222      1.502355   1.000000   1.000000
   20        1.621517      1.632865   1.000000   1.000000
   21        1.828076      1.839274   1.000000   1.000000
   22        1.877385      1.889584   1.000000   1.000000
   23        2.097622      2.106199   1.000000   1.000000
   24        2.335312      2.345300   1.000000   1.000000
   25        2.526128      2.534658   1.000000   1.000000
   26        2.693506      2.701970   1.000000   1.000000
   27        2.757012      2.765112   1.000000   1.000000
   28        2.903993      2.911375   1.000000   1.000000
   29        5.185804      5.282383   1.000000   1.000000
   30        7.956449      8.072671   0.999351   0.471716
   31        9.017530      9.122154   0.000000   0.000000
   32        9.333169      9.463556   0.000000   0.000000
   33       10.779425     10.793280   0.000000   0.000000
   34       11.794049     11.817680   0.000000   0.000000
   35       12.321215     12.356334   0.000000   0.000000
   36       12.485948     12.507102   0.000000   0.000000
   37       12.688869     12.711144   0.000000   0.000000
   38       13.139735     13.210164   0.000000   0.000000
   39       13.369774     13.421392   0.000000   0.000000
   40       13.766736     13.819531   0.000000   0.000000
   41       14.197299     14.283330   0.000000   0.000000
   42       14.328537     14.380058   0.000000   0.000000
   43       14.600689     14.631299   0.000000   0.000000
   44       14.686703     14.722400   0.000000   0.000000
   45       14.761951     14.810110   0.000000   0.000000
   46       15.277496     15.312771   0.000000   0.000000
   47       15.428452     15.467074   0.000000   0.000000
   48       16.085153     16.112324   0.000000   0.000000
 
 -0.2500000E+00  0.5000000E+00  0.5000000E+00  0.6250000E-01
    1      -14.482446    -14.480572   1.000000   1.000000
    2      -13.076794    -13.068390   1.000000   1.000000
    3      -12.845357    -12.837319   1.000000   1.000000
    4      -12.606302    -12.597916   1.000000   1.000000
    5      -12.450911    -12.442659   1.000000   1.000000
    6      -12.374945    -12.366469   1.000000   1.000000
    7      -12.248614    -12.240916   1.000000   1.000000
    8       -1.141355     -1.135656   1.000000   1.000000
    9       -1.025833     -1.021404   1.000000   1.000000
   10       -0.787949     -0.754396   1.000000   1.000000
   11       -0.486556     -0.464489   1.000000   1.000000
   12       -0.084836     -0.075512   1.000000   1.000000
   13        0.086570      0.100694   1.000000   1.000000
   14        0.449397      0.470608   1.000000   1.000000
   15        0.564838      0.578605   1.000000   1.000000
   16        0.875020      0.886013   1.000000   1.000000
   17        0.928708      0.943668   1.000000   1.000000
   18        1.339296      1.350591   1.000000   1.000000
   19        1.465710      1.477125   1.000000   1.000000
   20        1.667073      1.677136   1.000000   1.000000
   21        1.765766      1.776546   1.000000   1.000000
   22        1.843561      1.854824   1.000000   1.000000
   23        2.117654      2.124913   1.000000   1.000000
   24        2.333070      2.342877   1.000000   1.000000
   25        2.536383      2.545726   1.000000   1.000000
   26        2.692508      2.702073   1.000000   1.000000
   27        2.782884      2.791106   1.000000   1.000000
   28        2.910146      2.918486   1.000000   1.000000
   29        5.238483      5.329250   1.000000   1.000000
   30        7.848887      7.994942   1.000000   0.983313
   31        8.920101      9.044421   0.000000   0.000000
   32        9.549140      9.643640   0.000000   0.000000
   33       10.765350     10.783259   0.000000   0.000000
   34       11.789583     11.808760   0.000000   0.000000
   35       12.257076     12.285871   0.000000   0.000000
   36       12.401149     12.426615   0.000000   0.000000
   37       12.768755     12.791066   0.000000   0.000000
   38       13.083784     13.136718   0.000000   0.000000
   39       13.411240     13.457588   0.000000   0.000000
   40       13.779791     13.837364   0.000000   0.000000
   41       14.117217     14.189813   0.000000   0.000000
   42       14.329944     14.395370   0.000000   0.000000
   43       14.583891     14.617742   0.000000   0.000000
   44       14.844005     14.889476   0.000000   0.000000
   45       14.898161     14.938888   0.000000   0.000000
   46       15.201008     15.254366   0.000000   0.000000
   47       15.493049     15.520341   0.000000   0.000000
   48       16.004429     16.039515   0.000000   0.000000
 
  0.2500000E+00  0.5000000E+00  0.0000000E+00  0.6250000E-01
    1      -14.483465    -14.481577   1.000000   1.000000
    2      -13.055413    -13.046832   1.000000   1.000000
    3      -12.855532    -12.847335   1.000000   1.000000
    4      -12.619116    -12.611770   1.000000   1.000000
    5      -12.477213    -12.468402   1.000000   1.000000
    6      -12.363139    -12.355439   1.000000   1.000000
    7      -12.231943    -12.223290   1.000000   1.000000
    8       -1.081874     -1.077130   1.000000   1.000000
    9       -1.030867     -1.026780   1.000000   1.000000
   10       -0.813569     -0.780487   1.000000   1.000000
   11       -0.528223     -0.510821   1.000000   1.000000
   12       -0.094219     -0.084763   1.000000   1.000000
   13        0.099522      0.114769   1.000000   1.000000
   14        0.518694      0.544252   1.000000   1.000000
   15        0.604820      0.619687   1.000000   1.000000
   16        0.854080      0.869494   1.000000   1.000000
   17        0.944698      0.955587   1.000000   1.000000
   18        1.241157      1.253152   1.000000   1.000000
   19        1.522329      1.532778   1.000000   1.000000
   20        1.571598      1.582291   1.000000   1.000000
   21        1.730927      1.742987   1.000000   1.000000
   22        1.785930      1.796418   1.000000   1.000000
   23        2.191708      2.199890   1.000000   1.000000
   24        2.326562      2.335614   1.000000   1.000000
   25        2.600926      2.611213   1.000000   1.000000
   26        2.705031      2.714171   1.000000   1.000000
   27        2.771653      2.779901   1.000000   1.000000
   28        2.903337      2.911356   1.000000   1.000000
   29        5.220623      5.317033   1.000000   1.000000
   30        7.930341      8.045451   0.999962   0.757705
   31        8.986660      9.129546   0.000000   0.000000
   32        9.312431      9.408620   0.000000   0.000000
   33       10.867576     10.885250   0.000000   0.000000
   34       11.794653     11.809385   0.000000   0.000000
   35       12.237286     12.262054   0.000000   0.000000
   36       12.592187     12.631648   0.000000   0.000000
   37       12.740602     12.764732   0.000000   0.000000
   38       13.136741     13.195433   0.000000   0.000000
   39       13.477987     13.522258   0.000000   0.000000
   40       13.837815     13.893856   0.000000   0.000000
   41       14.072204     14.128264   0.000000   0.000000
   42       14.183027     14.247623   0.000000   0.000000
   43       14.374821     14.409866   0.000000   0.000000
   44       14.575848     14.625057   0.000000   0.000000
   45       14.806390     14.873329   0.000000   0.000000
   46       15.375382     15.412213   0.000000   0.000000
   47       15.669334     15.694046   0.000000   0.000000
   48       16.194411     16.230074   0.000000   0.000000
 
  0.0000000E+00  0.5000000E+00 -0.2500000E+00  0.6250000E-01
    1      -14.482759    -14.480871   1.000000   1.000000
    2      -13.081151    -13.072716   1.000000   1.000000
    3      -12.834928    -12.826984   1.000000   1.000000
    4      -12.612981    -12.604565   1.000000   1.000000
    5      -12.437904    -12.429614   1.000000   1.000000
    6      -12.383892    -12.375421   1.000000   1.000000
    7      -12.251889    -12.244217   1.000000   1.000000
    8       -1.123273     -1.116208   1.000000   1.000000
    9       -1.006525     -0.999929   1.000000   1.000000
   10       -0.788136     -0.756632   1.000000   1.000000
   11       -0.548435     -0.530999   1.000000   1.000000
   12       -0.108486     -0.099194   1.000000   1.000000
   13        0.078319      0.092962   1.000000   1.000000
   14        0.450990      0.474992   1.000000   1.000000
   15        0.639730      0.652485   1.000000   1.000000
   16        0.863783      0.876311   1.000000   1.000000
   17        0.969496      0.984433   1.000000   1.000000
   18        1.290653      1.303251   1.000000   1.000000
   19        1.519981      1.529839   1.000000   1.000000
   20        1.615773      1.628455   1.000000   1.000000
   21        1.743230      1.752849   1.000000   1.000000