 vasp.5.4.1 05Feb16 (build Mar 31 2016 13:39:20) complex                        
  
 executed on           IFC91_ompi date 2018.04.28  12:55:17
 running on   16 total cores
 distrk:  each k-point on   16 cores,    1 groups
 distr:  one band on NCORES_PER_BAND=   4 cores,    4 groups


--------------------------------------------------------------------------------------------------------


 INCAR:
 POTCAR:    PAW_PBE Mg 13Apr2007                  
 POTCAR:    PAW_PBE O 08Apr2002                   
 POTCAR:    PAW_PBE Mg 13Apr2007                  
   VRHFIN =Mg: s2p0                                                             
   LEXCH  = PE                                                                  
   EATOM  =    23.0369 eV,    1.6932 Ry                                         
                                                                                
   TITEL  = PAW_PBE Mg 13Apr2007                                                
   LULTRA =        F    use ultrasoft PP ?                                      
   IUNSCR =        1    unscreen: 0-lin 1-nonlin 2-no                           
   RPACOR =    1.500    partial core radius                                     
   POMASS =   24.305; ZVAL   =    2.000    mass and valenz                      
   RCORE  =    2.000    outmost cutoff radius                                   
   RWIGS  =    2.880; RWIGS  =    1.524    wigner-seitz radius (au A)           
   ENMAX  =  126.143; ENMIN  =   94.607 eV                                      
   RCLOC  =    1.506    cutoff for local pot                                    
   LCOR   =        T    correct aug charges                                     
   LPAW   =        T    paw PP                                                  
   EAUG   =  454.734                                                            
   DEXC   =    0.000                                                            
   RMAX   =    2.045    core radius for proj-oper                               
   RAUG   =    1.300    factor for augmentation sphere                          
   RDEP   =    2.025    radius for radial grids                                 
   RDEPT  =    1.942    core radius for aug-charge                              
                                                                                
   Atomic configuration                                                         
    6 entries                                                                   
     n  l   j            E        occ.                                          
     1  0  0.50     -1259.6230   2.0000                                         
     2  0  0.50       -79.8442   2.0000                                         
     2  1  1.50       -46.6121   6.0000                                         
     3  0  0.50        -4.7055   2.0000                                         
     3  1  0.50        -1.3660   0.0000                                         
     3  2  1.50        -1.3606   0.0000                                         
   Description                                                                  
     l       E           TYP  RCUT    TYP  RCUT                                 
     0     -4.7054661     23  2.000                                             
     0     27.2116520     23  2.000                                             
     1      1.3605826     23  2.000                                             
     1     27.2116520     23  2.000                                             
     2     -1.3605826     23  2.000                                             
  local pseudopotential read in
  partial core-charges read in
  partial kinetic energy density read in
  atomic valenz-charges read in
  non local Contribution for L=           0  read in
    real space projection operators read in
  non local Contribution for L=           0  read in
    real space projection operators read in
  non local Contribution for L=           1  read in
    real space projection operators read in
  non local Contribution for L=           1  read in
    real space projection operators read in
  non local Contribution for L=           2  read in
    real space projection operators read in
    PAW grid and wavefunctions read in
 
   number of l-projection  operators is LMAX  =           5
   number of lm-projection operators is LMMAX =          13
 
 POTCAR:    PAW_PBE O 08Apr2002                   
   VRHFIN =O: s2p4                                                              
   LEXCH  = PE                                                                  
   EATOM  =   432.3788 eV,   31.7789 Ry                                         
                                                                                
   TITEL  = PAW_PBE O 08Apr2002                                                 
   LULTRA =        F    use ultrasoft PP ?                                      
   IUNSCR =        1    unscreen: 0-lin 1-nonlin 2-no                           
   RPACOR =    1.200    partial core radius                                     
   POMASS =   16.000; ZVAL   =    6.000    mass and valenz                      
   RCORE  =    1.520    outmost cutoff radius                                   
   RWIGS  =    1.550; RWIGS  =    0.820    wigner-seitz radius (au A)           
   ENMAX  =  400.000; ENMIN  =  300.000 eV                                      
   ICORE  =        2    local potential                                         
   LCOR   =        T    correct aug charges                                     
   LPAW   =        T    paw PP                                                  
   EAUG   =  605.392                                                            
   DEXC   =    0.000                                                            
   RMAX   =    1.553    core radius for proj-oper                               
   RAUG   =    1.300    factor for augmentation sphere                          
   RDEP   =    1.550    radius for radial grids                                 
   RDEPT  =    1.329    core radius for aug-charge                              
                                                                                
   Atomic configuration                                                         
    4 entries                                                                   
     n  l   j            E        occ.                                          
     1  0  0.50      -514.6923   2.0000                                         
     2  0  0.50       -23.9615   2.0000                                         
     2  1  0.50        -9.0305   4.0000                                         
     3  2  1.50        -9.5241   0.0000                                         
   Description                                                                  
     l       E           TYP  RCUT    TYP  RCUT                                 
     0    -23.9615318     23  1.200                                             
     0     -9.5240782     23  1.200                                             
     1     -9.0304911     23  1.520                                             
     1      8.1634956     23  1.520                                             
     2     -9.5240782      7  1.500                                             
  local pseudopotential read in
  partial core-charges read in
  partial kinetic energy density read in
  kinetic energy density of atom read in
  atomic valenz-charges read in
  non local Contribution for L=           0  read in
    real space projection operators read in
  non local Contribution for L=           0  read in
    real space projection operators read in
  non local Contribution for L=           1  read in
    real space projection operators read in
  non local Contribution for L=           1  read in
    real space projection operators read in
    PAW grid and wavefunctions read in
 
   number of l-projection  operators is LMAX  =           4
   number of lm-projection operators is LMMAX =           8
 
 Optimization of the real space projectors (new method)

 maximal supplied QI-value         = 18.90
 optimisation between [QCUT,QGAM] = [ 10.20, 20.41] = [ 29.16,116.64] Ry 
 Optimized for a Real-space Cutoff    1.30 Angstroem

   l    n(q)    QCUT    max X(q) W(low)/X(q) W(high)/X(q)  e(spline) 
   0      8    10.205    28.265    0.22E-03    0.17E-03    0.53E-07
   0      8    10.205    10.429    0.17E-03    0.15E-03    0.43E-07
   1      7    10.205    13.073    0.71E-04    0.41E-03    0.76E-07
   1      7    10.205     9.625    0.71E-04    0.33E-03    0.63E-07
   2      7    10.205     4.652    0.24E-03    0.41E-03    0.55E-07
 Optimization of the real space projectors (new method)

 maximal supplied QI-value         = 24.76
 optimisation between [QCUT,QGAM] = [ 10.15, 20.30] = [ 28.85,115.39] Ry 
 Optimized for a Real-space Cutoff    1.38 Angstroem

   l    n(q)    QCUT    max X(q) W(low)/X(q) W(high)/X(q)  e(spline) 
   0      8    10.150    20.381    0.22E-03    0.32E-03    0.29E-06
   0      8    10.150    15.268    0.23E-03    0.35E-03    0.30E-06
   1      8    10.150     5.964    0.46E-03    0.53E-03    0.21E-06
   1      8    10.150     5.382    0.38E-03    0.45E-03    0.19E-06
  PAW_PBE Mg 13Apr2007                  :
 energy of atom  1       EATOM=  -23.0369
 kinetic energy error for atom=    0.0001 (will be added to EATOM!!)
  PAW_PBE O 08Apr2002                   :
 energy of atom  2       EATOM= -432.3788
 kinetic energy error for atom=    0.1156 (will be added to EATOM!!)
 
 
 POSCAR: Mg9 O7                                  
  positions in direct lattice
  velocities in cartesian coordinates
 exchange correlation table for  LEXCH =        8
   RHO(1)=    0.500       N(1)  =     2000
   RHO(2)=  100.500       N(2)  =     4000
 


--------------------------------------------------------------------------------------------------------


 ion  position               nearest neighbor table
   1  0.168  0.328  0.239-   4 2.12   5 2.17  15 2.29   3 2.33   8 2.33   6 2.48   7 2.53  13 2.64
                            12 2.65  14 2.77  11 2.78   9 3.25   2 3.26   2 3.63   9 3.64
   2  0.012  0.989  0.002-  10 2.11  11 2.12  12 2.12  14 2.13  13 2.13  15 2.14   6 2.97   7 2.98
                             5 2.99   8 3.00   3 3.01   4 3.01   3 3.01   8 3.01   7 3.03   6 3.03
   3  0.996  0.968  0.520-  16 2.00  11 2.12  12 2.12  14 2.14  13 2.14   1 2.33   4 2.61   5 2.68
                             6 2.91   7 2.96   9 2.99   2 3.01   2 3.01   9 3.02   7 3.06   6 3.10
   4  0.963  0.534  0.952-  16 1.89  10 2.05  13 2.07  12 2.07  15 2.07   1 2.12   5 2.45   3 2.61
                             8 2.62   6 2.76   2 3.01   9 3.01   9 3.05   2 3.06   6 3.27   8 3.40
   5  0.976  0.521  0.544-  16 1.93  10 2.06  14 2.09  11 2.09  15 2.10   1 2.17   4 2.45   3 2.68
                             8 2.68   7 2.87   9 2.99   2 2.99   2 3.05   9 3.05   7 3.16   8 3.33
   6  0.507  0.991  0.999-  16 2.02  10 2.14  14 2.18  11 2.18  15 2.26   1 2.48   4 2.76   3 2.91
                             8 2.92   9 2.97   2 2.97   7 3.00   7 3.01   2 3.03   9 3.04   8 3.09
   7  0.500  0.998  0.499-  16 2.01  10 2.18  13 2.22  12 2.22  15 2.29   1 2.53   5 2.87   3 2.96
                             8 2.96   9 2.98   2 2.98   6 3.00   6 3.01   2 3.03   9 3.03   8 3.05
   8  0.527  0.502  0.987-  16 2.00  14 2.12  13 2.13  12 2.13  11 2.14   1 2.33   4 2.62   5 2.68
                             6 2.92   7 2.96   2 3.00   9 3.00   9 3.01   2 3.01   7 3.05   6 3.09
   9  0.509  0.486  0.505-  10 2.11  13 2.12  14 2.12  11 2.13  12 2.13  15 2.14   6 2.97   7 2.98
                             5 2.99   3 2.99   8 3.00   8 3.01   4 3.01   3 3.02   7 3.03   6 3.04
  10  0.245  0.253  0.758-   4 2.05   5 2.06   2 2.11   9 2.11   6 2.14   7 2.18
  11  0.254  0.731  0.259-   5 2.09   3 2.12   2 2.12   9 2.13   8 2.14   6 2.18   1 2.78
  12  0.249  0.725  0.766-   4 2.07   3 2.12   2 2.12   9 2.13   8 2.13   7 2.22   1 2.65
  13  0.772  0.248  0.244-   4 2.07   9 2.12   8 2.13   2 2.13   3 2.14   7 2.22   1 2.64
  14  0.767  0.243  0.746-   5 2.09   9 2.12   8 2.12   2 2.13   3 2.14   6 2.18   1 2.77
  15  0.788  0.709  0.250-   4 2.07   5 2.10   9 2.14   2 2.14   6 2.26   1 2.29   7 2.29
  16  0.726  0.771  0.746-   4 1.89   5 1.93   3 2.00   8 2.00   7 2.01   6 2.02
 
  LATTYP: Found a face centered cubic cell.
 ALAT       =     8.4937860000
  
  Lattice vectors:
  
 A1 = (   0.0000000000,   4.2468930000,   4.2468930000)
 A2 = (   4.2468930000,   0.0000000000,   4.2468930000)
 A3 = (   4.2468930000,   4.2468930000,   0.0000000000)


Analysis of symmetry for initial positions (statically):
=====================================================================
 Subroutine PRICEL returns:
 Original cell was already a primitive cell.
 

 Routine SETGRP: Setting up the symmetry group for a 
 face centered cubic supercell.


 Subroutine GETGRP returns: Found  1 space group operations
 (whereof  1 operations were pure point group operations)
 out of a pool of 48 trial point group operations.


The static configuration has the point symmetry C_1 .


Analysis of symmetry for dynamics (positions and initial velocities):
=====================================================================
 Subroutine PRICEL returns:
 Original cell was already a primitive cell.
 

 Routine SETGRP: Setting up the symmetry group for a 
 face centered cubic supercell.


 Subroutine GETGRP returns: Found  1 space group operations
 (whereof  1 operations were pure point group operations)
 out of a pool of 48 trial point group operations.


The dynamic configuration has the point symmetry C_1 .


Analysis of structural, dynamic, and magnetic symmetry:
=====================================================================
 Subroutine PRICEL returns:
 Original cell was already a primitive cell.
 

 Routine SETGRP: Setting up the symmetry group for a 
 face centered cubic supercell.


 Subroutine GETGRP returns: Found  1 space group operations
 (whereof  1 operations were pure point group operations)
 out of a pool of 48 trial point group operations.


The magnetic configuration has the point symmetry C_1 .


 Subroutine INISYM returns: Found  1 space group operations
 (whereof  1 operations are pure point group operations),
 and found     1 'primitive' translations

 
 
 KPOINTS: k-point mesh                            

Automatic generation of k-mesh.
Space group operators:
 irot       det(A)        alpha          n_x          n_y          n_z        tau_x        tau_y        tau_z
    1     1.000000     0.000000     1.000000     0.000000     0.000000     0.000000     0.000000     0.000000
 
 Subroutine IBZKPT returns following result:
 ===========================================
 
 Found      8 irreducible k-points:
 
 Following reciprocal coordinates:
            Coordinates               Weight
  0.000000  0.000000  0.000000      1.000000
  0.500000  0.000000  0.000000      1.000000
  0.000000  0.500000  0.000000      1.000000
  0.500000  0.500000  0.000000      1.000000
  0.000000  0.000000  0.500000      1.000000
  0.500000  0.000000  0.500000      1.000000
  0.000000  0.500000  0.500000      1.000000
  0.500000  0.500000  0.500000      1.000000
 
 Following cartesian coordinates:
            Coordinates               Weight
  0.000000  0.000000  0.000000      1.000000
 -0.058867  0.058867  0.058867      1.000000
  0.058867 -0.058867  0.058867      1.000000
  0.000000  0.000000  0.117733      1.000000
  0.058867  0.058867 -0.058867      1.000000
  0.000000  0.117733  0.000000      1.000000
  0.117733  0.000000  0.000000      1.000000
  0.058867  0.058867  0.058867      1.000000
 


--------------------------------------------------------------------------------------------------------




 Dimension of arrays:
   k-points           NKPTS =      8   k-points in BZ     NKDIM =      8   number of bands    NBANDS=     48
   number of dos      NEDOS =    301   number of ions     NIONS =     16
   non local maximal  LDIM  =      5   non local SUM 2l+1 LMDIM =     13
   total plane-waves  NPLWV =  27000
   max r-space proj   IRMAX =   1992   max aug-charges    IRDMAX=   7686
   dimension x,y,z NGX =    30 NGY =   30 NGZ =   30
   dimension x,y,z NGXF=    60 NGYF=   60 NGZF=   60
   support grid    NGXF=    60 NGYF=   60 NGZF=   60
   ions per type =               9   7
 NGX,Y,Z   is equivalent  to a cutoff of   8.30,  8.30,  8.30 a.u.
 NGXF,Y,Z  is equivalent  to a cutoff of  16.61, 16.61, 16.61 a.u.


 I would recommend the setting:
   dimension x,y,z NGX =    29 NGY =   29 NGZ =   29
 SYSTEM =  unknown system                          
 POSCAR =  Mg9 O7                                  

 Startparameter for this run:
   NWRITE =      2    write-flag & timer
   PREC   = n         normal or accurate (medium, high low for compatibility)
   ISTART =      0    job   : 0-new  1-cont  2-samecut
   ICHARG =      2    charge: 1-file 2-atom 10-const
   ISPIN  =      2    spin polarized calculation?
   LNONCOLLINEAR =      F non collinear calculations
   LSORBIT =      F    spin-orbit coupling
   INIWAV =      1    electr: 0-lowe 1-rand  2-diag
   LASPH  =      T    aspherical Exc in radial PAW
   METAGGA=      F    non-selfconsistent MetaGGA calc.

 Electronic Relaxation 1
   ENCUT  =  400.0 eV  29.40 Ry    5.42 a.u.   9.79  9.79  9.79*2*pi/ulx,y,z
   ENINI  =  400.0     initial cutoff
   ENAUG  =  605.4 eV  augmentation charge cutoff
   NELM   =    100;   NELMIN=  4; NELMDL=  0     # of ELM steps 
   EDIFF  = 0.1E-05   stopping-criterion for ELM
   LREAL  =      T    real-space projection
   NLSPLINE    = F    spline interpolate recip. space projectors
   LCOMPAT=      F    compatible to vasp.4.4
   GGA_COMPAT  = T    GGA compatible to vasp.4.4-vasp.4.6
   LMAXPAW     = -100 max onsite density
   LMAXMIX     =    2 max onsite mixed and CHGCAR
   VOSKOWN=      0    Vosko Wilk Nusair interpolation
   ROPT   =   -0.00050  -0.00050
 Ionic relaxation
   EDIFFG = -.5E-01   stopping-criterion for IOM
   NSW    =     20    number of steps for IOM
   NBLOCK =      1;   KBLOCK =     20    inner block; outer block 
   IBRION =      2    ionic relax: 0-MD 1-quasi-New 2-CG
   NFREE  =      1    steps in history (QN), initial steepest desc. (CG)
   ISIF   =      2    stress and relaxation
   IWAVPR =     11    prediction:  0-non 1-charg 2-wave 3-comb
   ISYM   =      2    0-nonsym 1-usesym 2-fastsym
   LCORR  =      T    Harris-Foulkes like correction to forces

   POTIM  = 0.5000    time-step for ionic-motion
   TEIN   =    0.0    initial temperature
   TEBEG  =    0.0;   TEEND  =   0.0 temperature during run
   SMASS  =  -3.00    Nose mass-parameter (am)
   estimated Nose-frequenzy (Omega)   =  0.10E-29 period in steps =****** mass=  -0.824E-27a.u.
   SCALEE = 1.0000    scale energy and forces
   NPACO  =    256;   APACO  = 16.0  distance and # of slots for P.C.
   PSTRESS=    0.0 pullay stress

  Mass of Ions in am
   POMASS =  24.30 16.00
  Ionic Valenz
   ZVAL   =   2.00  6.00
  Atomic Wigner-Seitz radii
   RWIGS  =  -1.00 -1.00
  virtual crystal weights 
   VCA    =   1.00  1.00
   NELECT =      59.0000    total number of electrons
   NUPDOWN=      -1.0000    fix difference up-down

 DOS related values:
   EMIN   =  10.00;   EMAX   =-10.00  energy-range for DOS
   EFERMI =   0.00
   ISMEAR =     0;   SIGMA  =   0.05  broadening in eV -4-tet -1-fermi 0-gaus

 Electronic relaxation 2 (details)
   IALGO  =     38    algorithm
   LDIAG  =      T    sub-space diagonalisation (order eigenvalues)
   LSUBROT=      F    optimize rotation matrix (better conditioning)
   TURBO    =      0    0=normal 1=particle mesh
   IRESTART =      0    0=no restart 2=restart with 2 vectors
   NREBOOT  =      0    no. of reboots
   NMIN     =      0    reboot dimension
   EREF     =   0.00    reference energy to select bands
   IMIX   =      4    mixing-type and parameters
     AMIX     =   0.40;   BMIX     =  1.00
     AMIX_MAG =   1.60;   BMIX_MAG =  1.00
     AMIN     =   0.10
     WC   =   100.;   INIMIX=   1;  MIXPRE=   1;  MAXMIX= -45

 Intra band minimization:
   WEIMIN = 0.0010     energy-eigenvalue tresh-hold
   EBREAK =  0.52E-08  absolut break condition
   DEPER  =   0.30     relativ break condition  

   TIME   =   0.40     timestep for ELM

  volume/ion in A,a.u.               =       9.57        64.61
  Fermi-wavevector in a.u.,A,eV,Ry     =   1.191089  2.250832 19.302488  1.418693
  Thomas-Fermi vector in A             =   2.327159
 
 Write flags
   LWAVE  =      F    write WAVECAR
   LCHARG =      F    write CHGCAR
   LVTOT  =      F    write LOCPOT, total local potential
   LVHAR  =      F    write LOCPOT, Hartree potential only
   LELF   =      F    write electronic localiz. function (ELF)
   LORBIT =     12    0 simple, 1 ext, 2 COOP (PROOUT)


 Dipole corrections
   LMONO  =      F    monopole corrections only (constant potential shift)
   LDIPOL =      F    correct potential (dipole corrections)
   IDIPOL =      0    1-x, 2-y, 3-z, 4-all directions 
   EPSILON=  1.0000000 bulk dielectric constant

 Exchange correlation treatment:
   GGA     =    --    GGA type
   LEXCH   =     8    internal setting for exchange type
   VOSKOWN=      0    Vosko Wilk Nusair interpolation
   LHFCALC =     F    Hartree Fock is set to
   LHFONE  =     F    Hartree Fock one center treatment
   AEXX    =    0.0000 exact exchange contribution

 Linear response parameters
   LEPSILON=     F    determine dielectric tensor
   LRPA    =     F    only Hartree local field effects (RPA)
   LNABLA  =     F    use nabla operator in PAW spheres
   LVEL    =     F    velocity operator in full k-point grid
   LINTERFAST=   F  fast interpolation
   KINTER  =     0    interpolate to denser k-point grid
   CSHIFT  =0.1000    complex shift for real part using Kramers Kronig
   OMEGAMAX=  -1.0    maximum frequency
   DEG_THRESHOLD= 0.2000000E-02 threshold for treating states as degnerate
   RTIME   =    0.100 relaxation time in fs

 Orbital magnetization related:
   ORBITALMAG=     F  switch on orbital magnetization
   LCHIMAG   =     F  perturbation theory with respect to B field
   DQ        =  0.001000  dq finite difference perturbation B field



--------------------------------------------------------------------------------------------------------


 conjugate gradient relaxation of ions
 charge density and potential will be updated during run
 spin polarized calculation
 Variant of blocked Davidson
 Davidson routine will perform the subspace rotation
 perform sub-space diagonalisation
    after iterative eigenvector-optimisation
 modified Broyden-mixing scheme, WC =      100.0
 initial mixing is a Kerker type mixing with AMIX =  0.4000 and BMIX =      1.0000
 Hartree-type preconditioning will be used
 using additional bands           18
 real space projection scheme for non local part
 use partial core corrections
 calculate Harris-corrections to forces 
   (improved forces if not selfconsistent)
 use gradient corrections 
 use of overlap-Matrix (Vanderbilt PP)
 Gauss-broadening in eV      SIGMA  =   0.05


--------------------------------------------------------------------------------------------------------


  energy-cutoff  :      400.00
  volume of cell :      153.19
      direct lattice vectors                 reciprocal lattice vectors
     0.000000000  4.246893000  4.246893000    -0.117733129  0.117733129  0.117733129
     4.246893000  0.000000000  4.246893000     0.117733129 -0.117733129  0.117733129
     4.246893000  4.246893000  0.000000000     0.117733129  0.117733129 -0.117733129

  length of vectors
     6.006013679  6.006013679  6.006013679     0.203919761  0.203919761  0.203919761


 
 k-points in units of 2pi/SCALE and weight: k-point mesh                            
   0.00000000  0.00000000  0.00000000       0.125
  -0.05886656  0.05886656  0.05886656       0.125
   0.05886656 -0.05886656  0.05886656       0.125
   0.00000000  0.00000000  0.11773313       0.125
   0.05886656  0.05886656 -0.05886656       0.125
   0.00000000  0.11773313  0.00000000       0.125
   0.11773313  0.00000000  0.00000000       0.125
   0.05886656  0.05886656  0.05886656       0.125
 
 k-points in reciprocal lattice and weights: k-point mesh                            
   0.00000000  0.00000000  0.00000000       0.125
   0.50000000  0.00000000  0.00000000       0.125
   0.00000000  0.50000000  0.00000000       0.125
   0.50000000  0.50000000  0.00000000       0.125
   0.00000000  0.00000000  0.50000000       0.125
   0.50000000  0.00000000  0.50000000       0.125
   0.00000000  0.50000000  0.50000000       0.125
   0.50000000  0.50000000  0.50000000       0.125
 
 position of ions in fractional coordinates (direct lattice) 
   0.16797186  0.32785652  0.23917509
   0.01198062  0.98869122  0.00175829
   0.99610008  0.96846043  0.51963732
   0.96292607  0.53380816  0.95239780
   0.97637659  0.52119685  0.54406578
   0.50671351  0.99135701  0.99923107
   0.50029405  0.99770414  0.49868065
   0.52734235  0.50164694  0.98714567
   0.50859125  0.48572415  0.50492291
   0.24458846  0.25277861  0.75750728
   0.25397281  0.73093542  0.25891718
   0.24949864  0.72490551  0.76615945
   0.77186333  0.24771388  0.24379340
   0.76736986  0.24306884  0.74596830
   0.78803810  0.70925805  0.24971615
   0.72641543  0.77063728  0.74563065
 
 position of ions in cartesian coordinates  (Angst):
   2.40812261  1.72910954  2.10573007
   4.20633307  0.05834765  4.24974622
   6.31979192  6.43717457  8.34327828
   6.31175768  8.13417553  6.35647014
   4.52405639  6.45715606  6.36003415
   8.45381461  6.39558553  6.36214523
   6.35498607  4.24253867  6.36183801
   6.32274291  6.43186855  4.37000740
   4.20717207  4.30428620  4.22275109
   4.29057608  4.25579335  2.11226472
   4.20379806  2.17818892  4.18279987
   6.33239334  4.31339126  4.13819015
   2.08737883  4.31338546  4.33003530
   4.20033494  6.42698523  4.29122504
   4.07266082  4.40723125  6.35885653
   6.43942765  6.25162219  6.35782266
 


--------------------------------------------------------------------------------------------------------


 k-point  1 :   0.0000 0.0000 0.0000  plane waves:    2733
 k-point  2 :   0.5000 0.0000 0.0000  plane waves:    2788
 k-point  3 :   0.0000 0.5000 0.0000  plane waves:    2788
 k-point  4 :   0.5000 0.5000 0.0000  plane waves:    2778
 k-point  5 :   0.0000 0.0000 0.5000  plane waves:    2788
 k-point  6 :   0.5000 0.0000 0.5000  plane waves:    2778
 k-point  7 :   0.0000 0.5000 0.5000  plane waves:    2778
 k-point  8 :   0.5000 0.5000 0.5000  plane waves:    2788

 maximum and minimum number of plane-waves per node :       715      668

 maximum number of plane-waves:      2788
 maximum index in each direction: 
   IXMAX=    9   IYMAX=    9   IZMAX=    9
   IXMIN=  -10   IYMIN=  -10   IZMIN=  -10

 WARNING: aliasing errors must be expected set NGX to  40 to avoid them
 WARNING: aliasing errors must be expected set NGY to  40 to avoid them
 WARNING: aliasing errors must be expected set NGZ to  40 to avoid them
 aliasing errors are usually negligible using standard VASP settings
 and one can safely disregard these warnings

 real space projection operators:
  total allocation   :       2261.36 KBytes
  max/ min on nodes  :        613.40        515.62


 parallel 3D FFT for wavefunctions:
    minimum data exchange during FFTs selected (reduces bandwidth)
 parallel 3D FFT for charge:
    minimum data exchange during FFTs selected (reduces bandwidth)


 total amount of memory used by VASP on root node    36162. kBytes
========================================================================

   base      :      30000. kBytes
   nonlr-proj:       1277. kBytes
   fftplans  :        708. kBytes
   grid      :       1766. kBytes
   one-center:         64. kBytes
   wavefun   :       2347. kBytes
 
     INWAV:  cpu time    0.0000: real time    0.0001
 Broyden mixing: mesh for mixing (old mesh)
   NGX = 19   NGY = 19   NGZ = 19
  (NGX  = 60   NGY  = 60   NGZ  = 60)
  gives a total of   6859 points

 initial charge density was supplied:
 charge density of overlapping atoms calculated
 number of electron      60.0000000 magnetization      16.0000000
 keeping initial charge density in first step


--------------------------------------------------------------------------------------------------------


 Maximum index for non-local projection operator          528
 Maximum index for augmentation-charges          585 (set IRDMAX)


--------------------------------------------------------------------------------------------------------


 First call to EWALD:  gamma=   0.331
 Maximum number of real-space cells 3x 3x 3
 Maximum number of reciprocal cells 3x 3x 3

 FEWALD executed in parallel
    FEWALD:  cpu time    0.0000: real time    0.0017


----------------------------------------- Iteration    1(   1)  ---------------------------------------


    POTLOK:  cpu time    0.0200: real time    0.0214
    SETDIJ:  cpu time    0.6800: real time    0.6803
     EDDAV:  cpu time    0.5320: real time    0.5304
       DOS:  cpu time    0.0000: real time    0.0005
    --------------------------------------------
      LOOP:  cpu time    1.2360: real time    1.2359

 eigenvalue-minimisations  :  1600
 total energy-change (2. order) : 0.2349820E+03  (-0.2442291E+04)
 number of electron      60.0000000 magnetization      16.0000000
 augmentation part       60.0000000 magnetization      16.0000000

 Free energy of the ion-electron system (eV)
  ---------------------------------------------------
  alpha Z        PSCENC =       142.81396753
  Ewald energy   TEWEN  =     -2470.94409015
  -Hartree energ DENC   =      -957.81073725
  -exchange      EXHF   =         0.00000000
  -V(xc)+E(xc)   XCENC  =      -236.39557536
  PAW double counting   =      3011.45132117    -2557.24446474
  entropy T*S    EENTRO =        -0.00427820
  eigenvalues    EBANDS =        69.94249891
  atomic energy  EATOM  =      3233.17333345
  Solvation  Ediel_sol  =         0.00000000
  ---------------------------------------------------
  free energy    TOTEN  =       234.98197537 eV

  energy without entropy =      234.98625357  energy(sigma->0) =      234.98411447


--------------------------------------------------------------------------------------------------------




----------------------------------------- Iteration    1(   2)  ---------------------------------------


     EDDAV:  cpu time    0.6000: real time    0.6004
       DOS:  cpu time    0.0000: real time    0.0004
    --------------------------------------------
      LOOP:  cpu time    0.6000: real time    0.6051

 eigenvalue-minimisations  :  1936
 total energy-change (2. order) :-0.3043460E+03  (-0.2940096E+03)
 number of electron      60.0000000 magnetization      16.0000000
 augmentation part       60.0000000 magnetization      16.0000000

 Free energy of the ion-electron system (eV)
  ---------------------------------------------------
  alpha Z        PSCENC =       142.81396753
  Ewald energy   TEWEN  =     -2470.94409015
  -Hartree energ DENC   =      -957.81073725
  -exchange      EXHF   =         0.00000000
  -V(xc)+E(xc)   XCENC  =      -236.39557536
  PAW double counting   =      3011.45132117    -2557.24446474
  entropy T*S    EENTRO =        -0.00000004
  eigenvalues    EBANDS =      -234.40780242
  atomic energy  EATOM  =      3233.17333345
  Solvation  Ediel_sol  =         0.00000000
  ---------------------------------------------------
  free energy    TOTEN  =       -69.36404780 eV

  energy without entropy =      -69.36404776  energy(sigma->0) =      -69.36404778


--------------------------------------------------------------------------------------------------------




----------------------------------------- Iteration    1(   3)  ---------------------------------------


     EDDAV:  cpu time    0.6000: real time    0.6047
       DOS:  cpu time    0.0000: real time    0.0004
    --------------------------------------------
      LOOP:  cpu time    0.6040: real time    0.6084

 eigenvalue-minimisations  :  1904
 total energy-change (2. order) :-0.1767950E+02  (-0.1756912E+02)
 number of electron      60.0000000 magnetization      16.0000000
 augmentation part       60.0000000 magnetization      16.0000000

 Free energy of the ion-electron system (eV)
  ---------------------------------------------------
  alpha Z        PSCENC =       142.81396753
  Ewald energy   TEWEN  =     -2470.94409015
  -Hartree energ DENC   =      -957.81073725
  -exchange      EXHF   =         0.00000000
  -V(xc)+E(xc)   XCENC  =      -236.39557536
  PAW double counting   =      3011.45132117    -2557.24446474
  entropy T*S    EENTRO =        -0.00000005
  eigenvalues    EBANDS =      -252.08730149
  atomic energy  EATOM  =      3233.17333345
  Solvation  Ediel_sol  =         0.00000000
  ---------------------------------------------------
  free energy    TOTEN  =       -87.04354688 eV

  energy without entropy =      -87.04354683  energy(sigma->0) =      -87.04354686


--------------------------------------------------------------------------------------------------------




----------------------------------------- Iteration    1(   4)  ---------------------------------------


     EDDAV:  cpu time    0.5640: real time    0.5671
       DOS:  cpu time    0.0040: real time    0.0004
    --------------------------------------------
      LOOP:  cpu time    0.5680: real time    0.5708

 eigenvalue-minimisations  :  1800
 total energy-change (2. order) :-0.1070074E+00  (-0.1069356E+00)
 number of electron      60.0000000 magnetization      16.0000000
 augmentation part       60.0000000 magnetization      16.0000000

 Free energy of the ion-electron system (eV)
  ---------------------------------------------------
  alpha Z        PSCENC =       142.81396753
  Ewald energy   TEWEN  =     -2470.94409015
  -Hartree energ DENC   =      -957.81073725
  -exchange      EXHF   =         0.00000000
  -V(xc)+E(xc)   XCENC  =      -236.39557536
  PAW double counting   =      3011.45132117    -2557.24446474
  entropy T*S    EENTRO =        -0.00000007
  eigenvalues    EBANDS =      -252.19430884
  atomic energy  EATOM  =      3233.17333345
  Solvation  Ediel_sol  =         0.00000000
  ---------------------------------------------------
  free energy    TOTEN  =       -87.15055425 eV

  energy without entropy =      -87.15055418  energy(sigma->0) =      -87.15055422


--------------------------------------------------------------------------------------------------------




----------------------------------------- Iteration    1(   5)  ---------------------------------------


     EDDAV:  cpu time    0.5800: real time    0.5830
       DOS:  cpu time    0.0000: real time    0.0004
    CHARGE:  cpu time    0.0240: real time    0.0210
    MIXING:  cpu time    0.0000: real time    0.0007
    --------------------------------------------
      LOOP:  cpu time    0.6040: real time    0.6084

 eigenvalue-minimisations  :  1872
 total energy-change (2. order) :-0.5540880E-03  (-0.5540459E-03)
 number of electron      59.0000037 magnetization       1.0852596
 augmentation part        5.5086913 magnetization       0.1290912

 Broyden mixing:
  rms(total) = 0.26617E+01    rms(broyden)= 0.26599E+01
  rms(prec ) = 0.44187E+01
  weight for this iteration     100.00

 Free energy of the ion-electron system (eV)
  ---------------------------------------------------
  alpha Z        PSCENC =       142.81396753
  Ewald energy   TEWEN  =     -2470.94409015
  -Hartree energ DENC   =      -957.81073725
  -exchange      EXHF   =         0.00000000
  -V(xc)+E(xc)   XCENC  =      -236.39557536
  PAW double counting   =      3011.45132117    -2557.24446474
  entropy T*S    EENTRO =        -0.00000007
  eigenvalues    EBANDS =      -252.19486292
  atomic energy  EATOM  =      3233.17333345
  Solvation  Ediel_sol  =         0.00000000
  ---------------------------------------------------
  free energy    TOTEN  =       -87.15110834 eV

  energy without entropy =      -87.15110827  energy(sigma->0) =      -87.15110830


--------------------------------------------------------------------------------------------------------




----------------------------------------- Iteration    1(   6)  ---------------------------------------


    POTLOK:  cpu time    0.0200: real time    0.0209
    SETDIJ:  cpu time    0.6840: real time    0.6827
     EDDAV:  cpu time    0.5560: real time    0.5565
       DOS:  cpu time    0.0000: real time    0.0006
    CHARGE:  cpu time    0.0200: real time    0.0216
    MIXING:  cpu time    0.0040: real time    0.0006
    --------------------------------------------
      LOOP:  cpu time    1.2840: real time    1.2860

 eigenvalue-minimisations  :  1744
 total energy-change (2. order) : 0.4426172E+01  (-0.3539346E+01)
 number of electron      59.0000031 magnetization       0.7118228
 augmentation part        4.5610215 magnetization      -0.0748715

 Broyden mixing:
  rms(total) = 0.73858E+00    rms(broyden)= 0.73725E+00
  rms(prec ) = 0.10360E+01
  weight for this iteration     100.00

 eigenvalues of (default mixing * dielectric matrix)
  average eigenvalue GAMMA=   0.8397
  0.8397

 Free energy of the ion-electron system (eV)
  ---------------------------------------------------
  alpha Z        PSCENC =       142.81396753
  Ewald energy   TEWEN  =     -2470.94409015
  -Hartree energ DENC   =     -1088.68863322
  -exchange      EXHF   =         0.00000000
  -V(xc)+E(xc)   XCENC  =      -233.13979313
  PAW double counting   =      3553.13506999    -3101.07190437
  entropy T*S    EENTRO =        -0.00657029
  eigenvalues    EBANDS =      -117.99631629
  atomic energy  EATOM  =      3233.17333345
  Solvation  Ediel_sol  =         0.00000000
  ---------------------------------------------------
  free energy    TOTEN  =       -82.72493648 eV

  energy without entropy =      -82.71836619  energy(sigma->0) =      -82.72165134


--------------------------------------------------------------------------------------------------------




----------------------------------------- Iteration    1(   7)  ---------------------------------------


    POTLOK:  cpu time    0.0200: real time    0.0214
    SETDIJ:  cpu time    0.6840: real time    0.6824
     EDDAV:  cpu time    0.5440: real time    0.5438
       DOS:  cpu time    0.0000: real time    0.0006
    CHARGE:  cpu time    0.0200: real time    0.0209
    MIXING:  cpu time    0.0000: real time    0.0005
    --------------------------------------------
      LOOP:  cpu time    1.2680: real time    1.2734

 eigenvalue-minimisations  :  1712
 total energy-change (2. order) :-0.1323735E+00  (-0.1308670E+00)
 number of electron      59.0000031 magnetization       0.6786288
 augmentation part        4.5814927 magnetization      -0.0283075

 Broyden mixing:
  rms(total) = 0.38069E+00    rms(broyden)= 0.38064E+00
  rms(prec ) = 0.60121E+00
  weight for this iteration     100.00

 eigenvalues of (default mixing * dielectric matrix)
  average eigenvalue GAMMA=   1.0047
  1.0047  1.0047

 Free energy of the ion-electron system (eV)
  ---------------------------------------------------
  alpha Z        PSCENC =       142.81396753
  Ewald energy   TEWEN  =     -2470.94409015
  -Hartree energ DENC   =     -1085.49686755
  -exchange      EXHF   =         0.00000000
  -V(xc)+E(xc)   XCENC  =      -233.14136150
  PAW double counting   =      3724.75982938    -3272.43607621
  entropy T*S    EENTRO =        -0.00558980
  eigenvalues    EBANDS =      -121.58045518
  atomic energy  EATOM  =      3233.17333345
  Solvation  Ediel_sol  =         0.00000000
  ---------------------------------------------------
  free energy    TOTEN  =       -82.85731003 eV

  energy without entropy =      -82.85172023  energy(sigma->0) =      -82.85451513


--------------------------------------------------------------------------------------------------------




----------------------------------------- Iteration    1(   8)  ---------------------------------------


    POTLOK:  cpu time    0.0240: real time    0.0220
    SETDIJ:  cpu time    0.6800: real time    0.6810
     EDDAV:  cpu time    0.5760: real time    0.5757
       DOS:  cpu time    0.0000: real time    0.0006
    CHARGE:  cpu time    0.0200: real time    0.0208
    MIXING:  cpu time    0.0000: real time    0.0006
    --------------------------------------------
      LOOP:  cpu time    1.3000: real time    1.3042

 eigenvalue-minimisations  :  1840
 total energy-change (2. order) : 0.9437152E-01  (-0.1843476E-01)
 number of electron      59.0000031 magnetization       0.5542338
 augmentation part        4.6090475 magnetization      -0.0294265

 Broyden mixing:
  rms(total) = 0.12582E+00    rms(broyden)= 0.12580E+00
  rms(prec ) = 0.20391E+00
  weight for this iteration     100.00

 eigenvalues of (default mixing * dielectric matrix)
  average eigenvalue GAMMA=   1.2704
  2.0833  0.8640  0.8640

 Free energy of the ion-electron system (eV)
  ---------------------------------------------------
  alpha Z        PSCENC =       142.81396753
  Ewald energy   TEWEN  =     -2470.94409015
  -Hartree energ DENC   =     -1088.27433798
  -exchange      EXHF   =         0.00000000
  -V(xc)+E(xc)   XCENC  =      -232.42385819
  PAW double counting   =      3957.69322954    -3505.18072323
  entropy T*S    EENTRO =        -0.00473849
  eigenvalues    EBANDS =      -119.61572099
  atomic energy  EATOM  =      3233.17333345
  Solvation  Ediel_sol  =         0.00000000
  ---------------------------------------------------
  free energy    TOTEN  =       -82.76293851 eV

  energy without entropy =      -82.75820002  energy(sigma->0) =      -82.76056926


--------------------------------------------------------------------------------------------------------




----------------------------------------- Iteration    1(   9)  ---------------------------------------


    POTLOK:  cpu time    0.0240: real time    0.0208
    SETDIJ:  cpu time    0.6800: real time    0.6825
     EDDAV:  cpu time    0.5760: real time    0.5753
       DOS:  cpu time    0.0000: real time    0.0005
    CHARGE:  cpu time    0.0240: real time    0.0218
    MIXING:  cpu time    0.0000: real time    0.0006
    --------------------------------------------
      LOOP:  cpu time    1.3040: real time    1.3055

 eigenvalue-minimisations  :  1848
 total energy-change (2. order) : 0.2311863E-02  (-0.3908634E-02)
 number of electron      59.0000031 magnetization       0.5078609
 augmentation part        4.5981085 magnetization      -0.0013171

 Broyden mixing:
  rms(total) = 0.47483E-01    rms(broyden)= 0.47475E-01
  rms(prec ) = 0.59580E-01
  weight for this iteration     100.00

 eigenvalues of (default mixing * dielectric matrix)
  average eigenvalue GAMMA=   1.2496
  2.4352  0.9551  0.9551  0.6528

 Free energy of the ion-electron system (eV)
  ---------------------------------------------------
  alpha Z        PSCENC =       142.81396753
  Ewald energy   TEWEN  =     -2470.94409015
  -Hartree energ DENC   =     -1092.70279235
  -exchange      EXHF   =         0.00000000
  -V(xc)+E(xc)   XCENC  =      -231.86421796
  PAW double counting   =      4048.81968432    -3596.29705646
  entropy T*S    EENTRO =        -0.00214883
  eigenvalues    EBANDS =      -115.75730620
  atomic energy  EATOM  =      3233.17333345
  Solvation  Ediel_sol  =         0.00000000
  ---------------------------------------------------
  free energy    TOTEN  =       -82.76062664 eV

  energy without entropy =      -82.75847782  energy(sigma->0) =      -82.75955223


--------------------------------------------------------------------------------------------------------




----------------------------------------- Iteration    1(  10)  ---------------------------------------


    POTLOK:  cpu time    0.0200: real time    0.0206
    SETDIJ:  cpu time    0.6840: real time    0.6828
     EDDAV:  cpu time    0.5800: real time    0.5822
       DOS:  cpu time    0.0000: real time    0.0005
    CHARGE:  cpu time    0.0240: real time    0.0207
    MIXING:  cpu time    0.0000: real time    0.0007
    --------------------------------------------
      LOOP:  cpu time    1.3080: real time    1.3109

 eigenvalue-minimisations  :  1864
 total energy-change (2. order) :-0.5468952E-04  (-0.5132471E-03)
 number of electron      59.0000031 magnetization       0.4981149
 augmentation part        4.5923201 magnetization      -0.0061839

 Broyden mixing:
  rms(total) = 0.15745E-01    rms(broyden)= 0.15736E-01
  rms(prec ) = 0.26354E-01
  weight for this iteration     100.00

 eigenvalues of (default mixing * dielectric matrix)
  average eigenvalue GAMMA=   1.2282
  2.5235  1.1104  0.9326  0.9326  0.6421

 Free energy of the ion-electron system (eV)
  ---------------------------------------------------
  alpha Z        PSCENC =       142.81396753
  Ewald energy   TEWEN  =     -2470.94409015
  -Hartree energ DENC   =     -1093.40299328
  -exchange      EXHF   =         0.00000000
  -V(xc)+E(xc)   XCENC  =      -231.79560171
  PAW double counting   =      4043.63168907    -3591.12388290
  entropy T*S    EENTRO =        -0.00154860
  eigenvalues    EBANDS =      -115.11155475
  atomic energy  EATOM  =      3233.17333345
  Solvation  Ediel_sol  =         0.00000000
  ---------------------------------------------------
  free energy    TOTEN  =       -82.76068133 eV

  energy without entropy =      -82.75913274  energy(sigma->0) =      -82.75990704


--------------------------------------------------------------------------------------------------------




----------------------------------------- Iteration    1(  11)  ---------------------------------------


    POTLOK:  cpu time    0.0200: real time    0.0207
    SETDIJ:  cpu time    0.6840: real time    0.6840
     EDDAV:  cpu time    0.5840: real time    0.5823
       DOS:  cpu time    0.0000: real time    0.0005
    CHARGE:  cpu time    0.0200: real time    0.0206
    MIXING:  cpu time    0.0000: real time    0.0007
    --------------------------------------------
      LOOP:  cpu time    1.3080: real time    1.3120

 eigenvalue-minimisations  :  1872
 total energy-change (2. order) :-0.1752781E-03  (-0.9463756E-04)
 number of electron      59.0000031 magnetization       0.4975348
 augmentation part        4.5927598 magnetization      -0.0072634

 Broyden mixing:
  rms(total) = 0.82182E-02    rms(broyden)= 0.82145E-02
  rms(prec ) = 0.12769E-01
  weight for this iteration     100.00

 eigenvalues of (default mixing * dielectric matrix)
  average eigenvalue GAMMA=   1.2724
  2.5522  1.7183  0.9716  0.9716  0.7867  0.6341

 Free energy of the ion-electron system (eV)
  ---------------------------------------------------
  alpha Z        PSCENC =       142.81396753
  Ewald energy   TEWEN  =     -2470.94409015
  -Hartree energ DENC   =     -1093.32250013
  -exchange      EXHF   =         0.00000000
  -V(xc)+E(xc)   XCENC  =      -231.78212869
  PAW double counting   =      4033.89097724    -3581.38695726
  entropy T*S    EENTRO =        -0.00127620
  eigenvalues    EBANDS =      -115.20218240
  atomic energy  EATOM  =      3233.17333345
  Solvation  Ediel_sol  =         0.00000000
  ---------------------------------------------------
  free energy    TOTEN  =       -82.76085661 eV

  energy without entropy =      -82.75958041  energy(sigma->0) =      -82.76021851


--------------------------------------------------------------------------------------------------------




----------------------------------------- Iteration    1(  12)  ---------------------------------------


    POTLOK:  cpu time    0.0200: real time    0.0205
    SETDIJ:  cpu time    0.6840: real time    0.6835
     EDDAV:  cpu time    0.5920: real time    0.5928
       DOS:  cpu time    0.0040: real time    0.0005
    CHARGE:  cpu time    0.0200: real time    0.0208
    MIXING:  cpu time    0.0000: real time    0.0007
    --------------------------------------------
      LOOP:  cpu time    1.3200: real time    1.3222

 eigenvalue-minimisations  :  1904
 total energy-change (2. order) :-0.1982338E-04  (-0.2400181E-04)
 number of electron      59.0000031 magnetization       0.4998332
 augmentation part        4.5927675 magnetization      -0.0047858

 Broyden mixing:
  rms(total) = 0.27399E-02    rms(broyden)= 0.27376E-02
  rms(prec ) = 0.43572E-02
  weight for this iteration     100.00

 eigenvalues of (default mixing * dielectric matrix)
  average eigenvalue GAMMA=   1.2956
  2.5084  2.2123  1.0114  0.9508  0.9508  0.8030  0.6323

 Free energy of the ion-electron system (eV)
  ---------------------------------------------------
  alpha Z        PSCENC =       142.81396753
  Ewald energy   TEWEN  =     -2470.94409015
  -Hartree energ DENC   =     -1093.31814273
  -exchange      EXHF   =         0.00000000
  -V(xc)+E(xc)   XCENC  =      -231.76899638
  PAW double counting   =      4025.93072820    -3573.43076923
  entropy T*S    EENTRO =        -0.00117894
  eigenvalues    EBANDS =      -115.21572818
  atomic energy  EATOM  =      3233.17333345
  Solvation  Ediel_sol  =         0.00000000
  ---------------------------------------------------
  free energy    TOTEN  =       -82.76087643 eV

  energy without entropy =      -82.75969750  energy(sigma->0) =      -82.76028697


--------------------------------------------------------------------------------------------------------




----------------------------------------- Iteration    1(  13)  ---------------------------------------


    POTLOK:  cpu time    0.0200: real time    0.0205
    SETDIJ:  cpu time    0.6840: real time    0.6838
     EDDAV:  cpu time    0.5920: real time    0.5900
       DOS:  cpu time    0.0000: real time    0.0005
    CHARGE:  cpu time    0.0200: real time    0.0208
    MIXING:  cpu time    0.0000: real time    0.0008
    --------------------------------------------
      LOOP:  cpu time    1.3160: real time    1.3200

 eigenvalue-minimisations  :  1896
 total energy-change (2. order) :-0.1600752E-04  (-0.7156589E-05)
 number of electron      59.0000031 magnetization       0.5004731
 augmentation part        4.5924076 magnetization      -0.0040775

 Broyden mixing:
  rms(total) = 0.13088E-02    rms(broyden)= 0.13079E-02
  rms(prec ) = 0.18428E-02
  weight for this iteration     100.00

 eigenvalues of (default mixing * dielectric matrix)
  average eigenvalue GAMMA=   1.3006
  2.6762  2.4515  1.1574  0.9729  0.9729  0.8530  0.6921  0.6289

 Free energy of the ion-electron system (eV)
  ---------------------------------------------------
  alpha Z        PSCENC =       142.81396753
  Ewald energy   TEWEN  =     -2470.94409015
  -Hartree energ DENC   =     -1093.35017673
  -exchange      EXHF   =         0.00000000
  -V(xc)+E(xc)   XCENC  =      -231.76521623
  PAW double counting   =      4024.23596760    -3571.73743559
  entropy T*S    EENTRO =        -0.00122791
  eigenvalues    EBANDS =      -115.18601441
  atomic energy  EATOM  =      3233.17333345
  Solvation  Ediel_sol  =         0.00000000
  ---------------------------------------------------
  free energy    TOTEN  =       -82.76089244 eV

  energy without entropy =      -82.75966454  energy(sigma->0) =      -82.76027849


--------------------------------------------------------------------------------------------------------




----------------------------------------- Iteration    1(  14)  ---------------------------------------


    POTLOK:  cpu time    0.0200: real time    0.0205
    SETDIJ:  cpu time    0.6880: real time    0.6852
     EDDAV:  cpu time    0.5800: real time    0.5803
       DOS:  cpu time    0.0000: real time    0.0006
    CHARGE:  cpu time    0.0200: real time    0.0209
    MIXING:  cpu time    0.0000: real time    0.0009
    --------------------------------------------
      LOOP:  cpu time    1.3080: real time    1.3116

 eigenvalue-minimisations  :  1832
 total energy-change (2. order) :-0.2350155E-05  (-0.1278517E-05)
 number of electron      59.0000031 magnetization       0.5005032
 augmentation part        4.5925487 magnetization      -0.0040544

 Broyden mixing:
  rms(total) = 0.63518E-03    rms(broyden)= 0.63487E-03
  rms(prec ) = 0.11083E-02
  weight for this iteration     100.00

 eigenvalues of (default mixing * dielectric matrix)
  average eigenvalue GAMMA=   1.2693
  2.7217  2.4342  1.2220  0.9345  0.9345  0.9323  0.9323  0.6842  0.6282

 Free energy of the ion-electron system (eV)
  ---------------------------------------------------
  alpha Z        PSCENC =       142.81396753
  Ewald energy   TEWEN  =     -2470.94409015
  -Hartree energ DENC   =     -1093.33759627
  -exchange      EXHF   =         0.00000000
  -V(xc)+E(xc)   XCENC  =      -231.76528956
  PAW double counting   =      4023.93481851    -3571.43610616
  entropy T*S    EENTRO =        -0.00124478
  eigenvalues    EBANDS =      -115.19868737
  atomic energy  EATOM  =      3233.17333345
  Solvation  Ediel_sol  =         0.00000000
  ---------------------------------------------------
  free energy    TOTEN  =       -82.76089479 eV

  energy without entropy =      -82.75965001  energy(sigma->0) =      -82.76027240


--------------------------------------------------------------------------------------------------------




----------------------------------------- Iteration    1(  15)  ---------------------------------------


    POTLOK:  cpu time    0.0240: real time    0.0208
    SETDIJ:  cpu time    0.6840: real time    0.6839
     EDDAV:  cpu time    0.5600: real time    0.5602
       DOS:  cpu time    0.0000: real time    0.0005
    --------------------------------------------
      LOOP:  cpu time    1.2680: real time    1.2688

 eigenvalue-minimisations  :  1768
 total energy-change (2. order) :-0.8294273E-07  (-0.2956601E-06)
 number of electron      59.0000031 magnetization       0.5005032
 augmentation part        4.5925487 magnetization      -0.0040544

 Free energy of the ion-electron system (eV)
  ---------------------------------------------------
  alpha Z        PSCENC =       142.81396753
  Ewald energy   TEWEN  =     -2470.94409015
  -Hartree energ DENC   =     -1093.33237827
  -exchange      EXHF   =         0.00000000
  -V(xc)+E(xc)   XCENC  =      -231.76530332
  PAW double counting   =      4023.84753649    -3571.34882573
  entropy T*S    EENTRO =        -0.00125093
  eigenvalues    EBANDS =      -115.20388395
  atomic energy  EATOM  =      3233.17333345
  Solvation  Ediel_sol  =         0.00000000
  ---------------------------------------------------
  free energy    TOTEN  =       -82.76089488 eV

  energy without entropy =      -82.75964395  energy(sigma->0) =      -82.76026941


--------------------------------------------------------------------------------------------------------




 average (electrostatic) potential at core
  the test charge radii are     1.0714  0.7215
  (the norm of the test charge is              1.0000)
       1 -35.4663       2 -34.4511       3 -34.8800       4 -35.4706       5 -35.1994
       6 -34.7418       7 -34.8194       8 -34.8716       9 -34.4512      10 -69.4579
      11 -69.4245      12 -69.4967      13 -69.5020      14 -69.4278      15 -69.6609
      16 -70.7734
 
 
 
 E-fermi :   7.6817     XC(G=0): -11.0001     alpha+bet :-13.4265


 spin component 1

 k-point     1 :       0.0000    0.0000    0.0000
  band No.  band energies     occupation 
      1     -14.5825      1.00000
      2     -13.2735      1.00000
      3     -12.6099      1.00000
      4     -12.5143      1.00000
      5     -12.4260      1.00000
      6     -12.2731      1.00000
      7     -12.2123      1.00000
      8      -1.6904      1.00000
      9      -1.6257      1.00000
     10      -1.6246      1.00000
     11      -0.9969      1.00000
     12      -0.4197      1.00000
     13      -0.2570      1.00000
     14      -0.1869      1.00000
     15       1.3093      1.00000
     16       1.3518      1.00000
     17       1.4064      1.00000
     18       1.9242      1.00000
     19       1.9959      1.00000
     20       2.0237      1.00000
     21       2.6573      1.00000
     22       2.7562      1.00000
     23       2.7777      1.00000
     24       2.8325      1.00000
     25       2.8724      1.00000
     26       2.8931      1.00000
     27       3.0459      1.00000
     28       3.0559      1.00000
     29       3.1636      1.00000
     30       8.6474      0.00000
     31      10.1540      0.00000
     32      10.1893      0.00000
     33      10.4811      0.00000
     34      10.5683      0.00000
     35      10.7325      0.00000
     36      10.9845      0.00000
     37      11.6687      0.00000
     38      11.7748      0.00000
     39      11.9234      0.00000
     40      12.0095      0.00000
     41      12.1425      0.00000
     42      12.7130      0.00000
     43      15.2775      0.00000
     44      15.3796      0.00000
     45      15.5502      0.00000
     46      15.5641      0.00000
     47      17.9657      0.00000
     48      18.0449      0.00000

 k-point     2 :       0.5000    0.0000    0.0000
  band No.  band energies     occupation 
      1     -14.5020      1.00000
      2     -13.0905      1.00000
      3     -12.8825      1.00000
      4     -12.5065      1.00000
      5     -12.3637      1.00000
      6     -12.3393      1.00000
      7     -12.3285      1.00000
      8      -1.2361      1.00000
      9      -1.1987      1.00000
     10      -0.8835      1.00000
     11      -0.4990      1.00000
     12      -0.3008      1.00000
     13       0.2392      1.00000
     14       0.3442      1.00000
     15       0.6044      1.00000
     16       0.8652      1.00000
     17       1.2466      1.00000
     18       1.3197      1.00000
     19       1.4560      1.00000
     20       1.6242      1.00000
     21       1.7010      1.00000
     22       1.7634      1.00000
     23       2.2095      1.00000
     24       2.5781      1.00000
     25       2.8135      1.00000
     26       2.8358      1.00000
     27       2.8790      1.00000
     28       2.9437      1.00000
     29       4.9134      1.00000
     30       7.5187      1.00000
     31       9.4500      0.00000
     32       9.6446      0.00000
     33      10.6420      0.00000
     34      11.1358      0.00000
     35      12.1865      0.00000
     36      12.2637      0.00000
     37      12.4632      0.00000
     38      12.5802      0.00000
     39      13.5269      0.00000
     40      13.8023      0.00000
     41      14.0437      0.00000
     42      14.2593      0.00000
     43      14.3647      0.00000
     44      14.5478      0.00000
     45      14.7384      0.00000
     46      15.4037      0.00000
     47      15.9077      0.00000
     48      16.2859      0.00000

 k-point     3 :       0.0000    0.5000    0.0000
  band No.  band energies     occupation 
      1     -14.5019      1.00000
      2     -13.0905      1.00000
      3     -12.8828      1.00000
      4     -12.5063      1.00000
      5     -12.3653      1.00000
      6     -12.3391      1.00000
      7     -12.3270      1.00000
      8      -1.2361      1.00000
      9      -1.1986      1.00000
     10      -0.8792      1.00000
     11      -0.4983      1.00000
     12      -0.3007      1.00000
     13       0.2326      1.00000
     14       0.3426      1.00000
     15       0.6058      1.00000
     16       0.8639      1.00000
     17       1.2454      1.00000
     18       1.3201      1.00000
     19       1.4564      1.00000
     20       1.6242      1.00000
     21       1.7049      1.00000
     22       1.7628      1.00000
     23       2.2109      1.00000
     24       2.5737      1.00000
     25       2.8101      1.00000
     26       2.8368      1.00000
     27       2.8827      1.00000
     28       2.9439      1.00000
     29       4.9169      1.00000
     30       7.5117      1.00000
     31       9.4533      0.00000
     32       9.6514      0.00000
     33      10.6401      0.00000
     34      11.1331      0.00000
     35      12.1809      0.00000
     36      12.2684      0.00000
     37      12.4611      0.00000
     38      12.5792      0.00000
     39      13.5321      0.00000
     40      13.7991      0.00000
     41      14.0377      0.00000
     42      14.2663      0.00000
     43      14.3684      0.00000
     44      14.5510      0.00000
     45      14.7482      0.00000
     46      15.4045      0.00000
     47      15.9024      0.00000
     48      16.2722      0.00000

 k-point     4 :       0.5000    0.5000    0.0000
  band No.  band energies     occupation 
      1     -14.4793      1.00000
      2     -12.9746      1.00000
      3     -12.8528      1.00000
      4     -12.6345      1.00000
      5     -12.5202      1.00000
      6     -12.4200      1.00000
      7     -12.1687      1.00000
      8      -1.0376      1.00000
      9      -0.8665      1.00000
     10      -0.7895      1.00000
     11      -0.3711      1.00000
     12       0.1261      1.00000
     13       0.2703      1.00000
     14       0.4059      1.00000
     15       0.5707      1.00000
     16       0.8510      1.00000
     17       1.0555      1.00000
     18       1.0779      1.00000
     19       1.4110      1.00000
     20       1.4534      1.00000
     21       1.5468      1.00000
     22       1.6501      1.00000
     23       1.8673      1.00000
     24       2.0437      1.00000
     25       2.7196      1.00000
     26       2.7590      1.00000
     27       2.7882      1.00000
     28       2.9398      1.00000
     29       5.5806      1.00000
     30       7.3583      1.00000
     31       8.8367      0.00000
     32       9.3090      0.00000
     33      11.2116      0.00000
     34      11.9853      0.00000
     35      12.0738      0.00000
     36      12.8238      0.00000
     37      12.8493      0.00000
     38      13.5730      0.00000
     39      13.8155      0.00000
     40      14.0293      0.00000
     41      14.0503      0.00000
     42      14.2113      0.00000
     43      14.5378      0.00000
     44      14.5728      0.00000
     45      14.5831      0.00000
     46      14.9701      0.00000
     47      15.5653      0.00000
     48      16.1914      0.00000

 k-point     5 :       0.0000    0.0000    0.5000
  band No.  band energies     occupation 
      1     -14.5013      1.00000
      2     -13.0824      1.00000
      3     -12.8940      1.00000
      4     -12.5033      1.00000
      5     -12.4058      1.00000
      6     -12.3276      1.00000
      7     -12.2985      1.00000
      8      -1.2991      1.00000
      9      -1.2047      1.00000
     10      -0.7459      1.00000
     11      -0.4384      1.00000
     12      -0.3591      1.00000
     13       0.1598      1.00000
     14       0.3288      1.00000
     15       0.6374      1.00000
     16       0.7598      1.00000
     17       1.2517      1.00000
     18       1.3693      1.00000
     19       1.5694      1.00000
     20       1.6183      1.00000
     21       1.7100      1.00000
     22       1.7286      1.00000
     23       2.2342      1.00000
     24       2.4163      1.00000
     25       2.8071      1.00000
     26       2.8300      1.00000
     27       2.9510      1.00000
     28       2.9669      1.00000
     29       4.9973      1.00000
     30       7.3630      1.00000
     31       9.4663      0.00000
     32      10.0087      0.00000
     33      10.4599      0.00000
     34      11.0894      0.00000
     35      11.9348      0.00000
     36      12.1734      0.00000
     37      12.3649      0.00000
     38      12.4760      0.00000
     39      13.6072      0.00000
     40      13.9489      0.00000
     41      14.0269      0.00000
     42      14.1737      0.00000
     43      14.8021      0.00000
     44      14.9416      0.00000
     45      15.0489      0.00000
     46      15.2972      0.00000
     47      15.6632      0.00000
     48      16.0323      0.00000

 k-point     6 :       0.5000    0.0000    0.5000
  band No.  band energies     occupation 
      1     -14.4765      1.00000
      2     -13.1021      1.00000
      3     -12.7109      1.00000
      4     -12.5806      1.00000
      5     -12.4912      1.00000
      6     -12.4637      1.00000
      7     -12.2239      1.00000
      8      -1.0325      1.00000
      9      -0.8819      1.00000
     10      -0.8644      1.00000
     11      -0.3467      1.00000
     12       0.0412      1.00000
     13       0.1596      1.00000
     14       0.4433      1.00000
     15       0.4586      1.00000
     16       1.0585      1.00000
     17       1.1382      1.00000
     18       1.2941      1.00000
     19       1.3869      1.00000
     20       1.4787      1.00000
     21       1.5243      1.00000
     22       1.6248      1.00000
     23       1.9987      1.00000
     24       2.0258      1.00000
     25       2.6351      1.00000
     26       2.7115      1.00000
     27       2.7643      1.00000
     28       2.8914      1.00000
     29       5.3780      1.00000
     30       7.7876      0.00137
     31       8.8080      0.00000
     32       9.0547      0.00000
     33      11.2192      0.00000
     34      12.0569      0.00000
     35      12.1915      0.00000
     36      12.8840      0.00000
     37      13.0264      0.00000
     38      13.4887      0.00000
     39      13.5922      0.00000
     40      13.8375      0.00000
     41      13.9072      0.00000
     42      14.2113      0.00000
     43      14.5426      0.00000
     44      14.6270      0.00000
     45      14.6383      0.00000
     46      14.9940      0.00000
     47      15.3449      0.00000
     48      16.3084      0.00000

 k-point     7 :       0.0000    0.5000    0.5000
  band No.  band energies     occupation 
      1     -14.4780      1.00000
      2     -13.0540      1.00000
      3     -12.7795      1.00000
      4     -12.5787      1.00000
      5     -12.4931      1.00000
      6     -12.4750      1.00000
      7     -12.1912      1.00000
      8      -1.0413      1.00000
      9      -0.8870      1.00000
     10      -0.8134      1.00000
     11      -0.3570      1.00000
     12       0.0833      1.00000
     13       0.2048      1.00000
     14       0.4522      1.00000
     15       0.4857      1.00000
     16       0.9805      1.00000
     17       1.0679      1.00000
     18       1.1813      1.00000
     19       1.4387      1.00000
     20       1.4951      1.00000
     21       1.5381      1.00000
     22       1.6007      1.00000
     23       1.9249      1.00000
     24       2.0216      1.00000
     25       2.6601      1.00000
     26       2.7639      1.00000
     27       2.7722      1.00000
     28       2.9147      1.00000
     29       5.4905      1.00000
     30       7.5223      1.00000
     31       8.7673      0.00000
     32       9.3051      0.00000
     33      11.2214      0.00000
     34      12.0577      0.00000
     35      12.0917      0.00000
     36      12.8245      0.00000
     37      12.9805      0.00000
     38      13.5426      0.00000
     39      13.7153      0.00000
     40      13.8059      0.00000
     41      13.9001      0.00000
     42      14.1318      0.00000
     43      14.5817      0.00000
     44      14.6425      0.00000
     45      14.8082      0.00000
     46      15.0115      0.00000
     47      15.3972      0.00000
     48      16.1802      0.00000

 k-point     8 :       0.5000    0.5000    0.5000
  band No.  band energies     occupation 
      1     -14.5014      1.00000
      2     -13.0819      1.00000
      3     -12.8946      1.00000
      4     -12.5023      1.00000
      5     -12.4080      1.00000
      6     -12.3270      1.00000
      7     -12.2977      1.00000
      8      -1.2997      1.00000
      9      -1.2057      1.00000
     10      -0.7479      1.00000
     11      -0.4382      1.00000
     12      -0.3592      1.00000
     13       0.1629      1.00000
     14       0.3305      1.00000
     15       0.6361      1.00000
     16       0.7587      1.00000
     17       1.2518      1.00000
     18       1.3675      1.00000
     19       1.5680      1.00000
     20       1.6196      1.00000
     21       1.7135      1.00000
     22       1.7273      1.00000
     23       2.2330      1.00000
     24       2.4198      1.00000
     25       2.8090      1.00000
     26       2.8308      1.00000
     27       2.9505      1.00000
     28       2.9654      1.00000
     29       4.9966      1.00000
     30       7.3609      1.00000
     31       9.4699      0.00000
     32      10.0089      0.00000
     33      10.4589      0.00000
     34      11.0896      0.00000
     35      11.9300      0.00000
     36      12.1713      0.00000
     37      12.3630      0.00000
     38      12.4740      0.00000
     39      13.6089      0.00000
     40      13.9453      0.00000
     41      14.0257      0.00000
     42      14.1794      0.00000
     43      14.7999      0.00000
     44      14.9344      0.00000
     45      15.0545      0.00000
     46      15.3008      0.00000
     47      15.6664      0.00000
     48      16.0336      0.00000

 spin component 2

 k-point     1 :       0.0000    0.0000    0.0000
  band No.  band energies     occupation 
      1     -14.5770      1.00000
      2     -13.2592      1.00000
      3     -12.5984      1.00000
      4     -12.5026      1.00000
      5     -12.4160      1.00000
      6     -12.2624      1.00000
      7     -12.2033      1.00000
      8      -1.6821      1.00000
      9      -1.6119      1.00000
     10      -1.6108      1.00000
     11      -0.9768      1.00000
     12      -0.3448      1.00000
     13      -0.1854      1.00000
     14      -0.1422      1.00000
     15       1.3172      1.00000
     16       1.3650      1.00000
     17       1.4201      1.00000
     18       1.9396      1.00000
     19       2.0079      1.00000
     20       2.0355      1.00000
     21       2.6714      1.00000
     22       2.7856      1.00000
     23       2.8362      1.00000
     24       2.8888      1.00000
     25       2.9029      1.00000
     26       2.9082      1.00000
     27       3.0640      1.00000
     28       3.0686      1.00000
     29       3.3311      1.00000
     30       8.6664      0.00000
     31      10.4518      0.00000
     32      10.4808      0.00000
     33      10.5860      0.00000
     34      10.6932      0.00000
     35      10.7991      0.00000
     36      11.1334      0.00000
     37      11.8848      0.00000
     38      11.9005      0.00000
     39      12.1263      0.00000
     40      12.1333      0.00000
     41      12.3046      0.00000
     42      12.7286      0.00000
     43      15.3018      0.00000
     44      15.3955      0.00000
     45      15.5819      0.00000
     46      15.6196      0.00000
     47      18.0983      0.00000
     48      18.1754      0.00000

 k-point     2 :       0.5000    0.0000    0.0000
  band No.  band energies     occupation 
      1     -14.4975      1.00000
      2     -13.0765      1.00000
      3     -12.8695      1.00000
      4     -12.4949      1.00000
      5     -12.3530      1.00000
      6     -12.3295      1.00000
      7     -12.3189      1.00000
      8      -1.2294      1.00000
      9      -1.1896      1.00000
     10      -0.7817      1.00000
     11      -0.4896      1.00000
     12      -0.2876      1.00000
     13       0.2922      1.00000
     14       0.3991      1.00000
     15       0.6567      1.00000
     16       0.8847      1.00000
     17       1.2593      1.00000
     18       1.3356      1.00000
     19       1.4898      1.00000
     20       1.6412      1.00000
     21       1.7201      1.00000
     22       1.7769      1.00000
     23       2.2223      1.00000
     24       2.5842      1.00000
     25       2.8315      1.00000
     26       2.8458      1.00000
     27       2.8939      1.00000
     28       2.9529      1.00000
     29       5.1101      1.00000
     30       7.8437      0.00000
     31       9.6881      0.00000
     32       9.8982      0.00000
     33      10.6986      0.00000
     34      11.1614      0.00000
     35      12.2973      0.00000
     36      12.4043      0.00000
     37      12.5956      0.00000
     38      12.6015      0.00000
     39      13.5771      0.00000
     40      13.9776      0.00000
     41      14.1747      0.00000
     42      14.3294      0.00000
     43      14.4715      0.00000
     44      14.6569      0.00000
     45      14.8968      0.00000
     46      15.5183      0.00000
     47      15.9641      0.00000
     48      16.3560      0.00000

 k-point     3 :       0.0000    0.5000    0.0000
  band No.  band energies     occupation 
      1     -14.4974      1.00000
      2     -13.0765      1.00000
      3     -12.8698      1.00000
      4     -12.4948      1.00000
      5     -12.3546      1.00000
      6     -12.3293      1.00000
      7     -12.3173      1.00000
      8      -1.2294      1.00000
      9      -1.1895      1.00000
     10      -0.7771      1.00000
     11      -0.4888      1.00000
     12      -0.2874      1.00000
     13       0.2853      1.00000
     14       0.3973      1.00000
     15       0.6579      1.00000
     16       0.8836      1.00000
     17       1.2581      1.00000
     18       1.3360      1.00000
     19       1.4902      1.00000
     20       1.6410      1.00000
     21       1.7243      1.00000
     22       1.7763      1.00000
     23       2.2237      1.00000
     24       2.5798      1.00000
     25       2.8281      1.00000
     26       2.8468      1.00000
     27       2.8976      1.00000
     28       2.9531      1.00000
     29       5.1125      1.00000
     30       7.8395      0.00000
     31       9.6877      0.00000
     32       9.9066      0.00000
     33      10.6969      0.00000
     34      11.1596      0.00000
     35      12.2921      0.00000
     36      12.4094      0.00000
     37      12.5909      0.00000
     38      12.5995      0.00000
     39      13.5823      0.00000
     40      13.9748      0.00000
     41      14.1701      0.00000
     42      14.3374      0.00000
     43      14.4748      0.00000
     44      14.6605      0.00000
     45      14.9065      0.00000
     46      15.5182      0.00000
     47      15.9592      0.00000
     48      16.3449      0.00000

 k-point     4 :       0.5000    0.5000    0.0000
  band No.  band energies     occupation 
      1     -14.4752      1.00000
      2     -12.9614      1.00000
      3     -12.8385      1.00000
      4     -12.6239      1.00000
      5     -12.5095      1.00000
      6     -12.4087      1.00000
      7     -12.1595      1.00000
      8      -1.0110      1.00000
      9      -0.8561      1.00000
     10      -0.6885      1.00000
     11      -0.3662      1.00000
     12       0.1435      1.00000
     13       0.2997      1.00000
     14       0.4358      1.00000
     15       0.5918      1.00000
     16       0.9102      1.00000
     17       1.0894      1.00000
     18       1.0986      1.00000
     19       1.4325      1.00000
     20       1.4689      1.00000
     21       1.5616      1.00000
     22       1.6811      1.00000
     23       1.8770      1.00000
     24       2.0547      1.00000
     25       2.7289      1.00000
     26       2.7693      1.00000
     27       2.8085      1.00000
     28       2.9552      1.00000
     29       5.7453      1.00000
     30       7.7350      0.06613
     31       9.0875      0.00000
     32       9.5496      0.00000
     33      11.2385      0.00000
     34      12.0335      0.00000
     35      12.1243      0.00000
     36      12.8880      0.00000
     37      12.9083      0.00000
     38      13.6141      0.00000
     39      13.9437      0.00000
     40      14.1088      0.00000
     41      14.1791      0.00000
     42      14.2419      0.00000
     43      14.6997      0.00000
     44      14.7531      0.00000
     45      14.8835      0.00000
     46      15.1253      0.00000
     47      15.5970      0.00000
     48      16.2616      0.00000

 k-point     5 :       0.0000    0.0000    0.5000
  band No.  band energies     occupation 
      1     -14.4970      1.00000
      2     -13.0672      1.00000
      3     -12.8828      1.00000
      4     -12.4919      1.00000
      5     -12.3954      1.00000
      6     -12.3166      1.00000
      7     -12.2886      1.00000
      8      -1.2941      1.00000
      9      -1.1969      1.00000
     10      -0.6651      1.00000
     11      -0.4225      1.00000
     12      -0.3398      1.00000
     13       0.2142      1.00000
     14       0.3996      1.00000
     15       0.6891      1.00000
     16       0.7830      1.00000
     17       1.2667      1.00000
     18       1.3870      1.00000
     19       1.5788      1.00000
     20       1.6347      1.00000
     21       1.7261      1.00000
     22       1.7556      1.00000
     23       2.2472      1.00000
     24       2.4264      1.00000
     25       2.8240      1.00000
     26       2.8487      1.00000
     27       2.9685      1.00000
     28       2.9788      1.00000
     29       5.2028      1.00000
     30       7.6175      0.96546
     31       9.7546      0.00000
     32      10.2555      0.00000
     33      10.4964      0.00000
     34      11.1329      0.00000
     35      12.1089      0.00000
     36      12.2438      0.00000
     37      12.4257      0.00000
     38      12.6049      0.00000
     39      13.6721      0.00000
     40      14.0961      0.00000
     41      14.1932      0.00000
     42      14.3059      0.00000
     43      14.8709      0.00000
     44      15.0431      0.00000
     45      15.1818      0.00000
     46      15.3663      0.00000
     47      15.7268      0.00000
     48      16.0941      0.00000

 k-point     6 :       0.5000    0.0000    0.5000
  band No.  band energies     occupation 
      1     -14.4724      1.00000
      2     -13.0887      1.00000
      3     -12.6987      1.00000
      4     -12.5683      1.00000
      5     -12.4811      1.00000
      6     -12.4527      1.00000
      7     -12.2133      1.00000
      8      -0.9758      1.00000
      9      -0.8739      1.00000
     10      -0.8281      1.00000
     11      -0.3355      1.00000
     12       0.0621      1.00000
     13       0.1998      1.00000
     14       0.4619      1.00000
     15       0.4766      1.00000
     16       1.1070      1.00000
     17       1.2023      1.00000
     18       1.3274      1.00000
     19       1.4197      1.00000
     20       1.5036      1.00000
     21       1.5476      1.00000
     22       1.6409      1.00000
     23       2.0114      1.00000
     24       2.0388      1.00000
     25       2.6480      1.00000
     26       2.7251      1.00000
     27       2.7738      1.00000
     28       2.9092      1.00000
     29       5.5937      1.00000
     30       7.9398      0.00000
     31       9.1286      0.00000
     32       9.3558      0.00000
     33      11.2309      0.00000
     34      12.1496      0.00000
     35      12.2185      0.00000
     36      12.9631      0.00000
     37      13.0732      0.00000
     38      13.6608      0.00000
     39      13.6686      0.00000
     40      13.8821      0.00000
     41      14.1402      0.00000
     42      14.2893      0.00000
     43      14.6616      0.00000
     44      14.8037      0.00000
     45      14.8177      0.00000
     46      15.0998      0.00000
     47      15.4176      0.00000
     48      16.3481      0.00000

 k-point     7 :       0.0000    0.5000    0.5000
  band No.  band energies     occupation 
      1     -14.4738      1.00000
      2     -13.0396      1.00000
      3     -12.7679      1.00000
      4     -12.5670      1.00000
      5     -12.4824      1.00000
      6     -12.4631      1.00000
      7     -12.1822      1.00000
      8      -0.9945      1.00000
      9      -0.8792      1.00000
[...]
     15       0.5066      1.00000
     16       1.0173      1.00000
     17       1.1240      1.00000
     18       1.2020      1.00000
     19       1.4671      1.00000
     20       1.5217      1.00000
     21       1.5565      1.00000
     22       1.6232      1.00000
     23       1.9357      1.00000
     24       2.0322      1.00000
     25       2.6724      1.00000
     26       2.7784      1.00000
     27       2.7809      1.00000
     28       2.9290      1.00000
     29       5.6677      1.00000
     30       7.8547      0.00000
     31       9.1208      0.00000
     32       9.4680      0.00000
     33      11.2384      0.00000
     34      12.1182      0.00000
     35      12.1460      0.00000
     36      12.9013      0.00000
     37      13.0158      0.00000
     38      13.6020      0.00000
     39      13.8370      0.00000
     40      13.9487      0.00000
     41      13.9519      0.00000
     42      14.2322      0.00000
     43      14.7696      0.00000
     44      14.8332      0.00000
     45      15.0271      0.00000
     46      15.1275      0.00000
     47      15.4668      0.00000
     48      16.2799      0.00000

 k-point     8 :       0.5000    0.5000    0.5000
  band No.  band energies     occupation 
      1     -14.4971      1.00000
      2     -13.0667      1.00000
      3     -12.8833      1.00000
      4     -12.4909      1.00000
      5     -12.3976      1.00000
      6     -12.3160      1.00000
      7     -12.2879      1.00000
      8      -1.2947      1.00000
      9      -1.1979      1.00000
     10      -0.6668      1.00000
     11      -0.4225      1.00000
     12      -0.3397      1.00000
     13       0.2174      1.00000
     14       0.4007      1.00000
     15       0.6878      1.00000
     16       0.7821      1.00000
     17       1.2666      1.00000
     18       1.3852      1.00000
     19       1.5776      1.00000
     20       1.6360      1.00000
     21       1.7292      1.00000
     22       1.7547      1.00000
     23       2.2461      1.00000
     24       2.4298      1.00000
     25       2.8258      1.00000
     26       2.8494      1.00000
     27       2.9684      1.00000
     28       2.9770      1.00000
     29       5.2018      1.00000
     30       7.6167      0.96703
     31       9.7557      0.00000
     32      10.2572      0.00000
     33      10.4952      0.00000
     34      11.1334      0.00000
     35      12.1044      0.00000
     36      12.2404      0.00000
     37      12.4237      0.00000
     38      12.6039      0.00000
     39      13.6742      0.00000
     40      14.0937      0.00000
     41      14.1916      0.00000
     42      14.3112      0.00000
     43      14.8687      0.00000
     44      15.0346      0.00000
     45      15.1869      0.00000
     46      15.3700      0.00000
     47      15.7312      0.00000
     48      16.0956      0.00000


--------------------------------------------------------------------------------------------------------


 soft charge-density along one line, spin component           1
         0         1         2         3         4         5         6         7         8         9
 total charge-density along one line
 
 soft charge-density along one line, spin component           2
         0         1         2         3         4         5         6         7         8         9
 total charge-density along one line
 
 pseudopotential strength for first ion, spin component:           1
  3.007   9.555  -0.005  -0.000   0.003  -0.018  -0.000   0.010
  9.555  30.206  -0.031  -0.000   0.018  -0.069  -0.001   0.042
 -0.005  -0.031   7.415  -0.000   0.006  10.740  -0.000   0.011
 -0.000  -0.000  -0.000   7.410   0.000  -0.000  10.734   0.000
  0.003   0.018   0.006   0.000   7.412   0.011   0.000  10.736
 -0.018  -0.069  10.740  -0.000   0.011  14.777  -0.000   0.018
 -0.000  -0.001  -0.000  10.734   0.000  -0.000  14.770   0.000
  0.010   0.042   0.011   0.000  10.736   0.018   0.000  14.772
  0.005   0.013   0.013   0.000  -0.022   0.014   0.000  -0.024
 -0.000  -0.000  -0.000  -0.023   0.000  -0.000  -0.025   0.000
 -0.001  -0.001   0.017  -0.000  -0.010   0.019  -0.000  -0.012
  0.000   0.000   0.000   0.014  -0.000   0.000   0.015  -0.000
 -0.001  -0.002   0.031   0.000   0.019   0.034   0.000   0.021
 pseudopotential strength for first ion, spin component:           2
  3.006   9.546  -0.005  -0.000   0.002  -0.017  -0.000   0.009
  9.546  30.172  -0.030  -0.000   0.015  -0.069  -0.001   0.035
 -0.005  -0.030   7.414  -0.000   0.006  10.734  -0.000   0.011
 -0.000  -0.000  -0.000   7.412   0.000  -0.000  10.729   0.000
  0.002   0.015   0.006   0.000   7.413   0.011   0.000  10.731
 -0.017  -0.069  10.734  -0.000   0.011  14.762  -0.000   0.017
 -0.000  -0.001  -0.000  10.729   0.000  -0.000  14.754   0.000
  0.009   0.035   0.011   0.000  10.731   0.017   0.000  14.757
  0.005   0.013   0.011   0.000  -0.022   0.011   0.000  -0.023
 -0.000  -0.000  -0.000  -0.022   0.000  -0.000  -0.024   0.000
 -0.001  -0.003   0.017  -0.000  -0.010   0.018  -0.000  -0.010
  0.000   0.000   0.000   0.012  -0.000   0.000   0.012  -0.000
 -0.001  -0.002   0.030   0.000   0.018   0.033   0.000   0.018
 total augmentation occupancy for first ion, spin component:           1
  2.296  -0.041   0.189   0.002  -0.112  -0.026  -0.000   0.015  -0.007   0.000  -0.018   0.000  -0.009
 -0.041   0.001   0.000  -0.000  -0.000   0.000  -0.000  -0.000   0.001  -0.000   0.000   0.000   0.000
  0.189   0.000   0.133   0.000  -0.013  -0.010  -0.000   0.003   0.009   0.000   0.002   0.000  -0.003
  0.002  -0.000   0.000   0.116  -0.000  -0.000  -0.007   0.000  -0.000   0.004  -0.000  -0.004   0.000
 -0.112  -0.000  -0.013  -0.000   0.135   0.003   0.000  -0.009  -0.003  -0.000  -0.003   0.000  -0.001
 -0.026   0.000  -0.010  -0.000   0.003   0.001   0.000  -0.000  -0.001  -0.000  -0.000   0.000   0.000
 -0.000  -0.000  -0.000  -0.007   0.000   0.000   0.000  -0.000   0.000   0.000   0.000   0.000   0.000
  0.015  -0.000   0.003   0.000  -0.009  -0.000  -0.000   0.001   0.001   0.000   0.000   0.000  -0.000
 -0.007   0.001   0.009  -0.000  -0.003  -0.001   0.000   0.001   0.014   0.000   0.006  -0.000  -0.001
  0.000  -0.000   0.000   0.004  -0.000  -0.000   0.000   0.000   0.000   0.011   0.000   0.000  -0.000
 -0.018   0.000   0.002  -0.000  -0.003  -0.000   0.000   0.000   0.006   0.000   0.009  -0.000  -0.001
  0.000   0.000   0.000  -0.004   0.000   0.000   0.000   0.000  -0.000   0.000  -0.000   0.009  -0.000
 -0.009   0.000  -0.003   0.000  -0.001   0.000   0.000  -0.000  -0.001  -0.000  -0.001  -0.000   0.007
 total augmentation occupancy for first ion, spin component:           2
  0.093  -0.003  -0.007  -0.001   0.048  -0.001   0.000  -0.002   0.015  -0.000   0.009   0.000   0.002
 -0.003   0.000  -0.001  -0.000   0.001   0.000   0.000  -0.000   0.000  -0.000   0.000   0.000  -0.000
 -0.007  -0.001   0.008  -0.000   0.002  -0.001   0.000  -0.000  -0.001  -0.000   0.000   0.000   0.000
 -0.001  -0.000  -0.000   0.042   0.000   0.000  -0.002  -0.000   0.000   0.007   0.000  -0.004   0.000
  0.048   0.001   0.002   0.000   0.027  -0.000  -0.000  -0.001   0.007   0.000   0.001   0.000  -0.001
 -0.001   0.000  -0.001   0.000  -0.000   0.000  -0.000   0.000  -0.000   0.000  -0.000  -0.000  -0.000
  0.000   0.000   0.000  -0.002  -0.000  -0.000   0.000   0.000  -0.000  -0.000  -0.000   0.000  -0.000
 -0.002  -0.000  -0.000  -0.000  -0.001   0.000   0.000   0.000  -0.000  -0.000   0.000  -0.000   0.000
  0.015   0.000  -0.001   0.000   0.007  -0.000  -0.000  -0.000   0.002   0.000   0.001   0.000  -0.000
 -0.000  -0.000  -0.000   0.007   0.000   0.000  -0.000  -0.000   0.000   0.001   0.000  -0.001   0.000
  0.009   0.000   0.000   0.000   0.001  -0.000  -0.000   0.000   0.001   0.000   0.000  -0.000  -0.000
  0.000   0.000   0.000  -0.004   0.000  -0.000   0.000  -0.000   0.000  -0.001  -0.000   0.001  -0.000
  0.002  -0.000   0.000   0.000  -0.001  -0.000  -0.000   0.000  -0.000   0.000  -0.000  -0.000   0.000


------------------------ aborting loop because EDIFF is reached ----------------------------------------


 


 total charge     
 
# of ion     s       p       d       tot
----------------------------------------
  1        0.381   0.210   0.028   0.619
  2        0.139   0.165   0.071   0.375
  3        0.177   0.193   0.077   0.447
  4        0.194   0.230   0.102   0.526
  5        0.190   0.219   0.094   0.502
  6        0.169   0.174   0.064   0.407
  7        0.161   0.167   0.060   0.388
  8        0.177   0.192   0.077   0.445
  9        0.139   0.165   0.071   0.375
 10        1.583   3.522   0.000   5.105
 11        1.582   3.509   0.000   5.091
 12        1.580   3.513   0.000   5.093
 13        1.580   3.513   0.000   5.093
 14        1.582   3.509   0.000   5.091
 15        1.576   3.516   0.000   5.092
 16        1.576   3.658   0.000   5.234
------------------------------------------------
tot       12.786  26.455   0.643  39.883
 


 magnetization (x)
 
# of ion     s       p       d       tot
----------------------------------------
  1        0.014   0.044   0.003   0.061
  2        0.000   0.000   0.000   0.001
  3        0.012   0.008   0.002   0.022
  4        0.002   0.002   0.001   0.004
  5        0.009   0.008   0.002   0.019
  6        0.011   0.006   0.001   0.018
  7        0.002   0.004   0.002   0.007
  8        0.012   0.008   0.002   0.022
  9        0.000   0.000   0.000   0.001
 10        0.002   0.003   0.000   0.005
 11        0.007  -0.004   0.000   0.003
 12        0.005   0.000   0.000   0.005
 13        0.005   0.000   0.000   0.005
 14        0.007  -0.004   0.000   0.003
 15        0.007  -0.003   0.000   0.004
 16        0.001   0.002   0.000   0.002
------------------------------------------------
tot        0.095   0.075   0.013   0.183
 
    CHARGE:  cpu time    0.0200: real time    0.0208
    FORLOC:  cpu time    0.0040: real time    0.0015
    FORNL :  cpu time    0.1400: real time    0.1418
    STRESS:  cpu time    0.4280: real time    0.4243
    FORCOR:  cpu time    0.0200: real time    0.0213
    FORHAR:  cpu time    0.0040: real time    0.0030
    MIXING:  cpu time    0.0000: real time    0.0009
    OFIELD:  cpu time    0.0000: real time    0.0000

  FORCE on cell =-STRESS in cart. coord.  units (eV):
  Direction    XX          YY          ZZ          XY          YZ          ZX
  --------------------------------------------------------------------------------------
  Alpha Z   142.81397   142.81397   142.81397
  Ewald    -822.89474  -819.47456  -828.57967    -1.01104    -0.09999    -0.01344
  Hartree   364.58060   360.25227   368.51074     2.15095    -0.07891     0.03154
  E(xc)    -264.36315  -264.40996  -264.24089     0.01138    -0.00163    -0.00132
  Local    -358.57326  -355.32782  -358.58998     1.39314     0.14467     0.02628
  n-local  -106.58380  -106.05744  -107.51880    -0.27509     0.01511     0.00188
  augment    47.22005    47.12090    47.28711     0.05776     0.00086     0.00165
  Kinetic  1007.36999  1005.59599  1008.25236     1.62713     0.00381     0.04262
  Fock        0.00000     0.00000     0.00000     0.00000     0.00000     0.00000
  -------------------------------------------------------------------------------------
  Total       9.56966    10.51334     7.93484     3.95423    -0.01608     0.08920
  in kB     100.08368   109.95309    82.98602    41.35504    -0.16819     0.93293
  external pressure =       97.67 kB  Pullay stress =        0.00 kB


 VOLUME and BASIS-vectors are now :
 -----------------------------------------------------------------------------
  energy-cutoff  :      400.00
  volume of cell :      153.19
      direct lattice vectors                 reciprocal lattice vectors
     0.000000000  4.246893000  4.246893000    -0.117733129  0.117733129  0.117733129
     4.246893000  0.000000000  4.246893000     0.117733129 -0.117733129  0.117733129
     4.246893000  4.246893000  0.000000000     0.117733129  0.117733129 -0.117733129

  length of vectors
     6.006013679  6.006013679  6.006013679     0.203919761  0.203919761  0.203919761


 FORCES acting on ions
    electron-ion (+dipol)            ewald-force                    non-local-force                 convergence-correction
 -----------------------------------------------------------------------------------------------
   0.138E+02 -.182E+02 -.210E+00   -.163E+02 0.227E+02 0.257E+00   0.249E+01 -.445E+01 -.457E-01   0.164E-03 -.396E-04 -.484E-06
   -.137E+01 0.172E+01 0.136E+01   0.133E+01 -.170E+01 -.114E+01   0.416E-01 -.352E-01 -.233E+00   -.243E-04 0.305E-04 -.383E-03
   0.101E+01 -.191E+01 -.271E+02   -.111E+01 0.199E+01 0.277E+02   0.105E+00 -.854E-01 -.580E+00   0.440E-04 -.407E-04 -.229E-03
   0.353E+00 -.197E+02 -.184E-02   -.546E+00 0.184E+02 0.552E-03   0.192E+00 0.136E+01 0.623E-02   0.422E-03 -.301E-03 -.657E-05
   0.223E+02 -.493E+00 -.344E-01   -.219E+02 0.814E+00 0.363E-01   -.429E+00 -.339E+00 -.323E-03   0.212E-03 -.432E-03 -.418E-05
   -.309E+02 -.677E+01 0.411E-01   0.320E+02 0.614E+01 -.368E-01   -.112E+01 0.645E+00 -.157E-01   -.253E-03 0.351E-03 0.396E-05
   0.566E+01 0.331E+02 0.211E+00   -.502E+01 -.341E+02 -.189E+00   -.598E+00 0.105E+01 -.296E-01   -.329E-03 0.213E-03 0.536E-05
   0.120E+01 -.218E+01 0.271E+02   -.127E+01 0.222E+01 -.277E+02   0.701E-01 -.373E-01 0.601E+00   0.346E-04 -.268E-04 0.228E-03
   -.137E+01 0.167E+01 -.131E+01   0.133E+01 -.165E+01 0.110E+01   0.349E-01 -.232E-01 0.221E+00   -.363E-04 0.392E-04 0.383E-03
   0.148E+02 -.942E+01 0.954E-02   -.171E+02 0.115E+02 -.113E-02   0.238E+01 -.206E+01 -.603E-02   -.101E-03 0.351E-03 0.166E-05
   -.893E+00 -.456E+01 -.117E+02   0.712E-01 0.490E+01 0.129E+02   0.832E+00 -.351E+00 -.119E+01   -.210E-03 -.110E-03 0.171E-03
   0.356E+01 0.597E+00 -.174E+02   -.380E+01 0.231E+00 0.195E+02   0.244E+00 -.821E+00 -.207E+01   -.264E-04 0.142E-03 0.122E-03
   0.372E+01 0.106E+01 0.173E+02   -.398E+01 -.270E+00 -.194E+02   0.259E+00 -.775E+00 0.209E+01   -.256E-04 0.929E-04 -.121E-03
   -.118E+01 -.449E+01 0.116E+02   0.418E+00 0.485E+01 -.127E+02   0.772E+00 -.357E+00 0.111E+01   -.186E-03 -.100E-03 -.196E-03
   -.196E+02 0.136E+02 -.649E-01   0.227E+02 -.156E+02 0.925E-01   -.309E+01 0.204E+01 -.251E-01   0.654E-03 -.354E-03 0.149E-04
   -.888E+01 0.140E+02 0.205E+00   0.132E+02 -.203E+02 -.273E+00   -.431E+01 0.632E+01 0.682E-01   0.642E-03 -.559E-04 -.138E-04
 -----------------------------------------------------------------------------------------------
   0.210E+01 -.208E+01 0.843E-01   0.355E-14 0.711E-14 0.153E-13   -.212E+01 0.208E+01 -.927E-01   0.981E-03 -.239E-03 -.236E-04
 
 
 POSITION                                       TOTAL-FORCE (eV/Angst)
 -----------------------------------------------------------------------------------
      2.40812      1.72911      2.10573        -0.029367     -0.024067      0.001897
      4.20633      0.05835      4.24975         0.000358     -0.007650     -0.014441
      6.31979      6.43717      8.34328         0.010386     -0.003337     -0.014263
      6.31176      8.13418      6.35647         0.000775      0.018282      0.005453
      4.52406      6.45716      6.36003        -0.016531     -0.018441      0.002143
      8.45381      6.39559      6.36215        -0.020901      0.016541     -0.010835
      6.35499      4.24254      6.36184         0.034278      0.001813     -0.007283
      6.32274      6.43187      4.37001         0.001248      0.002265      0.008568
      4.20717      4.30429      4.22275         0.002160     -0.003801      0.012355
      4.29058      4.25579      2.11226         0.030574      0.020680      0.002903
      4.20380      2.17819      4.18280         0.011384     -0.002352      0.010456
      6.33239      4.31339      4.13819         0.002456      0.007413     -0.014866
      2.08738      4.31339      4.33004        -0.000391      0.015815      0.033093
      4.20033      6.42699      4.29123         0.015912     -0.006022     -0.018789
      4.07266      4.40723      6.35886        -0.038150      0.010555      0.003064
      6.43943      6.25162      6.35782        -0.004193     -0.027694      0.000544
 -----------------------------------------------------------------------------------
    total drift:                               -0.023700      0.000768     -0.008364


--------------------------------------------------------------------------------------------------------



  FREE ENERGIE OF THE ION-ELECTRON SYSTEM (eV)
  ---------------------------------------------------
  free  energy   TOTEN  =       -82.76089488 eV

  energy  without entropy=      -82.75964395  energy(sigma->0) =      -82.76026941
 


--------------------------------------------------------------------------------------------------------


    POTLOK:  cpu time    0.6960: real time    0.6969


--------------------------------------------------------------------------------------------------------




--------------------------------------------------------------------------------------------------------


  
 reached required accuracy - stopping structural energy minimisation
     LOOP+:  cpu time   18.5920: real time   18.6487
    4ORBIT:  cpu time    0.0000: real time    0.0000
 


 total charge     
 
# of ion     s       p       d       tot
----------------------------------------
  1        0.381   0.210   0.028   0.619
  2        0.139   0.165   0.071   0.375
  3        0.177   0.193   0.077   0.447
  4        0.194   0.230   0.102   0.526
  5        0.190   0.219   0.094   0.502
  6        0.169   0.174   0.064   0.407
  7        0.161   0.167   0.060   0.388
  8        0.177   0.192   0.077   0.445
  9        0.139   0.165   0.071   0.375
 10        1.583   3.522   0.000   5.105
 11        1.582   3.509   0.000   5.091
 12        1.580   3.513   0.000   5.093
 13        1.580   3.513   0.000   5.093
 14        1.582   3.509   0.000   5.091
 15        1.576   3.516   0.000   5.092
 16        1.576   3.658   0.000   5.234
------------------------------------------------
tot       12.786  26.455   0.643  39.883
 


 magnetization (x)
 
# of ion     s       p       d       tot
----------------------------------------
  1        0.014   0.044   0.003   0.061
  2        0.000   0.000   0.000   0.001
  3        0.012   0.008   0.002   0.022
  4        0.002   0.002   0.001   0.004
  5        0.009   0.008   0.002   0.019
  6        0.011   0.006   0.001   0.018
  7        0.002   0.004   0.002   0.007
  8        0.012   0.008   0.002   0.022
  9        0.000   0.000   0.000   0.001
 10        0.002   0.003   0.000   0.005
 11        0.007  -0.004   0.000   0.003
 12        0.005   0.000   0.000   0.005
 13        0.005   0.000   0.000   0.005
 14        0.007  -0.004   0.000   0.003
 15        0.007  -0.003   0.000   0.004
 16        0.001   0.002   0.000   0.002
------------------------------------------------
tot        0.095   0.075   0.013   0.183
 

 total amount of memory used by VASP on root node    36162. kBytes
========================================================================

   base      :      30000. kBytes
   nonlr-proj:       1277. kBytes
   fftplans  :        708. kBytes
   grid      :       1766. kBytes
   one-center:         64. kBytes
   wavefun   :       2347. kBytes
 
  
  
 General timing and accounting informations for this job:
 ========================================================
  
                  Total CPU time used (sec):       19.784
                            User time (sec):       19.628
                          System time (sec):        0.156
                         Elapsed time (sec):       20.030
  
                   Maximum memory used (kb):       62488.
                   Average memory used (kb):           0.
  
                          Minor page faults:        16832
                          Major page faults:            8
                 Voluntary context switches:         1540
