 vasp.5.4.1 05Feb16 (build Mar 31 2016 13:39:20) complex                        
  
 executed on           IFC91_ompi date 2018.04.12  14:19:01
 running on   36 total cores
 distrk:  each k-point on   36 cores,    1 groups
 distr:  one band on NCORES_PER_BAND=   9 cores,    4 groups


--------------------------------------------------------------------------------------------------------


 INCAR:
 POTCAR:    PAW_PBE Mg 13Apr2007                  
 POTCAR:    PAW_PBE O 08Apr2002                   
 POTCAR:    PAW_PBE Mg 13Apr2007                  
   VRHFIN =Mg: s2p0                                                             
   LEXCH  = PE                                                                  
   EATOM  =    23.0369 eV,    1.6932 Ry                                         
                                                                                
   TITEL  = PAW_PBE Mg 13Apr2007                                                
   LULTRA =        F    use ultrasoft PP ?                                      
   IUNSCR =        1    unscreen: 0-lin 1-nonlin 2-no                           
   RPACOR =    1.500    partial core radius                                     
   POMASS =   24.305; ZVAL   =    2.000    mass and valenz                      
   RCORE  =    2.000    outmost cutoff radius                                   
   RWIGS  =    2.880; RWIGS  =    1.524    wigner-seitz radius (au A)           
   ENMAX  =  126.143; ENMIN  =   94.607 eV                                      
   RCLOC  =    1.506    cutoff for local pot                                    
   LCOR   =        T    correct aug charges                                     
   LPAW   =        T    paw PP                                                  
   EAUG   =  454.734                                                            
   DEXC   =    0.000                                                            
   RMAX   =    2.045    core radius for proj-oper                               
   RAUG   =    1.300    factor for augmentation sphere                          
   RDEP   =    2.025    radius for radial grids                                 
   RDEPT  =    1.942    core radius for aug-charge                              
                                                                                
   Atomic configuration                                                         
    6 entries                                                                   
     n  l   j            E        occ.                                          
     1  0  0.50     -1259.6230   2.0000                                         
     2  0  0.50       -79.8442   2.0000                                         
     2  1  1.50       -46.6121   6.0000                                         
     3  0  0.50        -4.7055   2.0000                                         
     3  1  0.50        -1.3660   0.0000                                         
     3  2  1.50        -1.3606   0.0000                                         
   Description                                                                  
     l       E           TYP  RCUT    TYP  RCUT                                 
     0     -4.7054661     23  2.000                                             
     0     27.2116520     23  2.000                                             
     1      1.3605826     23  2.000                                             
     1     27.2116520     23  2.000                                             
     2     -1.3605826     23  2.000                                             
  local pseudopotential read in
  partial core-charges read in
  partial kinetic energy density read in
  atomic valenz-charges read in
  non local Contribution for L=           0  read in
    real space projection operators read in
  non local Contribution for L=           0  read in
    real space projection operators read in
  non local Contribution for L=           1  read in
    real space projection operators read in
  non local Contribution for L=           1  read in
    real space projection operators read in
  non local Contribution for L=           2  read in
    real space projection operators read in
    PAW grid and wavefunctions read in
 
   number of l-projection  operators is LMAX  =           5
   number of lm-projection operators is LMMAX =          13
 
 POTCAR:    PAW_PBE O 08Apr2002                   
   VRHFIN =O: s2p4                                                              
   LEXCH  = PE                                                                  
   EATOM  =   432.3788 eV,   31.7789 Ry                                         
                                                                                
   TITEL  = PAW_PBE O 08Apr2002                                                 
   LULTRA =        F    use ultrasoft PP ?                                      
   IUNSCR =        1    unscreen: 0-lin 1-nonlin 2-no                           
   RPACOR =    1.200    partial core radius                                     
   POMASS =   16.000; ZVAL   =    6.000    mass and valenz                      
   RCORE  =    1.520    outmost cutoff radius                                   
   RWIGS  =    1.550; RWIGS  =    0.820    wigner-seitz radius (au A)           
   ENMAX  =  400.000; ENMIN  =  300.000 eV                                      
   ICORE  =        2    local potential                                         
   LCOR   =        T    correct aug charges                                     
   LPAW   =        T    paw PP                                                  
   EAUG   =  605.392                                                            
   DEXC   =    0.000                                                            
   RMAX   =    1.553    core radius for proj-oper                               
   RAUG   =    1.300    factor for augmentation sphere                          
   RDEP   =    1.550    radius for radial grids                                 
   RDEPT  =    1.329    core radius for aug-charge                              
                                                                                
   Atomic configuration                                                         
    4 entries                                                                   
     n  l   j            E        occ.                                          
     1  0  0.50      -514.6923   2.0000                                         
     2  0  0.50       -23.9615   2.0000                                         
     2  1  0.50        -9.0305   4.0000                                         
     3  2  1.50        -9.5241   0.0000                                         
   Description                                                                  
     l       E           TYP  RCUT    TYP  RCUT                                 
     0    -23.9615318     23  1.200                                             
     0     -9.5240782     23  1.200                                             
     1     -9.0304911     23  1.520                                             
     1      8.1634956     23  1.520                                             
     2     -9.5240782      7  1.500                                             
  local pseudopotential read in
  partial core-charges read in
  partial kinetic energy density read in
  kinetic energy density of atom read in
  atomic valenz-charges read in
  non local Contribution for L=           0  read in
    real space projection operators read in
  non local Contribution for L=           0  read in
    real space projection operators read in
  non local Contribution for L=           1  read in
    real space projection operators read in
  non local Contribution for L=           1  read in
    real space projection operators read in
    PAW grid and wavefunctions read in
 
   number of l-projection  operators is LMAX  =           4
   number of lm-projection operators is LMMAX =           8
 
 Optimization of the real space projectors (new method)

 maximal supplied QI-value         = 18.90
 optimisation between [QCUT,QGAM] = [ 10.20, 20.41] = [ 29.16,116.64] Ry 
 Optimized for a Real-space Cutoff    1.30 Angstroem

   l    n(q)    QCUT    max X(q) W(low)/X(q) W(high)/X(q)  e(spline) 
   0      8    10.205    28.265    0.22E-03    0.17E-03    0.53E-07
   0      8    10.205    10.429    0.17E-03    0.15E-03    0.43E-07
   1      7    10.205    13.073    0.71E-04    0.41E-03    0.76E-07
   1      7    10.205     9.625    0.71E-04    0.33E-03    0.63E-07
   2      7    10.205     4.652    0.24E-03    0.41E-03    0.55E-07
 Optimization of the real space projectors (new method)

 maximal supplied QI-value         = 24.76
 optimisation between [QCUT,QGAM] = [ 10.15, 20.30] = [ 28.85,115.39] Ry 
 Optimized for a Real-space Cutoff    1.38 Angstroem

   l    n(q)    QCUT    max X(q) W(low)/X(q) W(high)/X(q)  e(spline) 
   0      8    10.150    20.381    0.22E-03    0.32E-03    0.29E-06
   0      8    10.150    15.268    0.23E-03    0.35E-03    0.30E-06
   1      8    10.150     5.964    0.46E-03    0.53E-03    0.21E-06
   1      8    10.150     5.382    0.38E-03    0.45E-03    0.19E-06
  PAW_PBE Mg 13Apr2007                  :
 energy of atom  1       EATOM=  -23.0369
 kinetic energy error for atom=    0.0001 (will be added to EATOM!!)
  PAW_PBE O 08Apr2002                   :
 energy of atom  2       EATOM= -432.3788
 kinetic energy error for atom=    0.1156 (will be added to EATOM!!)
 
 
 POSCAR: Mg9 O7                                  
  positions in direct lattice
  velocities in cartesian coordinates
 exchange correlation table for  LEXCH =        8
   RHO(1)=    0.500       N(1)  =     2000
   RHO(2)=  100.500       N(2)  =     4000
 


--------------------------------------------------------------------------------------------------------


 ion  position               nearest neighbor table
   1  0.167  0.327  0.235-   4 2.11   5 2.18  15 2.29   3 2.32   8 2.34   6 2.47   7 2.54  13 2.60
                            12 2.63  14 2.79   9 3.25   2 3.27   2 3.60   9 3.62
   2  0.012  0.989  0.003-  10 2.11  11 2.12  12 2.12  14 2.13  13 2.13  15 2.14   6 2.97   7 2.97
                             5 2.99   8 3.00   3 3.01   3 3.01   4 3.01   8 3.01   7 3.04   6 3.04
   3  0.996  0.968  0.521-  16 2.00  11 2.11  12 2.12  13 2.13  14 2.14   1 2.32   4 2.60   5 2.68
                             6 2.90   7 2.97   9 2.99   2 3.01   2 3.01   9 3.02   7 3.05   6 3.11
   4  0.961  0.536  0.951-  16 1.88  10 2.05  13 2.07  12 2.07  15 2.07   1 2.11   5 2.45   3 2.60
                             8 2.61   6 2.74   2 3.01   9 3.01   9 3.05   2 3.06   6 3.29   8 3.41
   5  0.979  0.519  0.543-  16 1.94  10 2.06  11 2.10  14 2.10  15 2.10   1 2.18   4 2.45   3 2.68
                             8 2.70   7 2.90   9 2.99   2 2.99   2 3.05   9 3.05   7 3.13   8 3.31
   6  0.508  0.991  0.998-  16 2.02  10 2.13  14 2.17  11 2.17  15 2.26   1 2.47   4 2.74   3 2.90
                             8 2.91   9 2.97   2 2.97   7 3.00   7 3.00   2 3.04   9 3.04   8 3.10
   7  0.498  0.999  0.499-  16 2.01  10 2.18  12 2.23  13 2.23  15 2.30   1 2.54   5 2.90   3 2.97
                             8 2.97   2 2.97   9 2.98   6 3.00   6 3.00   9 3.03   2 3.04   8 3.04
   8  0.527  0.501  0.989-  16 2.00  14 2.13  12 2.13  13 2.13  11 2.14   1 2.34   4 2.61   5 2.70
                             6 2.91   7 2.97   2 3.00   9 3.00   9 3.01   2 3.01   7 3.04   6 3.10
   9  0.509  0.486  0.506-  10 2.11  14 2.12  13 2.12  11 2.13  12 2.13  15 2.14   6 2.97   7 2.98
                             5 2.99   3 2.99   8 3.00   8 3.01   4 3.01   3 3.02   7 3.03   6 3.04
  10  0.245  0.253  0.760-   4 2.05   5 2.06   2 2.11   9 2.11   6 2.13   7 2.18
  11  0.255  0.732  0.259-   5 2.10   3 2.11   2 2.12   9 2.13   8 2.14   6 2.17
  12  0.249  0.724  0.768-   4 2.07   3 2.12   2 2.12   9 2.13   8 2.13   7 2.23   1 2.63
  13  0.774  0.248  0.244-   4 2.07   9 2.12   2 2.13   8 2.13   3 2.13   7 2.23   1 2.60
  14  0.767  0.242  0.747-   5 2.10   9 2.12   8 2.13   2 2.13   3 2.14   6 2.17   1 2.79
  15  0.788  0.709  0.249-   4 2.07   5 2.10   9 2.14   2 2.14   6 2.26   1 2.29   7 2.30
  16  0.726  0.771  0.744-   4 1.88   5 1.94   3 2.00   8 2.00   7 2.01   6 2.02
 
  LATTYP: Found a face centered cubic cell.
 ALAT       =     8.4937860000
  
  Lattice vectors:
  
 A1 = (   0.0000000000,   4.2468930000,   4.2468930000)
 A2 = (   4.2468930000,   0.0000000000,   4.2468930000)
 A3 = (   4.2468930000,   4.2468930000,   0.0000000000)


Analysis of symmetry for initial positions (statically):
=====================================================================
 Subroutine PRICEL returns:
 Original cell was already a primitive cell.
 

 Routine SETGRP: Setting up the symmetry group for a 
 face centered cubic supercell.


 Subroutine GETGRP returns: Found  1 space group operations
 (whereof  1 operations were pure point group operations)
 out of a pool of 48 trial point group operations.


The static configuration has the point symmetry C_1 .


Analysis of symmetry for dynamics (positions and initial velocities):
=====================================================================
 Subroutine PRICEL returns:
 Original cell was already a primitive cell.
 

 Routine SETGRP: Setting up the symmetry group for a 
 face centered cubic supercell.


 Subroutine GETGRP returns: Found  1 space group operations
 (whereof  1 operations were pure point group operations)
 out of a pool of 48 trial point group operations.


The dynamic configuration has the point symmetry C_1 .


Analysis of structural, dynamic, and magnetic symmetry:
=====================================================================
 Subroutine PRICEL returns:
 Original cell was already a primitive cell.
 

 Routine SETGRP: Setting up the symmetry group for a 
 face centered cubic supercell.


 Subroutine GETGRP returns: Found  1 space group operations
 (whereof  1 operations were pure point group operations)
 out of a pool of 48 trial point group operations.


The magnetic configuration has the point symmetry C_1 .


 Subroutine INISYM returns: Found  1 space group operations
 (whereof  1 operations are pure point group operations),
 and found     1 'primitive' translations

 
 
 KPOINTS: k-point mesh                            

Automatic generation of k-mesh.
Space group operators:
 irot       det(A)        alpha          n_x          n_y          n_z        tau_x        tau_y        tau_z
    1     1.000000     0.000000     1.000000     0.000000     0.000000     0.000000     0.000000     0.000000
 
 Subroutine IBZKPT returns following result:
 ===========================================
 
 Found     16 irreducible k-points:
 
 Following reciprocal coordinates:
            Coordinates               Weight
  0.250000  0.250000  0.250000     24.000000
  0.250000  0.000000  0.000000     24.000000
  0.000000  0.000000 -0.250000     24.000000
  0.000000  0.250000  0.000000     24.000000
 -0.250000  0.250000  0.250000     24.000000
  0.250000 -0.250000  0.250000     24.000000
  0.250000  0.250000 -0.250000     24.000000
  0.250000  0.000000  0.500000     24.000000
 -0.250000  0.500000  0.500000     24.000000
  0.250000  0.500000  0.000000     24.000000
  0.000000  0.500000 -0.250000     24.000000
  0.500000  0.000000 -0.250000     24.000000
  0.500000  0.500000  0.250000     24.000000
  0.500000 -0.250000  0.500000     24.000000
  0.000000  0.250000  0.500000     24.000000
  0.500000  0.250000  0.000000     24.000000
 
 Following cartesian coordinates:
            Coordinates               Weight
  0.029433  0.029433  0.029433     24.000000
 -0.029433  0.029433  0.029433     24.000000
 -0.029433 -0.029433  0.029433     24.000000
  0.029433 -0.029433  0.029433     24.000000
  0.088300 -0.029433 -0.029433     24.000000
 -0.029433  0.088300 -0.029433     24.000000
 -0.029433 -0.029433  0.088300     24.000000
  0.029433  0.088300 -0.029433     24.000000
  0.147166 -0.029433 -0.029433     24.000000
  0.029433 -0.029433  0.088300     24.000000
  0.029433 -0.088300  0.088300     24.000000
 -0.088300  0.029433  0.088300     24.000000
  0.029433  0.029433  0.088300     24.000000
 -0.029433  0.147166 -0.029433     24.000000
  0.088300  0.029433 -0.029433     24.000000
 -0.029433  0.029433  0.088300     24.000000
 


--------------------------------------------------------------------------------------------------------




 Dimension of arrays:
   k-points           NKPTS =     16   k-points in BZ     NKDIM =     16   number of bands    NBANDS=     48
   number of dos      NEDOS =    301   number of ions     NIONS =     16
   non local maximal  LDIM  =      5   non local SUM 2l+1 LMDIM =     13
   total plane-waves  NPLWV =  27000
   max r-space proj   IRMAX =   1992   max aug-charges    IRDMAX=   7686
   dimension x,y,z NGX =    30 NGY =   30 NGZ =   30
   dimension x,y,z NGXF=    60 NGYF=   60 NGZF=   60
   support grid    NGXF=    60 NGYF=   60 NGZF=   60
   ions per type =               9   7
 NGX,Y,Z   is equivalent  to a cutoff of   8.30,  8.30,  8.30 a.u.
 NGXF,Y,Z  is equivalent  to a cutoff of  16.61, 16.61, 16.61 a.u.


 I would recommend the setting:
   dimension x,y,z NGX =    29 NGY =   29 NGZ =   29
 SYSTEM =  unknown system                          
 POSCAR =  Mg9 O7                                  

 Startparameter for this run:
   NWRITE =      2    write-flag & timer
   PREC   = n         normal or accurate (medium, high low for compatibility)
   ISTART =      0    job   : 0-new  1-cont  2-samecut
   ICHARG =      2    charge: 1-file 2-atom 10-const
   ISPIN  =      2    spin polarized calculation?
   LNONCOLLINEAR =      F non collinear calculations
   LSORBIT =      F    spin-orbit coupling
   INIWAV =      1    electr: 0-lowe 1-rand  2-diag
   LASPH  =      T    aspherical Exc in radial PAW
   METAGGA=      F    non-selfconsistent MetaGGA calc.

 Electronic Relaxation 1
   ENCUT  =  400.0 eV  29.40 Ry    5.42 a.u.   9.79  9.79  9.79*2*pi/ulx,y,z
   ENINI  =  400.0     initial cutoff
   ENAUG  =  605.4 eV  augmentation charge cutoff
   NELM   =    100;   NELMIN=  4; NELMDL=  0     # of ELM steps 
   EDIFF  = 0.1E-05   stopping-criterion for ELM
   LREAL  =      T    real-space projection
   NLSPLINE    = F    spline interpolate recip. space projectors
   LCOMPAT=      F    compatible to vasp.4.4
   GGA_COMPAT  = T    GGA compatible to vasp.4.4-vasp.4.6
   LMAXPAW     = -100 max onsite density
   LMAXMIX     =    2 max onsite mixed and CHGCAR
   VOSKOWN=      0    Vosko Wilk Nusair interpolation
   ROPT   =   -0.00050  -0.00050
 Ionic relaxation
   EDIFFG = -.5E-01   stopping-criterion for IOM
   NSW    =     20    number of steps for IOM
   NBLOCK =      1;   KBLOCK =     20    inner block; outer block 
   IBRION =      2    ionic relax: 0-MD 1-quasi-New 2-CG
   NFREE  =      1    steps in history (QN), initial steepest desc. (CG)
   ISIF   =      2    stress and relaxation
   IWAVPR =     11    prediction:  0-non 1-charg 2-wave 3-comb
   ISYM   =      2    0-nonsym 1-usesym 2-fastsym
   LCORR  =      T    Harris-Foulkes like correction to forces

   POTIM  = 0.5000    time-step for ionic-motion
   TEIN   =    0.0    initial temperature
   TEBEG  =    0.0;   TEEND  =   0.0 temperature during run
   SMASS  =  -3.00    Nose mass-parameter (am)
   estimated Nose-frequenzy (Omega)   =  0.10E-29 period in steps =****** mass=  -0.824E-27a.u.
   SCALEE = 1.0000    scale energy and forces
   NPACO  =    256;   APACO  = 16.0  distance and # of slots for P.C.
   PSTRESS=    0.0 pullay stress

  Mass of Ions in am
   POMASS =  24.30 16.00
  Ionic Valenz
   ZVAL   =   2.00  6.00
  Atomic Wigner-Seitz radii
   RWIGS  =  -1.00 -1.00
  virtual crystal weights 
   VCA    =   1.00  1.00
   NELECT =      59.0000    total number of electrons
   NUPDOWN=      -1.0000    fix difference up-down

 DOS related values:
   EMIN   =  10.00;   EMAX   =-10.00  energy-range for DOS
   EFERMI =   0.00
   ISMEAR =     0;   SIGMA  =   0.05  broadening in eV -4-tet -1-fermi 0-gaus

 Electronic relaxation 2 (details)
   IALGO  =     38    algorithm
   LDIAG  =      T    sub-space diagonalisation (order eigenvalues)
   LSUBROT=      F    optimize rotation matrix (better conditioning)
   TURBO    =      0    0=normal 1=particle mesh
   IRESTART =      0    0=no restart 2=restart with 2 vectors
   NREBOOT  =      0    no. of reboots
   NMIN     =      0    reboot dimension
   EREF     =   0.00    reference energy to select bands
   IMIX   =      4    mixing-type and parameters
     AMIX     =   0.40;   BMIX     =  1.00
     AMIX_MAG =   1.60;   BMIX_MAG =  1.00
     AMIN     =   0.10
     WC   =   100.;   INIMIX=   1;  MIXPRE=   1;  MAXMIX= -45

 Intra band minimization:
   WEIMIN = 0.0010     energy-eigenvalue tresh-hold
   EBREAK =  0.52E-08  absolut break condition
   DEPER  =   0.30     relativ break condition  

   TIME   =   0.40     timestep for ELM

  volume/ion in A,a.u.               =       9.57        64.61
  Fermi-wavevector in a.u.,A,eV,Ry     =   1.191089  2.250832 19.302488  1.418693
  Thomas-Fermi vector in A             =   2.327159
 
 Write flags
   LWAVE  =      F    write WAVECAR
   LCHARG =      F    write CHGCAR
   LVTOT  =      F    write LOCPOT, total local potential
   LVHAR  =      F    write LOCPOT, Hartree potential only
   LELF   =      F    write electronic localiz. function (ELF)
   LORBIT =     12    0 simple, 1 ext, 2 COOP (PROOUT)


 Dipole corrections
   LMONO  =      F    monopole corrections only (constant potential shift)
   LDIPOL =      F    correct potential (dipole corrections)
   IDIPOL =      0    1-x, 2-y, 3-z, 4-all directions 
   EPSILON=  1.0000000 bulk dielectric constant

 Exchange correlation treatment:
   GGA     =    --    GGA type
   LEXCH   =     8    internal setting for exchange type
   VOSKOWN=      0    Vosko Wilk Nusair interpolation
   LHFCALC =     F    Hartree Fock is set to
   LHFONE  =     F    Hartree Fock one center treatment
   AEXX    =    0.0000 exact exchange contribution

 Linear response parameters
   LEPSILON=     F    determine dielectric tensor
   LRPA    =     F    only Hartree local field effects (RPA)
   LNABLA  =     F    use nabla operator in PAW spheres
   LVEL    =     F    velocity operator in full k-point grid
   LINTERFAST=   F  fast interpolation
   KINTER  =     0    interpolate to denser k-point grid
   CSHIFT  =0.1000    complex shift for real part using Kramers Kronig
   OMEGAMAX=  -1.0    maximum frequency
   DEG_THRESHOLD= 0.2000000E-02 threshold for treating states as degnerate
   RTIME   =    0.100 relaxation time in fs

 Orbital magnetization related:
   ORBITALMAG=     F  switch on orbital magnetization
   LCHIMAG   =     F  perturbation theory with respect to B field
   DQ        =  0.001000  dq finite difference perturbation B field



--------------------------------------------------------------------------------------------------------


 conjugate gradient relaxation of ions
 charge density and potential will be updated during run
 spin polarized calculation
 Variant of blocked Davidson
 Davidson routine will perform the subspace rotation
 perform sub-space diagonalisation
    after iterative eigenvector-optimisation
 modified Broyden-mixing scheme, WC =      100.0
 initial mixing is a Kerker type mixing with AMIX =  0.4000 and BMIX =      1.0000
 Hartree-type preconditioning will be used
 using additional bands           18
 real space projection scheme for non local part
 use partial core corrections
 calculate Harris-corrections to forces 
   (improved forces if not selfconsistent)
 use gradient corrections 
 use of overlap-Matrix (Vanderbilt PP)
 Gauss-broadening in eV      SIGMA  =   0.05


--------------------------------------------------------------------------------------------------------


  energy-cutoff  :      400.00
  volume of cell :      153.19
      direct lattice vectors                 reciprocal lattice vectors
     0.000000000  4.246893000  4.246893000    -0.117733129  0.117733129  0.117733129
     4.246893000  0.000000000  4.246893000     0.117733129 -0.117733129  0.117733129
     4.246893000  4.246893000  0.000000000     0.117733129  0.117733129 -0.117733129

  length of vectors
     6.006013679  6.006013679  6.006013679     0.203919761  0.203919761  0.203919761


 
 k-points in units of 2pi/SCALE and weight: k-point mesh                            
   0.02943328  0.02943328  0.02943328       0.062
  -0.02943328  0.02943328  0.02943328       0.062
  -0.02943328 -0.02943328  0.02943328       0.062
   0.02943328 -0.02943328  0.02943328       0.062
   0.08829985 -0.02943328 -0.02943328       0.062
  -0.02943328  0.08829985 -0.02943328       0.062
  -0.02943328 -0.02943328  0.08829985       0.062
   0.02943328  0.08829985 -0.02943328       0.062
   0.14716641 -0.02943328 -0.02943328       0.062
   0.02943328 -0.02943328  0.08829985       0.062
   0.02943328 -0.08829985  0.08829985       0.062
  -0.08829985  0.02943328  0.08829985       0.062
   0.02943328  0.02943328  0.08829985       0.062
  -0.02943328  0.14716641 -0.02943328       0.062
   0.08829985  0.02943328 -0.02943328       0.062
  -0.02943328  0.02943328  0.08829985       0.062
 
 k-points in reciprocal lattice and weights: k-point mesh                            
   0.25000000  0.25000000  0.25000000       0.062
   0.25000000  0.00000000  0.00000000       0.062
   0.00000000  0.00000000 -0.25000000       0.062
   0.00000000  0.25000000  0.00000000       0.062
  -0.25000000  0.25000000  0.25000000       0.062
   0.25000000 -0.25000000  0.25000000       0.062
   0.25000000  0.25000000 -0.25000000       0.062
   0.25000000  0.00000000  0.50000000       0.062
  -0.25000000  0.50000000  0.50000000       0.062
   0.25000000  0.50000000  0.00000000       0.062
   0.00000000  0.50000000 -0.25000000       0.062
   0.50000000  0.00000000 -0.25000000       0.062
   0.50000000  0.50000000  0.25000000       0.062
   0.50000000 -0.25000000  0.50000000       0.062
   0.00000000  0.25000000  0.50000000       0.062
   0.50000000  0.25000000  0.00000000       0.062
 
 position of ions in fractional coordinates (direct lattice) 
   0.16725632  0.32673836  0.23536973
   0.01213600  0.98873055  0.00263275
   0.99631705  0.96794683  0.52063771
   0.96097439  0.53610980  0.95109126
   0.97888873  0.51906311  0.54270568
   0.50790788  0.99056170  0.99838190
   0.49798067  0.99932216  0.49905558
   0.52694165  0.50137255  0.98853322
   0.50858686  0.48598379  0.50567393
   0.24468319  0.25302341  0.75960923
   0.25465400  0.73190504  0.25919577
   0.24859857  0.72383105  0.76822015
   0.77390119  0.24846591  0.24394932
   0.76686816  0.24243944  0.74715970
   0.78832876  0.70925632  0.24896276
   0.72601957  0.77099298  0.74352831
 
 position of ions in cartesian coordinates  (Angst):
   2.38721289  1.70990974  2.09794253
   4.21021386  0.06272131  4.25057313
   6.32185923  6.44234453  8.34201851
   6.31598377  8.12033821  6.35795638
   4.50921846  6.46204866  6.36164118
   8.44683067  6.39705154  6.36383997
   6.36344997  4.23430631  6.35888494
   6.32747037  6.43605960  4.36714037
   4.21146423  4.30745706  4.22383516
   4.30054246  4.26512246  2.11370668
   4.20909909  2.18226500  4.18981069
   6.33658182  4.31832030  4.12980456
   2.09123480  4.32270225  4.34188369
   4.20272167  6.42991433  4.28642139
   4.06945388  4.40526607  6.36008356
   6.43200987  6.24101259  6.35765213
 


--------------------------------------------------------------------------------------------------------


 k-point  1 :   0.2500 0.2500 0.2500  plane waves:    2782
 k-point  2 :   0.2500 0.0000 0.0000  plane waves:    2782
 k-point  3 :   0.0000 0.0000-0.2500  plane waves:    2782
 k-point  4 :   0.0000 0.2500 0.0000  plane waves:    2782
 k-point  5 :  -0.2500 0.2500 0.2500  plane waves:    2788
 k-point  6 :   0.2500-0.2500 0.2500  plane waves:    2788
 k-point  7 :   0.2500 0.2500-0.2500  plane waves:    2788
 k-point  8 :   0.2500 0.0000 0.5000  plane waves:    2788
 k-point  9 :  -0.2500 0.5000 0.5000  plane waves:    2788
 k-point 10 :   0.2500 0.5000 0.0000  plane waves:    2788
 k-point 11 :   0.0000 0.5000-0.2500  plane waves:    2788
 k-point 12 :   0.5000 0.0000-0.2500  plane waves:    2788
 k-point 13 :   0.5000 0.5000 0.2500  plane waves:    2788
 k-point 14 :   0.5000-0.2500 0.5000  plane waves:    2788
 k-point 15 :   0.0000 0.2500 0.5000  plane waves:    2788
 k-point 16 :   0.5000 0.2500 0.0000  plane waves:    2788

 maximum and minimum number of plane-waves per node :       326      286

 maximum number of plane-waves:      2788
 maximum index in each direction: 
   IXMAX=   10   IYMAX=   10   IZMAX=   10
   IXMIN=  -10   IYMIN=  -10   IZMIN=  -10

 WARNING: aliasing errors must be expected set NGX to  42 to avoid them
 WARNING: aliasing errors must be expected set NGY to  42 to avoid them
 WARNING: aliasing errors must be expected set NGZ to  42 to avoid them
 aliasing errors are usually negligible using standard VASP settings
 and one can safely disregard these warnings

 real space projection operators:
  total allocation   :       2262.14 KBytes
  max/ min on nodes  :        326.19        206.05


 parallel 3D FFT for wavefunctions:
    minimum data exchange during FFTs selected (reduces bandwidth)
 parallel 3D FFT for charge:
    minimum data exchange during FFTs selected (reduces bandwidth)


 total amount of memory used by VASP on root node    34278. kBytes
========================================================================

   base      :      30000. kBytes
   nonlr-proj:        922. kBytes
   fftplans  :        353. kBytes
   grid      :        883. kBytes
   one-center:         32. kBytes
   wavefun   :       2088. kBytes
 
     INWAV:  cpu time    0.0000: real time    0.0002
 Broyden mixing: mesh for mixing (old mesh)
   NGX = 19   NGY = 19   NGZ = 19
  (NGX  = 60   NGY  = 60   NGZ  = 60)
  gives a total of   6859 points

 initial charge density was supplied:
 charge density of overlapping atoms calculated
 number of electron      60.0000000 magnetization      16.0000000
 keeping initial charge density in first step


--------------------------------------------------------------------------------------------------------


 Maximum index for non-local projection operator          305
 Maximum index for augmentation-charges          420 (set IRDMAX)


--------------------------------------------------------------------------------------------------------


 First call to EWALD:  gamma=   0.331
 Maximum number of real-space cells 3x 3x 3
 Maximum number of reciprocal cells 3x 3x 3

 FEWALD executed in parallel
    FEWALD:  cpu time    0.0040: real time    0.0013


----------------------------------------- Iteration    1(   1)  ---------------------------------------


    POTLOK:  cpu time    0.0120: real time    0.0099
    SETDIJ:  cpu time    0.3560: real time    0.3613
     EDDAV:  cpu time    0.7040: real time    0.7101
       DOS:  cpu time    0.0040: real time    0.0017
    --------------------------------------------
      LOOP:  cpu time    1.0760: real time    1.0857

 eigenvalue-minimisations  :  3280
 total energy-change (2. order) : 0.2260210E+03  (-0.2458909E+04)
 number of electron      60.0000000 magnetization      16.0000000
 augmentation part       60.0000000 magnetization      16.0000000

 Free energy of the ion-electron system (eV)
  ---------------------------------------------------
  alpha Z        PSCENC =       142.81396753
  Ewald energy   TEWEN  =     -2470.73679645
  -Hartree energ DENC   =      -958.04019619
  -exchange      EXHF   =         0.00000000
  -V(xc)+E(xc)   XCENC  =      -236.39494927
  PAW double counting   =      3011.45132117    -2557.24446474
  entropy T*S    EENTRO =        -0.00218869
  eigenvalues    EBANDS =        61.00098226
  atomic energy  EATOM  =      3233.17333345
  Solvation  Ediel_sol  =         0.00000000
  ---------------------------------------------------
  free energy    TOTEN  =       226.02100907 eV

  energy without entropy =      226.02319776  energy(sigma->0) =      226.02210341


--------------------------------------------------------------------------------------------------------




----------------------------------------- Iteration    1(   2)  ---------------------------------------


     EDDAV:  cpu time    0.7400: real time    0.7423
       DOS:  cpu time    0.0000: real time    0.0008
    --------------------------------------------
      LOOP:  cpu time    0.7400: real time    0.7481

 eigenvalue-minimisations  :  3880
 total energy-change (2. order) :-0.2959184E+03  (-0.2860276E+03)
 number of electron      60.0000000 magnetization      16.0000000
 augmentation part       60.0000000 magnetization      16.0000000

 Free energy of the ion-electron system (eV)
  ---------------------------------------------------
  alpha Z        PSCENC =       142.81396753
  Ewald energy   TEWEN  =     -2470.73679645
  -Hartree energ DENC   =      -958.04019619
  -exchange      EXHF   =         0.00000000
  -V(xc)+E(xc)   XCENC  =      -236.39494927
  PAW double counting   =      3011.45132117    -2557.24446474
  entropy T*S    EENTRO =        -0.00174487
  eigenvalues    EBANDS =      -234.91781156
  atomic energy  EATOM  =      3233.17333345
  Solvation  Ediel_sol  =         0.00000000
  ---------------------------------------------------
  free energy    TOTEN  =       -69.89734094 eV

  energy without entropy =      -69.89559607  energy(sigma->0) =      -69.89646850


--------------------------------------------------------------------------------------------------------




----------------------------------------- Iteration    1(   3)  ---------------------------------------


     EDDAV:  cpu time    0.7360: real time    0.7351
       DOS:  cpu time    0.0000: real time    0.0008
    --------------------------------------------
      LOOP:  cpu time    0.7360: real time    0.7388

 eigenvalue-minimisations  :  3736
 total energy-change (2. order) :-0.1697802E+02  (-0.1685971E+02)
 number of electron      60.0000000 magnetization      16.0000000
 augmentation part       60.0000000 magnetization      16.0000000

 Free energy of the ion-electron system (eV)
  ---------------------------------------------------
  alpha Z        PSCENC =       142.81396753
  Ewald energy   TEWEN  =     -2470.73679645
  -Hartree energ DENC   =      -958.04019619
  -exchange      EXHF   =         0.00000000
  -V(xc)+E(xc)   XCENC  =      -236.39494927
  PAW double counting   =      3011.45132117    -2557.24446474
  entropy T*S    EENTRO =        -0.00000271
  eigenvalues    EBANDS =      -251.89756955
  atomic energy  EATOM  =      3233.17333345
  Solvation  Ediel_sol  =         0.00000000
  ---------------------------------------------------
  free energy    TOTEN  =       -86.87535676 eV

  energy without entropy =      -86.87535405  energy(sigma->0) =      -86.87535541


--------------------------------------------------------------------------------------------------------




----------------------------------------- Iteration    1(   4)  ---------------------------------------


     EDDAV:  cpu time    0.7000: real time    0.7001
       DOS:  cpu time    0.0000: real time    0.0008
    --------------------------------------------
      LOOP:  cpu time    0.7000: real time    0.7040

 eigenvalue-minimisations  :  3544
 total energy-change (2. order) :-0.1045250E+00  (-0.1044338E+00)
 number of electron      60.0000000 magnetization      16.0000000
 augmentation part       60.0000000 magnetization      16.0000000

 Free energy of the ion-electron system (eV)
  ---------------------------------------------------
  alpha Z        PSCENC =       142.81396753
  Ewald energy   TEWEN  =     -2470.73679645
  -Hartree energ DENC   =      -958.04019619
  -exchange      EXHF   =         0.00000000
  -V(xc)+E(xc)   XCENC  =      -236.39494927
  PAW double counting   =      3011.45132117    -2557.24446474
  entropy T*S    EENTRO =        -0.00000283
  eigenvalues    EBANDS =      -252.00209439
  atomic energy  EATOM  =      3233.17333345
  Solvation  Ediel_sol  =         0.00000000
  ---------------------------------------------------
  free energy    TOTEN  =       -86.97988172 eV

  energy without entropy =      -86.97987889  energy(sigma->0) =      -86.97988031


--------------------------------------------------------------------------------------------------------




----------------------------------------- Iteration    1(   5)  ---------------------------------------


     EDDAV:  cpu time    0.7600: real time    0.7604
       DOS:  cpu time    0.0000: real time    0.0008
    CHARGE:  cpu time    0.0200: real time    0.0224
    MIXING:  cpu time    0.0000: real time    0.0008
    --------------------------------------------
      LOOP:  cpu time    0.7800: real time    0.7875

 eigenvalue-minimisations  :  3728
 total energy-change (2. order) :-0.5402007E-03  (-0.5401747E-03)
 number of electron      59.0000045 magnetization       1.0852596
 augmentation part        5.5142837 magnetization       0.1441909

 Broyden mixing:
  rms(total) = 0.26588E+01    rms(broyden)= 0.26570E+01
  rms(prec ) = 0.44206E+01
  weight for this iteration     100.00

 Free energy of the ion-electron system (eV)
  ---------------------------------------------------
  alpha Z        PSCENC =       142.81396753
  Ewald energy   TEWEN  =     -2470.73679645
  -Hartree energ DENC   =      -958.04019619
  -exchange      EXHF   =         0.00000000
  -V(xc)+E(xc)   XCENC  =      -236.39494927
  PAW double counting   =      3011.45132117    -2557.24446474
  entropy T*S    EENTRO =        -0.00000284
  eigenvalues    EBANDS =      -252.00263458
  atomic energy  EATOM  =      3233.17333345
  Solvation  Ediel_sol  =         0.00000000
  ---------------------------------------------------
  free energy    TOTEN  =       -86.98042192 eV

  energy without entropy =      -86.98041908  energy(sigma->0) =      -86.98042050


--------------------------------------------------------------------------------------------------------




----------------------------------------- Iteration    1(   6)  ---------------------------------------


    POTLOK:  cpu time    0.0120: real time    0.0149
    SETDIJ:  cpu time    0.3640: real time    0.3650
     EDDAV:  cpu time    0.6680: real time    0.6669
       DOS:  cpu time    0.0000: real time    0.0008
    CHARGE:  cpu time    0.0200: real time    0.0191
    MIXING:  cpu time    0.0000: real time    0.0003
    --------------------------------------------
      LOOP:  cpu time    1.0640: real time    1.0699

 eigenvalue-minimisations  :  3288
 total energy-change (2. order) : 0.4430441E+01  (-0.3604167E+01)
 number of electron      59.0000038 magnetization       0.5454003
 augmentation part        4.5549658 magnetization      -0.0489431

 Broyden mixing:
  rms(total) = 0.73618E+00    rms(broyden)= 0.73483E+00
  rms(prec ) = 0.10380E+01
  weight for this iteration     100.00

 eigenvalues of (default mixing * dielectric matrix)
  average eigenvalue GAMMA=   0.8436
  0.8436

 Free energy of the ion-electron system (eV)
  ---------------------------------------------------
  alpha Z        PSCENC =       142.81396753
  Ewald energy   TEWEN  =     -2470.73679645
  -Hartree energ DENC   =     -1089.05672388
  -exchange      EXHF   =         0.00000000
  -V(xc)+E(xc)   XCENC  =      -233.13580289
  PAW double counting   =      3552.79621456    -3100.74674763
  entropy T*S    EENTRO =        -0.00345109
  eigenvalues    EBANDS =      -117.65397469
  atomic energy  EATOM  =      3233.17333345
  Solvation  Ediel_sol  =         0.00000000
  ---------------------------------------------------
  free energy    TOTEN  =       -82.54998110 eV

  energy without entropy =      -82.54653000  energy(sigma->0) =      -82.54825555


--------------------------------------------------------------------------------------------------------




----------------------------------------- Iteration    1(   7)  ---------------------------------------


    POTLOK:  cpu time    0.0080: real time    0.0092
    SETDIJ:  cpu time    0.3720: real time    0.3710
     EDDAV:  cpu time    0.8600: real time    0.9070
       DOS:  cpu time    0.0000: real time    0.0009
    CHARGE:  cpu time    0.0160: real time    0.0220
    MIXING:  cpu time    0.0000: real time    0.0003
    --------------------------------------------
      LOOP:  cpu time    1.2560: real time    1.3136

 eigenvalue-minimisations  :  3320
 total energy-change (2. order) :-0.1214560E+00  (-0.1272568E+00)
 number of electron      59.0000038 magnetization       0.3635331
 augmentation part        4.5825219 magnetization      -0.0897799

 Broyden mixing:
  rms(total) = 0.37945E+00    rms(broyden)= 0.37941E+00
  rms(prec ) = 0.60066E+00
  weight for this iteration     100.00

 eigenvalues of (default mixing * dielectric matrix)
  average eigenvalue GAMMA=   1.0210
  0.9594  1.0826

 Free energy of the ion-electron system (eV)
  ---------------------------------------------------
  alpha Z        PSCENC =       142.81396753
  Ewald energy   TEWEN  =     -2470.73679645
  -Hartree energ DENC   =     -1085.10062663
  -exchange      EXHF   =         0.00000000
  -V(xc)+E(xc)   XCENC  =      -233.19199421
  PAW double counting   =      3721.69704466    -3269.37446298
  entropy T*S    EENTRO =        -0.00452279
  eigenvalues    EBANDS =      -121.94737971
  atomic energy  EATOM  =      3233.17333345
  Solvation  Ediel_sol  =         0.00000000
  ---------------------------------------------------
  free energy    TOTEN  =       -82.67143713 eV

  energy without entropy =      -82.66691434  energy(sigma->0) =      -82.66917574


--------------------------------------------------------------------------------------------------------




----------------------------------------- Iteration    1(   8)  ---------------------------------------


    POTLOK:  cpu time    0.0080: real time    0.0084
    SETDIJ:  cpu time    0.3720: real time    0.3725
     EDDAV:  cpu time    0.7040: real time    0.7044
       DOS:  cpu time    0.0000: real time    0.0009
    CHARGE:  cpu time    0.0160: real time    0.0180
    MIXING:  cpu time    0.0040: real time    0.0003
    --------------------------------------------
      LOOP:  cpu time    1.1080: real time    1.1076

 eigenvalue-minimisations  :  3616
 total energy-change (2. order) : 0.9027907E-01  (-0.2071115E-01)
 number of electron      59.0000038 magnetization       0.2101933
 augmentation part        4.6096863 magnetization      -0.0474454

 Broyden mixing:
  rms(total) = 0.12094E+00    rms(broyden)= 0.12091E+00
  rms(prec ) = 0.19464E+00
  weight for this iteration     100.00

 eigenvalues of (default mixing * dielectric matrix)
  average eigenvalue GAMMA=   1.2692
  2.0823  0.8693  0.8560

 Free energy of the ion-electron system (eV)
  ---------------------------------------------------
  alpha Z        PSCENC =       142.81396753
  Ewald energy   TEWEN  =     -2470.73679645
  -Hartree energ DENC   =     -1088.26261930
  -exchange      EXHF   =         0.00000000
  -V(xc)+E(xc)   XCENC  =      -232.43116727
  PAW double counting   =      3962.42880218    -3509.91712864
  entropy T*S    EENTRO =        -0.00429063
  eigenvalues    EBANDS =      -119.64525893
  atomic energy  EATOM  =      3233.17333345
  Solvation  Ediel_sol  =         0.00000000
  ---------------------------------------------------
  free energy    TOTEN  =       -82.58115806 eV

  energy without entropy =      -82.57686743  energy(sigma->0) =      -82.57901275


--------------------------------------------------------------------------------------------------------




----------------------------------------- Iteration    1(   9)  ---------------------------------------


    POTLOK:  cpu time    0.0080: real time    0.0098
    SETDIJ:  cpu time    0.3720: real time    0.3737
     EDDAV:  cpu time    0.7200: real time    0.7197
       DOS:  cpu time    0.0000: real time    0.0009
    CHARGE:  cpu time    0.0200: real time    0.0171
    MIXING:  cpu time    0.0000: real time    0.0004
    --------------------------------------------
      LOOP:  cpu time    1.1200: real time    1.1245

 eigenvalue-minimisations  :  3744
 total energy-change (2. order) : 0.3110689E-02  (-0.3628870E-02)
 number of electron      59.0000038 magnetization       0.2046632
 augmentation part        4.5985010 magnetization      -0.0034142

 Broyden mixing:
  rms(total) = 0.45205E-01    rms(broyden)= 0.45195E-01
  rms(prec ) = 0.54765E-01
  weight for this iteration     100.00

 eigenvalues of (default mixing * dielectric matrix)
  average eigenvalue GAMMA=   1.2512
  2.4282  0.9609  0.9609  0.6546

 Free energy of the ion-electron system (eV)
  ---------------------------------------------------
  alpha Z        PSCENC =       142.81396753
  Ewald energy   TEWEN  =     -2470.73679645
  -Hartree energ DENC   =     -1092.51395747
  -exchange      EXHF   =         0.00000000
  -V(xc)+E(xc)   XCENC  =      -231.90528929
  PAW double counting   =      4045.07606183    -3592.56034748
  entropy T*S    EENTRO =        -0.00471494
  eigenvalues    EBANDS =      -115.92030457
  atomic energy  EATOM  =      3233.17333345
  Solvation  Ediel_sol  =         0.00000000
  ---------------------------------------------------
  free energy    TOTEN  =       -82.57804737 eV

  energy without entropy =      -82.57333244  energy(sigma->0) =      -82.57568991


--------------------------------------------------------------------------------------------------------




----------------------------------------- Iteration    1(  10)  ---------------------------------------


    POTLOK:  cpu time    0.0080: real time    0.0082
    SETDIJ:  cpu time    0.3720: real time    0.3711
     EDDAV:  cpu time    0.7080: real time    0.7087
       DOS:  cpu time    0.0000: real time    0.0008
    CHARGE:  cpu time    0.0160: real time    0.0172
    MIXING:  cpu time    0.0000: real time    0.0004
    --------------------------------------------
      LOOP:  cpu time    1.1040: real time    1.1095

 eigenvalue-minimisations  :  3600
 total energy-change (2. order) : 0.2291522E-03  (-0.4734747E-03)
 number of electron      59.0000038 magnetization       0.2177457
 augmentation part        4.5927582 magnetization       0.0052254

 Broyden mixing:
  rms(total) = 0.15205E-01    rms(broyden)= 0.15197E-01
  rms(prec ) = 0.23397E-01
  weight for this iteration     100.00

 eigenvalues of (default mixing * dielectric matrix)
  average eigenvalue GAMMA=   1.2060
  2.5014  1.0767  0.9055  0.9055  0.6407

 Free energy of the ion-electron system (eV)
  ---------------------------------------------------
  alpha Z        PSCENC =       142.81396753
  Ewald energy   TEWEN  =     -2470.73679645
  -Hartree energ DENC   =     -1093.20720759
  -exchange      EXHF   =         0.00000000
  -V(xc)+E(xc)   XCENC  =      -231.83332531
  PAW double counting   =      4039.68187629    -3587.18248748
  entropy T*S    EENTRO =        -0.00465132
  eigenvalues    EBANDS =      -115.28252734
  atomic energy  EATOM  =      3233.17333345
  Solvation  Ediel_sol  =         0.00000000
  ---------------------------------------------------
  free energy    TOTEN  =       -82.57781822 eV

  energy without entropy =      -82.57316690  energy(sigma->0) =      -82.57549256


--------------------------------------------------------------------------------------------------------




----------------------------------------- Iteration    1(  11)  ---------------------------------------


    POTLOK:  cpu time    0.0120: real time    0.0093
    SETDIJ:  cpu time    0.3720: real time    0.3725
     EDDAV:  cpu time    0.7160: real time    0.7164
       DOS:  cpu time    0.0000: real time    0.0009
    CHARGE:  cpu time    0.0200: real time    0.0194
    MIXING:  cpu time    0.0000: real time    0.0004
    --------------------------------------------
      LOOP:  cpu time    1.1200: real time    1.1220

 eigenvalue-minimisations  :  3712
 total energy-change (2. order) :-0.2229691E-03  (-0.8010141E-04)
 number of electron      59.0000038 magnetization       0.2231289
 augmentation part        4.5934634 magnetization       0.0071011

 Broyden mixing:
  rms(total) = 0.80924E-02    rms(broyden)= 0.80905E-02
  rms(prec ) = 0.11928E-01
  weight for this iteration     100.00

 eigenvalues of (default mixing * dielectric matrix)
  average eigenvalue GAMMA=   1.3201
  2.6121  1.9423  0.9691  0.9691  0.7952  0.6326

 Free energy of the ion-electron system (eV)
  ---------------------------------------------------
  alpha Z        PSCENC =       142.81396753
  Ewald energy   TEWEN  =     -2470.73679645
  -Hartree energ DENC   =     -1093.10591222
  -exchange      EXHF   =         0.00000000
  -V(xc)+E(xc)   XCENC  =      -231.82277671
  PAW double counting   =      4031.61281709    -3579.11700867
  entropy T*S    EENTRO =        -0.00456776
  eigenvalues    EBANDS =      -115.39109744
  atomic energy  EATOM  =      3233.17333345
  Solvation  Ediel_sol  =         0.00000000
  ---------------------------------------------------
  free energy    TOTEN  =       -82.57804119 eV

  energy without entropy =      -82.57347343  energy(sigma->0) =      -82.57575731


--------------------------------------------------------------------------------------------------------




----------------------------------------- Iteration    1(  12)  ---------------------------------------


    POTLOK:  cpu time    0.0080: real time    0.0083
    SETDIJ:  cpu time    0.3720: real time    0.3719
     EDDAV:  cpu time    0.7080: real time    0.7090
       DOS:  cpu time    0.0000: real time    0.0009
    CHARGE:  cpu time    0.0200: real time    0.0187
    MIXING:  cpu time    0.0000: real time    0.0004
    --------------------------------------------
      LOOP:  cpu time    1.1080: real time    1.1203

 eigenvalue-minimisations  :  3632
 total energy-change (2. order) :-0.1311323E-03  (-0.4302095E-04)
 number of electron      59.0000038 magnetization       0.2256929
 augmentation part        4.5935862 magnetization       0.0045233

 Broyden mixing:
  rms(total) = 0.31034E-02    rms(broyden)= 0.31012E-02
  rms(prec ) = 0.52641E-02
  weight for this iteration     100.00

 eigenvalues of (default mixing * dielectric matrix)
  average eigenvalue GAMMA=   1.2964
  2.5971  2.2783  0.9746  0.9746  0.8089  0.8089  0.6325

 Free energy of the ion-electron system (eV)
  ---------------------------------------------------
  alpha Z        PSCENC =       142.81396753
  Ewald energy   TEWEN  =     -2470.73679645
  -Hartree energ DENC   =     -1093.08723640
  -exchange      EXHF   =         0.00000000
  -V(xc)+E(xc)   XCENC  =      -231.80959691
  PAW double counting   =      4023.38427687    -3570.89372817
  entropy T*S    EENTRO =        -0.00441956
  eigenvalues    EBANDS =      -115.41797268
  atomic energy  EATOM  =      3233.17333345
  Solvation  Ediel_sol  =         0.00000000
  ---------------------------------------------------
  free energy    TOTEN  =       -82.57817232 eV

  energy without entropy =      -82.57375276  energy(sigma->0) =      -82.57596254


--------------------------------------------------------------------------------------------------------




----------------------------------------- Iteration    1(  13)  ---------------------------------------


    POTLOK:  cpu time    0.0080: real time    0.0088
    SETDIJ:  cpu time    0.3760: real time    0.3750
     EDDAV:  cpu time    0.7280: real time    0.7303
       DOS:  cpu time    0.0040: real time    0.0009
    CHARGE:  cpu time    0.0160: real time    0.0184
    MIXING:  cpu time    0.0000: real time    0.0010
    --------------------------------------------
      LOOP:  cpu time    1.1320: real time    1.1370

 eigenvalue-minimisations  :  3792
 total energy-change (2. order) :-0.7634165E-05  (-0.7478730E-05)
 number of electron      59.0000038 magnetization       0.2261579
 augmentation part        4.5932106 magnetization       0.0036450

 Broyden mixing:
  rms(total) = 0.14596E-02    rms(broyden)= 0.14587E-02
  rms(prec ) = 0.23286E-02
  weight for this iteration     100.00

 eigenvalues of (default mixing * dielectric matrix)
  average eigenvalue GAMMA=   1.3080
  2.6780  2.4924  1.1501  0.9527  0.9527  0.9197  0.6889  0.6290

 Free energy of the ion-electron system (eV)
  ---------------------------------------------------
  alpha Z        PSCENC =       142.81396753
  Ewald energy   TEWEN  =     -2470.73679645
  -Hartree energ DENC   =     -1093.11617385
  -exchange      EXHF   =         0.00000000
  -V(xc)+E(xc)   XCENC  =      -231.80551218
  PAW double counting   =      4021.29152335    -3568.80280265
  entropy T*S    EENTRO =        -0.00438975
  eigenvalues    EBANDS =      -115.39132940
  atomic energy  EATOM  =      3233.17333345
  Solvation  Ediel_sol  =         0.00000000
  ---------------------------------------------------
  free energy    TOTEN  =       -82.57817996 eV

  energy without entropy =      -82.57379021  energy(sigma->0) =      -82.57598508


--------------------------------------------------------------------------------------------------------




----------------------------------------- Iteration    1(  14)  ---------------------------------------


    POTLOK:  cpu time    0.0120: real time    0.0103
    SETDIJ:  cpu time    0.3720: real time    0.3725
     EDDAV:  cpu time    0.7000: real time    0.7018
       DOS:  cpu time    0.0040: real time    0.0009
    CHARGE:  cpu time    0.0160: real time    0.0169
    MIXING:  cpu time    0.0000: real time    0.0005
    --------------------------------------------
      LOOP:  cpu time    1.1040: real time    1.1060

 eigenvalue-minimisations  :  3576
 total energy-change (2. order) :-0.3096033E-05  (-0.1794028E-05)
 number of electron      59.0000038 magnetization       0.2260759
 augmentation part        4.5933460 magnetization       0.0030727

 Broyden mixing:
  rms(total) = 0.79601E-03    rms(broyden)= 0.79564E-03
  rms(prec ) = 0.14231E-02
  weight for this iteration     100.00

 eigenvalues of (default mixing * dielectric matrix)
  average eigenvalue GAMMA=   1.2727
  2.7500  2.4162  1.1193  1.0034  1.0034  0.9282  0.9282  0.6775  0.6279

 Free energy of the ion-electron system (eV)
  ---------------------------------------------------
  alpha Z        PSCENC =       142.81396753
  Ewald energy   TEWEN  =     -2470.73679645
  -Hartree energ DENC   =     -1093.10532007
  -exchange      EXHF   =         0.00000000
  -V(xc)+E(xc)   XCENC  =      -231.80498846
  PAW double counting   =      4020.61527992    -3568.12667022
  entropy T*S    EENTRO =        -0.00438516
  eigenvalues    EBANDS =      -115.40260359
  atomic energy  EATOM  =      3233.17333345
  Solvation  Ediel_sol  =         0.00000000
  ---------------------------------------------------
  free energy    TOTEN  =       -82.57818305 eV

  energy without entropy =      -82.57379789  energy(sigma->0) =      -82.57599047


--------------------------------------------------------------------------------------------------------




----------------------------------------- Iteration    1(  15)  ---------------------------------------


    POTLOK:  cpu time    0.0080: real time    0.0088
    SETDIJ:  cpu time    0.3720: real time    0.3709
     EDDAV:  cpu time    0.7280: real time    0.7289
       DOS:  cpu time    0.0000: real time    0.0009
    --------------------------------------------
      LOOP:  cpu time    1.1080: real time    1.1124

 eigenvalue-minimisations  :  3776
 total energy-change (2. order) : 0.3841465E-06  (-0.4706550E-06)
 number of electron      59.0000038 magnetization       0.2260759
 augmentation part        4.5933460 magnetization       0.0030727

 Free energy of the ion-electron system (eV)
  ---------------------------------------------------
  alpha Z        PSCENC =       142.81396753
  Ewald energy   TEWEN  =     -2470.73679645
  -Hartree energ DENC   =     -1093.10082003
  -exchange      EXHF   =         0.00000000
  -V(xc)+E(xc)   XCENC  =      -231.80485805
  PAW double counting   =      4020.57591140    -3568.08730469
  entropy T*S    EENTRO =        -0.00439641
  eigenvalues    EBANDS =      -115.40721942
  atomic energy  EATOM  =      3233.17333345
  Solvation  Ediel_sol  =         0.00000000
  ---------------------------------------------------
  free energy    TOTEN  =       -82.57818267 eV

  energy without entropy =      -82.57378626  energy(sigma->0) =      -82.57598446


--------------------------------------------------------------------------------------------------------




 average (electrostatic) potential at core
  the test charge radii are     1.0714  0.7215
  (the norm of the test charge is              1.0000)
       1 -35.4608       2 -34.4610       3 -34.8516       4 -35.4851       5 -35.1771
       6 -34.7606       7 -34.8222       8 -34.8382       9 -34.4579      10 -69.4633
      11 -69.4417      12 -69.5096      13 -69.5198      14 -69.4439      15 -69.6796
      16 -70.7738
 
 
 
 E-fermi :   8.0702     XC(G=0): -11.0020     alpha+bet :-13.4265


 spin component 1

 k-point     1 :       0.2500    0.2500    0.2500
  band No.  band energies     occupation 
      1     -14.5361      1.00000
      2     -13.2248      1.00000
      3     -12.7048      1.00000
      4     -12.5370      1.00000
      5     -12.4388      1.00000
      6     -12.3111      1.00000
      7     -12.2567      1.00000
      8      -1.5354      1.00000
      9      -1.4330      1.00000
     10      -1.2368      1.00000
     11      -0.6917      1.00000
     12      -0.4296      1.00000
     13      -0.1276      1.00000
     14       0.0313      1.00000
     15       0.8761      1.00000
     16       1.3259      1.00000
     17       1.3364      1.00000
     18       1.7223      1.00000
     19       1.7546      1.00000
     20       1.9792      1.00000
     21       2.0368      1.00000
     22       2.3109      1.00000
     23       2.3765      1.00000
     24       2.5932      1.00000
     25       2.8253      1.00000
     26       2.8546      1.00000
     27       2.9524      1.00000
     28       2.9957      1.00000
     29       4.0855      1.00000
     30       8.5864      0.00000
     31       9.5571      0.00000
     32       9.7968      0.00000
     33      10.3163      0.00000
     34      11.1373      0.00000
     35      11.3257      0.00000
     36      11.4694      0.00000
     37      11.9733      0.00000
     38      12.3513      0.00000
     39      12.8013      0.00000
     40      13.0238      0.00000
     41      13.0892      0.00000
     42      13.2397      0.00000
     43      15.0694      0.00000
     44      15.1994      0.00000
     45      15.3447      0.00000
     46      15.4229      0.00000
     47      16.8536      0.00000
     48      17.0680      0.00000

 k-point     2 :       0.2500    0.0000    0.0000
  band No.  band energies     occupation 
      1     -14.5365      1.00000
      2     -13.2258      1.00000
      3     -12.7008      1.00000
      4     -12.5422      1.00000
      5     -12.4274      1.00000
      6     -12.3125      1.00000
      7     -12.2642      1.00000
      8      -1.4766      1.00000
      9      -1.4323      1.00000
     10      -1.2925      1.00000
     11      -0.7425      1.00000
     12      -0.4764      1.00000
     13      -0.0247      1.00000
     14       0.0506      1.00000
     15       0.8745      1.00000
     16       1.2981      1.00000
     17       1.3370      1.00000
     18       1.6980      1.00000
     19       1.7615      1.00000
     20       1.9686      1.00000
     21       2.0732      1.00000
     22       2.2706      1.00000
     23       2.3695      1.00000
     24       2.7064      1.00000
     25       2.8042      1.00000
     26       2.8374      1.00000
     27       2.9454      1.00000
     28       2.9811      1.00000
     29       4.0499      1.00000
     30       8.6404      0.00000
     31       9.6632      0.00000
     32       9.7533      0.00000
     33      10.0807      0.00000
     34      11.1819      0.00000
     35      11.4621      0.00000
     36      11.5151      0.00000
     37      12.1263      0.00000
     38      12.2375      0.00000
     39      12.7383      0.00000
     40      13.0157      0.00000
     41      13.1064      0.00000
     42      13.2964      0.00000
     43      14.9416      0.00000
     44      15.0863      0.00000
     45      15.2332      0.00000
     46      15.4440      0.00000
     47      17.0361      0.00000
     48      17.1397      0.00000

 k-point     3 :       0.0000    0.0000   -0.2500
  band No.  band energies     occupation 
      1     -14.5360      1.00000
      2     -13.2250      1.00000
      3     -12.7042      1.00000
      4     -12.5378      1.00000
      5     -12.4388      1.00000
      6     -12.3109      1.00000
      7     -12.2566      1.00000
      8      -1.5360      1.00000
      9      -1.4316      1.00000
     10      -1.2373      1.00000
     11      -0.6902      1.00000
     12      -0.4265      1.00000
     13      -0.1297      1.00000
     14       0.0276      1.00000
     15       0.8761      1.00000
     16       1.3258      1.00000
     17       1.3371      1.00000
     18       1.7243      1.00000
     19       1.7542      1.00000
     20       1.9782      1.00000
     21       2.0373      1.00000
     22       2.3124      1.00000
     23       2.3767      1.00000
     24       2.5905      1.00000
     25       2.8240      1.00000
     26       2.8528      1.00000
     27       2.9524      1.00000
     28       2.9976      1.00000
     29       4.0866      1.00000
     30       8.5886      0.00000
     31       9.5585      0.00000
     32       9.7913      0.00000
     33      10.3197      0.00000
     34      11.1377      0.00000
     35      11.3252      0.00000
     36      11.4681      0.00000
     37      11.9738      0.00000
     38      12.3502      0.00000
     39      12.8020      0.00000
     40      13.0284      0.00000
     41      13.0834      0.00000
     42      13.2397      0.00000
     43      15.0689      0.00000
     44      15.2038      0.00000
     45      15.3486      0.00000
     46      15.4212      0.00000
     47      16.8468      0.00000
     48      17.0689      0.00000

 k-point     4 :       0.0000    0.2500    0.0000
  band No.  band energies     occupation 
      1     -14.5364      1.00000
      2     -13.2256      1.00000
      3     -12.7007      1.00000
      4     -12.5428      1.00000
      5     -12.4280      1.00000
      6     -12.3122      1.00000
      7     -12.2637      1.00000
      8      -1.4803      1.00000
      9      -1.4332      1.00000
     10      -1.2874      1.00000
     11      -0.7370      1.00000
     12      -0.4752      1.00000
     13      -0.0337      1.00000
     14       0.0512      1.00000
     15       0.8764      1.00000
     16       1.2982      1.00000
     17       1.3366      1.00000
     18       1.6960      1.00000
     19       1.7642      1.00000
     20       1.9703      1.00000
     21       2.0697      1.00000
     22       2.2687      1.00000
     23       2.3734      1.00000
     24       2.6995      1.00000
     25       2.8053      1.00000
     26       2.8403      1.00000
     27       2.9437      1.00000
     28       2.9820      1.00000
     29       4.0523      1.00000
     30       8.6366      0.00000
     31       9.6542      0.00000
     32       9.7587      0.00000
     33      10.0968      0.00000
     34      11.1756      0.00000
     35      11.4620      0.00000
     36      11.5129      0.00000
     37      12.1233      0.00000
     38      12.2415      0.00000
     39      12.7328      0.00000
     40      13.0090      0.00000
     41      13.1067      0.00000
     42      13.3027      0.00000
     43      14.9479      0.00000
     44      15.0940      0.00000
     45      15.2407      0.00000
     46      15.4408      0.00000
     47      17.0283      0.00000
     48      17.1333      0.00000

 k-point     5 :      -0.2500    0.2500    0.2500
  band No.  band energies     occupation 
      1     -14.4828      1.00000
      2     -13.0817      1.00000
      3     -12.8352      1.00000
      4     -12.6098      1.00000
      5     -12.4422      1.00000
      6     -12.3819      1.00000
      7     -12.2519      1.00000
      8      -1.1192      1.00000
      9      -1.0072      1.00000
     10      -0.7932      1.00000
     11      -0.5519      1.00000
     12      -0.1108      1.00000
     13       0.0783      1.00000
     14       0.4606      1.00000
     15       0.6385      1.00000
     16       0.8669      1.00000
     17       0.9681      1.00000
     18       1.2900      1.00000
     19       1.5235      1.00000
     20       1.6111      1.00000
     21       1.7436      1.00000
     22       1.8418      1.00000
     23       2.1492      1.00000
     24       2.3156      1.00000
     25       2.5796      1.00000
     26       2.6948      1.00000
     27       2.7761      1.00000
     28       2.8801      1.00000
     29       5.1891      1.00000
     30       8.0292      0.87663
     31       8.7914      0.00000
     32       9.4451      0.00000
     33      10.8942      0.00000
     34      11.7228      0.00000
     35      12.3214      0.00000
     36      12.5988      0.00000
     37      12.8430      0.00000
     38      13.0707      0.00000
     39      13.3921      0.00000
     40      13.8401      0.00000
     41      13.9786      0.00000
     42      14.1727      0.00000
     43      14.4247      0.00000
     44      14.5910      0.00000
     45      14.8034      0.00000
     46      15.3534      0.00000
     47      15.6008      0.00000
     48      16.2373      0.00000

 k-point     6 :       0.2500   -0.2500    0.2500
  band No.  band energies     occupation 
      1     -14.4820      1.00000
      2     -13.1076      1.00000
      3     -12.8089      1.00000
      4     -12.5992      1.00000
      5     -12.4377      1.00000
      6     -12.3705      1.00000
      7     -12.2791      1.00000
      8      -1.0961      1.00000
      9      -1.0399      1.00000
     10      -0.8167      1.00000
     11      -0.5388      1.00000
     12      -0.1331      1.00000
     13       0.0516      1.00000
     14       0.5003      1.00000
     15       0.6245      1.00000
     16       0.8611      1.00000
     17       0.9813      1.00000
     18       1.3610      1.00000
     19       1.4958      1.00000
     20       1.5978      1.00000
     21       1.8001      1.00000
     22       1.8639      1.00000
     23       2.1303      1.00000
     24       2.3204      1.00000
     25       2.5742      1.00000
     26       2.6962      1.00000
     27       2.7494      1.00000
     28       2.8722      1.00000
     29       5.1397      1.00000
     30       8.1646      0.00378
     31       8.8203      0.00000
     32       9.2814      0.00000
     33      10.8881      0.00000
     34      11.7317      0.00000
     35      12.4023      0.00000
     36      12.6274      0.00000
     37      12.8004      0.00000
     38      13.1681      0.00000
     39      13.3394      0.00000
     40      13.7860      0.00000
     41      14.0450      0.00000
     42      14.2222      0.00000
     43      14.3382      0.00000
     44      14.5140      0.00000
     45      14.8088      0.00000
     46      15.2497      0.00000
     47      15.5898      0.00000
     48      16.2317      0.00000

 k-point     7 :       0.2500    0.2500   -0.2500
  band No.  band energies     occupation 
      1     -14.4831      1.00000
      2     -13.0514      1.00000
      3     -12.8509      1.00000
      4     -12.6591      1.00000
      5     -12.4177      1.00000
      6     -12.3912      1.00000
      7     -12.2324      1.00000
      8      -1.1759      1.00000
      9      -0.9912      1.00000
     10      -0.7275      1.00000
     11      -0.5052      1.00000
     12      -0.0921      1.00000
     13       0.1159      1.00000
     14       0.3576      1.00000
     15       0.6346      1.00000
     16       0.8376      1.00000
     17       0.9539      1.00000
     18       1.2969      1.00000
     19       1.4416      1.00000
     20       1.7004      1.00000
     21       1.7452      1.00000
     22       1.8284      1.00000
     23       2.0972      1.00000
     24       2.3313      1.00000
     25       2.5430      1.00000
     26       2.6776      1.00000
     27       2.8306      1.00000
     28       2.9220      1.00000
     29       5.2609      1.00000
     30       7.8639      1.00000
     31       8.7791      0.00000
     32       9.6949      0.00000
     33      10.7648      0.00000
     34      11.6799      0.00000
     35      12.2850      0.00000
     36      12.3684      0.00000
     37      12.8043      0.00000
     38      13.0237      0.00000
     39      13.5134      0.00000
     40      13.8206      0.00000
     41      14.0610      0.00000
     42      14.3617      0.00000
     43      14.6243      0.00000
     44      14.8011      0.00000
     45      14.8773      0.00000
     46      15.2709      0.00000
     47      15.4531      0.00000
     48      16.0031      0.00000

 k-point     8 :       0.2500    0.0000    0.5000
  band No.  band energies     occupation 
      1     -14.4816      1.00000
      2     -13.1051      1.00000
      3     -12.8164      1.00000
      4     -12.5942      1.00000
      5     -12.4508      1.00000
      6     -12.3606      1.00000
      7     -12.2762      1.00000
      8      -1.1190      1.00000
      9      -1.0477      1.00000
     10      -0.8220      1.00000
     11      -0.4795      1.00000
     12      -0.1079      1.00000
     13       0.0644      1.00000
     14       0.4871      1.00000
     15       0.5512      1.00000
     16       0.8799      1.00000
     17       0.9517      1.00000
     18       1.3635      1.00000
     19       1.4902      1.00000
     20       1.6215      1.00000
     21       1.8281      1.00000
     22       1.8774      1.00000
     23       2.0976      1.00000
     24       2.3353      1.00000
     25       2.5261      1.00000
     26       2.6935      1.00000
     27       2.7570      1.00000
     28       2.9040      1.00000
     29       5.1858      1.00000
     30       7.9564      0.99935
     31       9.0175      0.00000
     32       9.3332      0.00000
     33      10.7794      0.00000
     34      11.7940      0.00000
     35      12.3212      0.00000
     36      12.4859      0.00000
     37      12.6889      0.00000
     38      13.1397      0.00000
     39      13.3698      0.00000
     40      13.7667      0.00000
     41      14.1973      0.00000
     42      14.3285      0.00000
     43      14.6007      0.00000
     44      14.6867      0.00000
     45      14.7620      0.00000
     46      15.2775      0.00000
     47      15.4285      0.00000
     48      16.0852      0.00000

 k-point     9 :      -0.2500    0.5000    0.5000
  band No.  band energies     occupation 
      1     -14.4824      1.00000
      2     -13.0768      1.00000
      3     -12.8454      1.00000
      4     -12.6063      1.00000
      5     -12.4509      1.00000
      6     -12.3749      1.00000
      7     -12.2486      1.00000
      8      -1.1414      1.00000
      9      -1.0258      1.00000
     10      -0.7879      1.00000
     11      -0.4866      1.00000
     12      -0.0848      1.00000
     13       0.0866      1.00000
     14       0.4494      1.00000
     15       0.5648      1.00000
     16       0.8750      1.00000
     17       0.9287      1.00000
     18       1.3393      1.00000
     19       1.4657      1.00000
     20       1.6671      1.00000
     21       1.7658      1.00000
     22       1.8436      1.00000
     23       2.1177      1.00000
     24       2.3331      1.00000
     25       2.5364      1.00000
     26       2.6925      1.00000
     27       2.7829      1.00000
     28       2.9101      1.00000
     29       5.2385      1.00000
     30       7.8489      1.00000
     31       8.9201      0.00000
     32       9.5491      0.00000
     33      10.7653      0.00000
     34      11.7896      0.00000
     35      12.2571      0.00000
     36      12.4011      0.00000
     37      12.7688      0.00000
     38      13.0838      0.00000
     39      13.4112      0.00000
     40      13.7798      0.00000
     41      14.1172      0.00000
     42      14.3299      0.00000
     43      14.5839      0.00000
     44      14.8440      0.00000
     45      14.8982      0.00000
     46      15.2010      0.00000
     47      15.4930      0.00000
     48      16.0044      0.00000

 k-point    10 :       0.2500    0.5000    0.0000
  band No.  band energies     occupation 
      1     -14.4835      1.00000
      2     -13.0554      1.00000
      3     -12.8555      1.00000
      4     -12.6191      1.00000
      5     -12.4772      1.00000
      6     -12.3631      1.00000
      7     -12.2319      1.00000
      8      -1.0819      1.00000
      9      -1.0309      1.00000
     10      -0.8136      1.00000
     11      -0.5282      1.00000
     12      -0.0942      1.00000
     13       0.0995      1.00000
     14       0.5187      1.00000
     15       0.6048      1.00000
     16       0.8541      1.00000
     17       0.9447      1.00000
     18       1.2412      1.00000
     19       1.5223      1.00000
     20       1.5716      1.00000
     21       1.7309      1.00000
     22       1.7859      1.00000
     23       2.1917      1.00000
     24       2.3266      1.00000
     25       2.6009      1.00000
     26       2.7050      1.00000
     27       2.7717      1.00000
     28       2.9033      1.00000
     29       5.2206      1.00000
     30       7.9303      0.99996
     31       8.9867      0.00000
     32       9.3124      0.00000
     33      10.8676      0.00000
     34      11.7947      0.00000
     35      12.2373      0.00000
     36      12.5922      0.00000
     37      12.7406      0.00000
     38      13.1367      0.00000
     39      13.4780      0.00000
     40      13.8378      0.00000
     41      14.0722      0.00000
     42      14.1830      0.00000
     43      14.3748      0.00000
     44      14.5758      0.00000
     45      14.8064      0.00000
     46      15.3754      0.00000
     47      15.6693      0.00000
     48      16.1944      0.00000

 k-point    11 :       0.0000    0.5000   -0.2500
  band No.  band energies     occupation 
      1     -14.4828      1.00000
      2     -13.0812      1.00000
      3     -12.8349      1.00000
      4     -12.6130      1.00000
      5     -12.4379      1.00000
      6     -12.3839      1.00000
      7     -12.2519      1.00000
      8      -1.1233      1.00000
      9      -1.0065      1.00000
     10      -0.7881      1.00000
     11      -0.5484      1.00000
     12      -0.1085      1.00000
     13       0.0783      1.00000
     14       0.4510      1.00000
     15       0.6397      1.00000
     16       0.8638      1.00000
     17       0.9695      1.00000
     18       1.2907      1.00000
     19       1.5200      1.00000
     20       1.6158      1.00000
     21       1.7432      1.00000
     22       1.8459      1.00000
     23       2.1451      1.00000
     24       2.3156      1.00000
     25       2.5768      1.00000
     26       2.6934      1.00000
     27       2.7791      1.00000
     28       2.8813      1.00000
     29       5.1916      1.00000
     30       8.0186      0.92769
     31       8.7921      0.00000
     32       9.4616      0.00000
     33      10.8885      0.00000
     34      11.7201      0.00000
     35      12.3191      0.00000
     36      12.5988      0.00000
     37      12.8416      0.00000
     38      13.0635      0.00000
     39      13.3943      0.00000
     40      13.8404      0.00000
     41      13.9809      0.00000
     42      14.1727      0.00000
     43      14.4363      0.00000
     44      14.6032      0.00000
     45      14.8077      0.00000
     46      15.3605      0.00000
     47      15.5812      0.00000
     48      16.2326      0.00000

 k-point    12 :       0.5000    0.0000   -0.2500
  band No.  band energies     occupation 
      1     -14.4820      1.00000
      2     -13.1080      1.00000
      3     -12.8095      1.00000
      4     -12.5966      1.00000
      5     -12.4398      1.00000
      6     -12.3697      1.00000
      7     -12.2795      1.00000
      8      -1.0936      1.00000
      9      -1.0388      1.00000
     10      -0.8207      1.00000
     11      -0.5434      1.00000
     12      -0.1357      1.00000
     13       0.0527      1.00000
     14       0.5051      1.00000
     15       0.6266      1.00000
     16       0.8643      1.00000
     17       0.9792      1.00000
     18       1.3639      1.00000
     19       1.4973      1.00000
     20       1.5925      1.00000
     21       1.7998      1.00000
     22       1.8595      1.00000
     23       2.1363      1.00000
     24       2.3202      1.00000
     25       2.5774      1.00000
     26       2.6951      1.00000
     27       2.7489      1.00000
     28       2.8698      1.00000
     29       5.1370      1.00000
     30       8.1790      0.00104
     31       8.8210      0.00000
     32       9.2603      0.00000
     33      10.8941      0.00000
     34      11.7327      0.00000
     35      12.4059      0.00000
     36      12.6278      0.00000
     37      12.8030      0.00000
     38      13.1753      0.00000
     39      13.3360      0.00000
     40      13.7817      0.00000
     41      14.0459      0.00000
     42      14.2247      0.00000
     43      14.3235      0.00000
     44      14.5015      0.00000
     45      14.8132      0.00000
     46      15.2391      0.00000
     47      15.6026      0.00000
     48      16.2363      0.00000

 k-point    13 :       0.5000    0.5000    0.2500
  band No.  band energies     occupation 
      1     -14.4832      1.00000
      2     -13.0507      1.00000
      3     -12.8521      1.00000
      4     -12.6582      1.00000
      5     -12.4179      1.00000
      6     -12.3913      1.00000
      7     -12.2324      1.00000
      8      -1.1757      1.00000
      9      -0.9920      1.00000
     10      -0.7282      1.00000
     11      -0.5065      1.00000
     12      -0.0914      1.00000
     13       0.1167      1.00000
     14       0.3586      1.00000
     15       0.6353      1.00000
     16       0.8382      1.00000
     17       0.9537      1.00000
     18       1.2939      1.00000
     19       1.4443      1.00000
     20       1.6983      1.00000
     21       1.7443      1.00000
     22       1.8311      1.00000
     23       2.0971      1.00000
     24       2.3305      1.00000
     25       2.5440      1.00000
     26       2.6784      1.00000
     27       2.8332      1.00000
     28       2.9189      1.00000
     29       5.2600      1.00000
     30       7.8626      1.00000
     31       8.7813      0.00000
     32       9.6927      0.00000
     33      10.7659      0.00000
     34      11.6796      0.00000
     35      12.2819      0.00000
     36      12.3721      0.00000
     37      12.8058      0.00000
     38      13.0248      0.00000
     39      13.5181      0.00000
     40      13.8195      0.00000
     41      14.0540      0.00000
     42      14.3587      0.00000
     43      14.6261      0.00000
     44      14.7971      0.00000
     45      14.8688      0.00000
     46      15.2784      0.00000
     47      15.4546      0.00000
     48      16.0092      0.00000

 k-point    14 :       0.5000   -0.2500    0.5000
  band No.  band energies     occupation 
      1     -14.4817      1.00000
      2     -13.1048      1.00000
[...]
     15       0.5808      1.00000
     16       0.8808      1.00000
     17       0.9479      1.00000
     18       1.3556      1.00000
     19       1.4743      1.00000
     20       1.6818      1.00000
     21       1.7749      1.00000
     22       1.8569      1.00000
     23       2.1216      1.00000
     24       2.3413      1.00000
     25       2.5458      1.00000
     26       2.7004      1.00000
     27       2.7912      1.00000
     28       2.9198      1.00000
     29       5.3304      1.00000
     30       7.9964      0.98151
     31       9.0279      0.00000
     32       9.6618      0.00000
     33      10.7829      0.00000
     34      11.8004      0.00000
     35      12.2946      0.00000
     36      12.4254      0.00000
     37      12.7892      0.00000
     38      13.1307      0.00000
     39      13.4566      0.00000
     40      13.8444      0.00000
     41      14.1867      0.00000
     42      14.3999      0.00000
     43      14.6221      0.00000
     44      14.8982      0.00000
     45      14.9348      0.00000
     46      15.2555      0.00000
     47      15.5069      0.00000
     48      16.0359      0.00000

 k-point    16 :       0.5000    0.2500    0.0000
  band No.  band energies     occupation 
      1     -14.4816      1.00000
      2     -13.0476      1.00000
      3     -12.8465      1.00000
      4     -12.6116      1.00000
      5     -12.4679      1.00000
      6     -12.3559      1.00000
      7     -12.2235      1.00000
      8      -1.0753      1.00000
      9      -1.0249      1.00000
     10      -0.7828      1.00000
     11      -0.5163      1.00000
     12      -0.0880      1.00000
     13       0.1146      1.00000
     14       0.5462      1.00000
     15       0.6256      1.00000
     16       0.8732      1.00000
     17       0.9546      1.00000
     18       1.2543      1.00000
     19       1.5324      1.00000
     20       1.5809      1.00000
     21       1.7420      1.00000
     22       1.7939      1.00000
     23       2.2026      1.00000
     24       2.3343      1.00000
     25       2.6136      1.00000
     26       2.7141      1.00000
     27       2.7791      1.00000
     28       2.9107      1.00000
     29       5.3134      1.00000
     30       8.0594      0.61978
     31       9.1186      0.00000
     32       9.4034      0.00000
     33      10.8939      0.00000
     34      11.8026      0.00000
     35      12.2662      0.00000
     36      12.6356      0.00000
     37      12.7678      0.00000
     38      13.1902      0.00000
     39      13.5190      0.00000
     40      13.9020      0.00000
     41      14.1185      0.00000
     42      14.2565      0.00000
     43      14.4035      0.00000
     44      14.6042      0.00000
     45      14.8715      0.00000
     46      15.4129      0.00000
     47      15.6953      0.00000
     48      16.2455      0.00000


--------------------------------------------------------------------------------------------------------


 soft charge-density along one line, spin component           1
         0         1         2         3         4         5         6         7         8         9
 total charge-density along one line
 
 soft charge-density along one line, spin component           2
         0         1         2         3         4         5         6         7         8         9
 total charge-density along one line
 
 pseudopotential strength for first ion, spin component:           1
  3.007   9.552  -0.006  -0.000   0.003  -0.019  -0.001   0.009
  9.552  30.194  -0.033  -0.001   0.016  -0.074  -0.002   0.038
 -0.006  -0.033   7.415  -0.000   0.006  10.739  -0.000   0.010
 -0.000  -0.001  -0.000   7.410   0.000  -0.000  10.732   0.000
  0.003   0.016   0.006   0.000   7.412   0.010   0.000  10.734
 -0.019  -0.074  10.739  -0.000   0.010  14.773  -0.001   0.017
 -0.001  -0.002  -0.000  10.732   0.000  -0.001  14.764   0.000
  0.009   0.038   0.010   0.000  10.734   0.017   0.000  14.767
  0.005   0.013   0.012   0.000  -0.023   0.013   0.000  -0.025
 -0.000  -0.000  -0.001  -0.024   0.000  -0.001  -0.026   0.000
 -0.001  -0.003   0.018  -0.001  -0.010   0.020  -0.001  -0.010
  0.000   0.000   0.000   0.013  -0.001   0.000   0.014  -0.001
 -0.001  -0.002   0.032  -0.000   0.018   0.035  -0.000   0.019
 pseudopotential strength for first ion, spin component:           2
  3.006   9.548  -0.006  -0.000   0.002  -0.019  -0.001   0.009
  9.548  30.179  -0.033  -0.001   0.015  -0.073  -0.002   0.036
 -0.006  -0.033   7.415  -0.000   0.006  10.736  -0.000   0.010
 -0.000  -0.001  -0.000   7.411   0.000  -0.000  10.730   0.000
  0.002   0.015   0.006   0.000   7.413   0.010   0.000  10.732
 -0.019  -0.073  10.736  -0.000   0.010  14.766  -0.001   0.016
 -0.001  -0.002  -0.000  10.730   0.000  -0.001  14.757   0.000
  0.009   0.036   0.010   0.000  10.732   0.016   0.000  14.760
  0.005   0.012   0.011   0.000  -0.023   0.012   0.000  -0.025
 -0.000  -0.001  -0.001  -0.024   0.000  -0.001  -0.025   0.000
 -0.001  -0.003   0.018  -0.001  -0.009   0.020  -0.001  -0.010
  0.000   0.000   0.000   0.012  -0.001   0.000   0.013  -0.001
 -0.001  -0.003   0.032  -0.000   0.017   0.035  -0.000   0.019
 total augmentation occupancy for first ion, spin component:           1
  2.248  -0.042   0.192   0.005  -0.108  -0.026  -0.001   0.014  -0.009   0.000  -0.018   0.000  -0.010
 -0.042   0.001   0.000   0.000  -0.000   0.000  -0.000  -0.000   0.001  -0.000   0.000  -0.000   0.000
  0.192   0.000   0.138   0.000  -0.006  -0.010  -0.000   0.003   0.009  -0.000   0.002   0.000  -0.004
  0.005   0.000   0.000   0.121   0.000  -0.000  -0.007   0.000   0.000   0.006   0.000  -0.005   0.000
 -0.108  -0.000  -0.006   0.000   0.134   0.003   0.000  -0.008  -0.003   0.000  -0.003   0.000  -0.002
 -0.026   0.000  -0.010  -0.000   0.003   0.001   0.000  -0.000  -0.001   0.000  -0.000   0.000   0.000
 -0.001  -0.000  -0.000  -0.007   0.000   0.000   0.000  -0.000   0.000   0.000   0.000   0.000  -0.000
  0.014  -0.000   0.003   0.000  -0.008  -0.000  -0.000   0.001   0.001   0.000   0.000   0.000  -0.000
 -0.009   0.001   0.009   0.000  -0.003  -0.001   0.000   0.001   0.015   0.000   0.006  -0.000  -0.001
  0.000  -0.000  -0.000   0.006   0.000   0.000   0.000   0.000   0.000   0.013   0.000   0.000  -0.000
 -0.018   0.000   0.002   0.000  -0.003  -0.000   0.000   0.000   0.006   0.000   0.009  -0.000  -0.001
  0.000  -0.000   0.000  -0.005   0.000   0.000   0.000   0.000  -0.000   0.000  -0.000   0.009  -0.000
 -0.010   0.000  -0.004   0.000  -0.002   0.000  -0.000  -0.000  -0.001  -0.000  -0.001  -0.000   0.007
 total augmentation occupancy for first ion, spin component:           2
  0.037  -0.001  -0.003  -0.001   0.013  -0.000   0.000  -0.000   0.007  -0.000   0.001   0.000   0.002
 -0.001   0.000  -0.000  -0.000   0.000   0.000   0.000  -0.000   0.000  -0.000   0.000   0.000  -0.000
 -0.003  -0.000   0.007   0.000   0.005  -0.000  -0.000  -0.000   0.000   0.000  -0.000  -0.000  -0.001
 -0.001  -0.000   0.000   0.012   0.000  -0.000  -0.001  -0.000  -0.000   0.002  -0.000  -0.001  -0.000
  0.013   0.000   0.005   0.000   0.017  -0.000  -0.000  -0.001   0.003   0.000   0.000   0.000  -0.001
 -0.000   0.000  -0.000  -0.000  -0.000   0.000   0.000   0.000  -0.000  -0.000   0.000  -0.000   0.000
  0.000   0.000  -0.000  -0.001  -0.000   0.000   0.000   0.000   0.000  -0.000   0.000   0.000   0.000
 -0.000  -0.000  -0.000  -0.000  -0.001   0.000   0.000   0.000  -0.000  -0.000  -0.000  -0.000   0.000
  0.007   0.000   0.000  -0.000   0.003  -0.000   0.000  -0.000   0.001  -0.000   0.000   0.000  -0.000
 -0.000  -0.000   0.000   0.002   0.000  -0.000  -0.000  -0.000  -0.000   0.001  -0.000  -0.000  -0.000
  0.001   0.000  -0.000  -0.000   0.000   0.000   0.000  -0.000   0.000  -0.000   0.000   0.000  -0.000
  0.000   0.000  -0.000  -0.001   0.000  -0.000   0.000  -0.000   0.000  -0.000   0.000   0.000   0.000
  0.002  -0.000  -0.001  -0.000  -0.001   0.000   0.000   0.000  -0.000  -0.000  -0.000   0.000   0.000


------------------------ aborting loop because EDIFF is reached ----------------------------------------


 


 total charge     
 
# of ion     s       p       d       tot
----------------------------------------
  1        0.372   0.215   0.028   0.616
  2        0.140   0.164   0.071   0.375
  3        0.179   0.194   0.077   0.451
  4        0.195   0.233   0.104   0.532
  5        0.189   0.216   0.092   0.497
  6        0.169   0.175   0.065   0.409
  7        0.162   0.165   0.059   0.386
  8        0.178   0.192   0.076   0.446
  9        0.140   0.165   0.071   0.375
 10        1.582   3.522   0.000   5.105
 11        1.582   3.508   0.000   5.090
 12        1.580   3.513   0.000   5.092
 13        1.579   3.512   0.000   5.091
 14        1.582   3.507   0.000   5.089
 15        1.574   3.517   0.000   5.091
 16        1.576   3.656   0.000   5.232
------------------------------------------------
tot       12.778  26.455   0.643  39.876
 


 magnetization (x)
 
# of ion     s       p       d       tot
----------------------------------------
  1        0.006   0.020   0.001   0.027
  2        0.000   0.000   0.000   0.000
  3        0.003   0.002   0.001   0.006
  4        0.002   0.001   0.000   0.003
  5        0.005   0.004   0.001   0.010
  6        0.005   0.003   0.001   0.009
  7        0.002   0.002   0.001   0.005
  8        0.003   0.002   0.001   0.006
  9        0.000   0.000   0.000   0.000
 10        0.002   0.001   0.000   0.003
 11        0.002   0.002   0.000   0.005
 12        0.001   0.003   0.000   0.005
 13        0.002   0.003   0.000   0.004
 14        0.002   0.002   0.000   0.004
 15        0.002   0.000   0.000   0.003
 16        0.000   0.001   0.000   0.001
------------------------------------------------
tot        0.037   0.048   0.006   0.091
 
    CHARGE:  cpu time    0.0200: real time    0.0186
    FORLOC:  cpu time    0.0000: real time    0.0005
    FORNL :  cpu time    0.1160: real time    0.1162
    STRESS:  cpu time    0.3680: real time    0.3693
    FORCOR:  cpu time    0.0080: real time    0.0082
    FORHAR:  cpu time    0.0000: real time    0.0014
    MIXING:  cpu time    0.0000: real time    0.0005
    OFIELD:  cpu time    0.0000: real time    0.0000

  FORCE on cell =-STRESS in cart. coord.  units (eV):
  Direction    XX          YY          ZZ          XY          YZ          ZX
  --------------------------------------------------------------------------------------
  Alpha Z   142.81397   142.81397   142.81397
  Ewald    -823.38654  -819.02775  -828.32742    -1.24953    -0.11725     0.02464
  Hartree   365.48748   359.03816   368.59396     1.97927    -0.17786     0.07687
  E(xc)    -264.31178  -264.38345  -264.22185     0.01746    -0.00177    -0.00091
  Local    -359.08809  -354.31619  -358.96648     1.90644     0.18742    -0.00403
  n-local  -106.65307  -105.94735  -107.33711    -0.24074     0.02285    -0.00167
  augment    47.23680    47.14346    47.28442     0.03748    -0.00083     0.00112
  Kinetic  1007.35099  1005.55050  1008.19405     1.66126    -0.06255     0.05890
  Fock        0.00000     0.00000     0.00000     0.00000     0.00000     0.00000
  -------------------------------------------------------------------------------------
  Total       9.44977    10.87135     8.03354     4.11165    -0.14999     0.15492
  in kB      98.82976   113.69732    84.01824    43.00141    -1.56861     1.62027
  external pressure =       98.85 kB  Pullay stress =        0.00 kB


 VOLUME and BASIS-vectors are now :
 -----------------------------------------------------------------------------
  energy-cutoff  :      400.00
  volume of cell :      153.19
      direct lattice vectors                 reciprocal lattice vectors
     0.000000000  4.246893000  4.246893000    -0.117733129  0.117733129  0.117733129
     4.246893000  0.000000000  4.246893000     0.117733129 -0.117733129  0.117733129
     4.246893000  4.246893000  0.000000000     0.117733129  0.117733129 -0.117733129

  length of vectors
     6.006013679  6.006013679  6.006013679     0.203919761  0.203919761  0.203919761


 FORCES acting on ions
    electron-ion (+dipol)            ewald-force                    non-local-force                 convergence-correction
 -----------------------------------------------------------------------------------------------
   0.127E+02 -.193E+02 -.578E+00   -.151E+02 0.239E+02 0.706E+00   0.242E+01 -.465E+01 -.120E+00   0.786E-04 0.203E-03 0.262E-04
   -.139E+01 0.193E+01 0.141E+01   0.134E+01 -.189E+01 -.119E+01   0.510E-01 -.476E-01 -.235E+00   -.101E-03 0.177E-04 -.312E-03
   0.811E+00 -.217E+01 -.269E+02   -.927E+00 0.225E+01 0.275E+02   0.130E+00 -.881E-01 -.681E+00   -.203E-04 0.797E-04 -.194E-03
   0.294E+00 -.188E+02 0.350E-01   -.494E+00 0.174E+02 -.240E-01   0.188E+00 0.137E+01 0.383E-02   0.335E-03 -.390E-03 0.564E-04
   0.227E+02 -.526E+00 0.231E-01   -.224E+02 0.888E+00 -.904E-02   -.316E+00 -.379E+00 -.141E-01   0.282E-03 -.329E-03 0.479E-04
   -.306E+02 -.715E+01 0.343E-01   0.316E+02 0.644E+01 -.276E-01   -.108E+01 0.719E+00 -.154E-01   -.208E-03 0.343E-03 -.466E-04
   0.590E+01 0.334E+02 -.100E+00   -.517E+01 -.345E+02 0.868E-01   -.703E+00 0.107E+01 0.221E-01   -.272E-03 0.118E-03 -.600E-04
   0.118E+01 -.259E+01 0.270E+02   -.124E+01 0.259E+01 -.278E+02   0.553E-01 -.899E-02 0.730E+00   0.730E-04 -.372E-04 0.194E-03
   -.131E+01 0.180E+01 -.136E+01   0.128E+01 -.177E+01 0.114E+01   0.346E-01 -.198E-01 0.224E+00   0.204E-04 -.778E-04 0.311E-03
   0.159E+02 -.834E+01 0.388E-01   -.181E+02 0.104E+02 -.153E-01   0.225E+01 -.209E+01 -.281E-01   -.118E-02 -.161E-02 -.252E-04
   -.470E+00 -.485E+01 -.108E+02   -.299E+00 0.517E+01 0.119E+02   0.766E+00 -.319E+00 -.110E+01   -.296E-03 0.287E-03 -.461E-03
   0.342E+01 0.328E+00 -.186E+02   -.367E+01 0.619E+00 0.207E+02   0.248E+00 -.953E+00 -.212E+01   0.275E-03 -.534E-03 0.149E-02
   0.371E+01 0.164E+01 0.187E+02   -.397E+01 -.840E+00 -.209E+02   0.261E+00 -.808E+00 0.228E+01   0.209E-03 -.573E-03 -.144E-02
   -.162E+01 -.499E+01 0.106E+02   0.985E+00 0.532E+01 -.116E+02   0.649E+00 -.326E+00 0.101E+01   -.333E-03 0.381E-03 0.505E-03
   -.212E+02 0.127E+02 -.190E+00   0.244E+02 -.146E+02 0.238E+00   -.325E+01 0.188E+01 -.512E-01   0.116E-02 0.232E-04 0.632E-04
   -.789E+01 0.148E+02 0.576E+00   0.118E+02 -.215E+02 -.709E+00   -.388E+01 0.668E+01 0.117E+00   -.321E-03 -.282E-03 -.409E-04
 -----------------------------------------------------------------------------------------------
   0.216E+01 -.203E+01 -.339E-01   -.711E-14 -.711E-14 0.113E-13   -.217E+01 0.203E+01 0.199E-01   -.295E-03 -.238E-02 0.112E-03
 
 
 POSITION                                       TOTAL-FORCE (eV/Angst)
 -----------------------------------------------------------------------------------
      2.38721      1.70991      2.09794         0.000738     -0.002857      0.009228
      4.21021      0.06272      4.25057         0.003122     -0.007630     -0.014814
      6.32186      6.44234      8.34202         0.014606     -0.009407     -0.035126
      6.31598      8.12034      6.35796        -0.010856     -0.004511      0.015733
      4.50922      6.46205      6.36164        -0.000992     -0.017358      0.000894
      8.44683      6.39705      6.36384        -0.002887      0.011075     -0.007851
      6.36345      4.23431      6.35888         0.027710      0.020398      0.009406
      6.32747      6.43606      4.36714        -0.005137     -0.006794      0.002197
      4.21146      4.30746      4.22384         0.002753      0.007275      0.005088
      4.30054      4.26512      2.11371        -0.002576      0.000692     -0.003822
      4.20910      2.18226      4.18981        -0.002324     -0.001236      0.009587
      6.33658      4.31832      4.12980        -0.001577     -0.006548      0.026302
      2.09123      4.32270      4.34188        -0.002675     -0.010194      0.003657
      4.20272      6.42991      4.28642         0.013251      0.001558     -0.003189
      4.06945      4.40527      6.36008        -0.021357      0.010122     -0.002073
      6.43201      6.24101      6.35765        -0.011799      0.015415     -0.015217
 -----------------------------------------------------------------------------------
    total drift:                               -0.014575     -0.000010     -0.013866


--------------------------------------------------------------------------------------------------------



  FREE ENERGIE OF THE ION-ELECTRON SYSTEM (eV)
  ---------------------------------------------------
  free  energy   TOTEN  =       -82.57818267 eV

  energy  without entropy=      -82.57378626  energy(sigma->0) =      -82.57598446
 


--------------------------------------------------------------------------------------------------------


    POTLOK:  cpu time    0.3840: real time    0.3838


--------------------------------------------------------------------------------------------------------




--------------------------------------------------------------------------------------------------------


  
 reached required accuracy - stopping structural energy minimisation
     LOOP+:  cpu time   16.5400: real time   16.6797
    4ORBIT:  cpu time    0.0000: real time    0.0000
 


 total charge     
 
# of ion     s       p       d       tot
----------------------------------------
  1        0.372   0.215   0.028   0.616
  2        0.140   0.164   0.071   0.375
  3        0.179   0.194   0.077   0.451
  4        0.195   0.233   0.104   0.532
  5        0.189   0.216   0.092   0.497
  6        0.169   0.175   0.065   0.409
  7        0.162   0.165   0.059   0.386
  8        0.178   0.192   0.076   0.446
  9        0.140   0.165   0.071   0.375
 10        1.582   3.522   0.000   5.105
 11        1.582   3.508   0.000   5.090
 12        1.580   3.513   0.000   5.092
 13        1.579   3.512   0.000   5.091
 14        1.582   3.507   0.000   5.089
 15        1.574   3.517   0.000   5.091
 16        1.576   3.656   0.000   5.232
------------------------------------------------
tot       12.778  26.455   0.643  39.876
 


 magnetization (x)
 
# of ion     s       p       d       tot
----------------------------------------
  1        0.006   0.020   0.001   0.027
  2        0.000   0.000   0.000   0.000
  3        0.003   0.002   0.001   0.006
  4        0.002   0.001   0.000   0.003
  5        0.005   0.004   0.001   0.010
  6        0.005   0.003   0.001   0.009
  7        0.002   0.002   0.001   0.005
  8        0.003   0.002   0.001   0.006
  9        0.000   0.000   0.000   0.000
 10        0.002   0.001   0.000   0.003
 11        0.002   0.002   0.000   0.005
 12        0.001   0.003   0.000   0.005
 13        0.002   0.003   0.000   0.004
 14        0.002   0.002   0.000   0.004
 15        0.002   0.000   0.000   0.003
 16        0.000   0.001   0.000   0.001
------------------------------------------------
tot        0.037   0.048   0.006   0.091
 

 total amount of memory used by VASP on root node    34278. kBytes
========================================================================

   base      :      30000. kBytes
   nonlr-proj:        922. kBytes
   fftplans  :        353. kBytes
   grid      :        883. kBytes
   one-center:         32. kBytes
   wavefun   :       2088. kBytes
 
  
  
 General timing and accounting informations for this job:
 ========================================================
  
                  Total CPU time used (sec):       17.932
                            User time (sec):       17.636
                          System time (sec):        0.296
                         Elapsed time (sec):       18.383
  
                   Maximum memory used (kb):       81240.
                   Average memory used (kb):           0.
  
                          Minor page faults:        14905
                          Major page faults:           10
                 Voluntary context switches:         3093
