<?xml version="1.0" encoding="ISO-8859-1"?>
<modeling>
 <generator>
  <i name="program" type="string">vasp </i>
  <i name="version" type="string">5.4.1  </i>
  <i name="subversion" type="string">05Feb16 (build Mar 31 2016 13:39:20) complex                          parallel </i>
  <i name="platform" type="string">IFC91_ompi </i>
  <i name="date" type="string">2018 04 28 </i>
  <i name="time" type="string">12:55:17 </i>
 </generator>
 <incar>
  <i type="string" name="PREC">n</i>
  <i type="string" name="ALGO"> N</i>
  <i type="int" name="ISPIN">     2</i>
  <i type="int" name="NELM">   100</i>
  <i type="int" name="NELMIN">     4</i>
  <i type="int" name="IBRION">     2</i>
  <i name="EDIFF">      0.00000100</i>
  <i name="EDIFFG">     -0.05000000</i>
  <i type="int" name="NSW">    20</i>
  <i type="int" name="ISIF">     2</i>
  <i name="ENCUT">    400.00000000</i>
  <i name="NELECT">     59.00000000</i>
  <i type="string" name="LREAL"> A</i>
  <i type="int" name="ISMEAR">     0</i>
  <i name="SIGMA">      0.05000000</i>
  <i type="logical" name="LWAVE"> F  </i>
  <i type="logical" name="LCHARG"> F  </i>
  <i type="logical" name="LORBIT"> F  </i>
  <i type="logical" name="LASPH"> T  </i>
  <v type="int" name="KPOINT_BSE">    -1     0     0     0</v>
  <i type="int" name="NELM">   100</i>
  <i type="logical" name="LASPH"> T  </i>
 </incar>
 <kpoints>
  <generation param="Gamma">
   <v type="int" name="divisions">       2        2        2 </v>
   <v name="usershift">      0.00000000       0.00000000       0.00000000 </v>
   <v name="genvec1">      0.50000000       0.00000000       0.00000000 </v>
   <v name="genvec2">      0.00000000       0.50000000       0.00000000 </v>
   <v name="genvec3">      0.00000000       0.00000000       0.50000000 </v>
   <v name="shift">      0.00000000       0.00000000       0.00000000 </v>
  </generation>
  <varray name="kpointlist" >
   <v>       0.00000000       0.00000000       0.00000000 </v>
   <v>       0.50000000       0.00000000       0.00000000 </v>
   <v>       0.00000000       0.50000000       0.00000000 </v>
   <v>       0.50000000       0.50000000       0.00000000 </v>
   <v>       0.00000000       0.00000000       0.50000000 </v>
   <v>       0.50000000       0.00000000       0.50000000 </v>
   <v>       0.00000000       0.50000000       0.50000000 </v>
   <v>       0.50000000       0.50000000       0.50000000 </v>
  </varray>
  <varray name="weights" >
   <v>       0.12500000 </v>
   <v>       0.12500000 </v>
   <v>       0.12500000 </v>
   <v>       0.12500000 </v>
   <v>       0.12500000 </v>
   <v>       0.12500000 </v>
   <v>       0.12500000 </v>
   <v>       0.12500000 </v>
  </varray>
 </kpoints>
 <parameters>
  <separator name="general" >
   <i type="string" name="SYSTEM">unknown system</i>
   <i type="logical" name="LCOMPAT"> F  </i>
  </separator>
  <separator name="electronic" >
   <i type="string" name="PREC">n</i>
   <i name="ENMAX">    400.00000000</i>
   <i name="ENAUG">    605.39200000</i>
   <i name="EDIFF">      0.00000100</i>
   <i type="int" name="IALGO">    38</i>
   <i type="int" name="IWAVPR">    11</i>
   <i type="int" name="NBANDS">    48</i>
   <i name="NELECT">     59.00000000</i>
   <i type="int" name="TURBO">     0</i>
   <i type="int" name="IRESTART">     0</i>
   <i type="int" name="NREBOOT">     0</i>
   <i type="int" name="NMIN">     0</i>
   <i name="EREF">      0.00000000</i>
   <separator name="electronic smearing" >
    <i type="int" name="ISMEAR">     0</i>
    <i name="SIGMA">      0.05000000</i>
    <i name="KSPACING">      0.50000000</i>
    <i type="logical" name="KGAMMA"> T  </i>
   </separator>
   <separator name="electronic projectors" >
    <i type="logical" name="LREAL"> T  </i>
    <v name="ROPT">     -0.00050000     -0.00050000</v>
    <i type="int" name="LMAXPAW">  -100</i>
    <i type="int" name="LMAXMIX">     2</i>
    <i type="logical" name="NLSPLINE"> F  </i>
   </separator>
   <separator name="electronic startup" >
    <i type="int" name="ISTART">     0</i>
    <i type="int" name="ICHARG">     2</i>
    <i type="int" name="INIWAV">     1</i>
   </separator>
   <separator name="electronic spin" >
    <i type="int" name="ISPIN">     2</i>
    <i type="logical" name="LNONCOLLINEAR"> F  </i>
    <v name="MAGMOM">      1.00000000      1.00000000      1.00000000      1.00000000      1.00000000      1.00000000      1.00000000      1.00000000      1.00000000      1.00000000      1.00000000      1.00000000      1.00000000      1.00000000      1.00000000      1.00000000</v>
    <i name="NUPDOWN">     -1.00000000</i>
    <i type="logical" name="LSORBIT"> F  </i>
    <v name="SAXIS">      0.00000000      0.00000000      1.00000000</v>
    <i type="logical" name="LSPIRAL"> F  </i>
    <v name="QSPIRAL">      0.00000000      0.00000000      0.00000000</v>
    <i type="logical" name="LZEROZ"> F  </i>
   </separator>
   <separator name="electronic exchange-correlation" >
    <i type="logical" name="LASPH"> T  </i>
    <i type="logical" name="LMETAGGA"> F  </i>
   </separator>
   <separator name="electronic convergence" >
    <i type="int" name="NELM">   100</i>
    <i type="int" name="NELMDL">     0</i>
    <i type="int" name="NELMIN">     4</i>
    <i name="ENINI">    400.00000000</i>
    <separator name="electronic convergence detail" >
     <i type="logical" name="LDIAG"> T  </i>
     <i type="logical" name="LSUBROT"> F  </i>
     <i name="WEIMIN">      0.00100000</i>
     <i name="EBREAK">      0.00000001</i>
     <i name="DEPER">      0.30000000</i>
     <i type="int" name="NRMM">     4</i>
     <i name="TIME">      0.40000000</i>
    </separator>
   </separator>
   <separator name="electronic mixer" >
    <i name="AMIX">      0.40000000</i>
    <i name="BMIX">      1.00000000</i>
    <i name="AMIN">      0.10000000</i>
    <i name="AMIX_MAG">      1.60000000</i>
    <i name="BMIX_MAG">      1.00000000</i>
    <separator name="electronic mixer details" >
     <i type="int" name="IMIX">     4</i>
     <i type="logical" name="MIXFIRST"> F  </i>
     <i type="int" name="MAXMIX">   -45</i>
     <i name="WC">    100.00000000</i>
     <i type="int" name="INIMIX">     1</i>
     <i type="int" name="MIXPRE">     1</i>
     <i type="int" name="MREMOVE">     5</i>
    </separator>
   </separator>
   <separator name="electronic dipolcorrection" >
    <i type="logical" name="LDIPOL"> F  </i>
    <i type="logical" name="LMONO"> F  </i>
    <i type="int" name="IDIPOL">     0</i>
    <i name="EPSILON">      1.00000000</i>
    <v name="DIPOL">   -100.00000000   -100.00000000   -100.00000000</v>
    <i name="EFIELD">      0.00000000</i>
   </separator>
  </separator>
  <separator name="grids" >
   <i type="int" name="NGX">    30</i>
   <i type="int" name="NGY">    30</i>
   <i type="int" name="NGZ">    30</i>
   <i type="int" name="NGXF">    60</i>
   <i type="int" name="NGYF">    60</i>
   <i type="int" name="NGZF">    60</i>
   <i type="logical" name="ADDGRID"> F  </i>
  </separator>
  <separator name="ionic" >
   <i type="int" name="NSW">    20</i>
   <i type="int" name="IBRION">     2</i>
   <i type="int" name="ISIF">     2</i>
   <i name="PSTRESS">      0.00000000</i>
   <i name="EDIFFG">     -0.05000000</i>
   <i type="int" name="NFREE">     1</i>
   <i name="POTIM">      0.50000000</i>
   <i name="SMASS">     -3.00000000</i>
   <i name="SCALEE">      1.00000000</i>
  </separator>
  <separator name="ionic md" >
   <i name="TEBEG">      0.00010000</i>
   <i name="TEEND">      0.00010000</i>
   <i type="int" name="NBLOCK">     1</i>
   <i type="int" name="KBLOCK">    20</i>
   <i type="int" name="NPACO">   256</i>
   <i name="APACO">     16.00000000</i>
  </separator>
  <separator name="symmetry" >
   <i type="int" name="ISYM">     2</i>
   <i name="SYMPREC">      0.00001000</i>
  </separator>
  <separator name="dos" >
   <i type="logical" name="LORBIT"> F  </i>
   <v name="RWIGS">     -1.00000000     -1.00000000</v>
   <i type="int" name="NEDOS">   301</i>
   <i name="EMIN">     10.00000000</i>
   <i name="EMAX">    -10.00000000</i>
   <i name="EFERMI">      0.00000000</i>
  </separator>
  <separator name="writing" >
   <i type="int" name="NWRITE">     2</i>
   <i type="logical" name="LWAVE"> F  </i>
   <i type="logical" name="LCHARG"> F  </i>
   <i type="logical" name="LPARD"> F  </i>
   <i type="logical" name="LVTOT"> F  </i>
   <i type="logical" name="LVHAR"> F  </i>
   <i type="logical" name="LELF"> F  </i>
   <i type="logical" name="LOPTICS"> F  </i>
   <v name="STM">      0.00000000      0.00000000      0.00000000      0.00000000      0.00000000      0.00000000      0.00000000</v>
  </separator>
  <separator name="performance" >
   <i type="int" name="NPAR">     4</i>
   <i type="int" name="NSIM">     4</i>
   <i type="int" name="NBLK">    -1</i>
   <i type="logical" name="LPLANE"> T  </i>
   <i type="logical" name="LSCALAPACK"> T  </i>
   <i type="logical" name="LSCAAWARE"> F  </i>
   <i type="logical" name="LSCALU"> F  </i>
   <i type="logical" name="LASYNC"> F  </i>
   <i type="logical" name="LORBITALREAL"> F  </i>
  </separator>
  <separator name="miscellaneous" >
   <i type="int" name="IDIOT">     3</i>
   <i type="logical" name="LMUSIC"> F  </i>
   <v name="POMASS">     24.30500000     16.00000000</v>
   <v name="DARWINR">      0.00000000      0.00000000</v>
   <v name="DARWINV">      1.00000000      1.00000000</v>
   <i type="logical" name="LCORR"> T  </i>
  </separator>
  <i type="logical" name="GGA_COMPAT"> T  </i>
  <i type="logical" name="LBERRY"> F  </i>
  <i type="int" name="ICORELEVEL">     0</i>
  <i type="logical" name="LDAU"> F  </i>
  <i type="int" name="I_CONSTRAINED_M">     0</i>
  <separator name="electronic exchange-correlation" >
   <i type="string" name="GGA">--</i>
   <i type="int" name="VOSKOWN">     0</i>
   <i type="logical" name="LHFCALC"> F  </i>
   <i type="string" name="PRECFOCK"></i>
   <i type="logical" name="LSYMGRAD"> F  </i>
   <i type="logical" name="LHFONE"> F  </i>
   <i type="logical" name="LRHFCALC"> F  </i>
   <i type="logical" name="LTHOMAS"> F  </i>
   <i type="logical" name="LMODELHF"> F  </i>
   <i name="ENCUT4O">     -1.00000000</i>
   <i type="int" name="EXXOEP">     0</i>
   <i type="int" name="FOURORBIT">     0</i>
   <i name="AEXX">      0.00000000</i>
   <i name="HFALPHA">      0.00000000</i>
   <i name="MCALPHA">      0.00000000</i>
   <i name="ALDAX">      1.00000000</i>
   <i name="AGGAX">      1.00000000</i>
   <i name="ALDAC">      1.00000000</i>
   <i name="AGGAC">      1.00000000</i>
   <i type="int" name="NKREDX">     1</i>
   <i type="int" name="NKREDY">     1</i>
   <i type="int" name="NKREDZ">     1</i>
   <i type="logical" name="SHIFTRED"> F  </i>
   <i type="logical" name="ODDONLY"> F  </i>
   <i type="logical" name="EVENONLY"> F  </i>
   <i type="int" name="LMAXFOCK">     0</i>
   <i type="int" name="NMAXFOCKAE">     0</i>
   <i type="logical" name="LFOCKAEDFT"> F  </i>
   <i name="HFSCREEN">      0.00000000</i>
   <i name="HFSCREENC">      0.00000000</i>
   <i type="int" name="NBANDSGWLOW">     0</i>
  </separator>
  <separator name="vdW DFT" >
   <i type="logical" name="LUSE_VDW"> F  </i>
   <i name="Zab_VDW">     -0.84910000</i>
   <i name="PARAM1">      0.12340000</i>
   <i name="PARAM2">      1.00000000</i>
   <i name="PARAM3">      0.00000000</i>
  </separator>
  <separator name="model GW" >
   <i type="int" name="MODEL_GW">     0</i>
   <i name="MODEL_EPS0">      5.74480406</i>
   <i name="MODEL_ALPHA">      1.00000000</i>
  </separator>
  <separator name="linear response parameters" >
   <i type="logical" name="LEPSILON"> F  </i>
   <i type="logical" name="LRPA"> F  </i>
   <i type="logical" name="LNABLA"> F  </i>
   <i type="logical" name="LVEL"> F  </i>
   <i type="int" name="KINTER">     0</i>
   <i name="CSHIFT">      0.10000000</i>
   <i name="OMEGAMAX">     -1.00000000</i>
   <i name="DEG_THRESHOLD">      0.00200000</i>
  </separator>
  <separator name="orbital magnetization" >
   <i type="logical" name="NUCIND"> F  </i>
   <v name="MAGPOS">      0.00000000      0.00000000      0.00000000</v>
   <i type="logical" name="LNICSALL"> T  </i>
   <i type="logical" name="ORBITALMAG"> F  </i>
   <i type="logical" name="LMAGBLOCH"> F  </i>
   <i type="logical" name="LCHIMAG"> F  </i>
   <i type="logical" name="LGAUGE"> T  </i>
   <i type="int" name="MAGATOM">     0</i>
   <v name="MAGDIPOL">      0.00000000      0.00000000      0.00000000</v>
   <v name="AVECCONST">      0.00000000      0.00000000      0.00000000</v>
  </separator>
  <separator name="response functions" >
   <i type="logical" name="LADDER"> F  </i>
   <i type="logical" name="LFXC"> F  </i>
   <i type="logical" name="LHARTREE"> T  </i>
   <i type="int" name="IBSE">     0</i>
   <v type="int" name="KPOINT">    -1     0     0     0</v>
   <i type="logical" name="LTCTE"> F  </i>
   <i type="logical" name="LTETE"> F  </i>
   <i type="logical" name="LTRIPLET"> F  </i>
   <i type="logical" name="LFXCEPS"> F  </i>
   <i type="logical" name="LFXHEG"> F  </i>
   <i type="int" name="NATURALO">     0</i>
   <i type="logical" name="L2ORDER"> F  </i>
   <i type="logical" name="LUSEW"> F  </i>
   <i name="ENCUTGW">     -2.00000000</i>
   <i name="ENCUTGWSOFT">     -2.00000000</i>
   <i name="ENCUTLF">     -1.00000000</i>
   <i type="int" name="LMAXMP2">    -1</i>
   <i name="SCISSOR">      0.00000000</i>
   <i type="int" name="NOMEGA">     0</i>
   <i type="int" name="NOMEGAR">     0</i>
   <i type="int" name="NBANDSGW">    -1</i>
   <i type="int" name="NBANDSO">    -1</i>
   <i type="int" name="NBANDSV">    -1</i>
   <i type="int" name="NELM">   100</i>
   <i type="int" name="NELMHF">     1</i>
   <i type="int" name="DIM">     3</i>
   <i type="int" name="ANTIRES">     0</i>
   <i name="OMEGAMAX">    -30.00000000</i>
   <i name="OMEGAMIN">    -30.00000000</i>
   <i name="OMEGATL">   -200.00000000</i>
   <i type="int" name="OMEGAGRID">     0</i>
   <i name="CSHIFT">     -0.10000000</i>
   <i type="logical" name="SELFENERGY"> F  </i>
   <i type="logical" name="LSPECTRAL"> F  </i>
   <i type="logical" name="LSPECTRALGW"> F  </i>
   <i type="logical" name="LSINGLES"> F  </i>
   <i type="logical" name="LFERMIGW"> F  </i>
   <i type="logical" name="ODDONLYGW"> F  </i>
   <i type="logical" name="EVENONLYGW"> F  </i>
   <i type="int" name="NKREDLFX">     1</i>
   <i type="int" name="NKREDLFY">     1</i>
   <i type="int" name="NKREDLFZ">     1</i>
   <i type="int" name="MAXMEM">  1800</i>
   <i type="int" name="TELESCOPE">     0</i>
   <i type="int" name="TAUPAR">     1</i>
   <i type="int" name="OMEGAPAR">    -1</i>
   <i name="LAMBDA">      1.00000000</i>
  </separator>
  <separator name="External order field" >
   <i name="OFIELD_KAPPA">      0.00000000</i>
   <v name="OFIELD_K">      0.00000000      0.00000000      0.00000000</v>
   <i name="OFIELD_Q6_NEAR">      0.00000000</i>
   <i name="OFIELD_Q6_FAR">      0.00000000</i>
   <i name="OFIELD_A">      0.00000000</i>
  </separator>
 </parameters>
 <atominfo>
  <atoms>      16 </atoms>
  <types>       2 </types>
  <array name="atoms" >
   <dimension dim="1">ion</dimension>
   <field type="string">element</field>
   <field type="int">atomtype</field>
   <set>
    <rc><c>Mg</c><c>   1</c></rc>
    <rc><c>Mg</c><c>   1</c></rc>
    <rc><c>Mg</c><c>   1</c></rc>
    <rc><c>Mg</c><c>   1</c></rc>
    <rc><c>Mg</c><c>   1</c></rc>
    <rc><c>Mg</c><c>   1</c></rc>
    <rc><c>Mg</c><c>   1</c></rc>
    <rc><c>Mg</c><c>   1</c></rc>
    <rc><c>Mg</c><c>   1</c></rc>
    <rc><c>O </c><c>   2</c></rc>
    <rc><c>O </c><c>   2</c></rc>
    <rc><c>O </c><c>   2</c></rc>
    <rc><c>O </c><c>   2</c></rc>
    <rc><c>O </c><c>   2</c></rc>
    <rc><c>O </c><c>   2</c></rc>
    <rc><c>O </c><c>   2</c></rc>
   </set>
  </array>
  <array name="atomtypes" >
   <dimension dim="1">type</dimension>
   <field type="int">atomspertype</field>
   <field type="string">element</field>
   <field>mass</field>
   <field>valence</field>
   <field type="string">pseudopotential</field>
   <set>
    <rc><c>   9</c><c>Mg</c><c>     24.30500000</c><c>      2.00000000</c><c>  PAW_PBE Mg 13Apr2007                  </c></rc>
    <rc><c>   7</c><c>O </c><c>     16.00000000</c><c>      6.00000000</c><c>  PAW_PBE O 08Apr2002                   </c></rc>
   </set>
  </array>
 </atominfo>
 <structure name="initialpos" >
  <crystal>
   <varray name="basis" >
    <v>       0.00000000       4.24689300       4.24689300 </v>
    <v>       4.24689300       0.00000000       4.24689300 </v>
    <v>       4.24689300       4.24689300       0.00000000 </v>
   </varray>
   <i name="volume">    153.19477498 </i>
   <varray name="rec_basis" >
    <v>      -0.11773313       0.11773313       0.11773313 </v>
    <v>       0.11773313      -0.11773313       0.11773313 </v>
    <v>       0.11773313       0.11773313      -0.11773313 </v>
   </varray>
  </crystal>
  <varray name="positions" >
   <v>       0.16797186       0.32785652       0.23917509 </v>
   <v>       0.01198062       0.98869122       0.00175829 </v>
   <v>       0.99610008       0.96846043       0.51963732 </v>
   <v>       0.96292607       0.53380816       0.95239780 </v>
   <v>       0.97637659       0.52119685       0.54406578 </v>
   <v>       0.50671351       0.99135701       0.99923107 </v>
   <v>       0.50029405       0.99770414       0.49868065 </v>
   <v>       0.52734235       0.50164694       0.98714567 </v>
   <v>       0.50859125       0.48572415       0.50492291 </v>
   <v>       0.24458846       0.25277861       0.75750728 </v>
   <v>       0.25397281       0.73093542       0.25891718 </v>
   <v>       0.24949864       0.72490551       0.76615945 </v>
   <v>       0.77186333       0.24771388       0.24379340 </v>
   <v>       0.76736986       0.24306884       0.74596830 </v>
   <v>       0.78803810       0.70925805       0.24971615 </v>
   <v>       0.72641543       0.77063728       0.74563065 </v>
  </varray>
 </structure>
 <calculation>
  <scstep>
   <time name="dav">    0.53    0.53</time>
   <time name="total">    1.24    1.24</time>
   <energy>
    <i name="alphaZ">    142.81396753 </i>
    <i name="ewald">  -2470.94409015 </i>
    <i name="hartreedc">   -957.81073725 </i>
    <i name="XCdc">   -236.39557536 </i>
    <i name="pawpsdc">   3011.45132117 </i>
    <i name="pawaedc">  -2557.24446474 </i>
    <i name="eentropy">     -0.00427820 </i>
    <i name="bandstr">     69.94249891 </i>
    <i name="atom">   3233.17333345 </i>
    <i name="e_fr_energy">    234.98197537 </i>
    <i name="e_wo_entrp">    234.98625357 </i>
    <i name="e_0_energy">    234.98411447 </i>
   </energy>
  </scstep>
  <scstep>
   <time name="dav">    0.60    0.60</time>
   <time name="total">    0.60    0.61</time>
   <energy>
    <i name="e_fr_energy">    -69.36404780 </i>
    <i name="e_wo_entrp">    -69.36404776 </i>
    <i name="e_0_energy">    -69.36404778 </i>
   </energy>
  </scstep>
  <scstep>
   <time name="dav">    0.60    0.60</time>
   <time name="total">    0.60    0.61</time>
   <energy>
    <i name="e_fr_energy">    -87.04354688 </i>
    <i name="e_wo_entrp">    -87.04354683 </i>
    <i name="e_0_energy">    -87.04354686 </i>
   </energy>
  </scstep>
  <scstep>
   <time name="dav">    0.56    0.57</time>
   <time name="total">    0.57    0.57</time>
   <energy>
    <i name="e_fr_energy">    -87.15055425 </i>
    <i name="e_wo_entrp">    -87.15055418 </i>
    <i name="e_0_energy">    -87.15055422 </i>
   </energy>
  </scstep>
  <scstep>
   <time name="dav">    0.58    0.58</time>
   <time name="total">    0.60    0.61</time>
   <energy>
    <i name="e_fr_energy">    -87.15110834 </i>
    <i name="e_wo_entrp">    -87.15110827 </i>
    <i name="e_0_energy">    -87.15110830 </i>
   </energy>
  </scstep>
  <scstep>
   <time name="dav">    0.56    0.56</time>
   <time name="total">    1.28    1.29</time>
   <energy>
    <i name="e_fr_energy">    -82.72493648 </i>
    <i name="e_wo_entrp">    -82.71836619 </i>
    <i name="e_0_energy">    -82.72165134 </i>
   </energy>
  </scstep>
  <scstep>
   <time name="dav">    0.54    0.54</time>
   <time name="total">    1.27    1.27</time>
   <energy>
    <i name="e_fr_energy">    -82.85731003 </i>
    <i name="e_wo_entrp">    -82.85172023 </i>
    <i name="e_0_energy">    -82.85451513 </i>
   </energy>
  </scstep>
  <scstep>
   <time name="dav">    0.58    0.58</time>
   <time name="total">    1.30    1.30</time>
   <energy>
    <i name="e_fr_energy">    -82.76293851 </i>
    <i name="e_wo_entrp">    -82.75820002 </i>
    <i name="e_0_energy">    -82.76056926 </i>
   </energy>
  </scstep>
  <scstep>
   <time name="dav">    0.58    0.58</time>
   <time name="total">    1.30    1.31</time>
   <energy>
    <i name="e_fr_energy">    -82.76062664 </i>
    <i name="e_wo_entrp">    -82.75847782 </i>
    <i name="e_0_energy">    -82.75955223 </i>
   </energy>
  </scstep>
  <scstep>
   <time name="dav">    0.58    0.58</time>
   <time name="total">    1.31    1.31</time>
   <energy>
    <i name="e_fr_energy">    -82.76068133 </i>
    <i name="e_wo_entrp">    -82.75913274 </i>
    <i name="e_0_energy">    -82.75990704 </i>
   </energy>
  </scstep>
  <scstep>
   <time name="dav">    0.58    0.58</time>
   <time name="total">    1.31    1.31</time>
   <energy>
    <i name="e_fr_energy">    -82.76085661 </i>
    <i name="e_wo_entrp">    -82.75958041 </i>
    <i name="e_0_energy">    -82.76021851 </i>
   </energy>
  </scstep>
  <scstep>
   <time name="dav">    0.59    0.59</time>
   <time name="total">    1.32    1.32</time>
   <energy>
    <i name="e_fr_energy">    -82.76087643 </i>
    <i name="e_wo_entrp">    -82.75969750 </i>
    <i name="e_0_energy">    -82.76028697 </i>
   </energy>
  </scstep>
  <scstep>
   <time name="dav">    0.59    0.59</time>
   <time name="total">    1.32    1.32</time>
   <energy>
    <i name="e_fr_energy">    -82.76089244 </i>
    <i name="e_wo_entrp">    -82.75966454 </i>
    <i name="e_0_energy">    -82.76027849 </i>
   </energy>
  </scstep>
  <scstep>
   <time name="dav">    0.58    0.58</time>
   <time name="total">    1.31    1.31</time>
   <energy>
    <i name="e_fr_energy">    -82.76089479 </i>
    <i name="e_wo_entrp">    -82.75965001 </i>
    <i name="e_0_energy">    -82.76027240 </i>
   </energy>
  </scstep>
  <scstep>
   <time name="dav">    0.56    0.56</time>
   <time name="total">    1.27    1.27</time>
   <energy>
    <i name="alphaZ">    142.81396753 </i>
    <i name="ewald">  -2470.94409015 </i>
    <i name="hartreedc">  -1093.33237827 </i>
    <i name="XCdc">   -231.76530332 </i>
    <i name="pawpsdc">   4023.84753649 </i>
    <i name="pawaedc">  -3571.34882573 </i>
    <i name="eentropy">     -0.00125093 </i>
    <i name="bandstr">   -115.20388395 </i>
    <i name="atom">   3233.17333345 </i>
    <i name="e_fr_energy">    -82.76089488 </i>
    <i name="e_wo_entrp">    -82.75964395 </i>
    <i name="e_0_energy">    -82.76026941 </i>
   </energy>
  </scstep>
  <structure>
   <crystal>
    <varray name="basis" >
     <v>       0.00000000       4.24689300       4.24689300 </v>
     <v>       4.24689300       0.00000000       4.24689300 </v>
     <v>       4.24689300       4.24689300       0.00000000 </v>
    </varray>
    <i name="volume">    153.19477498 </i>
    <varray name="rec_basis" >
     <v>      -0.11773313       0.11773313       0.11773313 </v>
     <v>       0.11773313      -0.11773313       0.11773313 </v>
     <v>       0.11773313       0.11773313      -0.11773313 </v>
    </varray>
   </crystal>
   <varray name="positions" >
    <v>       0.16797186       0.32785652       0.23917509 </v>
    <v>       0.01198062       0.98869122       0.00175829 </v>
    <v>       0.99610008       0.96846043       0.51963732 </v>
    <v>       0.96292607       0.53380816       0.95239780 </v>
    <v>       0.97637659       0.52119685       0.54406578 </v>
    <v>       0.50671351       0.99135701       0.99923107 </v>
    <v>       0.50029405       0.99770414       0.49868065 </v>
    <v>       0.52734235       0.50164694       0.98714567 </v>
    <v>       0.50859125       0.48572415       0.50492291 </v>
    <v>       0.24458846       0.25277861       0.75750728 </v>
    <v>       0.25397281       0.73093542       0.25891718 </v>
    <v>       0.24949864       0.72490551       0.76615945 </v>
    <v>       0.77186333       0.24771388       0.24379340 </v>
    <v>       0.76736986       0.24306884       0.74596830 </v>
    <v>       0.78803810       0.70925805       0.24971615 </v>
    <v>       0.72641543       0.77063728       0.74563065 </v>
   </varray>
  </structure>
  <varray name="forces" >
   <v>      -0.02936705      -0.02406740       0.00189718 </v>
   <v>       0.00035797      -0.00764960      -0.01444108 </v>
   <v>       0.01038560      -0.00333710      -0.01426256 </v>
   <v>       0.00077523       0.01828168       0.00545348 </v>
   <v>      -0.01653051      -0.01844104       0.00214287 </v>
   <v>      -0.02090068       0.01654130      -0.01083550 </v>
   <v>       0.03427778       0.00181329      -0.00728303 </v>
   <v>       0.00124799       0.00226461       0.00856831 </v>
   <v>       0.00216041      -0.00380127       0.01235505 </v>
   <v>       0.03057367       0.02068040       0.00290341 </v>
   <v>       0.01138380      -0.00235162       0.01045629 </v>
   <v>       0.00245609       0.00741294      -0.01486552 </v>
   <v>      -0.00039051       0.01581467       0.03309269 </v>
   <v>       0.01591248      -0.00602218      -0.01878917 </v>
   <v>      -0.03814962       0.01055503       0.00306360 </v>
   <v>      -0.00419267      -0.02769369       0.00054397 </v>
  </varray>
  <varray name="stress" >
   <v>     100.08368310      41.35503821       0.93292712 </v>
   <v>      41.35503589     109.95309125      -0.16819080 </v>
   <v>       0.93292726      -0.16819103      82.98601630 </v>
  </varray>
  <energy>
   <i name="e_fr_energy">    -82.76089488 </i>
   <i name="e_wo_entrp">    -82.76026941 </i>
   <i name="e_0_energy">     -0.00125093 </i>
  </energy>
  <time name="totalsc">   18.59   18.65</time>
  <eigenvalues>
   <array>
    <dimension dim="1">band</dimension>
    <dimension dim="2">kpoint</dimension>
    <dimension dim="3">spin</dimension>
    <field>eigene</field>
    <field>occ</field>
    <set>
     <set comment="spin 1">
      <set comment="kpoint 1">
       <r>  -14.5825    1.0000 </r>
       <r>  -13.2735    1.0000 </r>
       <r>  -12.6099    1.0000 </r>
       <r>  -12.5143    1.0000 </r>
       <r>  -12.4260    1.0000 </r>
       <r>  -12.2731    1.0000 </r>
       <r>  -12.2123    1.0000 </r>
       <r>   -1.6904    1.0000 </r>
       <r>   -1.6257    1.0000 </r>
       <r>   -1.6246    1.0000 </r>
       <r>   -0.9969    1.0000 </r>
       <r>   -0.4197    1.0000 </r>
       <r>   -0.2570    1.0000 </r>
       <r>   -0.1869    1.0000 </r>
       <r>    1.3093    1.0000 </r>
       <r>    1.3518    1.0000 </r>
       <r>    1.4064    1.0000 </r>
       <r>    1.9242    1.0000 </r>
       <r>    1.9959    1.0000 </r>
       <r>    2.0237    1.0000 </r>
       <r>    2.6573    1.0000 </r>
       <r>    2.7562    1.0000 </r>
       <r>    2.7777    1.0000 </r>
       <r>    2.8325    1.0000 </r>
       <r>    2.8724    1.0000 </r>
       <r>    2.8931    1.0000 </r>
       <r>    3.0459    1.0000 </r>
       <r>    3.0559    1.0000 </r>
       <r>    3.1636    1.0000 </r>
       <r>    8.6474    0.0000 </r>
       <r>   10.1540    0.0000 </r>
       <r>   10.1893    0.0000 </r>
       <r>   10.4811    0.0000 </r>
       <r>   10.5683    0.0000 </r>
       <r>   10.7325    0.0000 </r>
       <r>   10.9845    0.0000 </r>
       <r>   11.6687    0.0000 </r>
       <r>   11.7748    0.0000 </r>
       <r>   11.9234    0.0000 </r>
       <r>   12.0095    0.0000 </r>
       <r>   12.1425    0.0000 </r>
       <r>   12.7130    0.0000 </r>
       <r>   15.2775    0.0000 </r>
       <r>   15.3796    0.0000 </r>
       <r>   15.5502    0.0000 </r>
       <r>   15.5641    0.0000 </r>
       <r>   17.9657    0.0000 </r>
       <r>   18.0449    0.0000 </r>
      </set>
      <set comment="kpoint 2">
       <r>  -14.5020    1.0000 </r>
       <r>  -13.0905    1.0000 </r>
       <r>  -12.8825    1.0000 </r>
       <r>  -12.5065    1.0000 </r>
       <r>  -12.3637    1.0000 </r>
       <r>  -12.3393    1.0000 </r>
       <r>  -12.3285    1.0000 </r>
       <r>   -1.2361    1.0000 </r>
       <r>   -1.1987    1.0000 </r>
       <r>   -0.8835    1.0000 </r>
       <r>   -0.4990    1.0000 </r>
       <r>   -0.3008    1.0000 </r>
       <r>    0.2392    1.0000 </r>
       <r>    0.3442    1.0000 </r>
       <r>    0.6044    1.0000 </r>
       <r>    0.8652    1.0000 </r>
       <r>    1.2466    1.0000 </r>
       <r>    1.3197    1.0000 </r>
       <r>    1.4560    1.0000 </r>
       <r>    1.6242    1.0000 </r>
       <r>    1.7010    1.0000 </r>
       <r>    1.7634    1.0000 </r>
       <r>    2.2095    1.0000 </r>
       <r>    2.5781    1.0000 </r>
       <r>    2.8135    1.0000 </r>
       <r>    2.8358    1.0000 </r>
       <r>    2.8790    1.0000 </r>
       <r>    2.9437    1.0000 </r>
       <r>    4.9134    1.0000 </r>
       <r>    7.5187    1.0000 </r>
       <r>    9.4500    0.0000 </r>
       <r>    9.6446    0.0000 </r>
       <r>   10.6420    0.0000 </r>
       <r>   11.1358    0.0000 </r>
       <r>   12.1865    0.0000 </r>
       <r>   12.2637    0.0000 </r>
       <r>   12.4632    0.0000 </r>
       <r>   12.5802    0.0000 </r>
       <r>   13.5269    0.0000 </r>
       <r>   13.8023    0.0000 </r>
       <r>   14.0437    0.0000 </r>
       <r>   14.2593    0.0000 </r>
       <r>   14.3647    0.0000 </r>
       <r>   14.5478    0.0000 </r>
       <r>   14.7384    0.0000 </r>
       <r>   15.4037    0.0000 </r>
       <r>   15.9077    0.0000 </r>
       <r>   16.2859    0.0000 </r>
      </set>
      <set comment="kpoint 3">
       <r>  -14.5019    1.0000 </r>
       <r>  -13.0905    1.0000 </r>
       <r>  -12.8828    1.0000 </r>
       <r>  -12.5063    1.0000 </r>
       <r>  -12.3653    1.0000 </r>
       <r>  -12.3391    1.0000 </r>
       <r>  -12.3270    1.0000 </r>
       <r>   -1.2361    1.0000 </r>
       <r>   -1.1986    1.0000 </r>
       <r>   -0.8792    1.0000 </r>
       <r>   -0.4983    1.0000 </r>
       <r>   -0.3007    1.0000 </r>
       <r>    0.2326    1.0000 </r>
       <r>    0.3426    1.0000 </r>
       <r>    0.6058    1.0000 </r>
       <r>    0.8639    1.0000 </r>
       <r>    1.2454    1.0000 </r>
       <r>    1.3201    1.0000 </r>
       <r>    1.4564    1.0000 </r>
       <r>    1.6242    1.0000 </r>
       <r>    1.7049    1.0000 </r>
       <r>    1.7628    1.0000 </r>
       <r>    2.2109    1.0000 </r>
       <r>    2.5737    1.0000 </r>
       <r>    2.8101    1.0000 </r>
       <r>    2.8368    1.0000 </r>
       <r>    2.8827    1.0000 </r>
       <r>    2.9439    1.0000 </r>
       <r>    4.9169    1.0000 </r>
       <r>    7.5117    1.0000 </r>
       <r>    9.4533    0.0000 </r>
       <r>    9.6514    0.0000 </r>
       <r>   10.6401    0.0000 </r>
       <r>   11.1331    0.0000 </r>
       <r>   12.1809    0.0000 </r>
       <r>   12.2684    0.0000 </r>
       <r>   12.4611    0.0000 </r>
       <r>   12.5792    0.0000 </r>
       <r>   13.5321    0.0000 </r>
       <r>   13.7991    0.0000 </r>
       <r>   14.0377    0.0000 </r>
       <r>   14.2663    0.0000 </r>
       <r>   14.3684    0.0000 </r>
       <r>   14.5510    0.0000 </r>
       <r>   14.7482    0.0000 </r>
       <r>   15.4045    0.0000 </r>
       <r>   15.9024    0.0000 </r>
       <r>   16.2722    0.0000 </r>
      </set>
      <set comment="kpoint 4">
       <r>  -14.4793    1.0000 </r>
       <r>  -12.9746    1.0000 </r>
       <r>  -12.8528    1.0000 </r>
       <r>  -12.6345    1.0000 </r>
       <r>  -12.5202    1.0000 </r>
       <r>  -12.4200    1.0000 </r>
       <r>  -12.1687    1.0000 </r>
       <r>   -1.0376    1.0000 </r>
       <r>   -0.8665    1.0000 </r>
       <r>   -0.7895    1.0000 </r>
       <r>   -0.3711    1.0000 </r>
       <r>    0.1261    1.0000 </r>
       <r>    0.2703    1.0000 </r>
       <r>    0.4059    1.0000 </r>
       <r>    0.5707    1.0000 </r>
       <r>    0.8510    1.0000 </r>
       <r>    1.0555    1.0000 </r>
       <r>    1.0779    1.0000 </r>
       <r>    1.4110    1.0000 </r>
       <r>    1.4534    1.0000 </r>
       <r>    1.5468    1.0000 </r>
       <r>    1.6501    1.0000 </r>
       <r>    1.8673    1.0000 </r>
       <r>    2.0437    1.0000 </r>
       <r>    2.7196    1.0000 </r>
       <r>    2.7590    1.0000 </r>
       <r>    2.7882    1.0000 </r>
       <r>    2.9398    1.0000 </r>
       <r>    5.5806    1.0000 </r>
       <r>    7.3583    1.0000 </r>
       <r>    8.8367    0.0000 </r>
       <r>    9.3090    0.0000 </r>
       <r>   11.2116    0.0000 </r>
       <r>   11.9853    0.0000 </r>
       <r>   12.0738    0.0000 </r>
       <r>   12.8238    0.0000 </r>
       <r>   12.8493    0.0000 </r>
       <r>   13.5730    0.0000 </r>
       <r>   13.8155    0.0000 </r>
       <r>   14.0293    0.0000 </r>
       <r>   14.0503    0.0000 </r>
       <r>   14.2113    0.0000 </r>
       <r>   14.5378    0.0000 </r>
       <r>   14.5728    0.0000 </r>
       <r>   14.5831    0.0000 </r>
       <r>   14.9701    0.0000 </r>
       <r>   15.5653    0.0000 </r>
       <r>   16.1914    0.0000 </r>
      </set>
      <set comment="kpoint 5">
       <r>  -14.5013    1.0000 </r>
       <r>  -13.0824    1.0000 </r>
       <r>  -12.8940    1.0000 </r>
       <r>  -12.5033    1.0000 </r>
       <r>  -12.4058    1.0000 </r>
       <r>  -12.3276    1.0000 </r>
       <r>  -12.2985    1.0000 </r>
       <r>   -1.2991    1.0000 </r>
       <r>   -1.2047    1.0000 </r>
       <r>   -0.7459    1.0000 </r>
       <r>   -0.4384    1.0000 </r>
       <r>   -0.3591    1.0000 </r>
       <r>    0.1598    1.0000 </r>
       <r>    0.3288    1.0000 </r>
       <r>    0.6374    1.0000 </r>
       <r>    0.7598    1.0000 </r>
       <r>    1.2517    1.0000 </r>
       <r>    1.3693    1.0000 </r>
       <r>    1.5694    1.0000 </r>
       <r>    1.6183    1.0000 </r>
       <r>    1.7100    1.0000 </r>
       <r>    1.7286    1.0000 </r>
       <r>    2.2342    1.0000 </r>
       <r>    2.4163    1.0000 </r>
       <r>    2.8071    1.0000 </r>
       <r>    2.8300    1.0000 </r>
       <r>    2.9510    1.0000 </r>
       <r>    2.9669    1.0000 </r>
       <r>    4.9973    1.0000 </r>
       <r>    7.3630    1.0000 </r>
       <r>    9.4663    0.0000 </r>
       <r>   10.0087    0.0000 </r>
       <r>   10.4599    0.0000 </r>
       <r>   11.0894    0.0000 </r>
       <r>   11.9348    0.0000 </r>
       <r>   12.1734    0.0000 </r>
       <r>   12.3649    0.0000 </r>
       <r>   12.4760    0.0000 </r>
       <r>   13.6072    0.0000 </r>
       <r>   13.9489    0.0000 </r>
       <r>   14.0269    0.0000 </r>
       <r>   14.1737    0.0000 </r>
       <r>   14.8021    0.0000 </r>
       <r>   14.9416    0.0000 </r>
       <r>   15.0489    0.0000 </r>
       <r>   15.2972    0.0000 </r>
       <r>   15.6632    0.0000 </r>
       <r>   16.0323    0.0000 </r>
      </set>
      <set comment="kpoint 6">
       <r>  -14.4765    1.0000 </r>
       <r>  -13.1021    1.0000 </r>
       <r>  -12.7109    1.0000 </r>
       <r>  -12.5806    1.0000 </r>
       <r>  -12.4912    1.0000 </r>
       <r>  -12.4637    1.0000 </r>
       <r>  -12.2239    1.0000 </r>
       <r>   -1.0325    1.0000 </r>
       <r>   -0.8819    1.0000 </r>
       <r>   -0.8644    1.0000 </r>
       <r>   -0.3467    1.0000 </r>
       <r>    0.0412    1.0000 </r>
       <r>    0.1596    1.0000 </r>
       <r>    0.4433    1.0000 </r>
       <r>    0.4586    1.0000 </r>
       <r>    1.0585    1.0000 </r>
       <r>    1.1382    1.0000 </r>
       <r>    1.2941    1.0000 </r>
       <r>    1.3869    1.0000 </r>
       <r>    1.4787    1.0000 </r>
       <r>    1.5243    1.0000 </r>
       <r>    1.6248    1.0000 </r>
       <r>    1.9987    1.0000 </r>
       <r>    2.0258    1.0000 </r>
       <r>    2.6351    1.0000 </r>
       <r>    2.7115    1.0000 </r>
       <r>    2.7643    1.0000 </r>
       <r>    2.8914    1.0000 </r>
       <r>    5.3780    1.0000 </r>
       <r>    7.7876    0.0014 </r>
       <r>    8.8080    0.0000 </r>
       <r>    9.0547    0.0000 </r>
       <r>   11.2192    0.0000 </r>
       <r>   12.0569    0.0000 </r>
       <r>   12.1915    0.0000 </r>
       <r>   12.8840    0.0000 </r>
       <r>   13.0264    0.0000 </r>
       <r>   13.4887    0.0000 </r>
       <r>   13.5922    0.0000 </r>
       <r>   13.8375    0.0000 </r>
       <r>   13.9072    0.0000 </r>
       <r>   14.2113    0.0000 </r>
       <r>   14.5426    0.0000 </r>
       <r>   14.6270    0.0000 </r>
       <r>   14.6383    0.0000 </r>
       <r>   14.9940    0.0000 </r>
       <r>   15.3449    0.0000 </r>
       <r>   16.3084    0.0000 </r>
      </set>
      <set comment="kpoint 7">
       <r>  -14.4780    1.0000 </r>
       <r>  -13.0540    1.0000 </r>
       <r>  -12.7795    1.0000 </r>
       <r>  -12.5787    1.0000 </r>
       <r>  -12.4931    1.0000 </r>
       <r>  -12.4750    1.0000 </r>
       <r>  -12.1912    1.0000 </r>
       <r>   -1.0413    1.0000 </r>
       <r>   -0.8870    1.0000 </r>
       <r>   -0.8134    1.0000 </r>
       <r>   -0.3570    1.0000 </r>
       <r>    0.0833    1.0000 </r>
       <r>    0.2048    1.0000 </r>
       <r>    0.4522    1.0000 </r>
       <r>    0.4857    1.0000 </r>
       <r>    0.9805    1.0000 </r>
       <r>    1.0679    1.0000 </r>
       <r>    1.1813    1.0000 </r>
       <r>    1.4387    1.0000 </r>
       <r>    1.4951    1.0000 </r>
       <r>    1.5381    1.0000 </r>
       <r>    1.6007    1.0000 </r>
       <r>    1.9249    1.0000 </r>
       <r>    2.0216    1.0000 </r>
       <r>    2.6601    1.0000 </r>
       <r>    2.7639    1.0000 </r>
       <r>    2.7722    1.0000 </r>
       <r>    2.9147    1.0000 </r>
       <r>    5.4905    1.0000 </r>
       <r>    7.5223    1.0000 </r>
       <r>    8.7673    0.0000 </r>
       <r>    9.3051    0.0000 </r>
       <r>   11.2214    0.0000 </r>
       <r>   12.0577    0.0000 </r>
       <r>   12.0917    0.0000 </r>
       <r>   12.8245    0.0000 </r>
       <r>   12.9805    0.0000 </r>
       <r>   13.5426    0.0000 </r>
       <r>   13.7153    0.0000 </r>
       <r>   13.8059    0.0000 </r>
       <r>   13.9001    0.0000 </r>
       <r>   14.1318    0.0000 </r>
       <r>   14.5817    0.0000 </r>
       <r>   14.6425    0.0000 </r>
       <r>   14.8082    0.0000 </r>
       <r>   15.0115    0.0000 </r>
       <r>   15.3972    0.0000 </r>
       <r>   16.1802    0.0000 </r>
      </set>
      <set comment="kpoint 8">
       <r>  -14.5014    1.0000 </r>
       <r>  -13.0819    1.0000 </r>
       <r>  -12.8946    1.0000 </r>
       <r>  -12.5023    1.0000 </r>
       <r>  -12.4080    1.0000 </r>
       <r>  -12.3270    1.0000 </r>
       <r>  -12.2977    1.0000 </r>
       <r>   -1.2997    1.0000 </r>
       <r>   -1.2057    1.0000 </r>
       <r>   -0.7479    1.0000 </r>
       <r>   -0.4382    1.0000 </r>
       <r>   -0.3592    1.0000 </r>
       <r>    0.1629    1.0000 </r>
       <r>    0.3305    1.0000 </r>
       <r>    0.6361    1.0000 </r>
       <r>    0.7587    1.0000 </r>
       <r>    1.2518    1.0000 </r>
       <r>    1.3675    1.0000 </r>
       <r>    1.5680    1.0000 </r>
       <r>    1.6196    1.0000 </r>
       <r>    1.7135    1.0000 </r>
       <r>    1.7273    1.0000 </r>
       <r>    2.2330    1.0000 </r>
       <r>    2.4198    1.0000 </r>
       <r>    2.8090    1.0000 </r>
       <r>    2.8308    1.0000 </r>
       <r>    2.9505    1.0000 </r>
       <r>    2.9654    1.0000 </r>
       <r>    4.9966    1.0000 </r>
       <r>    7.3609    1.0000 </r>
       <r>    9.4699    0.0000 </r>
       <r>   10.0089    0.0000 </r>
       <r>   10.4589    0.0000 </r>
       <r>   11.0896    0.0000 </r>
       <r>   11.9300    0.0000 </r>
       <r>   12.1713    0.0000 </r>
       <r>   12.3630    0.0000 </r>
       <r>   12.4740    0.0000 </r>
       <r>   13.6089    0.0000 </r>
       <r>   13.9453    0.0000 </r>
       <r>   14.0257    0.0000 </r>
       <r>   14.1794    0.0000 </r>
       <r>   14.7999    0.0000 </r>
       <r>   14.9344    0.0000 </r>
       <r>   15.0545    0.0000 </r>
       <r>   15.3008    0.0000 </r>
       <r>   15.6664    0.0000 </r>
       <r>   16.0336    0.0000 </r>
      </set>
     </set>
     <set comment="spin 2">
      <set comment="kpoint 1">
       <r>  -14.5770    1.0000 </r>
       <r>  -13.2592    1.0000 </r>
       <r>  -12.5984    1.0000 </r>
       <r>  -12.5026    1.0000 </r>
       <r>  -12.4160    1.0000 </r>
       <r>  -12.2624    1.0000 </r>
       <r>  -12.2033    1.0000 </r>
       <r>   -1.6821    1.0000 </r>
       <r>   -1.6119    1.0000 </r>
       <r>   -1.6108    1.0000 </r>
       <r>   -0.9768    1.0000 </r>
       <r>   -0.3448    1.0000 </r>
       <r>   -0.1854    1.0000 </r>
       <r>   -0.1422    1.0000 </r>
       <r>    1.3172    1.0000 </r>
       <r>    1.3650    1.0000 </r>
       <r>    1.4201    1.0000 </r>
       <r>    1.9396    1.0000 </r>
       <r>    2.0079    1.0000 </r>
       <r>    2.0355    1.0000 </r>
       <r>    2.6714    1.0000 </r>
       <r>    2.7856    1.0000 </r>
       <r>    2.8362    1.0000 </r>
       <r>    2.8888    1.0000 </r>
       <r>    2.9029    1.0000 </r>
       <r>    2.9082    1.0000 </r>
       <r>    3.0640    1.0000 </r>
       <r>    3.0686    1.0000 </r>
       <r>    3.3311    1.0000 </r>
       <r>    8.6664    0.0000 </r>
       <r>   10.4518    0.0000 </r>
       <r>   10.4808    0.0000 </r>
       <r>   10.5860    0.0000 </r>
       <r>   10.6932    0.0000 </r>
       <r>   10.7991    0.0000 </r>
       <r>   11.1334    0.0000 </r>
       <r>   11.8848    0.0000 </r>
       <r>   11.9005    0.0000 </r>
       <r>   12.1263    0.0000 </r>
       <r>   12.1333    0.0000 </r>
       <r>   12.3046    0.0000 </r>
       <r>   12.7286    0.0000 </r>
       <r>   15.3018    0.0000 </r>
       <r>   15.3955    0.0000 </r>
       <r>   15.5819    0.0000 </r>
       <r>   15.6196    0.0000 </r>
       <r>   18.0983    0.0000 </r>
       <r>   18.1754    0.0000 </r>
      </set>
      <set comment="kpoint 2">
       <r>  -14.4975    1.0000 </r>
       <r>  -13.0765    1.0000 </r>
       <r>  -12.8695    1.0000 </r>
       <r>  -12.4949    1.0000 </r>
       <r>  -12.3530    1.0000 </r>
       <r>  -12.3295    1.0000 </r>
       <r>  -12.3189    1.0000 </r>
       <r>   -1.2294    1.0000 </r>
       <r>   -1.1896    1.0000 </r>
       <r>   -0.7817    1.0000 </r>
       <r>   -0.4896    1.0000 </r>
       <r>   -0.2876    1.0000 </r>
       <r>    0.2922    1.0000 </r>
       <r>    0.3991    1.0000 </r>
       <r>    0.6567    1.0000 </r>
       <r>    0.8847    1.0000 </r>
       <r>    1.2593    1.0000 </r>
       <r>    1.3356    1.0000 </r>
       <r>    1.4898    1.0000 </r>
       <r>    1.6412    1.0000 </r>
       <r>    1.7201    1.0000 </r>
       <r>    1.7769    1.0000 </r>
       <r>    2.2223    1.0000 </r>
       <r>    2.5842    1.0000 </r>
       <r>    2.8315    1.0000 </r>
       <r>    2.8458    1.0000 </r>
       <r>    2.8939    1.0000 </r>
       <r>    2.9529    1.0000 </r>
       <r>    5.1101    1.0000 </r>
       <r>    7.8437    0.0000 </r>
       <r>    9.6881    0.0000 </r>
       <r>    9.8982    0.0000 </r>
       <r>   10.6986    0.0000 </r>
       <r>   11.1614    0.0000 </r>
       <r>   12.2973    0.0000 </r>
       <r>   12.4043    0.0000 </r>
       <r>   12.5956    0.0000 </r>
       <r>   12.6015    0.0000 </r>
       <r>   13.5771    0.0000 </r>
       <r>   13.9776    0.0000 </r>
       <r>   14.1747    0.0000 </r>
       <r>   14.3294    0.0000 </r>
       <r>   14.4715    0.0000 </r>
       <r>   14.6569    0.0000 </r>
       <r>   14.8968    0.0000 </r>
       <r>   15.5183    0.0000 </r>
       <r>   15.9641    0.0000 </r>
       <r>   16.3560    0.0000 </r>
      </set>
      <set comment="kpoint 3">
       <r>  -14.4974    1.0000 </r>
       <r>  -13.0765    1.0000 </r>
       <r>  -12.8698    1.0000 </r>
       <r>  -12.4948    1.0000 </r>
       <r>  -12.3546    1.0000 </r>
       <r>  -12.3293    1.0000 </r>
       <r>  -12.3173    1.0000 </r>
       <r>   -1.2294    1.0000 </r>
       <r>   -1.1895    1.0000 </r>
       <r>   -0.7771    1.0000 </r>
       <r>   -0.4888    1.0000 </r>
       <r>   -0.2874    1.0000 </r>
       <r>    0.2853    1.0000 </r>
       <r>    0.3973    1.0000 </r>
       <r>    0.6579    1.0000 </r>
       <r>    0.8836    1.0000 </r>
       <r>    1.2581    1.0000 </r>
       <r>    1.3360    1.0000 </r>
       <r>    1.4902    1.0000 </r>
       <r>    1.6410    1.0000 </r>
       <r>    1.7243    1.0000 </r>
       <r>    1.7763    1.0000 </r>
       <r>    2.2237    1.0000 </r>
       <r>    2.5798    1.0000 </r>
       <r>    2.8281    1.0000 </r>
       <r>    2.8468    1.0000 </r>
       <r>    2.8976    1.0000 </r>
       <r>    2.9531    1.0000 </r>
       <r>    5.1125    1.0000 </r>
       <r>    7.8395    0.0000 </r>
       <r>    9.6877    0.0000 </r>
       <r>    9.9066    0.0000 </r>
       <r>   10.6969    0.0000 </r>
       <r>   11.1596    0.0000 </r>
       <r>   12.2921    0.0000 </r>
       <r>   12.4094    0.0000 </r>
       <r>   12.5909    0.0000 </r>
       <r>   12.5995    0.0000 </r>
       <r>   13.5823    0.0000 </r>
       <r>   13.9748    0.0000 </r>
       <r>   14.1701    0.0000 </r>
       <r>   14.3374    0.0000 </r>
       <r>   14.4748    0.0000 </r>
       <r>   14.6605    0.0000 </r>
       <r>   14.9065    0.0000 </r>
       <r>   15.5182    0.0000 </r>
       <r>   15.9592    0.0000 </r>
       <r>   16.3449    0.0000 </r>
      </set>
      <set comment="kpoint 4">
       <r>  -14.4752    1.0000 </r>
       <r>  -12.9614    1.0000 </r>
       <r>  -12.8385    1.0000 </r>
       <r>  -12.6239    1.0000 </r>
       <r>  -12.5095    1.0000 </r>
       <r>  -12.4087    1.0000 </r>
       <r>  -12.1595    1.0000 </r>
       <r>   -1.0110    1.0000 </r>
       <r>   -0.8561    1.0000 </r>
       <r>   -0.6885    1.0000 </r>
       <r>   -0.3662    1.0000 </r>
       <r>    0.1435    1.0000 </r>
       <r>    0.2997    1.0000 </r>
       <r>    0.4358    1.0000 </r>
       <r>    0.5918    1.0000 </r>
       <r>    0.9102    1.0000 </r>
       <r>    1.0894    1.0000 </r>
       <r>    1.0986    1.0000 </r>
       <r>    1.4325    1.0000 </r>
       <r>    1.4689    1.0000 </r>
       <r>    1.5616    1.0000 </r>
       <r>    1.6811    1.0000 </r>
       <r>    1.8770    1.0000 </r>
       <r>    2.0547    1.0000 </r>
       <r>    2.7289    1.0000 </r>
       <r>    2.7693    1.0000 </r>
       <r>    2.8085    1.0000 </r>
       <r>    2.9552    1.0000 </r>
       <r>    5.7453    1.0000 </r>
       <r>    7.7350    0.0661 </r>
       <r>    9.0875    0.0000 </r>
       <r>    9.5496    0.0000 </r>
       <r>   11.2385    0.0000 </r>
       <r>   12.0335    0.0000 </r>
       <r>   12.1243    0.0000 </r>
       <r>   12.8880    0.0000 </r>
       <r>   12.9083    0.0000 </r>
       <r>   13.6141    0.0000 </r>
       <r>   13.9437    0.0000 </r>
       <r>   14.1088    0.0000 </r>
       <r>   14.1791    0.0000 </r>
       <r>   14.2419    0.0000 </r>
       <r>   14.6997    0.0000 </r>
       <r>   14.7531    0.0000 </r>
       <r>   14.8835    0.0000 </r>
       <r>   15.1253    0.0000 </r>
       <r>   15.5970    0.0000 </r>
       <r>   16.2616    0.0000 </r>
      </set>
      <set comment="kpoint 5">
       <r>  -14.4970    1.0000 </r>
       <r>  -13.0672    1.0000 </r>
       <r>  -12.8828    1.0000 </r>
       <r>  -12.4919    1.0000 </r>
       <r>  -12.3954    1.0000 </r>
       <r>  -12.3166    1.0000 </r>
       <r>  -12.2886    1.0000 </r>
       <r>   -1.2941    1.0000 </r>
       <r>   -1.1969    1.0000 </r>
       <r>   -0.6651    1.0000 </r>
       <r>   -0.4225    1.0000 </r>
       <r>   -0.3398    1.0000 </r>
       <r>    0.2142    1.0000 </r>
       <r>    0.3996    1.0000 </r>
       <r>    0.6891    1.0000 </r>
       <r>    0.7830    1.0000 </r>
       <r>    1.2667    1.0000 </r>
       <r>    1.3870    1.0000 </r>
       <r>    1.5788    1.0000 </r>
       <r>    1.6347    1.0000 </r>
       <r>    1.7261    1.0000 </r>
       <r>    1.7556    1.0000 </r>
       <r>    2.2472    1.0000 </r>
       <r>    2.4264    1.0000 </r>
       <r>    2.8240    1.0000 </r>
       <r>    2.8487    1.0000 </r>
       <r>    2.9685    1.0000 </r>
       <r>    2.9788    1.0000 </r>
       <r>    5.2028    1.0000 </r>
       <r>    7.6175    0.9655 </r>
       <r>    9.7546    0.0000 </r>
       <r>   10.2555    0.0000 </r>
       <r>   10.4964    0.0000 </r>
       <r>   11.1329    0.0000 </r>
       <r>   12.1089    0.0000 </r>
       <r>   12.2438    0.0000 </r>
       <r>   12.4257    0.0000 </r>
       <r>   12.6049    0.0000 </r>
       <r>   13.6721    0.0000 </r>
       <r>   14.0961    0.0000 </r>
       <r>   14.1932    0.0000 </r>
       <r>   14.3059    0.0000 </r>
       <r>   14.8709    0.0000 </r>
       <r>   15.0431    0.0000 </r>
       <r>   15.1818    0.0000 </r>
       <r>   15.3663    0.0000 </r>
       <r>   15.7268    0.0000 </r>
       <r>   16.0941    0.0000 </r>
      </set>
      <set comment="kpoint 6">
       <r>  -14.4724    1.0000 </r>
       <r>  -13.0887    1.0000 </r>
       <r>  -12.6987    1.0000 </r>
       <r>  -12.5683    1.0000 </r>
       <r>  -12.4811    1.0000 </r>
       <r>  -12.4527    1.0000 </r>
       <r>  -12.2133    1.0000 </r>
       <r>   -0.9758    1.0000 </r>
       <r>   -0.8739    1.0000 </r>
       <r>   -0.8281    1.0000 </r>
       <r>   -0.3355    1.0000 </r>
       <r>    0.0621    1.0000 </r>
       <r>    0.1998    1.0000 </r>
       <r>    0.4619    1.0000 </r>
       <r>    0.4766    1.0000 </r>
       <r>    1.1070    1.0000 </r>
       <r>    1.2023    1.0000 </r>
       <r>    1.3274    1.0000 </r>
       <r>    1.4197    1.0000 </r>
       <r>    1.5036    1.0000 </r>
       <r>    1.5476    1.0000 </r>
       <r>    1.6409    1.0000 </r>
       <r>    2.0114    1.0000 </r>
       <r>    2.0388    1.0000 </r>
       <r>    2.6480    1.0000 </r>
       <r>    2.7251    1.0000 </r>
       <r>    2.7738    1.0000 </r>
       <r>    2.9092    1.0000 </r>
       <r>    5.5937    1.0000 </r>
       <r>    7.9398    0.0000 </r>
       <r>    9.1286    0.0000 </r>
       <r>    9.3558    0.0000 </r>
       <r>   11.2309    0.0000 </r>
       <r>   12.1496    0.0000 </r>
       <r>   12.2185    0.0000 </r>
       <r>   12.9631    0.0000 </r>
       <r>   13.0732    0.0000 </r>
       <r>   13.6608    0.0000 </r>
       <r>   13.6686    0.0000 </r>
       <r>   13.8821    0.0000 </r>
       <r>   14.1402    0.0000 </r>
       <r>   14.2893    0.0000 </r>
       <r>   14.6616    0.0000 </r>
       <r>   14.8037    0.0000 </r>
       <r>   14.8177    0.0000 </r>
       <r>   15.0998    0.0000 </r>
       <r>   15.4176    0.0000 </r>
       <r>   16.3481    0.0000 </r>
      </set>
      <set comment="kpoint 7">
       <r>  -14.4738    1.0000 </r>
       <r>  -13.0396    1.0000 </r>
       <r>  -12.7679    1.0000 </r>
       <r>  -12.5670    1.0000 </r>
       <r>  -12.4824    1.0000 </r>
       <r>  -12.4631    1.0000 </r>
       <r>  -12.1822    1.0000 </r>
       <r>   -0.9945    1.0000 </r>
       <r>   -0.8792    1.0000 </r>
       <r>   -0.7430    1.0000 </r>
       <r>   -0.3431    1.0000 </r>
       <r>    0.1036    1.0000 </r>
       <r>    0.2342    1.0000 </r>
       <r>    0.4770    1.0000 </r>
       <r>    0.5066    1.0000 </r>
       <r>    1.0173    1.0000 </r>
       <r>    1.1240    1.0000 </r>
       <r>    1.2020    1.0000 </r>
       <r>    1.4671    1.0000 </r>
       <r>    1.5217    1.0000 </r>
       <r>    1.5565    1.0000 </r>
       <r>    1.6232    1.0000 </r>
       <r>    1.9357    1.0000 </r>
       <r>    2.0322    1.0000 </r>
       <r>    2.6724    1.0000 </r>
       <r>    2.7784    1.0000 </r>
       <r>    2.7809    1.0000 </r>
       <r>    2.9290    1.0000 </r>
       <r>    5.6677    1.0000 </r>
       <r>    7.8547    0.0000 </r>
       <r>    9.1208    0.0000 </r>
       <r>    9.4680    0.0000 </r>
       <r>   11.2384    0.0000 </r>
       <r>   12.1182    0.0000 </r>
       <r>   12.1460    0.0000 </r>
       <r>   12.9013    0.0000 </r>
       <r>   13.0158    0.0000 </r>
       <r>   13.6020    0.0000 </r>
       <r>   13.8370    0.0000 </r>
       <r>   13.9487    0.0000 </r>
       <r>   13.9519    0.0000 </r>
       <r>   14.2322    0.0000 </r>
       <r>   14.7696    0.0000 </r>
       <r>   14.8332    0.0000 </r>
       <r>   15.0271    0.0000 </r>
       <r>   15.1275    0.0000 </r>
       <r>   15.4668    0.0000 </r>
       <r>   16.2799    0.0000 </r>
      </set>
      <set comment="kpoint 8">
       <r>  -14.4971    1.0000 </r>
       <r>  -13.0667    1.0000 </r>
       <r>  -12.8833    1.0000 </r>
       <r>  -12.4909    1.0000 </r>
       <r>  -12.3976    1.0000 </r>
       <r>  -12.3160    1.0000 </r>
       <r>  -12.2879    1.0000 </r>
       <r>   -1.2947    1.0000 </r>
       <r>   -1.1979    1.0000 </r>
       <r>   -0.6668    1.0000 </r>
       <r>   -0.4225    1.0000 </r>
       <r>   -0.3397    1.0000 </r>
       <r>    0.2174    1.0000 </r>
       <r>    0.4007    1.0000 </r>
       <r>    0.6878    1.0000 </r>
       <r>    0.7821    1.0000 </r>
       <r>    1.2666    1.0000 </r>
       <r>    1.3852    1.0000 </r>
       <r>    1.5776    1.0000 </r>
       <r>    1.6360    1.0000 </r>
       <r>    1.7292    1.0000 </r>
       <r>    1.7547    1.0000 </r>
       <r>    2.2461    1.0000 </r>
       <r>    2.4298    1.0000 </r>
       <r>    2.8258    1.0000 </r>
       <r>    2.8494    1.0000 </r>
       <r>    2.9684    1.0000 </r>
       <r>    2.9770    1.0000 </r>
       <r>    5.2018    1.0000 </r>
       <r>    7.6167    0.9670 </r>
       <r>    9.7557    0.0000 </r>
       <r>   10.2572    0.0000 </r>
       <r>   10.4952    0.0000 </r>
       <r>   11.1334    0.0000 </r>
       <r>   12.1044    0.0000 </r>
       <r>   12.2404    0.0000 </r>
       <r>   12.4237    0.0000 </r>
       <r>   12.6039    0.0000 </r>
       <r>   13.6742    0.0000 </r>
       <r>   14.0937    0.0000 </r>
       <r>   14.1916    0.0000 </r>
       <r>   14.3112    0.0000 </r>
       <r>   14.8687    0.0000 </r>
       <r>   15.0346    0.0000 </r>
       <r>   15.1869    0.0000 </r>
       <r>   15.3700    0.0000 </r>
       <r>   15.7312    0.0000 </r>
       <r>   16.0956    0.0000 </r>
      </set>
     </set>
    </set>
   </array>
  </eigenvalues>
  <separator name="orbital magnetization" >
   <v name="MAGDIPOLOUT">      0.00000000      0.00000000      0.00000000</v>
  </separator>
  <dos>
   <i name="efermi">      7.68173942 </i>
   <total>
    <array>
     <dimension dim="1">gridpoints</dimension>
     <dimension dim="2">spin</dimension>
     <field>energy</field>
     <field>total</field>
     <field>integrated</field>
     <set>
      <set comment="spin 1">
       <r>   -16.2204     0.0000     0.0000 </r>
       <r>   -16.1003     0.0000     0.0000 </r>
       <r>   -15.9802     0.0000     0.0000 </r>
       <r>   -15.8601     0.0000     0.0000 </r>
       <r>   -15.7400     0.0000     0.0000 </r>
       <r>   -15.6199     0.0000     0.0000 </r>
       <r>   -15.4998     0.0000     0.0000 </r>
       <r>   -15.3797     0.0000     0.0000 </r>
       <r>   -15.2595     0.0000     0.0000 </r>
       <r>   -15.1394     0.0000     0.0000 </r>
       <r>   -15.0193     0.0000     0.0000 </r>
       <r>   -14.8992     0.0000     0.0000 </r>
       <r>   -14.7791     0.0000     0.0000 </r>
       <r>   -14.6590     0.0160     0.0019 </r>
       <r>   -14.5389     1.6532     0.2005 </r>
       <r>   -14.4188     6.4695     0.9776 </r>
       <r>   -14.2986     0.1868     1.0000 </r>
       <r>   -14.1785     0.0000     1.0000 </r>
       <r>   -14.0584     0.0000     1.0000 </r>
       <r>   -13.9383     0.0000     1.0000 </r>
       <r>   -13.8182     0.0000     1.0000 </r>
       <r>   -13.6981     0.0000     1.0000 </r>
       <r>   -13.5780     0.0000     1.0000 </r>
       <r>   -13.4579     0.0000     1.0000 </r>
       <r>   -13.3377     0.0360     1.0043 </r>
       <r>   -13.2176     0.9464     1.1180 </r>
       <r>   -13.0975     2.3136     1.3959 </r>
       <r>   -12.9774     4.4833     1.9344 </r>
       <r>   -12.8573     4.3903     2.4617 </r>
       <r>   -12.7372     2.5190     2.7643 </r>
       <r>   -12.6171     2.3818     3.0504 </r>
       <r>   -12.4970     8.0487     4.0171 </r>
       <r>   -12.3768    10.0234     5.2210 </r>
       <r>   -12.2567    10.2758     6.4553 </r>
       <r>   -12.1366     4.2581     6.9667 </r>
       <r>   -12.0165     0.2769     7.0000 </r>
       <r>   -11.8964     0.0000     7.0000 </r>
       <r>   -11.7763     0.0000     7.0000 </r>
       <r>   -11.6562     0.0000     7.0000 </r>
       <r>   -11.5361     0.0000     7.0000 </r>
       <r>   -11.4159     0.0000     7.0000 </r>
       <r>   -11.2958     0.0000     7.0000 </r>
       <r>   -11.1757     0.0000     7.0000 </r>
       <r>   -11.0556     0.0000     7.0000 </r>
       <r>   -10.9355     0.0000     7.0000 </r>
       <r>   -10.8154     0.0000     7.0000 </r>
       <r>   -10.6953     0.0000     7.0000 </r>
       <r>   -10.5752     0.0000     7.0000 </r>
       <r>   -10.4550     0.0000     7.0000 </r>
       <r>   -10.3349     0.0000     7.0000 </r>
       <r>   -10.2148     0.0000     7.0000 </r>
       <r>   -10.0947     0.0000     7.0000 </r>
       <r>    -9.9746     0.0000     7.0000 </r>
       <r>    -9.8545     0.0000     7.0000 </r>
       <r>    -9.7344     0.0000     7.0000 </r>
       <r>    -9.6143     0.0000     7.0000 </r>
       <r>    -9.4941     0.0000     7.0000 </r>
       <r>    -9.3740     0.0000     7.0000 </r>
       <r>    -9.2539     0.0000     7.0000 </r>
       <r>    -9.1338     0.0000     7.0000 </r>
       <r>    -9.0137     0.0000     7.0000 </r>
       <r>    -8.8936     0.0000     7.0000 </r>
       <r>    -8.7735     0.0000     7.0000 </r>
       <r>    -8.6534     0.0000     7.0000 </r>
       <r>    -8.5332     0.0000     7.0000 </r>
       <r>    -8.4131     0.0000     7.0000 </r>
       <r>    -8.2930     0.0000     7.0000 </r>
       <r>    -8.1729     0.0000     7.0000 </r>
       <r>    -8.0528     0.0000     7.0000 </r>
       <r>    -7.9327     0.0000     7.0000 </r>
       <r>    -7.8126     0.0000     7.0000 </r>
       <r>    -7.6925     0.0000     7.0000 </r>
       <r>    -7.5723     0.0000     7.0000 </r>
       <r>    -7.4522     0.0000     7.0000 </r>
       <r>    -7.3321     0.0000     7.0000 </r>
       <r>    -7.2120     0.0000     7.0000 </r>
       <r>    -7.0919     0.0000     7.0000 </r>
       <r>    -6.9718     0.0000     7.0000 </r>
       <r>    -6.8517     0.0000     7.0000 </r>
       <r>    -6.7316     0.0000     7.0000 </r>
       <r>    -6.6114     0.0000     7.0000 </r>
       <r>    -6.4913     0.0000     7.0000 </r>
       <r>    -6.3712     0.0000     7.0000 </r>
       <r>    -6.2511     0.0000     7.0000 </r>
       <r>    -6.1310     0.0000     7.0000 </r>
       <r>    -6.0109     0.0000     7.0000 </r>
       <r>    -5.8908     0.0000     7.0000 </r>
       <r>    -5.7707     0.0000     7.0000 </r>
       <r>    -5.6505     0.0000     7.0000 </r>
       <r>    -5.5304     0.0000     7.0000 </r>
       <r>    -5.4103     0.0000     7.0000 </r>
       <r>    -5.2902     0.0000     7.0000 </r>
       <r>    -5.1701     0.0000     7.0000 </r>
       <r>    -5.0500     0.0000     7.0000 </r>
       <r>    -4.9299     0.0000     7.0000 </r>
       <r>    -4.8098     0.0000     7.0000 </r>
       <r>    -4.6896     0.0000     7.0000 </r>
       <r>    -4.5695     0.0000     7.0000 </r>
       <r>    -4.4494     0.0000     7.0000 </r>
       <r>    -4.3293     0.0000     7.0000 </r>
       <r>    -4.2092     0.0000     7.0000 </r>
       <r>    -4.0891     0.0000     7.0000 </r>
       <r>    -3.9690     0.0000     7.0000 </r>
       <r>    -3.8489     0.0000     7.0000 </r>
       <r>    -3.7287     0.0000     7.0000 </r>
       <r>    -3.6086     0.0000     7.0000 </r>
       <r>    -3.4885     0.0000     7.0000 </r>
       <r>    -3.3684     0.0000     7.0000 </r>
       <r>    -3.2483     0.0000     7.0000 </r>
       <r>    -3.1282     0.0000     7.0000 </r>
       <r>    -3.0081     0.0000     7.0000 </r>
       <r>    -2.8880     0.0000     7.0000 </r>
       <r>    -2.7678     0.0000     7.0000 </r>
       <r>    -2.6477     0.0000     7.0000 </r>
       <r>    -2.5276     0.0000     7.0000 </r>
       <r>    -2.4075     0.0000     7.0000 </r>
       <r>    -2.2874     0.0000     7.0000 </r>
       <r>    -2.1673     0.0000     7.0000 </r>
       <r>    -2.0472     0.0000     7.0000 </r>
       <r>    -1.9271     0.0000     7.0000 </r>
       <r>    -1.8070     0.0005     7.0001 </r>
       <r>    -1.6868     0.6465     7.0777 </r>
       <r>    -1.5667     2.3724     7.3627 </r>
       <r>    -1.4466     0.1026     7.3750 </r>
       <r>    -1.3265     0.4730     7.4318 </r>
       <r>    -1.2064     5.1372     8.0489 </r>
       <r>    -1.0863     2.9794     8.4067 </r>
       <r>    -0.9662     3.6712     8.8477 </r>
       <r>    -0.8461     5.4900     9.5071 </r>
       <r>    -0.7259     4.5238    10.0505 </r>
       <r>    -0.6058     0.6230    10.1253 </r>
       <r>    -0.4857     1.5555    10.3121 </r>
       <r>    -0.3656     5.8114    11.0101 </r>
       <r>    -0.2455     5.6953    11.6942 </r>
       <r>    -0.1254     1.4624    11.8699 </r>
       <r>    -0.0053     0.1475    11.8876 </r>
       <r>     0.1148     2.4632    12.1834 </r>
       <r>     0.2350     5.6489    12.8619 </r>
       <r>     0.3551     5.1703    13.4830 </r>
       <r>     0.4752     4.9296    14.0751 </r>
       <r>     0.5953     3.3061    14.4722 </r>
       <r>     0.7154     3.5484    14.8984 </r>
       <r>     0.8355     2.6271    15.2139 </r>
       <r>     0.9556     2.6263    15.5294 </r>
       <r>     1.0757     3.4018    15.9380 </r>
       <r>     1.1959     3.5158    16.3603 </r>
       <r>     1.3160     6.8093    17.1781 </r>
       <r>     1.4361     8.8574    18.2420 </r>
       <r>     1.5562     8.4351    19.2552 </r>
       <r>     1.6763     9.6991    20.4202 </r>
       <r>     1.7964     7.5321    21.3249 </r>
       <r>     1.9165     2.2546    21.5957 </r>
       <r>     2.0366     5.5329    22.2602 </r>
       <r>     2.1568     2.1621    22.5199 </r>
       <r>     2.2769     3.7050    22.9650 </r>
       <r>     2.3970     0.8657    23.0689 </r>
       <r>     2.5171     1.6033    23.2615 </r>
       <r>     2.6372     3.0381    23.6264 </r>
       <r>     2.7573     7.0275    24.4705 </r>
       <r>     2.8774    15.6434    26.3495 </r>
       <r>     2.9975    11.0160    27.6727 </r>
       <r>     3.1177     2.7622    28.0044 </r>
       <r>     3.2378     0.9852    28.1228 </r>
       <r>     3.3579     0.0187    28.1250 </r>
       <r>     3.4780     0.0000    28.1250 </r>
       <r>     3.5981     0.0000    28.1250 </r>
       <r>     3.7182     0.0000    28.1250 </r>
       <r>     3.8383     0.0000    28.1250 </r>
       <r>     3.9584     0.0000    28.1250 </r>
       <r>     4.0786     0.0000    28.1250 </r>
       <r>     4.1987     0.0000    28.1250 </r>
       <r>     4.3188     0.0000    28.1250 </r>
       <r>     4.4389     0.0000    28.1250 </r>
       <r>     4.5590     0.0000    28.1250 </r>
       <r>     4.6791     0.0000    28.1250 </r>
       <r>     4.7992     0.0011    28.1251 </r>
       <r>     4.9193     1.1672    28.2653 </r>
       <r>     5.0395     2.7552    28.5963 </r>
       <r>     5.1596     0.2392    28.6250 </r>
       <r>     5.2797     0.0028    28.6253 </r>
       <r>     5.3998     0.7636    28.7171 </r>
       <r>     5.5199     1.1486    28.8550 </r>
       <r>     5.6400     1.1588    28.9942 </r>
       <r>     5.7601     0.0483    29.0000 </r>
       <r>     5.8802     0.0000    29.0000 </r>
       <r>     6.0004     0.0000    29.0000 </r>
       <r>     6.1205     0.0000    29.0000 </r>
       <r>     6.2406     0.0000    29.0000 </r>
       <r>     6.3607     0.0000    29.0000 </r>
       <r>     6.4808     0.0000    29.0000 </r>
       <r>     6.6009     0.0000    29.0000 </r>
       <r>     6.7210     0.0000    29.0000 </r>
       <r>     6.8411     0.0000    29.0000 </r>
       <r>     6.9613     0.0000    29.0000 </r>
       <r>     7.0814     0.0000    29.0000 </r>
       <r>     7.2015     0.0000    29.0000 </r>
       <r>     7.3216     0.4200    29.0504 </r>
       <r>     7.4417     2.7192    29.3771 </r>
       <r>     7.5618     2.7699    29.7098 </r>
       <r>     7.6819     0.3365    29.7502 </r>
       <r>     7.8020     0.6836    29.8323 </r>
       <r>     7.9222     0.3556    29.8750 </r>
       <r>     8.0423     0.0001    29.8750 </r>
       <r>     8.1624     0.0000    29.8750 </r>
       <r>     8.2825     0.0000    29.8750 </r>
       <r>     8.4026     0.0000    29.8750 </r>
       <r>     8.5227     0.0002    29.8750 </r>
       <r>     8.6428     0.4670    29.9311 </r>
       <r>     8.7629     1.1670    30.0713 </r>
       <r>     8.8831     2.4116    30.3610 </r>
       <r>     9.0032     0.1924    30.3841 </r>
       <r>     9.1233     0.9380    30.4967 </r>
       <r>     9.2434     0.1025    30.5090 </r>
       <r>     9.3635     1.9074    30.7381 </r>
       <r>     9.4836     3.1911    31.1214 </r>
       <r>     9.6037     1.2915    31.2765 </r>
       <r>     9.7238     1.8263    31.4959 </r>
       <r>     9.8440     0.0341    31.5000 </r>
       <r>     9.9641     0.2137    31.5257 </r>
       <r>    10.0842     1.8598    31.7491 </r>
       <r>    10.2043     1.6590    31.9483 </r>
       <r>    10.3244     0.4303    32.0000 </r>
       <r>    10.4445     0.8570    32.1029 </r>
       <r>    10.5646     2.7616    32.4347 </r>
       <r>    10.6847     2.4916    32.7339 </r>
       <r>    10.8049     1.1533    32.8725 </r>
       <r>    10.9250     0.0690    32.8808 </r>
       <r>    11.0451     1.1774    33.0222 </r>
       <r>    11.1652     3.7666    33.4746 </r>
       <r>    11.2853     3.2455    33.8644 </r>
       <r>    11.4054     0.0882    33.8750 </r>
       <r>    11.5255     0.0000    33.8750 </r>
       <r>    11.6456     0.2681    33.9072 </r>
       <r>    11.7657     1.1847    34.0495 </r>
       <r>    11.8859     0.9772    34.1669 </r>
       <r>    12.0060     4.1414    34.6643 </r>
       <r>    12.1261     5.2516    35.2951 </r>
       <r>    12.2462     6.2837    36.0498 </r>
       <r>    12.3663     2.7663    36.3821 </r>
       <r>    12.4864     3.8612    36.8459 </r>
       <r>    12.6065     2.9002    37.1942 </r>
       <r>    12.7266     1.1470    37.3320 </r>
       <r>    12.8468     2.5384    37.6369 </r>
       <r>    12.9669     2.3837    37.9232 </r>
       <r>    13.0870     1.6336    38.1194 </r>
       <r>    13.2071     0.0465    38.1250 </r>
       <r>    13.3272     0.0000    38.1250 </r>
       <r>    13.4473     0.1512    38.1432 </r>
       <r>    13.5674     4.4186    38.6739 </r>
       <r>    13.6875     3.9526    39.1486 </r>
       <r>    13.8077     3.2262    39.5362 </r>
       <r>    13.9278     4.9969    40.1363 </r>
       <r>    14.0479     5.9376    40.8495 </r>
       <r>    14.1680     4.2545    41.3605 </r>
       <r>    14.2881     4.8231    41.9399 </r>
       <r>    14.4082     2.3334    42.2201 </r>
       <r>    14.5283     1.8358    42.4406 </r>
       <r>    14.6484     7.6018    43.3537 </r>
       <r>    14.7686     3.3103    43.7513 </r>
       <r>    14.8887     3.2702    44.1441 </r>
       <r>    15.0088     4.1856    44.6469 </r>
       <r>    15.1289     2.9089    44.9962 </r>
       <r>    15.2490     0.4181    45.0465 </r>
       <r>    15.3691     4.4219    45.5776 </r>
       <r>    15.4892     3.5726    46.0067 </r>
       <r>    15.6093     2.9241    46.3579 </r>
       <r>    15.7295     2.1531    46.6165 </r>
       <r>    15.8496     0.1929    46.6397 </r>
       <r>    15.9697     1.9644    46.8756 </r>
       <r>    16.0898     1.9712    47.1124 </r>
       <r>    16.2099     1.7246    47.3196 </r>
       <r>    16.3300     3.1387    47.6966 </r>
       <r>    16.4501     0.4450    47.7500 </r>
       <r>    16.5702     0.0000    47.7500 </r>
       <r>    16.6904     0.0000    47.7500 </r>
       <r>    16.8105     0.0000    47.7500 </r>
       <r>    16.9306     0.0000    47.7500 </r>
       <r>    17.0507     0.0000    47.7500 </r>
       <r>    17.1708     0.0000    47.7500 </r>
       <r>    17.2909     0.0000    47.7500 </r>
       <r>    17.4110     0.0000    47.7500 </r>
       <r>    17.5311     0.0000    47.7500 </r>
       <r>    17.6513     0.0000    47.7500 </r>
       <r>    17.7714     0.0000    47.7500 </r>
       <r>    17.8915     0.0187    47.7522 </r>
       <r>    18.0116     1.1012    47.8845 </r>
       <r>    18.1317     0.9542    47.9991 </r>
       <r>    18.2518     0.0073    48.0000 </r>
       <r>    18.3719     0.0000    48.0000 </r>
       <r>    18.4920     0.0000    48.0000 </r>
       <r>    18.6122     0.0000    48.0000 </r>
       <r>    18.7323     0.0000    48.0000 </r>
       <r>    18.8524     0.0000    48.0000 </r>
       <r>    18.9725     0.0000    48.0000 </r>
       <r>    19.0926     0.0000    48.0000 </r>
       <r>    19.2127     0.0000    48.0000 </r>
       <r>    19.3328     0.0000    48.0000 </r>
       <r>    19.4529     0.0000    48.0000 </r>
       <r>    19.5731     0.0000    48.0000 </r>
       <r>    19.6932     0.0000    48.0000 </r>
       <r>    19.8133     0.0000    48.0000 </r>
      </set>
      <set comment="spin 2">
       <r>   -16.2204     0.0000     0.0000 </r>
       <r>   -16.1003     0.0000     0.0000 </r>
       <r>   -15.9802     0.0000     0.0000 </r>
       <r>   -15.8601     0.0000     0.0000 </r>
       <r>   -15.7400     0.0000     0.0000 </r>
       <r>   -15.6199     0.0000     0.0000 </r>
       <r>   -15.4998     0.0000     0.0000 </r>
       <r>   -15.3797     0.0000     0.0000 </r>
       <r>   -15.2595     0.0000     0.0000 </r>
       <r>   -15.1394     0.0000     0.0000 </r>
       <r>   -15.0193     0.0000     0.0000 </r>
       <r>   -14.8992     0.0000     0.0000 </r>
       <r>   -14.7791     0.0000     0.0000 </r>
       <r>   -14.6590     0.0107     0.0013 </r>
       <r>   -14.5389     1.4846     0.1796 </r>
       <r>   -14.4188     6.5883     0.9709 </r>
       <r>   -14.2986     0.2420     1.0000 </r>
       <r>   -14.1785     0.0000     1.0000 </r>
       <r>   -14.0584     0.0000     1.0000 </r>
       <r>   -13.9383     0.0000     1.0000 </r>
       <r>   -13.8182     0.0000     1.0000 </r>
       <r>   -13.6981     0.0000     1.0000 </r>
       <r>   -13.5780     0.0000     1.0000 </r>
       <r>   -13.4579     0.0000     1.0000 </r>
       <r>   -13.3377     0.0137     1.0016 </r>
       <r>   -13.2176     0.9024     1.1100 </r>
       <r>   -13.0975     1.5718     1.2988 </r>
       <r>   -12.9774     5.0867     1.9098 </r>
       <r>   -12.8573     3.9868     2.3887 </r>
       <r>   -12.7372     2.9508     2.7431 </r>
       <r>   -12.6171     2.1704     3.0038 </r>
       <r>   -12.4970     7.1951     3.8680 </r>
       <r>   -12.3768    10.4300     5.1208 </r>
       <r>   -12.2567    10.6142     6.3957 </r>
       <r>   -12.1366     4.6128     6.9497 </r>
       <r>   -12.0165     0.4185     7.0000 </r>
       <r>   -11.8964     0.0000     7.0000 </r>
       <r>   -11.7763     0.0000     7.0000 </r>
       <r>   -11.6562     0.0000     7.0000 </r>
       <r>   -11.5361     0.0000     7.0000 </r>
       <r>   -11.4159     0.0000     7.0000 </r>
       <r>   -11.2958     0.0000     7.0000 </r>
       <r>   -11.1757     0.0000     7.0000 </r>
       <r>   -11.0556     0.0000     7.0000 </r>
       <r>   -10.9355     0.0000     7.0000 </r>
       <r>   -10.8154     0.0000     7.0000 </r>
       <r>   -10.6953     0.0000     7.0000 </r>
       <r>   -10.5752     0.0000     7.0000 </r>
       <r>   -10.4550     0.0000     7.0000 </r>
       <r>   -10.3349     0.0000     7.0000 </r>
       <r>   -10.2148     0.0000     7.0000 </r>
       <r>   -10.0947     0.0000     7.0000 </r>
       <r>    -9.9746     0.0000     7.0000 </r>
       <r>    -9.8545     0.0000     7.0000 </r>
       <r>    -9.7344     0.0000     7.0000 </r>
       <r>    -9.6143     0.0000     7.0000 </r>
       <r>    -9.4941     0.0000     7.0000 </r>
       <r>    -9.3740     0.0000     7.0000 </r>
       <r>    -9.2539     0.0000     7.0000 </r>
       <r>    -9.1338     0.0000     7.0000 </r>
       <r>    -9.0137     0.0000     7.0000 </r>
       <r>    -8.8936     0.0000     7.0000 </r>
       <r>    -8.7735     0.0000     7.0000 </r>
       <r>    -8.6534     0.0000     7.0000 </r>
       <r>    -8.5332     0.0000     7.0000 </r>
       <r>    -8.4131     0.0000     7.0000 </r>
       <r>    -8.2930     0.0000     7.0000 </r>
       <r>    -8.1729     0.0000     7.0000 </r>
       <r>    -8.0528     0.0000     7.0000 </r>
       <r>    -7.9327     0.0000     7.0000 </r>
       <r>    -7.8126     0.0000     7.0000 </r>
       <r>    -7.6925     0.0000     7.0000 </r>
       <r>    -7.5723     0.0000     7.0000 </r>
       <r>    -7.4522     0.0000     7.0000 </r>
       <r>    -7.3321     0.0000     7.0000 </r>
       <r>    -7.2120     0.0000     7.0000 </r>
       <r>    -7.0919     0.0000     7.0000 </r>
       <r>    -6.9718     0.0000     7.0000 </r>
       <r>    -6.8517     0.0000     7.0000 </r>
       <r>    -6.7316     0.0000     7.0000 </r>
       <r>    -6.6114     0.0000     7.0000 </r>
       <r>    -6.4913     0.0000     7.0000 </r>
       <r>    -6.3712     0.0000     7.0000 </r>
       <r>    -6.2511     0.0000     7.0000 </r>
       <r>    -6.1310     0.0000     7.0000 </r>
       <r>    -6.0109     0.0000     7.0000 </r>
       <r>    -5.8908     0.0000     7.0000 </r>
       <r>    -5.7707     0.0000     7.0000 </r>
       <r>    -5.6505     0.0000     7.0000 </r>
       <r>    -5.5304     0.0000     7.0000 </r>
       <r>    -5.4103     0.0000     7.0000 </r>
       <r>    -5.2902     0.0000     7.0000 </r>
       <r>    -5.1701     0.0000     7.0000 </r>
       <r>    -5.0500     0.0000     7.0000 </r>
       <r>    -4.9299     0.0000     7.0000 </r>
       <r>    -4.8098     0.0000     7.0000 </r>
       <r>    -4.6896     0.0000     7.0000 </r>
       <r>    -4.5695     0.0000     7.0000 </r>
       <r>    -4.4494     0.0000     7.0000 </r>
       <r>    -4.3293     0.0000     7.0000 </r>
       <r>    -4.2092     0.0000     7.0000 </r>
       <r>    -4.0891     0.0000     7.0000 </r>
       <r>    -3.9690     0.0000     7.0000 </r>
       <r>    -3.8489     0.0000     7.0000 </r>
       <r>    -3.7287     0.0000     7.0000 </r>
       <r>    -3.6086     0.0000     7.0000 </r>
       <r>    -3.4885     0.0000     7.0000 </r>
       <r>    -3.3684     0.0000     7.0000 </r>
       <r>    -3.2483     0.0000     7.0000 </r>
       <r>    -3.1282     0.0000     7.0000 </r>
       <r>    -3.0081     0.0000     7.0000 </r>
       <r>    -2.8880     0.0000     7.0000 </r>
       <r>    -2.7678     0.0000     7.0000 </r>
       <r>    -2.6477     0.0000     7.0000 </r>
       <r>    -2.5276     0.0000     7.0000 </r>
       <r>    -2.4075     0.0000     7.0000 </r>
       <r>    -2.2874     0.0000     7.0000 </r>
       <r>    -2.1673     0.0000     7.0000 </r>
       <r>    -2.0472     0.0000     7.0000 </r>
       <r>    -1.9271     0.0000     7.0000 </r>
       <r>    -1.8070     0.0002     7.0000 </r>
       <r>    -1.6868     0.4983     7.0599 </r>
       <r>    -1.5667     2.4075     7.3490 </r>
       <r>    -1.4466     0.2161     7.3750 </r>
       <r>    -1.3265     0.3851     7.4213 </r>
       <r>    -1.2064     4.7197     7.9881 </r>
       <r>    -1.0863     3.2394     8.3772 </r>
       <r>    -0.9662     3.0242     8.7405 </r>
       <r>    -0.8461     3.8149     9.1987 </r>
       <r>    -0.7259     4.3677     9.7233 </r>
       <r>    -0.6058     3.2424    10.1128 </r>
       <r>    -0.4857     1.3010    10.2690 </r>
       <r>    -0.3656     4.6594    10.8287 </r>
       <r>    -0.2455     6.4140    11.5991 </r>
       <r>    -0.1254     1.9207    11.8298 </r>
       <r>    -0.0053     0.4069    11.8787 </r>
       <r>     0.1148     1.8204    12.0973 </r>
       <r>     0.2350     4.3095    12.6150 </r>
       <r>     0.3551     4.5762    13.1646 </r>
       <r>     0.4752     6.5416    13.9503 </r>
       <r>     0.5953     3.1403    14.3275 </r>
       <r>     0.7154     4.0490    14.8139 </r>
       <r>     0.8355     2.6449    15.1316 </r>
       <r>     0.9556     2.9615    15.4873 </r>
       <r>     1.0757     2.0159    15.7294 </r>
       <r>     1.1959     4.2809    16.2436 </r>
       <r>     1.3160     6.6082    17.0373 </r>
       <r>     1.4361     8.2644    18.0300 </r>
       <r>     1.5562     8.9472    19.1047 </r>
       <r>     1.6763     9.5570    20.2526 </r>
       <r>     1.7964     8.4129    21.2631 </r>
       <r>     1.9165     2.4192    21.5536 </r>
       <r>     2.0366     5.1660    22.1741 </r>
       <r>     2.1568     2.7850    22.5087 </r>
       <r>     2.2769     3.5493    22.9350 </r>
       <r>     2.3970     0.9369    23.0475 </r>
       <r>     2.5171     1.7433    23.2569 </r>
       <r>     2.6372     2.6472    23.5749 </r>
       <r>     2.7573     5.8532    24.2779 </r>
       <r>     2.8774    14.8023    26.0558 </r>
       <r>     2.9975    12.7440    27.5865 </r>
       <r>     3.1177     3.2892    27.9816 </r>
       <r>     3.2378     0.1575    28.0005 </r>
       <r>     3.3579     0.8031    28.0970 </r>
       <r>     3.4780     0.2333    28.1250 </r>
       <r>     3.5981     0.0000    28.1250 </r>
       <r>     3.7182     0.0000    28.1250 </r>
       <r>     3.8383     0.0000    28.1250 </r>
       <r>     3.9584     0.0000    28.1250 </r>
       <r>     4.0786     0.0000    28.1250 </r>
       <r>     4.1987     0.0000    28.1250 </r>
       <r>     4.3188     0.0000    28.1250 </r>
       <r>     4.4389     0.0000    28.1250 </r>
       <r>     4.5590     0.0000    28.1250 </r>
       <r>     4.6791     0.0000    28.1250 </r>
       <r>     4.7992     0.0000    28.1250 </r>
       <r>     4.9193     0.0000    28.1250 </r>
       <r>     5.0395     0.0441    28.1303 </r>
       <r>     5.1596     2.0943    28.3818 </r>
       <r>     5.2797     1.9946    28.6214 </r>
       <r>     5.3998     0.0298    28.6250 </r>
       <r>     5.5199     0.0192    28.6273 </r>
       <r>     5.6400     1.1492    28.7653 </r>
       <r>     5.7601     1.5978    28.9572 </r>
       <r>     5.8802     0.3558    29.0000 </r>
       <r>     6.0004     0.0001    29.0000 </r>
       <r>     6.1205     0.0000    29.0000 </r>
       <r>     6.2406     0.0000    29.0000 </r>
       <r>     6.3607     0.0000    29.0000 </r>
       <r>     6.4808     0.0000    29.0000 </r>
       <r>     6.6009     0.0000    29.0000 </r>
       <r>     6.7210     0.0000    29.0000 </r>
       <r>     6.8411     0.0000    29.0000 </r>
       <r>     6.9613     0.0000    29.0000 </r>
       <r>     7.0814     0.0000    29.0000 </r>
       <r>     7.2015     0.0000    29.0000 </r>
       <r>     7.3216     0.0000    29.0000 </r>
       <r>     7.4417     0.0000    29.0000 </r>
       <r>     7.5618     0.1227    29.0147 </r>
       <r>     7.6819     1.9588    29.2500 </r>
       <r>     7.8020     1.3566    29.4130 </r>
       <r>     7.9222     3.0740    29.7822 </r>
       <r>     8.0423     0.7708    29.8748 </r>
       <r>     8.1624     0.0020    29.8750 </r>
       <r>     8.2825     0.0000    29.8750 </r>
[...]
        <r>  0.0006  0.0000  0.0028  0.0017  0.0000  0.0000  0.0000  0.0000  0.0000 </r>
        <r>  0.0069  0.0010  0.0080  0.0136  0.0000  0.0000  0.0000  0.0000  0.0000 </r>
        <r>  0.0054  0.0135  0.0148  0.0111  0.0000  0.0000  0.0000  0.0000  0.0000 </r>
        <r>  0.0128  0.0084  0.0036  0.0031  0.0000  0.0000  0.0000  0.0000  0.0000 </r>
        <r>  0.0010  0.0065  0.0125  0.0069  0.0000  0.0000  0.0000  0.0000  0.0000 </r>
        <r>  0.0119  0.0034  0.0007  0.0000  0.0000  0.0000  0.0000  0.0000  0.0000 </r>
        <r>  0.0000  0.0000  0.0153  0.0019  0.0000  0.0000  0.0000  0.0000  0.0000 </r>
       </set>
       <set comment="band 37">
        <r>  0.0002  0.0019  0.0172  0.0009  0.0000  0.0013  0.0000  0.0028  0.0010 </r>
        <r>  0.0023  0.0000  0.0055  0.0032  0.0027  0.0000  0.0002  0.0034  0.0001 </r>
        <r>  0.0008  0.0011  0.0015  0.0083  0.0036  0.0033  0.0006  0.0002  0.0001 </r>
        <r>  0.0002  0.0045  0.0000  0.0162  0.0068  0.0036  0.0004  0.0021  0.0009 </r>
        <r>  0.0002  0.0124  0.0009  0.0038  0.0066  0.0002  0.0009  0.0080  0.0002 </r>
        <r>  0.0018  0.0057  0.0083  0.0003  0.0037  0.0024  0.0000  0.0009  0.0002 </r>
        <r>  0.0037  0.0000  0.0039  0.0063  0.0029  0.0002  0.0000  0.0049  0.0002 </r>
        <r>  0.0009  0.0038  0.0013  0.0031  0.0036  0.0000  0.0008  0.0076  0.0002 </r>
        <r>  0.0003  0.0062  0.0056  0.0002  0.0024  0.0018  0.0002  0.0001  0.0000 </r>
        <r>  0.0143  0.0001  0.0001  0.0001  0.0000  0.0000  0.0000  0.0000  0.0000 </r>
        <r>  0.0075  0.0022  0.0067  0.0034  0.0000  0.0000  0.0000  0.0000  0.0000 </r>
        <r>  0.0039  0.0068  0.0012  0.0003  0.0000  0.0000  0.0000  0.0000  0.0000 </r>
        <r>  0.0023  0.0028  0.0044  0.0042  0.0000  0.0000  0.0000  0.0000  0.0000 </r>
        <r>  0.0053  0.0033  0.0069  0.0145  0.0000  0.0000  0.0000  0.0000  0.0000 </r>
        <r>  0.0000  0.0154  0.0201  0.0182  0.0000  0.0000  0.0000  0.0000  0.0000 </r>
        <r>  0.0001  0.0000  0.0000  0.0001  0.0000  0.0000  0.0000  0.0000  0.0000 </r>
       </set>
       <set comment="band 38">
        <r>  0.0126  0.0122  0.0009  0.0179  0.0009  0.0044  0.0062  0.0037  0.0001 </r>
        <r>  0.0023  0.0000  0.0047  0.0087  0.0013  0.0002  0.0005  0.0009  0.0000 </r>
        <r>  0.0171  0.0007  0.0026  0.0078  0.0019  0.0045  0.0003  0.0001  0.0003 </r>
        <r>  0.0034  0.0053  0.0011  0.0015  0.0014  0.0031  0.0025  0.0015  0.0004 </r>
        <r>  0.0065  0.0041  0.0012  0.0070  0.0013  0.0012  0.0017  0.0022  0.0004 </r>
        <r>  0.0064  0.0058  0.0049  0.0000  0.0012  0.0028  0.0002  0.0000  0.0008 </r>
        <r>  0.0031  0.0002  0.0089  0.0085  0.0006  0.0000  0.0003  0.0017  0.0007 </r>
        <r>  0.0158  0.0106  0.0041  0.0006  0.0012  0.0001  0.0001  0.0035  0.0001 </r>
        <r>  0.0023  0.0056  0.0025  0.0000  0.0017  0.0015  0.0005  0.0002  0.0001 </r>
        <r>  0.0001  0.0016  0.0202  0.0030  0.0000  0.0000  0.0000  0.0000  0.0000 </r>
        <r>  0.0018  0.0007  0.0176  0.0001  0.0000  0.0000  0.0000  0.0000  0.0000 </r>
        <r>  0.0144  0.0032  0.0119  0.0048  0.0000  0.0000  0.0000  0.0000  0.0000 </r>
        <r>  0.0023  0.0002  0.0218  0.0022  0.0000  0.0000  0.0000  0.0000  0.0000 </r>
        <r>  0.0084  0.0036  0.0094  0.0021  0.0000  0.0000  0.0000  0.0000  0.0000 </r>
        <r>  0.0253  0.0028  0.0001  0.0005  0.0000  0.0000  0.0000  0.0000  0.0000 </r>
        <r>  0.0000  0.0007  0.0074  0.0017  0.0000  0.0000  0.0000  0.0000  0.0000 </r>
       </set>
       <set comment="band 39">
        <r>  0.0001  0.0093  0.0055  0.0090  0.0002  0.0001  0.0006  0.0007  0.0060 </r>
        <r>  0.0478  0.0022  0.0049  0.0026  0.0005  0.0026  0.0000  0.0000  0.0000 </r>
        <r>  0.0063  0.0012  0.0017  0.0001  0.0003  0.0017  0.0006  0.0001  0.0000 </r>
        <r>  0.0384  0.0009  0.0010  0.0022  0.0002  0.0003  0.0001  0.0003  0.0013 </r>
        <r>  0.0205  0.0014  0.0006  0.0002  0.0001  0.0003  0.0000  0.0005  0.0012 </r>
        <r>  0.0002  0.0039  0.0007  0.0013  0.0024  0.0001  0.0003  0.0000  0.0005 </r>
        <r>  0.0009  0.0009  0.0014  0.0050  0.0005  0.0000  0.0003  0.0001  0.0005 </r>
        <r>  0.0135  0.0001  0.0004  0.0005  0.0000  0.0005  0.0008  0.0012  0.0000 </r>
        <r>  0.0714  0.0021  0.0035  0.0023  0.0000  0.0000  0.0001  0.0038  0.0000 </r>
        <r>  0.0114  0.0057  0.0001  0.0219  0.0000  0.0000  0.0000  0.0000  0.0000 </r>
        <r>  0.0035  0.0010  0.0106  0.0014  0.0000  0.0000  0.0000  0.0000  0.0000 </r>
        <r>  0.0004  0.0106  0.0096  0.0259  0.0000  0.0000  0.0000  0.0000  0.0000 </r>
        <r>  0.0042  0.0002  0.0220  0.0001  0.0000  0.0000  0.0000  0.0000  0.0000 </r>
        <r>  0.0011  0.0300  0.0076  0.0083  0.0000  0.0000  0.0000  0.0000  0.0000 </r>
        <r>  0.0000  0.0188  0.0145  0.0174  0.0000  0.0000  0.0000  0.0000  0.0000 </r>
        <r>  0.0130  0.0175  0.0002  0.0056  0.0000  0.0000  0.0000  0.0000  0.0000 </r>
       </set>
       <set comment="band 40">
        <r>  0.0001  0.0061  0.0067  0.0002  0.0005  0.0014  0.0017  0.0209  0.0088 </r>
        <r>  0.0000  0.0041  0.0004  0.0007  0.0002  0.0001  0.0001  0.0034  0.0000 </r>
        <r>  0.0052  0.0060  0.0000  0.0009  0.0000  0.0005  0.0007  0.0153  0.0002 </r>
        <r>  0.0039  0.0122  0.0031  0.0003  0.0029  0.0021  0.0001  0.0062  0.0013 </r>
        <r>  0.0036  0.0000  0.0075  0.0015  0.0020  0.0008  0.0001  0.0001  0.0000 </r>
        <r>  0.0170  0.0014  0.0000  0.0002  0.0006  0.0000  0.0007  0.0152  0.0001 </r>
        <r>  0.0348  0.0002  0.0000  0.0003  0.0005  0.0023  0.0000  0.0018  0.0000 </r>
        <r>  0.0034  0.0001  0.0001  0.0141  0.0000  0.0042  0.0001  0.0007  0.0000 </r>
        <r>  0.0056  0.0002  0.0000  0.0010  0.0011  0.0010  0.0002  0.0020  0.0002 </r>
        <r>  0.0001  0.0009  0.0063  0.0128  0.0000  0.0000  0.0000  0.0000  0.0000 </r>
        <r>  0.0068  0.0021  0.0337  0.0288  0.0000  0.0000  0.0000  0.0000  0.0000 </r>
        <r>  0.0002  0.0058  0.0072  0.0087  0.0000  0.0000  0.0000  0.0000  0.0000 </r>
        <r>  0.0012  0.0003  0.0243  0.0148  0.0000  0.0000  0.0000  0.0000  0.0000 </r>
        <r>  0.0017  0.0021  0.0128  0.0103  0.0000  0.0000  0.0000  0.0000  0.0000 </r>
        <r>  0.0001  0.0025  0.0167  0.0030  0.0000  0.0000  0.0000  0.0000  0.0000 </r>
        <r>  0.0060  0.0020  0.0049  0.0058  0.0000  0.0000  0.0000  0.0000  0.0000 </r>
       </set>
       <set comment="band 41">
        <r>  0.0003  0.0046  0.0003  0.0045  0.0170  0.0002  0.0250  0.0001  0.0003 </r>
        <r>  0.0128  0.0012  0.0000  0.0002  0.0072  0.0011  0.0001  0.0000  0.0000 </r>
        <r>  0.0315  0.0019  0.0024  0.0000  0.0053  0.0000  0.0001  0.0020  0.0001 </r>
        <r>  0.0065  0.0002  0.0001  0.0003  0.0042  0.0002  0.0002  0.0006  0.0001 </r>
        <r>  0.0196  0.0007  0.0000  0.0012  0.0042  0.0000  0.0000  0.0003  0.0001 </r>
        <r>  0.0168  0.0031  0.0001  0.0000  0.0068  0.0002  0.0000  0.0000  0.0001 </r>
        <r>  0.0057  0.0001  0.0000  0.0018  0.0093  0.0005  0.0000  0.0005  0.0003 </r>
        <r>  0.0181  0.0002  0.0045  0.0005  0.0077  0.0002  0.0002  0.0002  0.0000 </r>
        <r>  0.0018  0.0000  0.0008  0.0012  0.0051  0.0001  0.0000  0.0000  0.0000 </r>
        <r>  0.0009  0.0444  0.0039  0.0227  0.0000  0.0000  0.0000  0.0000  0.0000 </r>
        <r>  0.0005  0.0200  0.0122  0.0291  0.0000  0.0000  0.0000  0.0000  0.0000 </r>
        <r>  0.0010  0.0013  0.0002  0.0027  0.0000  0.0000  0.0000  0.0000  0.0000 </r>
        <r>  0.0008  0.0350  0.0010  0.0245  0.0000  0.0000  0.0000  0.0000  0.0000 </r>
        <r>  0.0004  0.0000  0.0001  0.0010  0.0000  0.0000  0.0000  0.0000  0.0000 </r>
        <r>  0.0002  0.0001  0.0000  0.0013  0.0000  0.0000  0.0000  0.0000  0.0000 </r>
        <r>  0.0001  0.0089  0.0083  0.0250  0.0000  0.0000  0.0000  0.0000  0.0000 </r>
       </set>
       <set comment="band 42">
        <r>  0.0006  0.0030  0.0040  0.0071  0.0000  0.0202  0.0021  0.0055  0.0018 </r>
        <r>  0.0182  0.0001  0.0004  0.0007  0.0001  0.0038  0.0000  0.0007  0.0002 </r>
        <r>  0.0113  0.0052  0.0001  0.0000  0.0014  0.0045  0.0000  0.0012  0.0000 </r>
        <r>  0.0024  0.0005  0.0010  0.0001  0.0000  0.0024  0.0006  0.0030  0.0002 </r>
        <r>  0.0002  0.0001  0.0000  0.0066  0.0020  0.0097  0.0002  0.0034  0.0006 </r>
        <r>  0.0150  0.0001  0.0001  0.0001  0.0003  0.0045  0.0000  0.0029  0.0002 </r>
        <r>  0.0006  0.0000  0.0004  0.0000  0.0009  0.0138  0.0003  0.0035  0.0004 </r>
        <r>  0.0138  0.0005  0.0000  0.0000  0.0017  0.0113  0.0001  0.0021  0.0001 </r>
        <r>  0.0045  0.0014  0.0011  0.0002  0.0001  0.0036  0.0000  0.0007  0.0001 </r>
        <r>  0.0000  0.0052  0.0448  0.0001  0.0000  0.0000  0.0000  0.0000  0.0000 </r>
        <r>  0.0003  0.0390  0.0022  0.0130  0.0000  0.0000  0.0000  0.0000  0.0000 </r>
        <r>  0.0010  0.0013  0.0024  0.0001  0.0000  0.0000  0.0000  0.0000  0.0000 </r>
        <r>  0.0048  0.0316  0.0108  0.0205  0.0000  0.0000  0.0000  0.0000  0.0000 </r>
        <r>  0.0005  0.0060  0.0007  0.0007  0.0000  0.0000  0.0000  0.0000  0.0000 </r>
        <r>  0.0015  0.0005  0.0042  0.0002  0.0000  0.0000  0.0000  0.0000  0.0000 </r>
        <r>  0.0015  0.0062  0.0243  0.0001  0.0000  0.0000  0.0000  0.0000  0.0000 </r>
       </set>
       <set comment="band 43">
        <r>  0.0000  0.0095  0.0002  0.0013  0.0001  0.0000  0.0057  0.0003  0.0255 </r>
        <r>  0.0004  0.0012  0.0029  0.0068  0.0006  0.0000  0.0001  0.0044  0.0003 </r>
        <r>  0.0000  0.0019  0.0032  0.0051  0.0017  0.0072  0.0002  0.0009  0.0007 </r>
        <r>  0.0083  0.0280  0.0001  0.0020  0.0000  0.0001  0.0027  0.0002  0.0064 </r>
        <r>  0.0005  0.0143  0.0025  0.0055  0.0002  0.0003  0.0020  0.0010  0.0004 </r>
        <r>  0.0000  0.0013  0.0020  0.0055  0.0059  0.0018  0.0005  0.0010  0.0000 </r>
        <r>  0.0005  0.0162  0.0024  0.0037  0.0004  0.0000  0.0006  0.0023  0.0006 </r>
        <r>  0.0007  0.0192  0.0029  0.0021  0.0011  0.0007  0.0006  0.0023  0.0003 </r>
        <r>  0.0003  0.0079  0.0000  0.0000  0.0041  0.0036  0.0000  0.0031  0.0002 </r>
        <r>  0.0000  0.0253  0.0012  0.0158  0.0000  0.0000  0.0000  0.0000  0.0000 </r>
        <r>  0.0000  0.0194  0.0020  0.0060  0.0000  0.0000  0.0000  0.0000  0.0000 </r>
        <r>  0.0026  0.0040  0.0016  0.0035  0.0000  0.0000  0.0000  0.0000  0.0000 </r>
        <r>  0.0001  0.0243  0.0089  0.0041  0.0000  0.0000  0.0000  0.0000  0.0000 </r>
        <r>  0.0049  0.0005  0.0009  0.0005  0.0000  0.0000  0.0000  0.0000  0.0000 </r>
        <r>  0.0007  0.0030  0.0031  0.0035  0.0000  0.0000  0.0000  0.0000  0.0000 </r>
        <r>  0.0042  0.0409  0.0074  0.0132  0.0000  0.0000  0.0000  0.0000  0.0000 </r>
       </set>
       <set comment="band 44">
        <r>  0.0001  0.0003  0.0018  0.0000  0.0034  0.0019  0.0164  0.0060  0.0024 </r>
        <r>  0.0000  0.0041  0.0001  0.0050  0.0078  0.0005  0.0000  0.0077  0.0000 </r>
        <r>  0.0036  0.0000  0.0167  0.0015  0.0003  0.0009  0.0018  0.0025  0.0000 </r>
        <r>  0.0117  0.0029  0.0030  0.0002  0.0016  0.0073  0.0002  0.0000  0.0004 </r>
        <r>  0.0032  0.0035  0.0006  0.0008  0.0000  0.0080  0.0000  0.0010  0.0007 </r>
        <r>  0.0008  0.0000  0.0018  0.0000  0.0002  0.0012  0.0000  0.0056  0.0000 </r>
        <r>  0.0095  0.0043  0.0027  0.0010  0.0002  0.0018  0.0001  0.0156  0.0006 </r>
        <r>  0.0001  0.0035  0.0070  0.0015  0.0128  0.0004  0.0005  0.0000  0.0001 </r>
        <r>  0.0059  0.0043  0.0167  0.0097  0.0002  0.0003  0.0001  0.0007  0.0000 </r>
        <r>  0.0004  0.0036  0.0219  0.0148  0.0000  0.0000  0.0000  0.0000  0.0000 </r>
        <r>  0.0003  0.0015  0.0052  0.0055  0.0000  0.0000  0.0000  0.0000  0.0000 </r>
        <r>  0.0007  0.0028  0.0000  0.0134  0.0000  0.0000  0.0000  0.0000  0.0000 </r>
        <r>  0.0016  0.0061  0.0000  0.0016  0.0000  0.0000  0.0000  0.0000  0.0000 </r>
        <r>  0.0000  0.0183  0.0007  0.0001  0.0000  0.0000  0.0000  0.0000  0.0000 </r>
        <r>  0.0008  0.0019  0.0098  0.0007  0.0000  0.0000  0.0000  0.0000  0.0000 </r>
        <r>  0.0000  0.0006  0.0240  0.0004  0.0000  0.0000  0.0000  0.0000  0.0000 </r>
       </set>
       <set comment="band 45">
        <r>  0.0002  0.0005  0.0012  0.0049  0.0001  0.0001  0.0225  0.0019  0.0151 </r>
        <r>  0.0000  0.0011  0.0083  0.0015  0.0002  0.0069  0.0001  0.0011  0.0000 </r>
        <r>  0.0110  0.0001  0.0082  0.0109  0.0004  0.0001  0.0007  0.0021  0.0000 </r>
        <r>  0.0005  0.0000  0.0039  0.0128  0.0026  0.0002  0.0004  0.0000  0.0007 </r>
        <r>  0.0053  0.0003  0.0063  0.0281  0.0004  0.0058  0.0004  0.0004  0.0047 </r>
        <r>  0.0114  0.0008  0.0065  0.0192  0.0013  0.0004  0.0004  0.0001  0.0005 </r>
        <r>  0.0033  0.0004  0.0085  0.0014  0.0042  0.0015  0.0000  0.0037  0.0000 </r>
        <r>  0.0049  0.0000  0.0181  0.0023  0.0018  0.0003  0.0018  0.0030  0.0002 </r>
        <r>  0.0021  0.0009  0.0001  0.0111  0.0013  0.0002  0.0001  0.0001  0.0000 </r>
        <r>  0.0001  0.0002  0.0033  0.0097  0.0000  0.0000  0.0000  0.0000  0.0000 </r>
        <r>  0.0001  0.0009  0.0152  0.0119  0.0000  0.0000  0.0000  0.0000  0.0000 </r>
        <r>  0.0008  0.0002  0.0017  0.0057  0.0000  0.0000  0.0000  0.0000  0.0000 </r>
        <r>  0.0006  0.0010  0.0260  0.0239  0.0000  0.0000  0.0000  0.0000  0.0000 </r>
        <r>  0.0000  0.0035  0.0007  0.0024  0.0000  0.0000  0.0000  0.0000  0.0000 </r>
        <r>  0.0010  0.0024  0.0066  0.0000  0.0000  0.0000  0.0000  0.0000  0.0000 </r>
        <r>  0.0004  0.0012  0.0134  0.0273  0.0000  0.0000  0.0000  0.0000  0.0000 </r>
       </set>
       <set comment="band 46">
        <r>  0.0005  0.0021  0.0031  0.0057  0.0018  0.0048  0.0000  0.0046  0.0041 </r>
        <r>  0.0269  0.0139  0.0069  0.0052  0.0006  0.0015  0.0000  0.0005  0.0000 </r>
        <r>  0.0040  0.0024  0.0000  0.0015  0.0131  0.0006  0.0000  0.0002  0.0000 </r>
        <r>  0.0004  0.0035  0.0024  0.0016  0.0001  0.0000  0.0002  0.0169  0.0008 </r>
        <r>  0.0066  0.0020  0.0001  0.0001  0.0057  0.0018  0.0003  0.0069  0.0004 </r>
        <r>  0.0088  0.0034  0.0013  0.0008  0.0008  0.0153  0.0000  0.0002  0.0003 </r>
        <r>  0.0013  0.0032  0.0002  0.0000  0.0048  0.0043  0.0000  0.0000  0.0001 </r>
        <r>  0.0002  0.0006  0.0015  0.0003  0.0003  0.0055  0.0004  0.0053  0.0000 </r>
        <r>  0.0001  0.0027  0.0005  0.0006  0.0032  0.0072  0.0000  0.0026  0.0000 </r>
        <r>  0.0003  0.0090  0.0161  0.0027  0.0000  0.0000  0.0000  0.0000  0.0000 </r>
        <r>  0.0022  0.0187  0.0146  0.0052  0.0000  0.0000  0.0000  0.0000  0.0000 </r>
        <r>  0.0001  0.0018  0.0038  0.0050  0.0000  0.0000  0.0000  0.0000  0.0000 </r>
        <r>  0.0001  0.0022  0.0024  0.0158  0.0000  0.0000  0.0000  0.0000  0.0000 </r>
        <r>  0.0006  0.0087  0.0011  0.0034  0.0000  0.0000  0.0000  0.0000  0.0000 </r>
        <r>  0.0000  0.0019  0.0035  0.0066  0.0000  0.0000  0.0000  0.0000  0.0000 </r>
        <r>  0.0000  0.0047  0.0042  0.0096  0.0000  0.0000  0.0000  0.0000  0.0000 </r>
       </set>
       <set comment="band 47">
        <r>  0.0000  0.0000  0.0029  0.0000  0.0000  0.0052  0.0001  0.0080  0.0022 </r>
        <r>  0.0699  0.0015  0.0005  0.0007  0.0019  0.0024  0.0000  0.0001  0.0000 </r>
        <r>  0.0019  0.0087  0.0001  0.0050  0.0041  0.0051  0.0000  0.0007  0.0000 </r>
        <r>  0.0032  0.0000  0.0032  0.0047  0.0025  0.0061  0.0000  0.0019  0.0001 </r>
        <r>  0.0001  0.0017  0.0030  0.0015  0.0007  0.0001  0.0000  0.0043  0.0000 </r>
        <r>  0.0003  0.0086  0.0021  0.0005  0.0030  0.0046  0.0000  0.0008  0.0001 </r>
        <r>  0.0016  0.0000  0.0026  0.0059  0.0013  0.0009  0.0000  0.0004  0.0001 </r>
        <r>  0.0080  0.0023  0.0003  0.0052  0.0001  0.0003  0.0001  0.0033  0.0000 </r>
        <r>  0.0527  0.0047  0.0001  0.0006  0.0037  0.0021  0.0000  0.0060  0.0000 </r>
        <r>  0.0006  0.0037  0.0008  0.0036  0.0000  0.0000  0.0000  0.0000  0.0000 </r>
        <r>  0.0007  0.0059  0.0018  0.0001  0.0000  0.0000  0.0000  0.0000  0.0000 </r>
        <r>  0.0003  0.0074  0.0037  0.0238  0.0000  0.0000  0.0000  0.0000  0.0000 </r>
        <r>  0.0013  0.0000  0.0060  0.0004  0.0000  0.0000  0.0000  0.0000  0.0000 </r>
        <r>  0.0006  0.0249  0.0038  0.0069  0.0000  0.0000  0.0000  0.0000  0.0000 </r>
        <r>  0.0000  0.0135  0.0431  0.0113  0.0000  0.0000  0.0000  0.0000  0.0000 </r>
        <r>  0.0011  0.0062  0.0002  0.0001  0.0000  0.0000  0.0000  0.0000  0.0000 </r>
       </set>
       <set comment="band 48">
        <r>  0.0000  0.0008  0.0001  0.0000  0.0012  0.0055  0.0002  0.0049  0.0000 </r>
        <r>  0.0373  0.0058  0.0058  0.0112  0.0000  0.0004  0.0000  0.0003  0.0000 </r>
        <r>  0.0062  0.0100  0.0000  0.0003  0.0005  0.0005  0.0000  0.0002  0.0001 </r>
        <r>  0.0386  0.0029  0.0000  0.0000  0.0005  0.0000  0.0003  0.0011  0.0008 </r>
        <r>  0.0418  0.0026  0.0012  0.0012  0.0015  0.0005  0.0001  0.0001  0.0006 </r>
        <r>  0.0075  0.0152  0.0022  0.0009  0.0006  0.0006  0.0002  0.0011  0.0000 </r>
        <r>  0.0160  0.0005  0.0069  0.0194  0.0003  0.0003  0.0002  0.0012  0.0002 </r>
        <r>  0.0122  0.0031  0.0004  0.0111  0.0009  0.0003  0.0001  0.0002  0.0000 </r>
        <r>  0.0680  0.0103  0.0046  0.0040  0.0007  0.0000  0.0000  0.0013  0.0000 </r>
        <r>  0.0000  0.0108  0.0008  0.0085  0.0000  0.0000  0.0000  0.0000  0.0000 </r>
        <r>  0.0008  0.0003  0.0034  0.0052  0.0000  0.0000  0.0000  0.0000  0.0000 </r>
        <r>  0.0003  0.0017  0.0018  0.0019  0.0000  0.0000  0.0000  0.0000  0.0000 </r>
        <r>  0.0002  0.0101  0.0056  0.0000  0.0000  0.0000  0.0000  0.0000  0.0000 </r>
        <r>  0.0004  0.0046  0.0091  0.0099  0.0000  0.0000  0.0000  0.0000  0.0000 </r>
        <r>  0.0002  0.0002  0.0001  0.0005  0.0000  0.0000  0.0000  0.0000  0.0000 </r>
        <r>  0.0001  0.0076  0.0081  0.0074  0.0000  0.0000  0.0000  0.0000  0.0000 </r>
       </set>
      </set>
     </set>
    </set>
   </array>
  </projected>
 </calculation>
 <structure name="finalpos" >
  <crystal>
   <varray name="basis" >
    <v>       0.00000000       4.24689300       4.24689300 </v>
    <v>       4.24689300       0.00000000       4.24689300 </v>
    <v>       4.24689300       4.24689300       0.00000000 </v>
   </varray>
   <i name="volume">    153.19477498 </i>
   <varray name="rec_basis" >
    <v>      -0.11773313       0.11773313       0.11773313 </v>
    <v>       0.11773313      -0.11773313       0.11773313 </v>
    <v>       0.11773313       0.11773313      -0.11773313 </v>
   </varray>
  </crystal>
  <varray name="positions" >
   <v>       0.16797186       0.32785652       0.23917509 </v>
   <v>       0.01198062       0.98869122       0.00175829 </v>
   <v>       0.99610008       0.96846043       0.51963732 </v>
   <v>       0.96292607       0.53380816       0.95239780 </v>
   <v>       0.97637659       0.52119685       0.54406578 </v>
   <v>       0.50671351       0.99135701       0.99923107 </v>
   <v>       0.50029405       0.99770414       0.49868065 </v>
   <v>       0.52734235       0.50164694       0.98714567 </v>
   <v>       0.50859125       0.48572415       0.50492291 </v>
   <v>       0.24458846       0.25277861       0.75750728 </v>
   <v>       0.25397281       0.73093542       0.25891718 </v>
   <v>       0.24949864       0.72490551       0.76615945 </v>
   <v>       0.77186333       0.24771388       0.24379340 </v>
   <v>       0.76736986       0.24306884       0.74596830 </v>
   <v>       0.78803810       0.70925805       0.24971615 </v>
   <v>       0.72641543       0.77063728       0.74563065 </v>
  </varray>
 </structure>
</modeling>
