<?xml version="1.0" encoding="ISO-8859-1"?>
<modeling>
 <generator>
  <i name="program" type="string">vasp </i>
  <i name="version" type="string">5.4.1  </i>
  <i name="subversion" type="string">05Feb16 (build Mar 31 2016 13:39:20) complex                          parallel </i>
  <i name="platform" type="string">IFC91_ompi </i>
  <i name="date" type="string">2018 04 12 </i>
  <i name="time" type="string">14:19:01 </i>
 </generator>
 <incar>
  <i type="string" name="PREC">n</i>
  <i type="string" name="ALGO"> N</i>
  <i type="int" name="ISPIN">     2</i>
  <i type="int" name="NELM">   100</i>
  <i type="int" name="NELMIN">     4</i>
  <i type="int" name="IBRION">     2</i>
  <i name="EDIFF">      0.00000100</i>
  <i name="EDIFFG">     -0.05000000</i>
  <i type="int" name="NSW">    20</i>
  <i type="int" name="ISIF">     2</i>
  <i name="ENCUT">    400.00000000</i>
  <i name="NELECT">     59.00000000</i>
  <i type="string" name="LREAL"> A</i>
  <i type="int" name="ISMEAR">     0</i>
  <i name="SIGMA">      0.05000000</i>
  <i type="logical" name="LWAVE"> F  </i>
  <i type="logical" name="LCHARG"> F  </i>
  <i type="logical" name="LORBIT"> F  </i>
  <i type="logical" name="LASPH"> T  </i>
  <v type="int" name="KPOINT_BSE">    -1     0     0     0</v>
  <i type="int" name="NELM">   100</i>
  <i type="logical" name="LASPH"> T  </i>
 </incar>
 <kpoints>
  <generation param="Monkhorst-Pack">
   <v type="int" name="divisions">       2        2        2 </v>
   <v name="usershift">      0.00000000       0.00000000       0.00000000 </v>
   <v name="genvec1">      0.50000000       0.00000000       0.00000000 </v>
   <v name="genvec2">      0.00000000       0.50000000       0.00000000 </v>
   <v name="genvec3">      0.00000000       0.00000000       0.50000000 </v>
   <v name="shift">      0.50000000       0.50000000       0.50000000 </v>
  </generation>
  <varray name="kpointlist" >
   <v>       0.25000000       0.25000000       0.25000000 </v>
   <v>       0.25000000       0.00000000       0.00000000 </v>
   <v>       0.00000000       0.00000000      -0.25000000 </v>
   <v>       0.00000000       0.25000000       0.00000000 </v>
   <v>      -0.25000000       0.25000000       0.25000000 </v>
   <v>       0.25000000      -0.25000000       0.25000000 </v>
   <v>       0.25000000       0.25000000      -0.25000000 </v>
   <v>       0.25000000       0.00000000       0.50000000 </v>
   <v>      -0.25000000       0.50000000       0.50000000 </v>
   <v>       0.25000000       0.50000000       0.00000000 </v>
   <v>       0.00000000       0.50000000      -0.25000000 </v>
   <v>       0.50000000       0.00000000      -0.25000000 </v>
   <v>       0.50000000       0.50000000       0.25000000 </v>
   <v>       0.50000000      -0.25000000       0.50000000 </v>
   <v>       0.00000000       0.25000000       0.50000000 </v>
   <v>       0.50000000       0.25000000       0.00000000 </v>
  </varray>
  <varray name="weights" >
   <v>       0.06250000 </v>
   <v>       0.06250000 </v>
   <v>       0.06250000 </v>
   <v>       0.06250000 </v>
   <v>       0.06250000 </v>
   <v>       0.06250000 </v>
   <v>       0.06250000 </v>
   <v>       0.06250000 </v>
   <v>       0.06250000 </v>
   <v>       0.06250000 </v>
   <v>       0.06250000 </v>
   <v>       0.06250000 </v>
   <v>       0.06250000 </v>
   <v>       0.06250000 </v>
   <v>       0.06250000 </v>
   <v>       0.06250000 </v>
  </varray>
 </kpoints>
 <parameters>
  <separator name="general" >
   <i type="string" name="SYSTEM">unknown system</i>
   <i type="logical" name="LCOMPAT"> F  </i>
  </separator>
  <separator name="electronic" >
   <i type="string" name="PREC">n</i>
   <i name="ENMAX">    400.00000000</i>
   <i name="ENAUG">    605.39200000</i>
   <i name="EDIFF">      0.00000100</i>
   <i type="int" name="IALGO">    38</i>
   <i type="int" name="IWAVPR">    11</i>
   <i type="int" name="NBANDS">    48</i>
   <i name="NELECT">     59.00000000</i>
   <i type="int" name="TURBO">     0</i>
   <i type="int" name="IRESTART">     0</i>
   <i type="int" name="NREBOOT">     0</i>
   <i type="int" name="NMIN">     0</i>
   <i name="EREF">      0.00000000</i>
   <separator name="electronic smearing" >
    <i type="int" name="ISMEAR">     0</i>
    <i name="SIGMA">      0.05000000</i>
    <i name="KSPACING">      0.50000000</i>
    <i type="logical" name="KGAMMA"> T  </i>
   </separator>
   <separator name="electronic projectors" >
    <i type="logical" name="LREAL"> T  </i>
    <v name="ROPT">     -0.00050000     -0.00050000</v>
    <i type="int" name="LMAXPAW">  -100</i>
    <i type="int" name="LMAXMIX">     2</i>
    <i type="logical" name="NLSPLINE"> F  </i>
   </separator>
   <separator name="electronic startup" >
    <i type="int" name="ISTART">     0</i>
    <i type="int" name="ICHARG">     2</i>
    <i type="int" name="INIWAV">     1</i>
   </separator>
   <separator name="electronic spin" >
    <i type="int" name="ISPIN">     2</i>
    <i type="logical" name="LNONCOLLINEAR"> F  </i>
    <v name="MAGMOM">      1.00000000      1.00000000      1.00000000      1.00000000      1.00000000      1.00000000      1.00000000      1.00000000      1.00000000      1.00000000      1.00000000      1.00000000      1.00000000      1.00000000      1.00000000      1.00000000</v>
    <i name="NUPDOWN">     -1.00000000</i>
    <i type="logical" name="LSORBIT"> F  </i>
    <v name="SAXIS">      0.00000000      0.00000000      1.00000000</v>
    <i type="logical" name="LSPIRAL"> F  </i>
    <v name="QSPIRAL">      0.00000000      0.00000000      0.00000000</v>
    <i type="logical" name="LZEROZ"> F  </i>
   </separator>
   <separator name="electronic exchange-correlation" >
    <i type="logical" name="LASPH"> T  </i>
    <i type="logical" name="LMETAGGA"> F  </i>
   </separator>
   <separator name="electronic convergence" >
    <i type="int" name="NELM">   100</i>
    <i type="int" name="NELMDL">     0</i>
    <i type="int" name="NELMIN">     4</i>
    <i name="ENINI">    400.00000000</i>
    <separator name="electronic convergence detail" >
     <i type="logical" name="LDIAG"> T  </i>
     <i type="logical" name="LSUBROT"> F  </i>
     <i name="WEIMIN">      0.00100000</i>
     <i name="EBREAK">      0.00000001</i>
     <i name="DEPER">      0.30000000</i>
     <i type="int" name="NRMM">     4</i>
     <i name="TIME">      0.40000000</i>
    </separator>
   </separator>
   <separator name="electronic mixer" >
    <i name="AMIX">      0.40000000</i>
    <i name="BMIX">      1.00000000</i>
    <i name="AMIN">      0.10000000</i>
    <i name="AMIX_MAG">      1.60000000</i>
    <i name="BMIX_MAG">      1.00000000</i>
    <separator name="electronic mixer details" >
     <i type="int" name="IMIX">     4</i>
     <i type="logical" name="MIXFIRST"> F  </i>
     <i type="int" name="MAXMIX">   -45</i>
     <i name="WC">    100.00000000</i>
     <i type="int" name="INIMIX">     1</i>
     <i type="int" name="MIXPRE">     1</i>
     <i type="int" name="MREMOVE">     5</i>
    </separator>
   </separator>
   <separator name="electronic dipolcorrection" >
    <i type="logical" name="LDIPOL"> F  </i>
    <i type="logical" name="LMONO"> F  </i>
    <i type="int" name="IDIPOL">     0</i>
    <i name="EPSILON">      1.00000000</i>
    <v name="DIPOL">   -100.00000000   -100.00000000   -100.00000000</v>
    <i name="EFIELD">      0.00000000</i>
   </separator>
  </separator>
  <separator name="grids" >
   <i type="int" name="NGX">    30</i>
   <i type="int" name="NGY">    30</i>
   <i type="int" name="NGZ">    30</i>
   <i type="int" name="NGXF">    60</i>
   <i type="int" name="NGYF">    60</i>
   <i type="int" name="NGZF">    60</i>
   <i type="logical" name="ADDGRID"> F  </i>
  </separator>
  <separator name="ionic" >
   <i type="int" name="NSW">    20</i>
   <i type="int" name="IBRION">     2</i>
   <i type="int" name="ISIF">     2</i>
   <i name="PSTRESS">      0.00000000</i>
   <i name="EDIFFG">     -0.05000000</i>
   <i type="int" name="NFREE">     1</i>
   <i name="POTIM">      0.50000000</i>
   <i name="SMASS">     -3.00000000</i>
   <i name="SCALEE">      1.00000000</i>
  </separator>
  <separator name="ionic md" >
   <i name="TEBEG">      0.00010000</i>
   <i name="TEEND">      0.00010000</i>
   <i type="int" name="NBLOCK">     1</i>
   <i type="int" name="KBLOCK">    20</i>
   <i type="int" name="NPACO">   256</i>
   <i name="APACO">     16.00000000</i>
  </separator>
  <separator name="symmetry" >
   <i type="int" name="ISYM">     2</i>
   <i name="SYMPREC">      0.00001000</i>
  </separator>
  <separator name="dos" >
   <i type="logical" name="LORBIT"> F  </i>
   <v name="RWIGS">     -1.00000000     -1.00000000</v>
   <i type="int" name="NEDOS">   301</i>
   <i name="EMIN">     10.00000000</i>
   <i name="EMAX">    -10.00000000</i>
   <i name="EFERMI">      0.00000000</i>
  </separator>
  <separator name="writing" >
   <i type="int" name="NWRITE">     2</i>
   <i type="logical" name="LWAVE"> F  </i>
   <i type="logical" name="LCHARG"> F  </i>
   <i type="logical" name="LPARD"> F  </i>
   <i type="logical" name="LVTOT"> F  </i>
   <i type="logical" name="LVHAR"> F  </i>
   <i type="logical" name="LELF"> F  </i>
   <i type="logical" name="LOPTICS"> F  </i>
   <v name="STM">      0.00000000      0.00000000      0.00000000      0.00000000      0.00000000      0.00000000      0.00000000</v>
  </separator>
  <separator name="performance" >
   <i type="int" name="NPAR">     4</i>
   <i type="int" name="NSIM">     4</i>
   <i type="int" name="NBLK">    -1</i>
   <i type="logical" name="LPLANE"> T  </i>
   <i type="logical" name="LSCALAPACK"> T  </i>
   <i type="logical" name="LSCAAWARE"> F  </i>
   <i type="logical" name="LSCALU"> F  </i>
   <i type="logical" name="LASYNC"> F  </i>
   <i type="logical" name="LORBITALREAL"> F  </i>
  </separator>
  <separator name="miscellaneous" >
   <i type="int" name="IDIOT">     3</i>
   <i type="logical" name="LMUSIC"> F  </i>
   <v name="POMASS">     24.30500000     16.00000000</v>
   <v name="DARWINR">      0.00000000      0.00000000</v>
   <v name="DARWINV">      1.00000000      1.00000000</v>
   <i type="logical" name="LCORR"> T  </i>
  </separator>
  <i type="logical" name="GGA_COMPAT"> T  </i>
  <i type="logical" name="LBERRY"> F  </i>
  <i type="int" name="ICORELEVEL">     0</i>
  <i type="logical" name="LDAU"> F  </i>
  <i type="int" name="I_CONSTRAINED_M">     0</i>
  <separator name="electronic exchange-correlation" >
   <i type="string" name="GGA">--</i>
   <i type="int" name="VOSKOWN">     0</i>
   <i type="logical" name="LHFCALC"> F  </i>
   <i type="string" name="PRECFOCK"></i>
   <i type="logical" name="LSYMGRAD"> F  </i>
   <i type="logical" name="LHFONE"> F  </i>
   <i type="logical" name="LRHFCALC"> F  </i>
   <i type="logical" name="LTHOMAS"> F  </i>
   <i type="logical" name="LMODELHF"> F  </i>
   <i name="ENCUT4O">     -1.00000000</i>
   <i type="int" name="EXXOEP">     0</i>
   <i type="int" name="FOURORBIT">     0</i>
   <i name="AEXX">      0.00000000</i>
   <i name="HFALPHA">      0.00000000</i>
   <i name="MCALPHA">      0.00000000</i>
   <i name="ALDAX">      1.00000000</i>
   <i name="AGGAX">      1.00000000</i>
   <i name="ALDAC">      1.00000000</i>
   <i name="AGGAC">      1.00000000</i>
   <i type="int" name="NKREDX">     1</i>
   <i type="int" name="NKREDY">     1</i>
   <i type="int" name="NKREDZ">     1</i>
   <i type="logical" name="SHIFTRED"> F  </i>
   <i type="logical" name="ODDONLY"> F  </i>
   <i type="logical" name="EVENONLY"> F  </i>
   <i type="int" name="LMAXFOCK">     0</i>
   <i type="int" name="NMAXFOCKAE">     0</i>
   <i type="logical" name="LFOCKAEDFT"> F  </i>
   <i name="HFSCREEN">      0.00000000</i>
   <i name="HFSCREENC">      0.00000000</i>
   <i type="int" name="NBANDSGWLOW">     0</i>
  </separator>
  <separator name="vdW DFT" >
   <i type="logical" name="LUSE_VDW"> F  </i>
   <i name="Zab_VDW">     -0.84910000</i>
   <i name="PARAM1">      0.12340000</i>
   <i name="PARAM2">      1.00000000</i>
   <i name="PARAM3">      0.00000000</i>
  </separator>
  <separator name="model GW" >
   <i type="int" name="MODEL_GW">     0</i>
   <i name="MODEL_EPS0">      5.74480406</i>
   <i name="MODEL_ALPHA">      1.00000000</i>
  </separator>
  <separator name="linear response parameters" >
   <i type="logical" name="LEPSILON"> F  </i>
   <i type="logical" name="LRPA"> F  </i>
   <i type="logical" name="LNABLA"> F  </i>
   <i type="logical" name="LVEL"> F  </i>
   <i type="int" name="KINTER">     0</i>
   <i name="CSHIFT">      0.10000000</i>
   <i name="OMEGAMAX">     -1.00000000</i>
   <i name="DEG_THRESHOLD">      0.00200000</i>
  </separator>
  <separator name="orbital magnetization" >
   <i type="logical" name="NUCIND"> F  </i>
   <v name="MAGPOS">      0.00000000      0.00000000      0.00000000</v>
   <i type="logical" name="LNICSALL"> T  </i>
   <i type="logical" name="ORBITALMAG"> F  </i>
   <i type="logical" name="LMAGBLOCH"> F  </i>
   <i type="logical" name="LCHIMAG"> F  </i>
   <i type="logical" name="LGAUGE"> T  </i>
   <i type="int" name="MAGATOM">     0</i>
   <v name="MAGDIPOL">      0.00000000      0.00000000      0.00000000</v>
   <v name="AVECCONST">      0.00000000      0.00000000      0.00000000</v>
  </separator>
  <separator name="response functions" >
   <i type="logical" name="LADDER"> F  </i>
   <i type="logical" name="LFXC"> F  </i>
   <i type="logical" name="LHARTREE"> T  </i>
   <i type="int" name="IBSE">     0</i>
   <v type="int" name="KPOINT">    -1     0     0     0</v>
   <i type="logical" name="LTCTE"> F  </i>
   <i type="logical" name="LTETE"> F  </i>
   <i type="logical" name="LTRIPLET"> F  </i>
   <i type="logical" name="LFXCEPS"> F  </i>
   <i type="logical" name="LFXHEG"> F  </i>
   <i type="int" name="NATURALO">     0</i>
   <i type="logical" name="L2ORDER"> F  </i>
   <i type="logical" name="LUSEW"> F  </i>
   <i name="ENCUTGW">     -2.00000000</i>
   <i name="ENCUTGWSOFT">     -2.00000000</i>
   <i name="ENCUTLF">     -1.00000000</i>
   <i type="int" name="LMAXMP2">    -1</i>
   <i name="SCISSOR">      0.00000000</i>
   <i type="int" name="NOMEGA">     0</i>
   <i type="int" name="NOMEGAR">     0</i>
   <i type="int" name="NBANDSGW">    -1</i>
   <i type="int" name="NBANDSO">    -1</i>
   <i type="int" name="NBANDSV">    -1</i>
   <i type="int" name="NELM">   100</i>
   <i type="int" name="NELMHF">     1</i>
   <i type="int" name="DIM">     3</i>
   <i type="int" name="ANTIRES">     0</i>
   <i name="OMEGAMAX">    -30.00000000</i>
   <i name="OMEGAMIN">    -30.00000000</i>
   <i name="OMEGATL">   -200.00000000</i>
   <i type="int" name="OMEGAGRID">     0</i>
   <i name="CSHIFT">     -0.10000000</i>
   <i type="logical" name="SELFENERGY"> F  </i>
   <i type="logical" name="LSPECTRAL"> F  </i>
   <i type="logical" name="LSPECTRALGW"> F  </i>
   <i type="logical" name="LSINGLES"> F  </i>
   <i type="logical" name="LFERMIGW"> F  </i>
   <i type="logical" name="ODDONLYGW"> F  </i>
   <i type="logical" name="EVENONLYGW"> F  </i>
   <i type="int" name="NKREDLFX">     1</i>
   <i type="int" name="NKREDLFY">     1</i>
   <i type="int" name="NKREDLFZ">     1</i>
   <i type="int" name="MAXMEM">  1800</i>
   <i type="int" name="TELESCOPE">     0</i>
   <i type="int" name="TAUPAR">     1</i>
   <i type="int" name="OMEGAPAR">    -1</i>
   <i name="LAMBDA">      1.00000000</i>
  </separator>
  <separator name="External order field" >
   <i name="OFIELD_KAPPA">      0.00000000</i>
   <v name="OFIELD_K">      0.00000000      0.00000000      0.00000000</v>
   <i name="OFIELD_Q6_NEAR">      0.00000000</i>
   <i name="OFIELD_Q6_FAR">      0.00000000</i>
   <i name="OFIELD_A">      0.00000000</i>
  </separator>
 </parameters>
 <atominfo>
  <atoms>      16 </atoms>
  <types>       2 </types>
  <array name="atoms" >
   <dimension dim="1">ion</dimension>
   <field type="string">element</field>
   <field type="int">atomtype</field>
   <set>
    <rc><c>Mg</c><c>   1</c></rc>
    <rc><c>Mg</c><c>   1</c></rc>
    <rc><c>Mg</c><c>   1</c></rc>
    <rc><c>Mg</c><c>   1</c></rc>
    <rc><c>Mg</c><c>   1</c></rc>
    <rc><c>Mg</c><c>   1</c></rc>
    <rc><c>Mg</c><c>   1</c></rc>
    <rc><c>Mg</c><c>   1</c></rc>
    <rc><c>Mg</c><c>   1</c></rc>
    <rc><c>O </c><c>   2</c></rc>
    <rc><c>O </c><c>   2</c></rc>
    <rc><c>O </c><c>   2</c></rc>
    <rc><c>O </c><c>   2</c></rc>
    <rc><c>O </c><c>   2</c></rc>
    <rc><c>O </c><c>   2</c></rc>
    <rc><c>O </c><c>   2</c></rc>
   </set>
  </array>
  <array name="atomtypes" >
   <dimension dim="1">type</dimension>
   <field type="int">atomspertype</field>
   <field type="string">element</field>
   <field>mass</field>
   <field>valence</field>
   <field type="string">pseudopotential</field>
   <set>
    <rc><c>   9</c><c>Mg</c><c>     24.30500000</c><c>      2.00000000</c><c>  PAW_PBE Mg 13Apr2007                  </c></rc>
    <rc><c>   7</c><c>O </c><c>     16.00000000</c><c>      6.00000000</c><c>  PAW_PBE O 08Apr2002                   </c></rc>
   </set>
  </array>
 </atominfo>
 <structure name="initialpos" >
  <crystal>
   <varray name="basis" >
    <v>       0.00000000       4.24689300       4.24689300 </v>
    <v>       4.24689300       0.00000000       4.24689300 </v>
    <v>       4.24689300       4.24689300       0.00000000 </v>
   </varray>
   <i name="volume">    153.19477498 </i>
   <varray name="rec_basis" >
    <v>      -0.11773313       0.11773313       0.11773313 </v>
    <v>       0.11773313      -0.11773313       0.11773313 </v>
    <v>       0.11773313       0.11773313      -0.11773313 </v>
   </varray>
  </crystal>
  <varray name="positions" >
   <v>       0.16725632       0.32673836       0.23536973 </v>
   <v>       0.01213600       0.98873055       0.00263275 </v>
   <v>       0.99631705       0.96794683       0.52063771 </v>
   <v>       0.96097439       0.53610980       0.95109126 </v>
   <v>       0.97888873       0.51906311       0.54270568 </v>
   <v>       0.50790788       0.99056170       0.99838190 </v>
   <v>       0.49798067       0.99932216       0.49905558 </v>
   <v>       0.52694165       0.50137255       0.98853322 </v>
   <v>       0.50858686       0.48598379       0.50567393 </v>
   <v>       0.24468319       0.25302341       0.75960923 </v>
   <v>       0.25465400       0.73190504       0.25919577 </v>
   <v>       0.24859857       0.72383105       0.76822015 </v>
   <v>       0.77390119       0.24846591       0.24394932 </v>
   <v>       0.76686816       0.24243944       0.74715970 </v>
   <v>       0.78832876       0.70925632       0.24896276 </v>
   <v>       0.72601957       0.77099298       0.74352831 </v>
  </varray>
 </structure>
 <calculation>
  <scstep>
   <time name="dav">    0.70    0.71</time>
   <time name="total">    1.08    1.09</time>
   <energy>
    <i name="alphaZ">    142.81396753 </i>
    <i name="ewald">  -2470.73679645 </i>
    <i name="hartreedc">   -958.04019619 </i>
    <i name="XCdc">   -236.39494927 </i>
    <i name="pawpsdc">   3011.45132117 </i>
    <i name="pawaedc">  -2557.24446474 </i>
    <i name="eentropy">     -0.00218869 </i>
    <i name="bandstr">     61.00098226 </i>
    <i name="atom">   3233.17333345 </i>
    <i name="e_fr_energy">    226.02100907 </i>
    <i name="e_wo_entrp">    226.02319776 </i>
    <i name="e_0_energy">    226.02210341 </i>
   </energy>
  </scstep>
  <scstep>
   <time name="dav">    0.74    0.74</time>
   <time name="total">    0.74    0.75</time>
   <energy>
    <i name="e_fr_energy">    -69.89734094 </i>
    <i name="e_wo_entrp">    -69.89559607 </i>
    <i name="e_0_energy">    -69.89646850 </i>
   </energy>
  </scstep>
  <scstep>
   <time name="dav">    0.74    0.74</time>
   <time name="total">    0.74    0.74</time>
   <energy>
    <i name="e_fr_energy">    -86.87535676 </i>
    <i name="e_wo_entrp">    -86.87535405 </i>
    <i name="e_0_energy">    -86.87535541 </i>
   </energy>
  </scstep>
  <scstep>
   <time name="dav">    0.70    0.70</time>
   <time name="total">    0.70    0.70</time>
   <energy>
    <i name="e_fr_energy">    -86.97988172 </i>
    <i name="e_wo_entrp">    -86.97987889 </i>
    <i name="e_0_energy">    -86.97988031 </i>
   </energy>
  </scstep>
  <scstep>
   <time name="dav">    0.76    0.76</time>
   <time name="total">    0.78    0.79</time>
   <energy>
    <i name="e_fr_energy">    -86.98042192 </i>
    <i name="e_wo_entrp">    -86.98041908 </i>
    <i name="e_0_energy">    -86.98042050 </i>
   </energy>
  </scstep>
  <scstep>
   <time name="dav">    0.67    0.67</time>
   <time name="total">    1.06    1.07</time>
   <energy>
    <i name="e_fr_energy">    -82.54998110 </i>
    <i name="e_wo_entrp">    -82.54653000 </i>
    <i name="e_0_energy">    -82.54825555 </i>
   </energy>
  </scstep>
  <scstep>
   <time name="dav">    0.86    0.91</time>
   <time name="total">    1.26    1.31</time>
   <energy>
    <i name="e_fr_energy">    -82.67143713 </i>
    <i name="e_wo_entrp">    -82.66691434 </i>
    <i name="e_0_energy">    -82.66917574 </i>
   </energy>
  </scstep>
  <scstep>
   <time name="dav">    0.70    0.70</time>
   <time name="total">    1.11    1.11</time>
   <energy>
    <i name="e_fr_energy">    -82.58115806 </i>
    <i name="e_wo_entrp">    -82.57686743 </i>
    <i name="e_0_energy">    -82.57901275 </i>
   </energy>
  </scstep>
  <scstep>
   <time name="dav">    0.72    0.72</time>
   <time name="total">    1.12    1.12</time>
   <energy>
    <i name="e_fr_energy">    -82.57804737 </i>
    <i name="e_wo_entrp">    -82.57333244 </i>
    <i name="e_0_energy">    -82.57568991 </i>
   </energy>
  </scstep>
  <scstep>
   <time name="dav">    0.71    0.71</time>
   <time name="total">    1.10    1.11</time>
   <energy>
    <i name="e_fr_energy">    -82.57781822 </i>
    <i name="e_wo_entrp">    -82.57316690 </i>
    <i name="e_0_energy">    -82.57549256 </i>
   </energy>
  </scstep>
  <scstep>
   <time name="dav">    0.72    0.72</time>
   <time name="total">    1.12    1.12</time>
   <energy>
    <i name="e_fr_energy">    -82.57804119 </i>
    <i name="e_wo_entrp">    -82.57347343 </i>
    <i name="e_0_energy">    -82.57575731 </i>
   </energy>
  </scstep>
  <scstep>
   <time name="dav">    0.71    0.71</time>
   <time name="total">    1.11    1.12</time>
   <energy>
    <i name="e_fr_energy">    -82.57817232 </i>
    <i name="e_wo_entrp">    -82.57375276 </i>
    <i name="e_0_energy">    -82.57596254 </i>
   </energy>
  </scstep>
  <scstep>
   <time name="dav">    0.73    0.73</time>
   <time name="total">    1.13    1.14</time>
   <energy>
    <i name="e_fr_energy">    -82.57817996 </i>
    <i name="e_wo_entrp">    -82.57379021 </i>
    <i name="e_0_energy">    -82.57598508 </i>
   </energy>
  </scstep>
  <scstep>
   <time name="dav">    0.70    0.70</time>
   <time name="total">    1.10    1.11</time>
   <energy>
    <i name="e_fr_energy">    -82.57818305 </i>
    <i name="e_wo_entrp">    -82.57379789 </i>
    <i name="e_0_energy">    -82.57599047 </i>
   </energy>
  </scstep>
  <scstep>
   <time name="dav">    0.73    0.73</time>
   <time name="total">    1.11    1.11</time>
   <energy>
    <i name="alphaZ">    142.81396753 </i>
    <i name="ewald">  -2470.73679645 </i>
    <i name="hartreedc">  -1093.10082003 </i>
    <i name="XCdc">   -231.80485805 </i>
    <i name="pawpsdc">   4020.57591140 </i>
    <i name="pawaedc">  -3568.08730469 </i>
    <i name="eentropy">     -0.00439641 </i>
    <i name="bandstr">   -115.40721942 </i>
    <i name="atom">   3233.17333345 </i>
    <i name="e_fr_energy">    -82.57818267 </i>
    <i name="e_wo_entrp">    -82.57378626 </i>
    <i name="e_0_energy">    -82.57598446 </i>
   </energy>
  </scstep>
  <structure>
   <crystal>
    <varray name="basis" >
     <v>       0.00000000       4.24689300       4.24689300 </v>
     <v>       4.24689300       0.00000000       4.24689300 </v>
     <v>       4.24689300       4.24689300       0.00000000 </v>
    </varray>
    <i name="volume">    153.19477498 </i>
    <varray name="rec_basis" >
     <v>      -0.11773313       0.11773313       0.11773313 </v>
     <v>       0.11773313      -0.11773313       0.11773313 </v>
     <v>       0.11773313       0.11773313      -0.11773313 </v>
    </varray>
   </crystal>
   <varray name="positions" >
    <v>       0.16725632       0.32673836       0.23536973 </v>
    <v>       0.01213600       0.98873055       0.00263275 </v>
    <v>       0.99631705       0.96794683       0.52063771 </v>
    <v>       0.96097439       0.53610980       0.95109126 </v>
    <v>       0.97888873       0.51906311       0.54270568 </v>
    <v>       0.50790788       0.99056170       0.99838190 </v>
    <v>       0.49798067       0.99932216       0.49905558 </v>
    <v>       0.52694165       0.50137255       0.98853322 </v>
    <v>       0.50858686       0.48598379       0.50567393 </v>
    <v>       0.24468319       0.25302341       0.75960923 </v>
    <v>       0.25465400       0.73190504       0.25919577 </v>
    <v>       0.24859857       0.72383105       0.76822015 </v>
    <v>       0.77390119       0.24846591       0.24394932 </v>
    <v>       0.76686816       0.24243944       0.74715970 </v>
    <v>       0.78832876       0.70925632       0.24896276 </v>
    <v>       0.72601957       0.77099298       0.74352831 </v>
   </varray>
  </structure>
  <varray name="forces" >
   <v>       0.00073808      -0.00285689       0.00922757 </v>
   <v>       0.00312158      -0.00763011      -0.01481370 </v>
   <v>       0.01460637      -0.00940702      -0.03512576 </v>
   <v>      -0.01085579      -0.00451099       0.01573277 </v>
   <v>      -0.00099184      -0.01735795       0.00089397 </v>
   <v>      -0.00288659       0.01107541      -0.00785150 </v>
   <v>       0.02771005       0.02039777       0.00940578 </v>
   <v>      -0.00513732      -0.00679392       0.00219654 </v>
   <v>       0.00275336       0.00727467       0.00508833 </v>
   <v>      -0.00257616       0.00069154      -0.00382158 </v>
   <v>      -0.00232359      -0.00123646       0.00958701 </v>
   <v>      -0.00157738      -0.00654764       0.02630247 </v>
   <v>      -0.00267547      -0.01019382       0.00365701 </v>
   <v>       0.01325109       0.00155798      -0.00318869 </v>
   <v>      -0.02135709       0.01012220      -0.00207293 </v>
   <v>      -0.01179931       0.01541523      -0.01521730 </v>
  </varray>
  <varray name="stress" >
   <v>      98.82975852      43.00141411       1.62027176 </v>
   <v>      43.00141048     113.69732302      -1.56860866 </v>
   <v>       1.62027196      -1.56860890      84.01824039 </v>
  </varray>
  <energy>
   <i name="e_fr_energy">    -82.57818267 </i>
   <i name="e_wo_entrp">    -82.57598446 </i>
   <i name="e_0_energy">     -0.00439641 </i>
  </energy>
  <time name="totalsc">   16.54   16.68</time>
  <eigenvalues>
   <array>
    <dimension dim="1">band</dimension>
    <dimension dim="2">kpoint</dimension>
    <dimension dim="3">spin</dimension>
    <field>eigene</field>
    <field>occ</field>
    <set>
     <set comment="spin 1">
      <set comment="kpoint 1">
       <r>  -14.5361    1.0000 </r>
       <r>  -13.2248    1.0000 </r>
       <r>  -12.7048    1.0000 </r>
       <r>  -12.5370    1.0000 </r>
       <r>  -12.4388    1.0000 </r>
       <r>  -12.3111    1.0000 </r>
       <r>  -12.2567    1.0000 </r>
       <r>   -1.5354    1.0000 </r>
       <r>   -1.4330    1.0000 </r>
       <r>   -1.2368    1.0000 </r>
       <r>   -0.6917    1.0000 </r>
       <r>   -0.4296    1.0000 </r>
       <r>   -0.1276    1.0000 </r>
       <r>    0.0313    1.0000 </r>
       <r>    0.8761    1.0000 </r>
       <r>    1.3259    1.0000 </r>
       <r>    1.3364    1.0000 </r>
       <r>    1.7223    1.0000 </r>
       <r>    1.7546    1.0000 </r>
       <r>    1.9792    1.0000 </r>
       <r>    2.0368    1.0000 </r>
       <r>    2.3109    1.0000 </r>
       <r>    2.3765    1.0000 </r>
       <r>    2.5932    1.0000 </r>
       <r>    2.8253    1.0000 </r>
       <r>    2.8546    1.0000 </r>
       <r>    2.9524    1.0000 </r>
       <r>    2.9957    1.0000 </r>
       <r>    4.0855    1.0000 </r>
       <r>    8.5864    0.0000 </r>
       <r>    9.5571    0.0000 </r>
       <r>    9.7968    0.0000 </r>
       <r>   10.3163    0.0000 </r>
       <r>   11.1373    0.0000 </r>
       <r>   11.3257    0.0000 </r>
       <r>   11.4694    0.0000 </r>
       <r>   11.9733    0.0000 </r>
       <r>   12.3513    0.0000 </r>
       <r>   12.8013    0.0000 </r>
       <r>   13.0238    0.0000 </r>
       <r>   13.0892    0.0000 </r>
       <r>   13.2397    0.0000 </r>
       <r>   15.0694    0.0000 </r>
       <r>   15.1994    0.0000 </r>
       <r>   15.3447    0.0000 </r>
       <r>   15.4229    0.0000 </r>
       <r>   16.8536    0.0000 </r>
       <r>   17.0680    0.0000 </r>
      </set>
      <set comment="kpoint 2">
       <r>  -14.5365    1.0000 </r>
       <r>  -13.2258    1.0000 </r>
       <r>  -12.7008    1.0000 </r>
       <r>  -12.5422    1.0000 </r>
       <r>  -12.4274    1.0000 </r>
       <r>  -12.3125    1.0000 </r>
       <r>  -12.2642    1.0000 </r>
       <r>   -1.4766    1.0000 </r>
       <r>   -1.4323    1.0000 </r>
       <r>   -1.2925    1.0000 </r>
       <r>   -0.7425    1.0000 </r>
       <r>   -0.4764    1.0000 </r>
       <r>   -0.0247    1.0000 </r>
       <r>    0.0506    1.0000 </r>
       <r>    0.8745    1.0000 </r>
       <r>    1.2981    1.0000 </r>
       <r>    1.3370    1.0000 </r>
       <r>    1.6980    1.0000 </r>
       <r>    1.7615    1.0000 </r>
       <r>    1.9686    1.0000 </r>
       <r>    2.0732    1.0000 </r>
       <r>    2.2706    1.0000 </r>
       <r>    2.3695    1.0000 </r>
       <r>    2.7064    1.0000 </r>
       <r>    2.8042    1.0000 </r>
       <r>    2.8374    1.0000 </r>
       <r>    2.9454    1.0000 </r>
       <r>    2.9811    1.0000 </r>
       <r>    4.0499    1.0000 </r>
       <r>    8.6404    0.0000 </r>
       <r>    9.6632    0.0000 </r>
       <r>    9.7533    0.0000 </r>
       <r>   10.0807    0.0000 </r>
       <r>   11.1819    0.0000 </r>
       <r>   11.4621    0.0000 </r>
       <r>   11.5151    0.0000 </r>
       <r>   12.1263    0.0000 </r>
       <r>   12.2375    0.0000 </r>
       <r>   12.7383    0.0000 </r>
       <r>   13.0157    0.0000 </r>
       <r>   13.1064    0.0000 </r>
       <r>   13.2964    0.0000 </r>
       <r>   14.9416    0.0000 </r>
       <r>   15.0863    0.0000 </r>
       <r>   15.2332    0.0000 </r>
       <r>   15.4440    0.0000 </r>
       <r>   17.0361    0.0000 </r>
       <r>   17.1397    0.0000 </r>
      </set>
      <set comment="kpoint 3">
       <r>  -14.5360    1.0000 </r>
       <r>  -13.2250    1.0000 </r>
       <r>  -12.7042    1.0000 </r>
       <r>  -12.5378    1.0000 </r>
       <r>  -12.4388    1.0000 </r>
       <r>  -12.3109    1.0000 </r>
       <r>  -12.2566    1.0000 </r>
       <r>   -1.5360    1.0000 </r>
       <r>   -1.4316    1.0000 </r>
       <r>   -1.2373    1.0000 </r>
       <r>   -0.6902    1.0000 </r>
       <r>   -0.4265    1.0000 </r>
       <r>   -0.1297    1.0000 </r>
       <r>    0.0276    1.0000 </r>
       <r>    0.8761    1.0000 </r>
       <r>    1.3258    1.0000 </r>
       <r>    1.3371    1.0000 </r>
       <r>    1.7243    1.0000 </r>
       <r>    1.7542    1.0000 </r>
       <r>    1.9782    1.0000 </r>
       <r>    2.0373    1.0000 </r>
       <r>    2.3124    1.0000 </r>
       <r>    2.3767    1.0000 </r>
       <r>    2.5905    1.0000 </r>
       <r>    2.8240    1.0000 </r>
       <r>    2.8528    1.0000 </r>
       <r>    2.9524    1.0000 </r>
       <r>    2.9976    1.0000 </r>
       <r>    4.0866    1.0000 </r>
       <r>    8.5886    0.0000 </r>
       <r>    9.5585    0.0000 </r>
       <r>    9.7913    0.0000 </r>
       <r>   10.3197    0.0000 </r>
       <r>   11.1377    0.0000 </r>
       <r>   11.3252    0.0000 </r>
       <r>   11.4681    0.0000 </r>
       <r>   11.9738    0.0000 </r>
       <r>   12.3502    0.0000 </r>
       <r>   12.8020    0.0000 </r>
       <r>   13.0284    0.0000 </r>
       <r>   13.0834    0.0000 </r>
       <r>   13.2397    0.0000 </r>
       <r>   15.0689    0.0000 </r>
       <r>   15.2038    0.0000 </r>
       <r>   15.3486    0.0000 </r>
       <r>   15.4212    0.0000 </r>
       <r>   16.8468    0.0000 </r>
       <r>   17.0689    0.0000 </r>
      </set>
      <set comment="kpoint 4">
       <r>  -14.5364    1.0000 </r>
       <r>  -13.2256    1.0000 </r>
       <r>  -12.7007    1.0000 </r>
       <r>  -12.5428    1.0000 </r>
       <r>  -12.4280    1.0000 </r>
       <r>  -12.3122    1.0000 </r>
       <r>  -12.2637    1.0000 </r>
       <r>   -1.4803    1.0000 </r>
       <r>   -1.4332    1.0000 </r>
       <r>   -1.2874    1.0000 </r>
       <r>   -0.7370    1.0000 </r>
       <r>   -0.4752    1.0000 </r>
       <r>   -0.0337    1.0000 </r>
       <r>    0.0512    1.0000 </r>
       <r>    0.8764    1.0000 </r>
       <r>    1.2982    1.0000 </r>
       <r>    1.3366    1.0000 </r>
       <r>    1.6960    1.0000 </r>
       <r>    1.7642    1.0000 </r>
       <r>    1.9703    1.0000 </r>
       <r>    2.0697    1.0000 </r>
       <r>    2.2687    1.0000 </r>
       <r>    2.3734    1.0000 </r>
       <r>    2.6995    1.0000 </r>
       <r>    2.8053    1.0000 </r>
       <r>    2.8403    1.0000 </r>
       <r>    2.9437    1.0000 </r>
       <r>    2.9820    1.0000 </r>
       <r>    4.0523    1.0000 </r>
       <r>    8.6366    0.0000 </r>
       <r>    9.6542    0.0000 </r>
       <r>    9.7587    0.0000 </r>
       <r>   10.0968    0.0000 </r>
       <r>   11.1756    0.0000 </r>
       <r>   11.4620    0.0000 </r>
       <r>   11.5129    0.0000 </r>
       <r>   12.1233    0.0000 </r>
       <r>   12.2415    0.0000 </r>
       <r>   12.7328    0.0000 </r>
       <r>   13.0090    0.0000 </r>
       <r>   13.1067    0.0000 </r>
       <r>   13.3027    0.0000 </r>
       <r>   14.9479    0.0000 </r>
       <r>   15.0940    0.0000 </r>
       <r>   15.2407    0.0000 </r>
       <r>   15.4408    0.0000 </r>
       <r>   17.0283    0.0000 </r>
       <r>   17.1333    0.0000 </r>
      </set>
      <set comment="kpoint 5">
       <r>  -14.4828    1.0000 </r>
       <r>  -13.0817    1.0000 </r>
       <r>  -12.8352    1.0000 </r>
       <r>  -12.6098    1.0000 </r>
       <r>  -12.4422    1.0000 </r>
       <r>  -12.3819    1.0000 </r>
       <r>  -12.2519    1.0000 </r>
       <r>   -1.1192    1.0000 </r>
       <r>   -1.0072    1.0000 </r>
       <r>   -0.7932    1.0000 </r>
       <r>   -0.5519    1.0000 </r>
       <r>   -0.1108    1.0000 </r>
       <r>    0.0783    1.0000 </r>
       <r>    0.4606    1.0000 </r>
       <r>    0.6385    1.0000 </r>
       <r>    0.8669    1.0000 </r>
       <r>    0.9681    1.0000 </r>
       <r>    1.2900    1.0000 </r>
       <r>    1.5235    1.0000 </r>
       <r>    1.6111    1.0000 </r>
       <r>    1.7436    1.0000 </r>
       <r>    1.8418    1.0000 </r>
       <r>    2.1492    1.0000 </r>
       <r>    2.3156    1.0000 </r>
       <r>    2.5796    1.0000 </r>
       <r>    2.6948    1.0000 </r>
       <r>    2.7761    1.0000 </r>
       <r>    2.8801    1.0000 </r>
       <r>    5.1891    1.0000 </r>
       <r>    8.0292    0.8766 </r>
       <r>    8.7914    0.0000 </r>
       <r>    9.4451    0.0000 </r>
       <r>   10.8942    0.0000 </r>
       <r>   11.7228    0.0000 </r>
       <r>   12.3214    0.0000 </r>
       <r>   12.5988    0.0000 </r>
       <r>   12.8430    0.0000 </r>
       <r>   13.0707    0.0000 </r>
       <r>   13.3921    0.0000 </r>
       <r>   13.8401    0.0000 </r>
       <r>   13.9786    0.0000 </r>
       <r>   14.1727    0.0000 </r>
       <r>   14.4247    0.0000 </r>
       <r>   14.5910    0.0000 </r>
       <r>   14.8034    0.0000 </r>
       <r>   15.3534    0.0000 </r>
       <r>   15.6008    0.0000 </r>
       <r>   16.2373    0.0000 </r>
      </set>
      <set comment="kpoint 6">
       <r>  -14.4820    1.0000 </r>
       <r>  -13.1076    1.0000 </r>
       <r>  -12.8089    1.0000 </r>
       <r>  -12.5992    1.0000 </r>
       <r>  -12.4377    1.0000 </r>
       <r>  -12.3705    1.0000 </r>
       <r>  -12.2791    1.0000 </r>
       <r>   -1.0961    1.0000 </r>
       <r>   -1.0399    1.0000 </r>
       <r>   -0.8167    1.0000 </r>
       <r>   -0.5388    1.0000 </r>
       <r>   -0.1331    1.0000 </r>
       <r>    0.0516    1.0000 </r>
       <r>    0.5003    1.0000 </r>
       <r>    0.6245    1.0000 </r>
       <r>    0.8611    1.0000 </r>
       <r>    0.9813    1.0000 </r>
       <r>    1.3610    1.0000 </r>
       <r>    1.4958    1.0000 </r>
       <r>    1.5978    1.0000 </r>
       <r>    1.8001    1.0000 </r>
       <r>    1.8639    1.0000 </r>
       <r>    2.1303    1.0000 </r>
       <r>    2.3204    1.0000 </r>
       <r>    2.5742    1.0000 </r>
       <r>    2.6962    1.0000 </r>
       <r>    2.7494    1.0000 </r>
       <r>    2.8722    1.0000 </r>
       <r>    5.1397    1.0000 </r>
       <r>    8.1646    0.0038 </r>
       <r>    8.8203    0.0000 </r>
       <r>    9.2814    0.0000 </r>
       <r>   10.8881    0.0000 </r>
       <r>   11.7317    0.0000 </r>
       <r>   12.4023    0.0000 </r>
       <r>   12.6274    0.0000 </r>
       <r>   12.8004    0.0000 </r>
       <r>   13.1681    0.0000 </r>
       <r>   13.3394    0.0000 </r>
       <r>   13.7860    0.0000 </r>
       <r>   14.0450    0.0000 </r>
       <r>   14.2222    0.0000 </r>
       <r>   14.3382    0.0000 </r>
       <r>   14.5140    0.0000 </r>
       <r>   14.8088    0.0000 </r>
       <r>   15.2497    0.0000 </r>
       <r>   15.5898    0.0000 </r>
       <r>   16.2317    0.0000 </r>
      </set>
      <set comment="kpoint 7">
       <r>  -14.4831    1.0000 </r>
       <r>  -13.0514    1.0000 </r>
       <r>  -12.8509    1.0000 </r>
       <r>  -12.6591    1.0000 </r>
       <r>  -12.4177    1.0000 </r>
       <r>  -12.3912    1.0000 </r>
       <r>  -12.2324    1.0000 </r>
       <r>   -1.1759    1.0000 </r>
       <r>   -0.9912    1.0000 </r>
       <r>   -0.7275    1.0000 </r>
       <r>   -0.5052    1.0000 </r>
       <r>   -0.0921    1.0000 </r>
       <r>    0.1159    1.0000 </r>
       <r>    0.3576    1.0000 </r>
       <r>    0.6346    1.0000 </r>
       <r>    0.8376    1.0000 </r>
       <r>    0.9539    1.0000 </r>
       <r>    1.2969    1.0000 </r>
       <r>    1.4416    1.0000 </r>
       <r>    1.7004    1.0000 </r>
       <r>    1.7452    1.0000 </r>
       <r>    1.8284    1.0000 </r>
       <r>    2.0972    1.0000 </r>
       <r>    2.3313    1.0000 </r>
       <r>    2.5430    1.0000 </r>
       <r>    2.6776    1.0000 </r>
       <r>    2.8306    1.0000 </r>
       <r>    2.9220    1.0000 </r>
       <r>    5.2609    1.0000 </r>
       <r>    7.8639    1.0000 </r>
       <r>    8.7791    0.0000 </r>
       <r>    9.6949    0.0000 </r>
       <r>   10.7648    0.0000 </r>
       <r>   11.6799    0.0000 </r>
       <r>   12.2850    0.0000 </r>
       <r>   12.3684    0.0000 </r>
       <r>   12.8043    0.0000 </r>
       <r>   13.0237    0.0000 </r>
       <r>   13.5134    0.0000 </r>
       <r>   13.8206    0.0000 </r>
       <r>   14.0610    0.0000 </r>
       <r>   14.3617    0.0000 </r>
       <r>   14.6243    0.0000 </r>
       <r>   14.8011    0.0000 </r>
       <r>   14.8773    0.0000 </r>
       <r>   15.2709    0.0000 </r>
       <r>   15.4531    0.0000 </r>
       <r>   16.0031    0.0000 </r>
      </set>
      <set comment="kpoint 8">
       <r>  -14.4816    1.0000 </r>
       <r>  -13.1051    1.0000 </r>
       <r>  -12.8164    1.0000 </r>
       <r>  -12.5942    1.0000 </r>
       <r>  -12.4508    1.0000 </r>
       <r>  -12.3606    1.0000 </r>
       <r>  -12.2762    1.0000 </r>
       <r>   -1.1190    1.0000 </r>
       <r>   -1.0477    1.0000 </r>
       <r>   -0.8220    1.0000 </r>
       <r>   -0.4795    1.0000 </r>
       <r>   -0.1079    1.0000 </r>
       <r>    0.0644    1.0000 </r>
       <r>    0.4871    1.0000 </r>
       <r>    0.5512    1.0000 </r>
       <r>    0.8799    1.0000 </r>
       <r>    0.9517    1.0000 </r>
       <r>    1.3635    1.0000 </r>
       <r>    1.4902    1.0000 </r>
       <r>    1.6215    1.0000 </r>
       <r>    1.8281    1.0000 </r>
       <r>    1.8774    1.0000 </r>
       <r>    2.0976    1.0000 </r>
       <r>    2.3353    1.0000 </r>
       <r>    2.5261    1.0000 </r>
       <r>    2.6935    1.0000 </r>
       <r>    2.7570    1.0000 </r>
       <r>    2.9040    1.0000 </r>
       <r>    5.1858    1.0000 </r>
       <r>    7.9564    0.9994 </r>
       <r>    9.0175    0.0000 </r>
       <r>    9.3332    0.0000 </r>
       <r>   10.7794    0.0000 </r>
       <r>   11.7940    0.0000 </r>
       <r>   12.3212    0.0000 </r>
       <r>   12.4859    0.0000 </r>
       <r>   12.6889    0.0000 </r>
       <r>   13.1397    0.0000 </r>
       <r>   13.3698    0.0000 </r>
       <r>   13.7667    0.0000 </r>
       <r>   14.1973    0.0000 </r>
       <r>   14.3285    0.0000 </r>
       <r>   14.6007    0.0000 </r>
       <r>   14.6867    0.0000 </r>
       <r>   14.7620    0.0000 </r>
       <r>   15.2775    0.0000 </r>
       <r>   15.4285    0.0000 </r>
       <r>   16.0852    0.0000 </r>
      </set>
      <set comment="kpoint 9">
       <r>  -14.4824    1.0000 </r>
       <r>  -13.0768    1.0000 </r>
       <r>  -12.8454    1.0000 </r>
       <r>  -12.6063    1.0000 </r>
       <r>  -12.4509    1.0000 </r>
       <r>  -12.3749    1.0000 </r>
       <r>  -12.2486    1.0000 </r>
       <r>   -1.1414    1.0000 </r>
       <r>   -1.0258    1.0000 </r>
       <r>   -0.7879    1.0000 </r>
       <r>   -0.4866    1.0000 </r>
       <r>   -0.0848    1.0000 </r>
       <r>    0.0866    1.0000 </r>
       <r>    0.4494    1.0000 </r>
       <r>    0.5648    1.0000 </r>
       <r>    0.8750    1.0000 </r>
       <r>    0.9287    1.0000 </r>
       <r>    1.3393    1.0000 </r>
       <r>    1.4657    1.0000 </r>
       <r>    1.6671    1.0000 </r>
       <r>    1.7658    1.0000 </r>
       <r>    1.8436    1.0000 </r>
       <r>    2.1177    1.0000 </r>
       <r>    2.3331    1.0000 </r>
       <r>    2.5364    1.0000 </r>
       <r>    2.6925    1.0000 </r>
       <r>    2.7829    1.0000 </r>
       <r>    2.9101    1.0000 </r>
       <r>    5.2385    1.0000 </r>
       <r>    7.8489    1.0000 </r>
       <r>    8.9201    0.0000 </r>
       <r>    9.5491    0.0000 </r>
       <r>   10.7653    0.0000 </r>
       <r>   11.7896    0.0000 </r>
       <r>   12.2571    0.0000 </r>
       <r>   12.4011    0.0000 </r>
       <r>   12.7688    0.0000 </r>
       <r>   13.0838    0.0000 </r>
       <r>   13.4112    0.0000 </r>
       <r>   13.7798    0.0000 </r>
       <r>   14.1172    0.0000 </r>
       <r>   14.3299    0.0000 </r>
       <r>   14.5839    0.0000 </r>
       <r>   14.8440    0.0000 </r>
       <r>   14.8982    0.0000 </r>
       <r>   15.2010    0.0000 </r>
       <r>   15.4930    0.0000 </r>
       <r>   16.0044    0.0000 </r>
      </set>
      <set comment="kpoint 10">
       <r>  -14.4835    1.0000 </r>
       <r>  -13.0554    1.0000 </r>
       <r>  -12.8555    1.0000 </r>
       <r>  -12.6191    1.0000 </r>
       <r>  -12.4772    1.0000 </r>
       <r>  -12.3631    1.0000 </r>
       <r>  -12.2319    1.0000 </r>
       <r>   -1.0819    1.0000 </r>
       <r>   -1.0309    1.0000 </r>
       <r>   -0.8136    1.0000 </r>
       <r>   -0.5282    1.0000 </r>
       <r>   -0.0942    1.0000 </r>
       <r>    0.0995    1.0000 </r>
       <r>    0.5187    1.0000 </r>
       <r>    0.6048    1.0000 </r>
       <r>    0.8541    1.0000 </r>
       <r>    0.9447    1.0000 </r>
       <r>    1.2412    1.0000 </r>
       <r>    1.5223    1.0000 </r>
       <r>    1.5716    1.0000 </r>
       <r>    1.7309    1.0000 </r>
       <r>    1.7859    1.0000 </r>
       <r>    2.1917    1.0000 </r>
       <r>    2.3266    1.0000 </r>
       <r>    2.6009    1.0000 </r>
       <r>    2.7050    1.0000 </r>
       <r>    2.7717    1.0000 </r>
       <r>    2.9033    1.0000 </r>
       <r>    5.2206    1.0000 </r>
       <r>    7.9303    1.0000 </r>
       <r>    8.9867    0.0000 </r>
       <r>    9.3124    0.0000 </r>
       <r>   10.8676    0.0000 </r>
       <r>   11.7947    0.0000 </r>
       <r>   12.2373    0.0000 </r>
       <r>   12.5922    0.0000 </r>
       <r>   12.7406    0.0000 </r>
       <r>   13.1367    0.0000 </r>
       <r>   13.4780    0.0000 </r>
       <r>   13.8378    0.0000 </r>
       <r>   14.0722    0.0000 </r>
       <r>   14.1830    0.0000 </r>
       <r>   14.3748    0.0000 </r>
       <r>   14.5758    0.0000 </r>
       <r>   14.8064    0.0000 </r>
       <r>   15.3754    0.0000 </r>
       <r>   15.6693    0.0000 </r>
       <r>   16.1944    0.0000 </r>
      </set>
      <set comment="kpoint 11">
       <r>  -14.4828    1.0000 </r>
       <r>  -13.0812    1.0000 </r>
       <r>  -12.8349    1.0000 </r>
       <r>  -12.6130    1.0000 </r>
       <r>  -12.4379    1.0000 </r>
       <r>  -12.3839    1.0000 </r>
       <r>  -12.2519    1.0000 </r>
       <r>   -1.1233    1.0000 </r>
       <r>   -1.0065    1.0000 </r>
       <r>   -0.7881    1.0000 </r>
       <r>   -0.5484    1.0000 </r>
       <r>   -0.1085    1.0000 </r>
       <r>    0.0783    1.0000 </r>
       <r>    0.4510    1.0000 </r>
       <r>    0.6397    1.0000 </r>
       <r>    0.8638    1.0000 </r>
       <r>    0.9695    1.0000 </r>
       <r>    1.2907    1.0000 </r>
       <r>    1.5200    1.0000 </r>
       <r>    1.6158    1.0000 </r>
       <r>    1.7432    1.0000 </r>
       <r>    1.8459    1.0000 </r>
       <r>    2.1451    1.0000 </r>
       <r>    2.3156    1.0000 </r>
       <r>    2.5768    1.0000 </r>
       <r>    2.6934    1.0000 </r>
       <r>    2.7791    1.0000 </r>
       <r>    2.8813    1.0000 </r>
       <r>    5.1916    1.0000 </r>
       <r>    8.0186    0.9277 </r>
       <r>    8.7921    0.0000 </r>
       <r>    9.4616    0.0000 </r>
       <r>   10.8885    0.0000 </r>
       <r>   11.7201    0.0000 </r>
       <r>   12.3191    0.0000 </r>
       <r>   12.5988    0.0000 </r>
       <r>   12.8416    0.0000 </r>
       <r>   13.0635    0.0000 </r>
       <r>   13.3943    0.0000 </r>
       <r>   13.8404    0.0000 </r>
       <r>   13.9809    0.0000 </r>
       <r>   14.1727    0.0000 </r>
       <r>   14.4363    0.0000 </r>
       <r>   14.6032    0.0000 </r>
       <r>   14.8077    0.0000 </r>
       <r>   15.3605    0.0000 </r>
       <r>   15.5812    0.0000 </r>
       <r>   16.2326    0.0000 </r>
      </set>
      <set comment="kpoint 12">
       <r>  -14.4820    1.0000 </r>
       <r>  -13.1080    1.0000 </r>
       <r>  -12.8095    1.0000 </r>
       <r>  -12.5966    1.0000 </r>
       <r>  -12.4398    1.0000 </r>
       <r>  -12.3697    1.0000 </r>
       <r>  -12.2795    1.0000 </r>
       <r>   -1.0936    1.0000 </r>
       <r>   -1.0388    1.0000 </r>
       <r>   -0.8207    1.0000 </r>
       <r>   -0.5434    1.0000 </r>
       <r>   -0.1357    1.0000 </r>
       <r>    0.0527    1.0000 </r>
       <r>    0.5051    1.0000 </r>
       <r>    0.6266    1.0000 </r>
       <r>    0.8643    1.0000 </r>
       <r>    0.9792    1.0000 </r>
       <r>    1.3639    1.0000 </r>
       <r>    1.4973    1.0000 </r>
       <r>    1.5925    1.0000 </r>
       <r>    1.7998    1.0000 </r>
       <r>    1.8595    1.0000 </r>
       <r>    2.1363    1.0000 </r>
       <r>    2.3202    1.0000 </r>
       <r>    2.5774    1.0000 </r>
       <r>    2.6951    1.0000 </r>
       <r>    2.7489    1.0000 </r>
       <r>    2.8698    1.0000 </r>
       <r>    5.1370    1.0000 </r>
       <r>    8.1790    0.0010 </r>
       <r>    8.8210    0.0000 </r>
       <r>    9.2603    0.0000 </r>
       <r>   10.8941    0.0000 </r>
       <r>   11.7327    0.0000 </r>
       <r>   12.4059    0.0000 </r>
       <r>   12.6278    0.0000 </r>
       <r>   12.8030    0.0000 </r>
       <r>   13.1753    0.0000 </r>
       <r>   13.3360    0.0000 </r>
       <r>   13.7817    0.0000 </r>
       <r>   14.0459    0.0000 </r>
       <r>   14.2247    0.0000 </r>
       <r>   14.3235    0.0000 </r>
       <r>   14.5015    0.0000 </r>
       <r>   14.8132    0.0000 </r>
       <r>   15.2391    0.0000 </r>
       <r>   15.6026    0.0000 </r>
       <r>   16.2363    0.0000 </r>
      </set>
      <set comment="kpoint 13">
       <r>  -14.4832    1.0000 </r>
       <r>  -13.0507    1.0000 </r>
       <r>  -12.8521    1.0000 </r>
       <r>  -12.6582    1.0000 </r>
       <r>  -12.4179    1.0000 </r>
       <r>  -12.3913    1.0000 </r>
       <r>  -12.2324    1.0000 </r>
       <r>   -1.1757    1.0000 </r>
       <r>   -0.9920    1.0000 </r>
       <r>   -0.7282    1.0000 </r>
       <r>   -0.5065    1.0000 </r>
       <r>   -0.0914    1.0000 </r>
       <r>    0.1167    1.0000 </r>
       <r>    0.3586    1.0000 </r>
       <r>    0.6353    1.0000 </r>
       <r>    0.8382    1.0000 </r>
       <r>    0.9537    1.0000 </r>
       <r>    1.2939    1.0000 </r>
       <r>    1.4443    1.0000 </r>
       <r>    1.6983    1.0000 </r>
       <r>    1.7443    1.0000 </r>
       <r>    1.8311    1.0000 </r>
       <r>    2.0971    1.0000 </r>
       <r>    2.3305    1.0000 </r>
       <r>    2.5440    1.0000 </r>
       <r>    2.6784    1.0000 </r>
       <r>    2.8332    1.0000 </r>
       <r>    2.9189    1.0000 </r>
       <r>    5.2600    1.0000 </r>
       <r>    7.8626    1.0000 </r>
       <r>    8.7813    0.0000 </r>
       <r>    9.6927    0.0000 </r>
       <r>   10.7659    0.0000 </r>
       <r>   11.6796    0.0000 </r>
       <r>   12.2819    0.0000 </r>
       <r>   12.3721    0.0000 </r>
       <r>   12.8058    0.0000 </r>
       <r>   13.0248    0.0000 </r>
       <r>   13.5181    0.0000 </r>
       <r>   13.8195    0.0000 </r>
       <r>   14.0540    0.0000 </r>
       <r>   14.3587    0.0000 </r>
       <r>   14.6261    0.0000 </r>
       <r>   14.7971    0.0000 </r>
       <r>   14.8688    0.0000 </r>
       <r>   15.2784    0.0000 </r>
       <r>   15.4546    0.0000 </r>
       <r>   16.0092    0.0000 </r>
      </set>
      <set comment="kpoint 14">
       <r>  -14.4817    1.0000 </r>
       <r>  -13.1048    1.0000 </r>
       <r>  -12.8163    1.0000 </r>
       <r>  -12.5956    1.0000 </r>
       <r>  -12.4477    1.0000 </r>
       <r>  -12.3630    1.0000 </r>
       <r>  -12.2757    1.0000 </r>
       <r>   -1.1200    1.0000 </r>
       <r>   -1.0482    1.0000 </r>
       <r>   -0.8202    1.0000 </r>
       <r>   -0.4820    1.0000 </r>
       <r>   -0.1076    1.0000 </r>
       <r>    0.0640    1.0000 </r>
       <r>    0.4863    1.0000 </r>
       <r>    0.5548    1.0000 </r>
       <r>    0.8754    1.0000 </r>
       <r>    0.9566    1.0000 </r>
       <r>    1.3641    1.0000 </r>
       <r>    1.4845    1.0000 </r>
       <r>    1.6284    1.0000 </r>
       <r>    1.8255    1.0000 </r>
       <r>    1.8804    1.0000 </r>
       <r>    2.0943    1.0000 </r>
       <r>    2.3333    1.0000 </r>
       <r>    2.5287    1.0000 </r>
       <r>    2.6950    1.0000 </r>
       <r>    2.7585    1.0000 </r>
       <r>    2.9015    1.0000 </r>
       <r>    5.1848    1.0000 </r>
       <r>    7.9579    0.9993 </r>
       <r>    9.0018    0.0000 </r>
       <r>    9.3488    0.0000 </r>
       <r>   10.7806    0.0000 </r>
       <r>   11.7865    0.0000 </r>
       <r>   12.3290    0.0000 </r>
       <r>   12.4858    0.0000 </r>
       <r>   12.6868    0.0000 </r>
       <r>   13.1382    0.0000 </r>
       <r>   13.3712    0.0000 </r>
       <r>   13.7747    0.0000 </r>
       <r>   14.1943    0.0000 </r>
       <r>   14.3289    0.0000 </r>
       <r>   14.5950    0.0000 </r>
       <r>   14.6759    0.0000 </r>
       <r>   14.7602    0.0000 </r>
       <r>   15.2797    0.0000 </r>
       <r>   15.4287    0.0000 </r>
       <r>   16.0896    0.0000 </r>
      </set>
      <set comment="kpoint 15">
       <r>  -14.4824    1.0000 </r>
       <r>  -13.0774    1.0000 </r>
       <r>  -12.8437    1.0000 </r>
       <r>  -12.6100    1.0000 </r>
       <r>  -12.4462    1.0000 </r>
       <r>  -12.3770    1.0000 </r>
       <r>  -12.2488    1.0000 </r>
       <r>   -1.1445    1.0000 </r>
       <r>   -1.0230    1.0000 </r>
       <r>   -0.7839    1.0000 </r>
       <r>   -0.4869    1.0000 </r>
       <r>   -0.0862    1.0000 </r>
       <r>    0.0873    1.0000 </r>
       <r>    0.4418    1.0000 </r>
       <r>    0.5674    1.0000 </r>
       <r>    0.8698    1.0000 </r>
       <r>    0.9328    1.0000 </r>
       <r>    1.3448    1.0000 </r>
       <r>    1.4629    1.0000 </r>
       <r>    1.6719    1.0000 </r>
       <r>    1.7639    1.0000 </r>
       <r>    1.8455    1.0000 </r>
       <r>    2.1143    1.0000 </r>
       <r>    2.3316    1.0000 </r>
       <r>    2.5362    1.0000 </r>
       <r>    2.6907    1.0000 </r>
       <r>    2.7830    1.0000 </r>
       <r>    2.9116    1.0000 </r>
       <r>    5.2389    1.0000 </r>
       <r>    7.8537    1.0000 </r>
       <r>    8.9046    0.0000 </r>
       <r>    9.5640    0.0000 </r>
       <r>   10.7652    0.0000 </r>
       <r>   11.7813    0.0000 </r>
       <r>   12.2652    0.0000 </r>
       <r>   12.4000    0.0000 </r>
       <r>   12.7660    0.0000 </r>
       <r>   13.0770    0.0000 </r>
       <r>   13.4099    0.0000 </r>
       <r>   13.7866    0.0000 </r>
       <r>   14.1140    0.0000 </r>
       <r>   14.3357    0.0000 </r>
       <r>   14.5872    0.0000 </r>
       <r>   14.8574    0.0000 </r>
       <r>   14.8916    0.0000 </r>
       <r>   15.2024    0.0000 </r>
       <r>   15.4788    0.0000 </r>
       <r>   16.0021    0.0000 </r>
      </set>
      <set comment="kpoint 16">
       <r>  -14.4835    1.0000 </r>
       <r>  -13.0562    1.0000 </r>
       <r>  -12.8547    1.0000 </r>
       <r>  -12.6189    1.0000 </r>
       <r>  -12.4767    1.0000 </r>
       <r>  -12.3636    1.0000 </r>
       <r>  -12.2321    1.0000 </r>
       <r>   -1.0803    1.0000 </r>
       <r>   -1.0291    1.0000 </r>
       <r>   -0.8162    1.0000 </r>
       <r>   -0.5336    1.0000 </r>
       <r>   -0.0972    1.0000 </r>
       <r>    0.0994    1.0000 </r>
       <r>    0.5205    1.0000 </r>
       <r>    0.6110    1.0000 </r>
       <r>    0.8581    1.0000 </r>
       <r>    0.9438    1.0000 </r>
       <r>    1.2425    1.0000 </r>
       <r>    1.5222    1.0000 </r>
       <r>    1.5697    1.0000 </r>
       <r>    1.7301    1.0000 </r>
       <r>    1.7835    1.0000 </r>
       <r>    2.1944    1.0000 </r>
       <r>    2.3251    1.0000 </r>
       <r>    2.6030    1.0000 </r>
       <r>    2.7050    1.0000 </r>
       <r>    2.7709    1.0000 </r>
       <r>    2.9027    1.0000 </r>
       <r>    5.2181    1.0000 </r>
       <r>    7.9405    0.9999 </r>
       <r>    8.9764    0.0000 </r>
       <r>    9.3088    0.0000 </r>
       <r>   10.8754    0.0000 </r>
       <r>   11.7882    0.0000 </r>
       <r>   12.2425    0.0000 </r>
       <r>   12.5962    0.0000 </r>
       <r>   12.7436    0.0000 </r>
       <r>   13.1323    0.0000 </r>
       <r>   13.4748    0.0000 </r>
       <r>   13.8481    0.0000 </r>
       <r>   14.0635    0.0000 </r>
       <r>   14.1921    0.0000 </r>
       <r>   14.3667    0.0000 </r>
       <r>   14.5542    0.0000 </r>
       <r>   14.8031    0.0000 </r>
       <r>   15.3761    0.0000 </r>
       <r>   15.6702    0.0000 </r>
       <r>   16.2096    0.0000 </r>
      </set>
     </set>
     <set comment="spin 2">
      <set comment="kpoint 1">
       <r>  -14.5338    1.0000 </r>
       <r>  -13.2164    1.0000 </r>
       <r>  -12.6973    1.0000 </r>
       <r>  -12.5289    1.0000 </r>
       <r>  -12.4300    1.0000 </r>
       <r>  -12.3038    1.0000 </r>
       <r>  -12.2481    1.0000 </r>
       <r>   -1.5308    1.0000 </r>
       <r>   -1.4284    1.0000 </r>
       <r>   -1.2294    1.0000 </r>
       <r>   -0.6823    1.0000 </r>
       <r>   -0.3917    1.0000 </r>
       <r>   -0.1003    1.0000 </r>
       <r>    0.0603    1.0000 </r>
       <r>    0.8830    1.0000 </r>
       <r>    1.3322    1.0000 </r>
       <r>    1.3422    1.0000 </r>
       <r>    1.7335    1.0000 </r>
       <r>    1.7629    1.0000 </r>
       <r>    2.0030    1.0000 </r>
       <r>    2.0457    1.0000 </r>
       <r>    2.3215    1.0000 </r>
       <r>    2.3863    1.0000 </r>
       <r>    2.6014    1.0000 </r>
       <r>    2.8336    1.0000 </r>
       <r>    2.8635    1.0000 </r>
       <r>    2.9640    1.0000 </r>
       <r>    3.0040    1.0000 </r>
       <r>    4.1865    1.0000 </r>
       <r>    8.6797    0.0000 </r>
       <r>    9.6069    0.0000 </r>
       <r>    9.9175    0.0000 </r>
       <r>   10.4167    0.0000 </r>
       <r>   11.1586    0.0000 </r>
       <r>   11.3602    0.0000 </r>
       <r>   11.4987    0.0000 </r>
       <r>   12.0323    0.0000 </r>
       <r>   12.4128    0.0000 </r>
       <r>   12.8789    0.0000 </r>
       <r>   13.0819    0.0000 </r>
       <r>   13.1498    0.0000 </r>
       <r>   13.2873    0.0000 </r>
       <r>   15.0843    0.0000 </r>
       <r>   15.2152    0.0000 </r>
       <r>   15.3669    0.0000 </r>
       <r>   15.4361    0.0000 </r>
       <r>   16.8994    0.0000 </r>
       <r>   17.1054    0.0000 </r>
      </set>
      <set comment="kpoint 2">
       <r>  -14.5341    1.0000 </r>
       <r>  -13.2173    1.0000 </r>
       <r>  -12.6933    1.0000 </r>
       <r>  -12.5342    1.0000 </r>
       <r>  -12.4185    1.0000 </r>
       <r>  -12.3052    1.0000 </r>
       <r>  -12.2555    1.0000 </r>
       <r>   -1.4725    1.0000 </r>
       <r>   -1.4263    1.0000 </r>
       <r>   -1.2856    1.0000 </r>
       <r>   -0.7284    1.0000 </r>
       <r>   -0.4460    1.0000 </r>
       <r>    0.0021    1.0000 </r>
       <r>    0.0825    1.0000 </r>
       <r>    0.8807    1.0000 </r>
       <r>    1.3048    1.0000 </r>
       <r>    1.3426    1.0000 </r>
       <r>    1.7075    1.0000 </r>
       <r>    1.7704    1.0000 </r>
       <r>    1.9949    1.0000 </r>
       <r>    2.0814    1.0000 </r>
       <r>    2.2808    1.0000 </r>
       <r>    2.3807    1.0000 </r>
       <r>    2.7150    1.0000 </r>
       <r>    2.8117    1.0000 </r>
       <r>    2.8452    1.0000 </r>
       <r>    2.9546    1.0000 </r>
       <r>    2.9897    1.0000 </r>
       <r>    4.1531    1.0000 </r>
       <r>    8.7202    0.0000 </r>
       <r>    9.7231    0.0000 </r>
       <r>    9.8960    0.0000 </r>
       <r>   10.1595    0.0000 </r>
       <r>   11.2012    0.0000 </r>
       <r>   11.4950    0.0000 </r>
       <r>   11.5486    0.0000 </r>
       <r>   12.1885    0.0000 </r>
       <r>   12.3028    0.0000 </r>
       <r>   12.8145    0.0000 </r>
       <r>   13.0695    0.0000 </r>
       <r>   13.1522    0.0000 </r>
       <r>   13.3572    0.0000 </r>
       <r>   14.9609    0.0000 </r>
       <r>   15.1040    0.0000 </r>
       <r>   15.2580    0.0000 </r>
       <r>   15.4576    0.0000 </r>
       <r>   17.0728    0.0000 </r>
       <r>   17.1760    0.0000 </r>
      </set>
      <set comment="kpoint 3">
       <r>  -14.5337    1.0000 </r>
       <r>  -13.2165    1.0000 </r>
       <r>  -12.6968    1.0000 </r>
       <r>  -12.5297    1.0000 </r>
       <r>  -12.4298    1.0000 </r>
       <r>  -12.3036    1.0000 </r>
       <r>  -12.2481    1.0000 </r>
       <r>   -1.5315    1.0000 </r>
       <r>   -1.4270    1.0000 </r>
       <r>   -1.2301    1.0000 </r>
       <r>   -0.6812    1.0000 </r>
       <r>   -0.3895    1.0000 </r>
       <r>   -0.1027    1.0000 </r>
       <r>    0.0584    1.0000 </r>
       <r>    0.8831    1.0000 </r>
       <r>    1.3318    1.0000 </r>
       <r>    1.3431    1.0000 </r>
       <r>    1.7353    1.0000 </r>
       <r>    1.7625    1.0000 </r>
       <r>    2.0019    1.0000 </r>
       <r>    2.0464    1.0000 </r>
       <r>    2.3230    1.0000 </r>
       <r>    2.3865    1.0000 </r>
       <r>    2.5990    1.0000 </r>
       <r>    2.8321    1.0000 </r>
       <r>    2.8620    1.0000 </r>
       <r>    2.9639    1.0000 </r>
       <r>    3.0059    1.0000 </r>
       <r>    4.1877    1.0000 </r>
       <r>    8.6783    0.0000 </r>
       <r>    9.6064    0.0000 </r>
       <r>    9.9165    0.0000 </r>
       <r>   10.4202    0.0000 </r>
       <r>   11.1584    0.0000 </r>
       <r>   11.3603    0.0000 </r>
       <r>   11.4979    0.0000 </r>
       <r>   12.0336    0.0000 </r>
       <r>   12.4131    0.0000 </r>
       <r>   12.8801    0.0000 </r>
       <r>   13.0847    0.0000 </r>
       <r>   13.1456    0.0000 </r>
       <r>   13.2851    0.0000 </r>
       <r>   15.0837    0.0000 </r>
       <r>   15.2198    0.0000 </r>
       <r>   15.3708    0.0000 </r>
       <r>   15.4343    0.0000 </r>
       <r>   16.8921    0.0000 </r>
       <r>   17.1058    0.0000 </r>
      </set>
      <set comment="kpoint 4">
       <r>  -14.5341    1.0000 </r>
       <r>  -13.2171    1.0000 </r>
       <r>  -12.6932    1.0000 </r>
       <r>  -12.5347    1.0000 </r>
       <r>  -12.4191    1.0000 </r>
       <r>  -12.3049    1.0000 </r>
       <r>  -12.2551    1.0000 </r>
       <r>   -1.4763    1.0000 </r>
       <r>   -1.4273    1.0000 </r>
       <r>   -1.2805    1.0000 </r>
       <r>   -0.7238    1.0000 </r>
       <r>   -0.4445    1.0000 </r>
       <r>   -0.0057    1.0000 </r>
       <r>    0.0827    1.0000 </r>
       <r>    0.8827    1.0000 </r>
       <r>    1.3050    1.0000 </r>
       <r>    1.3421    1.0000 </r>
       <r>    1.7055    1.0000 </r>
       <r>    1.7733    1.0000 </r>
       <r>    1.9965    1.0000 </r>
       <r>    2.0778    1.0000 </r>
       <r>    2.2793    1.0000 </r>
       <r>    2.3848    1.0000 </r>
       <r>    2.7077    1.0000 </r>
       <r>    2.8126    1.0000 </r>
       <r>    2.8481    1.0000 </r>
       <r>    2.9529    1.0000 </r>
       <r>    2.9906    1.0000 </r>
       <r>    4.1558    1.0000 </r>
       <r>    8.7152    0.0000 </r>
       <r>    9.7120    0.0000 </r>
       <r>    9.8976    0.0000 </r>
       <r>   10.1808    0.0000 </r>
       <r>   11.1950    0.0000 </r>
       <r>   11.4952    0.0000 </r>
       <r>   11.5473    0.0000 </r>
       <r>   12.1875    0.0000 </r>
       <r>   12.3078    0.0000 </r>
       <r>   12.8076    0.0000 </r>
       <r>   13.0669    0.0000 </r>
       <r>   13.1474    0.0000 </r>
       <r>   13.3637    0.0000 </r>
       <r>   14.9673    0.0000 </r>
       <r>   15.1115    0.0000 </r>
       <r>   15.2655    0.0000 </r>
       <r>   15.4540    0.0000 </r>
       <r>   17.0647    0.0000 </r>
       <r>   17.1705    0.0000 </r>
      </set>
      <set comment="kpoint 5">
       <r>  -14.4809    1.0000 </r>
       <r>  -13.0733    1.0000 </r>
       <r>  -12.8272    1.0000 </r>
       <r>  -12.6014    1.0000 </r>
       <r>  -12.4340    1.0000 </r>
       <r>  -12.3733    1.0000 </r>
       <r>  -12.2443    1.0000 </r>
       <r>   -1.1119    1.0000 </r>
       <r>   -1.0006    1.0000 </r>
       <r>   -0.7613    1.0000 </r>
       <r>   -0.5347    1.0000 </r>
       <r>   -0.1018    1.0000 </r>
       <r>    0.0934    1.0000 </r>
       <r>    0.4832    1.0000 </r>
       <r>    0.6519    1.0000 </r>
       <r>    0.8792    1.0000 </r>
       <r>    0.9830    1.0000 </r>
       <r>    1.3030    1.0000 </r>
       <r>    1.5332    1.0000 </r>
       <r>    1.6239    1.0000 </r>
       <r>    1.7530    1.0000 </r>
       <r>    1.8515    1.0000 </r>
       <r>    2.1566    1.0000 </r>
       <r>    2.3250    1.0000 </r>
       <r>    2.5891    1.0000 </r>
       <r>    2.7038    1.0000 </r>
       <r>    2.7850    1.0000 </r>
       <r>    2.8873    1.0000 </r>
       <r>    5.2829    1.0000 </r>
       <r>    8.1708    0.0022 </r>
       <r>    8.9171    0.0000 </r>
       <r>    9.5389    0.0000 </r>
       <r>   10.9149    0.0000 </r>
       <r>   11.7380    0.0000 </r>
       <r>   12.3446    0.0000 </r>
       <r>   12.6292    0.0000 </r>
       <r>   12.8669    0.0000 </r>
       <r>   13.1284    0.0000 </r>
       <r>   13.4412    0.0000 </r>
       <r>   13.8848    0.0000 </r>
       <r>   14.0448    0.0000 </r>
       <r>   14.2267    0.0000 </r>
       <r>   14.4540    0.0000 </r>
       <r>   14.6405    0.0000 </r>
       <r>   14.8838    0.0000 </r>
       <r>   15.3936    0.0000 </r>
       <r>   15.6325    0.0000 </r>
       <r>   16.2683    0.0000 </r>
      </set>
      <set comment="kpoint 6">
       <r>  -14.4801    1.0000 </r>
       <r>  -13.0995    1.0000 </r>
       <r>  -12.8008    1.0000 </r>
       <r>  -12.5910    1.0000 </r>
       <r>  -12.4287    1.0000 </r>
       <r>  -12.3621    1.0000 </r>
       <r>  -12.2716    1.0000 </r>
       <r>   -1.0881    1.0000 </r>
       <r>   -1.0334    1.0000 </r>
       <r>   -0.7908    1.0000 </r>
       <r>   -0.5212    1.0000 </r>
       <r>   -0.1233    1.0000 </r>
       <r>    0.0626    1.0000 </r>
       <r>    0.5268    1.0000 </r>
       <r>    0.6389    1.0000 </r>
       <r>    0.8744    1.0000 </r>
       <r>    0.9985    1.0000 </r>
       <r>    1.3755    1.0000 </r>
       <r>    1.5066    1.0000 </r>
       <r>    1.6116    1.0000 </r>
       <r>    1.8102    1.0000 </r>
       <r>    1.8741    1.0000 </r>
       <r>    2.1391    1.0000 </r>
       <r>    2.3294    1.0000 </r>
       <r>    2.5827    1.0000 </r>
       <r>    2.7045    1.0000 </r>
       <r>    2.7569    1.0000 </r>
       <r>    2.8799    1.0000 </r>
       <r>    5.2392    1.0000 </r>
       <r>    8.2670    0.0000 </r>
       <r>    8.9400    0.0000 </r>
       <r>    9.4069    0.0000 </r>
       <r>   10.9060    0.0000 </r>
       <r>   11.7506    0.0000 </r>
       <r>   12.4364    0.0000 </r>
       <r>   12.6507    0.0000 </r>
       <r>   12.8169    0.0000 </r>
       <r>   13.2379    0.0000 </r>
       <r>   13.4070    0.0000 </r>
       <r>   13.8282    0.0000 </r>
       <r>   14.0960    0.0000 </r>
       <r>   14.2903    0.0000 </r>
       <r>   14.3778    0.0000 </r>
       <r>   14.5524    0.0000 </r>
       <r>   14.8759    0.0000 </r>
       <r>   15.2815    0.0000 </r>
       <r>   15.6263    0.0000 </r>
       <r>   16.2559    0.0000 </r>
      </set>
      <set comment="kpoint 7">
       <r>  -14.4813    1.0000 </r>
       <r>  -13.0427    1.0000 </r>
       <r>  -12.8430    1.0000 </r>
       <r>  -12.6510    1.0000 </r>
       <r>  -12.4097    1.0000 </r>
       <r>  -12.3832    1.0000 </r>
       <r>  -12.2237    1.0000 </r>
       <r>   -1.1715    1.0000 </r>
       <r>   -0.9867    1.0000 </r>
       <r>   -0.6953    1.0000 </r>
       <r>   -0.4839    1.0000 </r>
       <r>   -0.0822    1.0000 </r>
       <r>    0.1273    1.0000 </r>
       <r>    0.3818    1.0000 </r>
       <r>    0.6488    1.0000 </r>
       <r>    0.8494    1.0000 </r>
       <r>    0.9717    1.0000 </r>
       <r>    1.3075    1.0000 </r>
       <r>    1.4529    1.0000 </r>
       <r>    1.7076    1.0000 </r>
       <r>    1.7588    1.0000 </r>
       <r>    1.8399    1.0000 </r>
       <r>    2.1050    1.0000 </r>
       <r>    2.3412    1.0000 </r>
       <r>    2.5526    1.0000 </r>
       <r>    2.6859    1.0000 </r>
       <r>    2.8406    1.0000 </r>
       <r>    2.9311    1.0000 </r>
       <r>    5.3547    1.0000 </r>
       <r>    7.9823    0.9935 </r>
       <r>    8.9115    0.0000 </r>
       <r>    9.8030    0.0000 </r>
       <r>   10.7804    0.0000 </r>
       <r>   11.7019    0.0000 </r>
       <r>   12.3057    0.0000 </r>
       <r>   12.3937    0.0000 </r>
       <r>   12.8403    0.0000 </r>
       <r>   13.0739    0.0000 </r>
       <r>   13.5758    0.0000 </r>
       <r>   13.8651    0.0000 </r>
       <r>   14.1283    0.0000 </r>
       <r>   14.4309    0.0000 </r>
       <r>   14.6609    0.0000 </r>
       <r>   14.8496    0.0000 </r>
       <r>   14.9146    0.0000 </r>
       <r>   15.3222    0.0000 </r>
       <r>   15.4782    0.0000 </r>
       <r>   16.0338    0.0000 </r>
      </set>
      <set comment="kpoint 8">
       <r>  -14.4798    1.0000 </r>
       <r>  -13.0969    1.0000 </r>
       <r>  -12.8083    1.0000 </r>
       <r>  -12.5860    1.0000 </r>
       <r>  -12.4419    1.0000 </r>
       <r>  -12.3521    1.0000 </r>
       <r>  -12.2687    1.0000 </r>
       <r>   -1.1133    1.0000 </r>
       <r>   -1.0428    1.0000 </r>
       <r>   -0.7940    1.0000 </r>
       <r>   -0.4585    1.0000 </r>
       <r>   -0.0979    1.0000 </r>
       <r>    0.0749    1.0000 </r>
       <r>    0.5141    1.0000 </r>
       <r>    0.5649    1.0000 </r>
       <r>    0.8916    1.0000 </r>
       <r>    0.9685    1.0000 </r>
       <r>    1.3767    1.0000 </r>
       <r>    1.5024    1.0000 </r>
       <r>    1.6329    1.0000 </r>
       <r>    1.8393    1.0000 </r>
       <r>    1.8896    1.0000 </r>
       <r>    2.1062    1.0000 </r>
       <r>    2.3453    1.0000 </r>
       <r>    2.5347    1.0000 </r>
       <r>    2.7020    1.0000 </r>
       <r>    2.7651    1.0000 </r>
       <r>    2.9114    1.0000 </r>
       <r>    5.2824    1.0000 </r>
       <r>    8.0727    0.4717 </r>
       <r>    9.1222    0.0000 </r>
       <r>    9.4636    0.0000 </r>
       <r>   10.7933    0.0000 </r>
       <r>   11.8177    0.0000 </r>
       <r>   12.3563    0.0000 </r>
       <r>   12.5071    0.0000 </r>
       <r>   12.7111    0.0000 </r>
       <r>   13.2102    0.0000 </r>
       <r>   13.4214    0.0000 </r>
       <r>   13.8195    0.0000 </r>
       <r>   14.2833    0.0000 </r>
       <r>   14.3801    0.0000 </r>
       <r>   14.6313    0.0000 </r>
       <r>   14.7224    0.0000 </r>
       <r>   14.8101    0.0000 </r>
       <r>   15.3128    0.0000 </r>
       <r>   15.4671    0.0000 </r>
       <r>   16.1123    0.0000 </r>
      </set>
      <set comment="kpoint 9">
       <r>  -14.4806    1.0000 </r>
       <r>  -13.0684    1.0000 </r>
       <r>  -12.8373    1.0000 </r>
       <r>  -12.5979    1.0000 </r>
       <r>  -12.4427    1.0000 </r>
       <r>  -12.3665    1.0000 </r>
       <r>  -12.2409    1.0000 </r>
       <r>   -1.1357    1.0000 </r>
       <r>   -1.0214    1.0000 </r>
       <r>   -0.7544    1.0000 </r>
       <r>   -0.4645    1.0000 </r>
       <r>   -0.0755    1.0000 </r>
       <r>    0.1007    1.0000 </r>
       <r>    0.4706    1.0000 </r>
       <r>    0.5786    1.0000 </r>
       <r>    0.8860    1.0000 </r>
       <r>    0.9437    1.0000 </r>
       <r>    1.3506    1.0000 </r>
       <r>    1.4771    1.0000 </r>
       <r>    1.6771    1.0000 </r>
       <r>    1.7765    1.0000 </r>
       <r>    1.8548    1.0000 </r>
       <r>    2.1249    1.0000 </r>
       <r>    2.3429    1.0000 </r>
       <r>    2.5457    1.0000 </r>
       <r>    2.7021    1.0000 </r>
       <r>    2.7911    1.0000 </r>
       <r>    2.9185    1.0000 </r>
       <r>    5.3292    1.0000 </r>
       <r>    7.9949    0.9833 </r>
       <r>    9.0444    0.0000 </r>
       <r>    9.6436    0.0000 </r>
       <r>   10.7833    0.0000 </r>
       <r>   11.8088    0.0000 </r>
       <r>   12.2859    0.0000 </r>
       <r>   12.4266    0.0000 </r>
       <r>   12.7911    0.0000 </r>
       <r>   13.1367    0.0000 </r>
       <r>   13.4576    0.0000 </r>
       <r>   13.8374    0.0000 </r>
       <r>   14.1898    0.0000 </r>
       <r>   14.3954    0.0000 </r>
       <r>   14.6177    0.0000 </r>
       <r>   14.8895    0.0000 </r>
       <r>   14.9389    0.0000 </r>
       <r>   15.2544    0.0000 </r>
       <r>   15.5203    0.0000 </r>
       <r>   16.0395    0.0000 </r>
      </set>
      <set comment="kpoint 10">
       <r>  -14.4816    1.0000 </r>
       <r>  -13.0468    1.0000 </r>
       <r>  -12.8473    1.0000 </r>
       <r>  -12.6118    1.0000 </r>
       <r>  -12.4684    1.0000 </r>
       <r>  -12.3554    1.0000 </r>
       <r>  -12.2233    1.0000 </r>
       <r>   -1.0771    1.0000 </r>
       <r>   -1.0268    1.0000 </r>
       <r>   -0.7805    1.0000 </r>
       <r>   -0.5108    1.0000 </r>
       <r>   -0.0848    1.0000 </r>
       <r>    0.1148    1.0000 </r>
       <r>    0.5443    1.0000 </r>
       <r>    0.6197    1.0000 </r>
       <r>    0.8695    1.0000 </r>
       <r>    0.9556    1.0000 </r>
       <r>    1.2532    1.0000 </r>
       <r>    1.5328    1.0000 </r>
       <r>    1.5823    1.0000 </r>
       <r>    1.7430    1.0000 </r>
       <r>    1.7964    1.0000 </r>
       <r>    2.1999    1.0000 </r>
       <r>    2.3356    1.0000 </r>
       <r>    2.6112    1.0000 </r>
       <r>    2.7142    1.0000 </r>
       <r>    2.7799    1.0000 </r>
       <r>    2.9114    1.0000 </r>
       <r>    5.3170    1.0000 </r>
       <r>    8.0455    0.7577 </r>
       <r>    9.1295    0.0000 </r>
       <r>    9.4086    0.0000 </r>
       <r>   10.8852    0.0000 </r>
       <r>   11.8094    0.0000 </r>
       <r>   12.2621    0.0000 </r>
       <r>   12.6316    0.0000 </r>
       <r>   12.7647    0.0000 </r>
       <r>   13.1954    0.0000 </r>
       <r>   13.5223    0.0000 </r>
       <r>   13.8939    0.0000 </r>
       <r>   14.1283    0.0000 </r>
       <r>   14.2476    0.0000 </r>
       <r>   14.4099    0.0000 </r>
       <r>   14.6251    0.0000 </r>
       <r>   14.8733    0.0000 </r>
       <r>   15.4122    0.0000 </r>
       <r>   15.6940    0.0000 </r>
       <r>   16.2301    0.0000 </r>
      </set>
      <set comment="kpoint 11">
       <r>  -14.4809    1.0000 </r>
       <r>  -13.0727    1.0000 </r>
       <r>  -12.8270    1.0000 </r>
       <r>  -12.6046    1.0000 </r>
       <r>  -12.4296    1.0000 </r>
       <r>  -12.3754    1.0000 </r>
       <r>  -12.2442    1.0000 </r>
       <r>   -1.1162    1.0000 </r>
       <r>   -0.9999    1.0000 </r>
       <r>   -0.7566    1.0000 </r>
       <r>   -0.5310    1.0000 </r>
       <r>   -0.0992    1.0000 </r>
       <r>    0.0930    1.0000 </r>
       <r>    0.4750    1.0000 </r>
       <r>    0.6525    1.0000 </r>
       <r>    0.8763    1.0000 </r>
       <r>    0.9844    1.0000 </r>
       <r>    1.3033    1.0000 </r>
       <r>    1.5298    1.0000 </r>
       <r>    1.6285    1.0000 </r>
       <r>    1.7528    1.0000 </r>
       <r>    1.8557    1.0000 </r>
       <r>    2.1525    1.0000 </r>
       <r>    2.3249    1.0000 </r>
       <r>    2.5863    1.0000 </r>
       <r>    2.7024    1.0000 </r>
       <r>    2.7878    1.0000 </r>
       <r>    2.8884    1.0000 </r>
       <r>    5.2863    1.0000 </r>
       <r>    8.1587    0.0061 </r>
       <r>    8.9129    0.0000 </r>
       <r>    9.5604    0.0000 </r>
       <r>   10.9088    0.0000 </r>
       <r>   11.7354    0.0000 </r>
       <r>   12.3425    0.0000 </r>
       <r>   12.6297    0.0000 </r>
       <r>   12.8659    0.0000 </r>
       <r>   13.1220    0.0000 </r>
       <r>   13.4440    0.0000 </r>
       <r>   13.8863    0.0000 </r>
       <r>   14.0473    0.0000 </r>
       <r>   14.2268    0.0000 </r>
       <r>   14.4651    0.0000 </r>
       <r>   14.6517    0.0000 </r>
       <r>   14.8872    0.0000 </r>
       <r>   15.3986    0.0000 </r>
       <r>   15.6144    0.0000 </r>
       <r>   16.2624    0.0000 </r>
      </set>
      <set comment="kpoint 12">
       <r>  -14.4801    1.0000 </r>
       <r>  -13.0998    1.0000 </r>
       <r>  -12.8013    1.0000 </r>
       <r>  -12.5885    1.0000 </r>
       <r>  -12.4310    1.0000 </r>
       <r>  -12.3611    1.0000 </r>
       <r>  -12.2720    1.0000 </r>
       <r>   -1.0851    1.0000 </r>
       <r>   -1.0324    1.0000 </r>
       <r>   -0.7947    1.0000 </r>
       <r>   -0.5258    1.0000 </r>
       <r>   -0.1261    1.0000 </r>
       <r>    0.0636    1.0000 </r>
       <r>    0.5320    1.0000 </r>
       <r>    0.6405    1.0000 </r>
       <r>    0.8775    1.0000 </r>
       <r>    0.9963    1.0000 </r>
       <r>    1.3780    1.0000 </r>
       <r>    1.5083    1.0000 </r>
       <r>    1.6061    1.0000 </r>
       <r>    1.8100    1.0000 </r>
       <r>    1.8699    1.0000 </r>
       <r>    2.1452    1.0000 </r>
       <r>    2.3292    1.0000 </r>
       <r>    2.5861    1.0000 </r>
       <r>    2.7034    1.0000 </r>
       <r>    2.7564    1.0000 </r>
       <r>    2.8776    1.0000 </r>
       <r>    5.2357    1.0000 </r>
       <r>    8.2862    0.0000 </r>
       <r>    8.9364    0.0000 </r>
       <r>    9.3870    0.0000 </r>
       <r>   10.9125    0.0000 </r>
       <r>   11.7508    0.0000 </r>
       <r>   12.4397    0.0000 </r>
       <r>   12.6506    0.0000 </r>
       <r>   12.8194    0.0000 </r>
       <r>   13.2440    0.0000 </r>
       <r>   13.4028    0.0000 </r>
       <r>   13.8238    0.0000 </r>
       <r>   14.0953    0.0000 </r>
       <r>   14.2896    0.0000 </r>
       <r>   14.3691    0.0000 </r>
       <r>   14.5395    0.0000 </r>
       <r>   14.8804    0.0000 </r>
       <r>   15.2721    0.0000 </r>
       <r>   15.6390    0.0000 </r>
       <r>   16.2605    0.0000 </r>
      </set>
      <set comment="kpoint 13">
       <r>  -14.4813    1.0000 </r>
       <r>  -13.0421    1.0000 </r>
       <r>  -12.8440    1.0000 </r>
       <r>  -12.6502    1.0000 </r>
       <r>  -12.4101    1.0000 </r>
       <r>  -12.3832    1.0000 </r>
       <r>  -12.2237    1.0000 </r>
       <r>   -1.1713    1.0000 </r>
       <r>   -0.9874    1.0000 </r>
       <r>   -0.6954    1.0000 </r>
       <r>   -0.4851    1.0000 </r>
       <r>   -0.0815    1.0000 </r>
       <r>    0.1279    1.0000 </r>
       <r>    0.3825    1.0000 </r>
       <r>    0.6489    1.0000 </r>
       <r>    0.8502    1.0000 </r>
       <r>    0.9712    1.0000 </r>
       <r>    1.3048    1.0000 </r>
       <r>    1.4553    1.0000 </r>
       <r>    1.7059    1.0000 </r>
       <r>    1.7579    1.0000 </r>
       <r>    1.8423    1.0000 </r>
       <r>    2.1049    1.0000 </r>
       <r>    2.3406    1.0000 </r>
       <r>    2.5534    1.0000 </r>
       <r>    2.6868    1.0000 </r>
       <r>    2.8431    1.0000 </r>
       <r>    2.9283    1.0000 </r>
       <r>    5.3530    1.0000 </r>
       <r>    7.9868    0.9908 </r>
       <r>    8.9090    0.0000 </r>
       <r>    9.8009    0.0000 </r>
       <r>   10.7820    0.0000 </r>
       <r>   11.7016    0.0000 </r>
       <r>   12.3024    0.0000 </r>
       <r>   12.3975    0.0000 </r>
       <r>   12.8413    0.0000 </r>
       <r>   13.0740    0.0000 </r>
       <r>   13.5790    0.0000 </r>
       <r>   13.8639    0.0000 </r>
       <r>   14.1229    0.0000 </r>
       <r>   14.4269    0.0000 </r>
       <r>   14.6624    0.0000 </r>
       <r>   14.8447    0.0000 </r>
       <r>   14.9101    0.0000 </r>
       <r>   15.3288    0.0000 </r>
       <r>   15.4809    0.0000 </r>
       <r>   16.0398    0.0000 </r>
      </set>
      <set comment="kpoint 14">
       <r>  -14.4798    1.0000 </r>
       <r>  -13.0967    1.0000 </r>
       <r>  -12.8081    1.0000 </r>
       <r>  -12.5874    1.0000 </r>
       <r>  -12.4389    1.0000 </r>
       <r>  -12.3545    1.0000 </r>
       <r>  -12.2682    1.0000 </r>
       <r>   -1.1144    1.0000 </r>
       <r>   -1.0429    1.0000 </r>
       <r>   -0.7919    1.0000 </r>
       <r>   -0.4608    1.0000 </r>
       <r>   -0.0976    1.0000 </r>
       <r>    0.0746    1.0000 </r>
       <r>    0.5126    1.0000 </r>
       <r>    0.5682    1.0000 </r>
       <r>    0.8871    1.0000 </r>
       <r>    0.9733    1.0000 </r>
       <r>    1.3768    1.0000 </r>
       <r>    1.4970    1.0000 </r>
       <r>    1.6402    1.0000 </r>
       <r>    1.8365    1.0000 </r>
       <r>    1.8925    1.0000 </r>
       <r>    2.1029    1.0000 </r>
       <r>    2.3435    1.0000 </r>
       <r>    2.5374    1.0000 </r>
       <r>    2.7035    1.0000 </r>
       <r>    2.7664    1.0000 </r>
       <r>    2.9089    1.0000 </r>
       <r>    5.2805    1.0000 </r>
       <r>    8.0804    0.3858 </r>
       <r>    9.1001    0.0000 </r>
       <r>    9.4803    0.0000 </r>
       <r>   10.7952    0.0000 </r>
       <r>   11.8105    0.0000 </r>
       <r>   12.3634    0.0000 </r>
       <r>   12.5061    0.0000 </r>
       <r>   12.7100    0.0000 </r>
       <r>   13.2073    0.0000 </r>
       <r>   13.4220    0.0000 </r>
       <r>   13.8264    0.0000 </r>
       <r>   14.2803    0.0000 </r>
[...]
        <r>  0.0178  0.0066  0.0068  0.0078  0.0000  0.0000  0.0000  0.0000  0.0000 </r>
        <r>  0.0103  0.0150  0.0027  0.0096  0.0000  0.0000  0.0000  0.0000  0.0000 </r>
        <r>  0.0017  0.0172  0.0153  0.0061  0.0000  0.0000  0.0000  0.0000  0.0000 </r>
        <r>  0.0114  0.0073  0.0053  0.0013  0.0000  0.0000  0.0000  0.0000  0.0000 </r>
        <r>  0.0045  0.0026  0.0038  0.0035  0.0000  0.0000  0.0000  0.0000  0.0000 </r>
        <r>  0.0042  0.0159  0.0105  0.0009  0.0000  0.0000  0.0000  0.0000  0.0000 </r>
        <r>  0.0047  0.0117  0.0173  0.0041  0.0000  0.0000  0.0000  0.0000  0.0000 </r>
       </set>
       <set comment="band 37">
        <r>  0.0009  0.0131  0.0014  0.0036  0.0001  0.0010  0.0012  0.0018  0.0015 </r>
        <r>  0.0000  0.0085  0.0001  0.0065  0.0005  0.0009  0.0002  0.0015  0.0001 </r>
        <r>  0.0013  0.0079  0.0002  0.0118  0.0008  0.0010  0.0003  0.0036  0.0002 </r>
        <r>  0.0010  0.0083  0.0041  0.0006  0.0002  0.0001  0.0039  0.0042  0.0017 </r>
        <r>  0.0021  0.0016  0.0101  0.0041  0.0022  0.0005  0.0025  0.0021  0.0014 </r>
        <r>  0.0132  0.0000  0.0023  0.0002  0.0003  0.0011  0.0006  0.0030  0.0003 </r>
        <r>  0.0146  0.0023  0.0014  0.0085  0.0005  0.0009  0.0003  0.0012  0.0009 </r>
        <r>  0.0004  0.0060  0.0006  0.0064  0.0003  0.0032  0.0003  0.0052  0.0005 </r>
        <r>  0.0030  0.0043  0.0009  0.0046  0.0003  0.0016  0.0000  0.0027  0.0004 </r>
        <r>  0.0012  0.0011  0.0023  0.0033  0.0000  0.0000  0.0000  0.0000  0.0000 </r>
        <r>  0.0069  0.0045  0.0212  0.0125  0.0000  0.0000  0.0000  0.0000  0.0000 </r>
        <r>  0.0111  0.0002  0.0164  0.0083  0.0000  0.0000  0.0000  0.0000  0.0000 </r>
        <r>  0.0059  0.0004  0.0049  0.0043  0.0000  0.0000  0.0000  0.0000  0.0000 </r>
        <r>  0.0161  0.0004  0.0016  0.0012  0.0000  0.0000  0.0000  0.0000  0.0000 </r>
        <r>  0.0030  0.0138  0.0005  0.0266  0.0000  0.0000  0.0000  0.0000  0.0000 </r>
        <r>  0.0006  0.0195  0.0013  0.0271  0.0000  0.0000  0.0000  0.0000  0.0000 </r>
       </set>
       <set comment="band 38">
        <r>  0.0001  0.0084  0.0016  0.0024  0.0009  0.0044  0.0007  0.0043  0.0261 </r>
        <r>  0.0050  0.0009  0.0004  0.0018  0.0003  0.0015  0.0001  0.0030  0.0005 </r>
        <r>  0.0003  0.0020  0.0005  0.0014  0.0001  0.0051  0.0002  0.0017  0.0007 </r>
        <r>  0.0290  0.0133  0.0034  0.0008  0.0006  0.0064  0.0002  0.0022  0.0022 </r>
        <r>  0.0395  0.0002  0.0021  0.0027  0.0016  0.0038  0.0004  0.0030  0.0005 </r>
        <r>  0.0278  0.0017  0.0069  0.0017  0.0004  0.0009  0.0004  0.0016  0.0002 </r>
        <r>  0.0272  0.0038  0.0206  0.0006  0.0004  0.0019  0.0002  0.0019  0.0000 </r>
        <r>  0.0016  0.0037  0.0003  0.0035  0.0000  0.0016  0.0003  0.0010  0.0003 </r>
        <r>  0.0050  0.0014  0.0004  0.0028  0.0000  0.0002  0.0000  0.0005  0.0002 </r>
        <r>  0.0003  0.0003  0.0023  0.0010  0.0000  0.0000  0.0000  0.0000  0.0000 </r>
        <r>  0.0060  0.0078  0.0111  0.0071  0.0000  0.0000  0.0000  0.0000  0.0000 </r>
        <r>  0.0119  0.0156  0.0119  0.0048  0.0000  0.0000  0.0000  0.0000  0.0000 </r>
        <r>  0.0072  0.0066  0.0094  0.0055  0.0000  0.0000  0.0000  0.0000  0.0000 </r>
        <r>  0.0017  0.0106  0.0079  0.0089  0.0000  0.0000  0.0000  0.0000  0.0000 </r>
        <r>  0.0002  0.0037  0.0052  0.0053  0.0000  0.0000  0.0000  0.0000  0.0000 </r>
        <r>  0.0011  0.0005  0.0002  0.0019  0.0000  0.0000  0.0000  0.0000  0.0000 </r>
       </set>
       <set comment="band 39">
        <r>  0.0080  0.0053  0.0071  0.0079  0.0062  0.0020  0.0045  0.0014  0.0016 </r>
        <r>  0.0362  0.0005  0.0006  0.0014  0.0045  0.0031  0.0002  0.0013  0.0000 </r>
        <r>  0.0028  0.0029  0.0031  0.0024  0.0056  0.0005  0.0006  0.0028  0.0001 </r>
        <r>  0.0119  0.0002  0.0012  0.0023  0.0108  0.0001  0.0003  0.0027  0.0005 </r>
        <r>  0.0007  0.0023  0.0012  0.0036  0.0106  0.0010  0.0002  0.0014  0.0002 </r>
        <r>  0.0040  0.0009  0.0087  0.0019  0.0071  0.0000  0.0001  0.0009  0.0001 </r>
        <r>  0.0009  0.0014  0.0022  0.0020  0.0061  0.0013  0.0000  0.0004  0.0000 </r>
        <r>  0.0039  0.0007  0.0020  0.0004  0.0072  0.0027  0.0006  0.0030  0.0000 </r>
        <r>  0.0170  0.0028  0.0005  0.0015  0.0068  0.0002  0.0002  0.0002  0.0000 </r>
        <r>  0.0038  0.0062  0.0123  0.0057  0.0000  0.0000  0.0000  0.0000  0.0000 </r>
        <r>  0.0024  0.0001  0.0190  0.0019  0.0000  0.0000  0.0000  0.0000  0.0000 </r>
        <r>  0.0002  0.0002  0.0151  0.0028  0.0000  0.0000  0.0000  0.0000  0.0000 </r>
        <r>  0.0017  0.0044  0.0086  0.0162  0.0000  0.0000  0.0000  0.0000  0.0000 </r>
        <r>  0.0055  0.0053  0.0082  0.0007  0.0000  0.0000  0.0000  0.0000  0.0000 </r>
        <r>  0.0010  0.0050  0.0118  0.0084  0.0000  0.0000  0.0000  0.0000  0.0000 </r>
        <r>  0.0049  0.0015  0.0007  0.0012  0.0000  0.0000  0.0000  0.0000  0.0000 </r>
       </set>
       <set comment="band 40">
        <r>  0.0001  0.0106  0.0011  0.0056  0.0008  0.0001  0.0051  0.0195  0.0004 </r>
        <r>  0.0122  0.0037  0.0002  0.0004  0.0024  0.0004  0.0001  0.0023  0.0001 </r>
        <r>  0.0198  0.0017  0.0025  0.0034  0.0021  0.0041  0.0000  0.0026  0.0001 </r>
        <r>  0.0048  0.0078  0.0048  0.0011  0.0019  0.0040  0.0014  0.0003  0.0010 </r>
        <r>  0.0047  0.0009  0.0004  0.0020  0.0002  0.0001  0.0001  0.0084  0.0001 </r>
        <r>  0.0003  0.0004  0.0014  0.0006  0.0037  0.0005  0.0002  0.0058  0.0004 </r>
        <r>  0.0053  0.0004  0.0038  0.0014  0.0015  0.0000  0.0000  0.0052  0.0017 </r>
        <r>  0.0193  0.0009  0.0027  0.0022  0.0040  0.0018  0.0007  0.0017  0.0000 </r>
        <r>  0.0256  0.0001  0.0008  0.0037  0.0044  0.0000  0.0002  0.0041  0.0000 </r>
        <r>  0.0010  0.0008  0.0112  0.0011  0.0000  0.0000  0.0000  0.0000  0.0000 </r>
        <r>  0.0026  0.0011  0.0021  0.0158  0.0000  0.0000  0.0000  0.0000  0.0000 </r>
        <r>  0.0002  0.0021  0.0051  0.0131  0.0000  0.0000  0.0000  0.0000  0.0000 </r>
        <r>  0.0021  0.0047  0.0234  0.0074  0.0000  0.0000  0.0000  0.0000  0.0000 </r>
        <r>  0.0010  0.0038  0.0032  0.0362  0.0000  0.0000  0.0000  0.0000  0.0000 </r>
        <r>  0.0036  0.0082  0.0077  0.0118  0.0000  0.0000  0.0000  0.0000  0.0000 </r>
        <r>  0.0010  0.0112  0.0178  0.0010  0.0000  0.0000  0.0000  0.0000  0.0000 </r>
       </set>
       <set comment="band 41">
        <r>  0.0002  0.0009  0.0031  0.0032  0.0060  0.0007  0.0018  0.0040  0.0065 </r>
        <r>  0.0152  0.0028  0.0109  0.0027  0.0039  0.0003  0.0003  0.0002  0.0000 </r>
        <r>  0.0067  0.0002  0.0041  0.0011  0.0021  0.0023  0.0004  0.0007  0.0000 </r>
        <r>  0.0135  0.0031  0.0015  0.0008  0.0021  0.0008  0.0001  0.0011  0.0017 </r>
        <r>  0.0037  0.0012  0.0018  0.0043  0.0024  0.0018  0.0003  0.0001  0.0001 </r>
        <r>  0.0140  0.0028  0.0003  0.0006  0.0038  0.0091  0.0001  0.0028  0.0002 </r>
        <r>  0.0015  0.0020  0.0008  0.0001  0.0042  0.0018  0.0001  0.0122  0.0002 </r>
        <r>  0.0047  0.0005  0.0010  0.0009  0.0072  0.0020  0.0002  0.0012  0.0000 </r>
        <r>  0.0055  0.0006  0.0003  0.0046  0.0018  0.0067  0.0001  0.0042  0.0000 </r>
        <r>  0.0010  0.0090  0.0099  0.0075  0.0000  0.0000  0.0000  0.0000  0.0000 </r>
        <r>  0.0002  0.0022  0.0030  0.0015  0.0000  0.0000  0.0000  0.0000  0.0000 </r>
        <r>  0.0000  0.0003  0.0106  0.0064  0.0000  0.0000  0.0000  0.0000  0.0000 </r>
        <r>  0.0006  0.0064  0.0024  0.0281  0.0000  0.0000  0.0000  0.0000  0.0000 </r>
        <r>  0.0005  0.0248  0.0186  0.0054  0.0000  0.0000  0.0000  0.0000  0.0000 </r>
        <r>  0.0044  0.0031  0.0174  0.0018  0.0000  0.0000  0.0000  0.0000  0.0000 </r>
        <r>  0.0034  0.0061  0.0097  0.0019  0.0000  0.0000  0.0000  0.0000  0.0000 </r>
       </set>
       <set comment="band 42">
        <r>  0.0001  0.0011  0.0039  0.0049  0.0001  0.0181  0.0002  0.0027  0.0156 </r>
        <r>  0.0034  0.0011  0.0016  0.0057  0.0007  0.0016  0.0002  0.0010  0.0001 </r>
        <r>  0.0022  0.0058  0.0004  0.0010  0.0010  0.0010  0.0001  0.0029  0.0001 </r>
        <r>  0.0087  0.0033  0.0005  0.0001  0.0010  0.0045  0.0004  0.0002  0.0007 </r>
        <r>  0.0115  0.0002  0.0046  0.0086  0.0005  0.0003  0.0012  0.0007  0.0008 </r>
        <r>  0.0178  0.0014  0.0037  0.0020  0.0000  0.0086  0.0001  0.0010  0.0004 </r>
        <r>  0.0164  0.0016  0.0021  0.0009  0.0006  0.0092  0.0004  0.0038  0.0003 </r>
        <r>  0.0023  0.0050  0.0005  0.0013  0.0023  0.0031  0.0003  0.0027  0.0001 </r>
        <r>  0.0073  0.0071  0.0007  0.0006  0.0018  0.0043  0.0002  0.0016  0.0000 </r>
        <r>  0.0003  0.0021  0.0098  0.0002  0.0000  0.0000  0.0000  0.0000  0.0000 </r>
        <r>  0.0004  0.0179  0.0057  0.0005  0.0000  0.0000  0.0000  0.0000  0.0000 </r>
        <r>  0.0022  0.0179  0.0047  0.0008  0.0000  0.0000  0.0000  0.0000  0.0000 </r>
        <r>  0.0018  0.0366  0.0250  0.0077  0.0000  0.0000  0.0000  0.0000  0.0000 </r>
        <r>  0.0014  0.0158  0.0390  0.0040  0.0000  0.0000  0.0000  0.0000  0.0000 </r>
        <r>  0.0002  0.0032  0.0000  0.0010  0.0000  0.0000  0.0000  0.0000  0.0000 </r>
        <r>  0.0003  0.0007  0.0047  0.0088  0.0000  0.0000  0.0000  0.0000  0.0000 </r>
       </set>
       <set comment="band 43">
        <r>  0.0000  0.0088  0.0001  0.0001  0.0013  0.0010  0.0058  0.0026  0.0172 </r>
        <r>  0.0002  0.0003  0.0000  0.0008  0.0012  0.0041  0.0000  0.0023  0.0000 </r>
        <r>  0.0022  0.0004  0.0040  0.0021  0.0006  0.0051  0.0004  0.0066  0.0002 </r>
        <r>  0.0260  0.0127  0.0014  0.0009  0.0007  0.0009  0.0007  0.0035  0.0015 </r>
        <r>  0.0343  0.0019  0.0048  0.0009  0.0016  0.0015  0.0002  0.0043  0.0002 </r>
        <r>  0.0013  0.0082  0.0052  0.0045  0.0003  0.0006  0.0003  0.0001  0.0008 </r>
        <r>  0.0057  0.0057  0.0041  0.0037  0.0019  0.0005  0.0008  0.0001  0.0003 </r>
        <r>  0.0027  0.0072  0.0020  0.0047  0.0007  0.0026  0.0002  0.0040  0.0001 </r>
        <r>  0.0009  0.0031  0.0005  0.0022  0.0008  0.0020  0.0000  0.0025  0.0001 </r>
        <r>  0.0000  0.0014  0.0002  0.0015  0.0000  0.0000  0.0000  0.0000  0.0000 </r>
        <r>  0.0016  0.0031  0.0233  0.0057  0.0000  0.0000  0.0000  0.0000  0.0000 </r>
        <r>  0.0024  0.0044  0.0101  0.0056  0.0000  0.0000  0.0000  0.0000  0.0000 </r>
        <r>  0.0000  0.0025  0.0233  0.0039  0.0000  0.0000  0.0000  0.0000  0.0000 </r>
        <r>  0.0003  0.0094  0.0213  0.0156  0.0000  0.0000  0.0000  0.0000  0.0000 </r>
        <r>  0.0009  0.0382  0.0001  0.0208  0.0000  0.0000  0.0000  0.0000  0.0000 </r>
        <r>  0.0012  0.0176  0.0007  0.0263  0.0000  0.0000  0.0000  0.0000  0.0000 </r>
       </set>
       <set comment="band 44">
        <r>  0.0002  0.0024  0.0014  0.0049  0.0027  0.0014  0.0250  0.0032  0.0024 </r>
        <r>  0.0007  0.0044  0.0041  0.0033  0.0015  0.0003  0.0002  0.0010  0.0000 </r>
        <r>  0.0170  0.0003  0.0148  0.0006  0.0009  0.0039  0.0017  0.0042  0.0000 </r>
        <r>  0.0125  0.0024  0.0027  0.0042  0.0018  0.0025  0.0001  0.0041  0.0010 </r>
        <r>  0.0228  0.0026  0.0011  0.0093  0.0038  0.0012  0.0003  0.0036  0.0022 </r>
        <r>  0.0036  0.0012  0.0030  0.0064  0.0005  0.0061  0.0003  0.0010  0.0003 </r>
        <r>  0.0094  0.0039  0.0012  0.0038  0.0005  0.0000  0.0002  0.0044  0.0002 </r>
        <r>  0.0037  0.0032  0.0081  0.0085  0.0033  0.0006  0.0006  0.0002  0.0000 </r>
        <r>  0.0188  0.0016  0.0122  0.0004  0.0015  0.0003  0.0000  0.0001  0.0000 </r>
        <r>  0.0002  0.0067  0.0077  0.0099  0.0000  0.0000  0.0000  0.0000  0.0000 </r>
        <r>  0.0016  0.0110  0.0044  0.0085  0.0000  0.0000  0.0000  0.0000  0.0000 </r>
        <r>  0.0005  0.0023  0.0057  0.0108  0.0000  0.0000  0.0000  0.0000  0.0000 </r>
        <r>  0.0005  0.0034  0.0065  0.0020  0.0000  0.0000  0.0000  0.0000  0.0000 </r>
        <r>  0.0003  0.0015  0.0048  0.0031  0.0000  0.0000  0.0000  0.0000  0.0000 </r>
        <r>  0.0008  0.0024  0.0429  0.0138  0.0000  0.0000  0.0000  0.0000  0.0000 </r>
        <r>  0.0037  0.0103  0.0010  0.0048  0.0000  0.0000  0.0000  0.0000  0.0000 </r>
       </set>
       <set comment="band 45">
        <r>  0.0033  0.0018  0.0161  0.0043  0.0053  0.0098  0.0141  0.0156  0.0004 </r>
        <r>  0.0005  0.0011  0.0017  0.0002  0.0010  0.0018  0.0000  0.0010  0.0000 </r>
        <r>  0.0162  0.0018  0.0034  0.0009  0.0009  0.0024  0.0003  0.0035  0.0000 </r>
        <r>  0.0020  0.0014  0.0010  0.0004  0.0037  0.0016  0.0001  0.0044  0.0011 </r>
        <r>  0.0009  0.0008  0.0018  0.0032  0.0041  0.0056  0.0002  0.0018  0.0013 </r>
        <r>  0.0011  0.0008  0.0059  0.0031  0.0063  0.0015  0.0002  0.0021  0.0005 </r>
        <r>  0.0001  0.0021  0.0074  0.0010  0.0066  0.0024  0.0002  0.0014  0.0002 </r>
        <r>  0.0075  0.0036  0.0026  0.0040  0.0021  0.0017  0.0010  0.0018  0.0000 </r>
        <r>  0.0113  0.0004  0.0055  0.0011  0.0018  0.0036  0.0000  0.0033  0.0000 </r>
        <r>  0.0008  0.0024  0.0144  0.0035  0.0000  0.0000  0.0000  0.0000  0.0000 </r>
        <r>  0.0008  0.0008  0.0079  0.0078  0.0000  0.0000  0.0000  0.0000  0.0000 </r>
        <r>  0.0006  0.0092  0.0034  0.0003  0.0000  0.0000  0.0000  0.0000  0.0000 </r>
        <r>  0.0000  0.0154  0.0221  0.0145  0.0000  0.0000  0.0000  0.0000  0.0000 </r>
        <r>  0.0001  0.0150  0.0186  0.0112  0.0000  0.0000  0.0000  0.0000  0.0000 </r>
        <r>  0.0011  0.0049  0.0153  0.0079  0.0000  0.0000  0.0000  0.0000  0.0000 </r>
        <r>  0.0005  0.0020  0.0006  0.0056  0.0000  0.0000  0.0000  0.0000  0.0000 </r>
       </set>
       <set comment="band 46">
        <r>  0.0015  0.0036  0.0011  0.0078  0.0007  0.0023  0.0082  0.0031  0.0001 </r>
        <r>  0.0189  0.0043  0.0019  0.0023  0.0079  0.0006  0.0001  0.0001  0.0000 </r>
        <r>  0.0221  0.0031  0.0020  0.0013  0.0144  0.0004  0.0003  0.0002  0.0000 </r>
        <r>  0.0045  0.0022  0.0004  0.0036  0.0028  0.0009  0.0000  0.0082  0.0003 </r>
        <r>  0.0081  0.0035  0.0003  0.0029  0.0028  0.0091  0.0000  0.0011  0.0005 </r>
        <r>  0.0010  0.0002  0.0020  0.0024  0.0066  0.0016  0.0006  0.0029  0.0002 </r>
        <r>  0.0003  0.0021  0.0034  0.0007  0.0057  0.0035  0.0005  0.0015  0.0001 </r>
        <r>  0.0059  0.0008  0.0099  0.0004  0.0037  0.0024  0.0032  0.0017  0.0000 </r>
        <r>  0.0143  0.0068  0.0097  0.0045  0.0063  0.0001  0.0002  0.0006  0.0000 </r>
        <r>  0.0007  0.0016  0.0142  0.0013  0.0000  0.0000  0.0000  0.0000  0.0000 </r>
        <r>  0.0009  0.0114  0.0017  0.0008  0.0000  0.0000  0.0000  0.0000  0.0000 </r>
        <r>  0.0002  0.0019  0.0061  0.0074  0.0000  0.0000  0.0000  0.0000  0.0000 </r>
        <r>  0.0007  0.0063  0.0011  0.0008  0.0000  0.0000  0.0000  0.0000  0.0000 </r>
        <r>  0.0014  0.0001  0.0002  0.0034  0.0000  0.0000  0.0000  0.0000  0.0000 </r>
        <r>  0.0008  0.0069  0.0155  0.0053  0.0000  0.0000  0.0000  0.0000  0.0000 </r>
        <r>  0.0006  0.0017  0.0264  0.0021  0.0000  0.0000  0.0000  0.0000  0.0000 </r>
       </set>
       <set comment="band 47">
        <r>  0.0003  0.0004  0.0005  0.0005  0.0006  0.0005  0.0051  0.0043  0.0001 </r>
        <r>  0.0356  0.0022  0.0104  0.0008  0.0066  0.0026  0.0006  0.0035  0.0000 </r>
        <r>  0.0118  0.0045  0.0023  0.0027  0.0106  0.0008  0.0012  0.0002  0.0000 </r>
        <r>  0.0015  0.0016  0.0005  0.0032  0.0036  0.0008  0.0001  0.0061  0.0004 </r>
        <r>  0.0004  0.0037  0.0001  0.0018  0.0038  0.0073  0.0000  0.0003  0.0002 </r>
        <r>  0.0020  0.0002  0.0031  0.0003  0.0007  0.0010  0.0001  0.0043  0.0006 </r>
        <r>  0.0004  0.0002  0.0052  0.0002  0.0010  0.0036  0.0002  0.0019  0.0004 </r>
        <r>  0.0158  0.0005  0.0034  0.0009  0.0043  0.0010  0.0010  0.0006  0.0000 </r>
        <r>  0.0448  0.0021  0.0029  0.0006  0.0062  0.0005  0.0003  0.0012  0.0000 </r>
        <r>  0.0010  0.0029  0.0402  0.0023  0.0000  0.0000  0.0000  0.0000  0.0000 </r>
        <r>  0.0003  0.0194  0.0031  0.0022  0.0000  0.0000  0.0000  0.0000  0.0000 </r>
        <r>  0.0000  0.0013  0.0064  0.0206  0.0000  0.0000  0.0000  0.0000  0.0000 </r>
        <r>  0.0003  0.0042  0.0055  0.0041  0.0000  0.0000  0.0000  0.0000  0.0000 </r>
        <r>  0.0003  0.0077  0.0020  0.0030  0.0000  0.0000  0.0000  0.0000  0.0000 </r>
        <r>  0.0023  0.0004  0.0074  0.0001  0.0000  0.0000  0.0000  0.0000  0.0000 </r>
        <r>  0.0013  0.0022  0.0199  0.0011  0.0000  0.0000  0.0000  0.0000  0.0000 </r>
       </set>
       <set comment="band 48">
        <r>  0.0006  0.0064  0.0033  0.0044  0.0030  0.0009  0.0034  0.0018  0.0001 </r>
        <r>  0.0600  0.0048  0.0040  0.0048  0.0016  0.0040  0.0003  0.0035  0.0000 </r>
        <r>  0.0014  0.0011  0.0095  0.0050  0.0002  0.0009  0.0009  0.0013  0.0000 </r>
        <r>  0.0048  0.0037  0.0041  0.0024  0.0007  0.0000  0.0002  0.0002  0.0015 </r>
        <r>  0.0118  0.0020  0.0079  0.0030  0.0003  0.0000  0.0001  0.0003  0.0005 </r>
        <r>  0.0217  0.0116  0.0022  0.0004  0.0005  0.0004  0.0001  0.0001  0.0001 </r>
        <r>  0.0096  0.0008  0.0029  0.0092  0.0004  0.0002  0.0001  0.0007  0.0003 </r>
        <r>  0.0447  0.0011  0.0015  0.0000  0.0012  0.0024  0.0002  0.0041  0.0000 </r>
        <r>  0.0370  0.0087  0.0036  0.0048  0.0007  0.0001  0.0011  0.0004  0.0000 </r>
        <r>  0.0003  0.0040  0.0039  0.0051  0.0000  0.0000  0.0000  0.0000  0.0000 </r>
        <r>  0.0014  0.0124  0.0063  0.0045  0.0000  0.0000  0.0000  0.0000  0.0000 </r>
        <r>  0.0008  0.0058  0.0081  0.0185  0.0000  0.0000  0.0000  0.0000  0.0000 </r>
        <r>  0.0008  0.0072  0.0025  0.0020  0.0000  0.0000  0.0000  0.0000  0.0000 </r>
        <r>  0.0014  0.0019  0.0051  0.0066  0.0000  0.0000  0.0000  0.0000  0.0000 </r>
        <r>  0.0002  0.0101  0.0026  0.0142  0.0000  0.0000  0.0000  0.0000  0.0000 </r>
        <r>  0.0003  0.0076  0.0004  0.0109  0.0000  0.0000  0.0000  0.0000  0.0000 </r>
       </set>
      </set>
     </set>
    </set>
   </array>
  </projected>
 </calculation>
 <structure name="finalpos" >
  <crystal>
   <varray name="basis" >
    <v>       0.00000000       4.24689300       4.24689300 </v>
    <v>       4.24689300       0.00000000       4.24689300 </v>
    <v>       4.24689300       4.24689300       0.00000000 </v>
   </varray>
   <i name="volume">    153.19477498 </i>
   <varray name="rec_basis" >
    <v>      -0.11773313       0.11773313       0.11773313 </v>
    <v>       0.11773313      -0.11773313       0.11773313 </v>
    <v>       0.11773313       0.11773313      -0.11773313 </v>
   </varray>
  </crystal>
  <varray name="positions" >
   <v>       0.16725632       0.32673836       0.23536973 </v>
   <v>       0.01213600       0.98873055       0.00263275 </v>
   <v>       0.99631705       0.96794683       0.52063771 </v>
   <v>       0.96097439       0.53610980       0.95109126 </v>
   <v>       0.97888873       0.51906311       0.54270568 </v>
   <v>       0.50790788       0.99056170       0.99838190 </v>
   <v>       0.49798067       0.99932216       0.49905558 </v>
   <v>       0.52694165       0.50137255       0.98853322 </v>
   <v>       0.50858686       0.48598379       0.50567393 </v>
   <v>       0.24468319       0.25302341       0.75960923 </v>
   <v>       0.25465400       0.73190504       0.25919577 </v>
   <v>       0.24859857       0.72383105       0.76822015 </v>
   <v>       0.77390119       0.24846591       0.24394932 </v>
   <v>       0.76686816       0.24243944       0.74715970 </v>
   <v>       0.78832876       0.70925632       0.24896276 </v>
   <v>       0.72601957       0.77099298       0.74352831 </v>
  </varray>
 </structure>
</modeling>
