   16   16   20    2
  0.9574673E+01  0.6006014E-09  0.6006014E-09  0.6006014E-09  0.5000000E-15
  1.000000000000000E-004
  CAR 
 unknown system                          
     56      8     48
 
  0.0000000E+00  0.0000000E+00  0.0000000E+00  0.1250000E+00
    1      -13.870358    -13.870350   1.000000   1.000000
    2      -12.963738    -12.963704   1.000000   1.000000
    3      -12.945254    -12.945238   1.000000   1.000000
    4      -12.941049    -12.941034   1.000000   1.000000
    5      -12.600568    -12.600556   1.000000   1.000000
    6      -12.449772    -12.449768   1.000000   1.000000
    7      -12.445737    -12.445732   1.000000   1.000000
    8       -0.941397     -0.941411   1.000000   1.000000
    9       -0.899982     -0.899982   1.000000   1.000000
   10       -0.832987     -0.833001   1.000000   1.000000
   11       -0.831698     -0.831711   1.000000   1.000000
   12       -0.324887     -0.324889   1.000000   1.000000
   13       -0.035734     -0.035730   1.000000   1.000000
   14       -0.034604     -0.034600   1.000000   1.000000
   15        0.577400      0.577428   1.000000   1.000000
   16        1.474589      1.474608   1.000000   1.000000
   17        1.478071      1.478090   1.000000   1.000000
   18        1.721336      1.721378   1.000000   1.000000
   19        1.762148      1.762177   1.000000   1.000000
   20        1.764885      1.764914   1.000000   1.000000
   21        2.059756      2.059790   1.000000   1.000000
   22        2.063033      2.063067   1.000000   1.000000
   23        2.249147      2.249177   1.000000   1.000000
   24        2.491400      2.491433   1.000000   1.000000
   25        2.495661      2.495694   1.000000   1.000000
   26        3.076246      3.076298   1.000000   1.000000
   27        3.077530      3.077582   1.000000   1.000000
   28        3.160789      3.160844   1.000000   1.000000
   29        5.558931      5.558923   0.000000   0.000000
   30        9.693248      9.693294   0.000000   0.000000
   31       10.356582     10.356498   0.000000   0.000000
   32       10.572517     10.572497   0.000000   0.000000
   33       10.579152     10.579135   0.000000   0.000000
   34       11.913702     11.913693   0.000000   0.000000
   35       11.932746     11.932685   0.000000   0.000000
   36       11.937510     11.937448   0.000000   0.000000
   37       12.387819     12.387695   0.000000   0.000000
   38       12.734808     12.734794   0.000000   0.000000
   39       12.830774     12.830707   0.000000   0.000000
   40       12.837132     12.837063   0.000000   0.000000
   41       13.800225     13.800190   0.000000   0.000000
   42       14.313281     14.313208   0.000000   0.000000
   43       14.508345     14.508257   0.000000   0.000000
   44       14.517483     14.517393   0.000000   0.000000
   45       15.902247     15.902175   0.000000   0.000000
   46       15.907613     15.907541   0.000000   0.000000
   47       16.447138     16.447050   0.000000   0.000000
   48       16.455475     16.455385   0.000000   0.000000
 
  0.5000000E+00  0.0000000E+00  0.0000000E+00  0.1250000E+00
    1      -13.530366    -13.530348   1.000000   1.000000
    2      -13.296440    -13.296432   1.000000   1.000000
    3      -12.977751    -12.977726   1.000000   1.000000
    4      -12.962265    -12.962247   1.000000   1.000000
    5      -12.581638    -12.581627   1.000000   1.000000
    6      -12.508370    -12.508362   1.000000   1.000000
    7      -12.439597    -12.439590   1.000000   1.000000
    8       -0.924260     -0.924267   1.000000   1.000000
    9       -0.553588     -0.553597   1.000000   1.000000
   10       -0.437717     -0.437721   1.000000   1.000000
   11       -0.324582     -0.324582   1.000000   1.000000
   12        0.094602      0.094601   1.000000   1.000000
   13        0.273632      0.273649   1.000000   1.000000
   14        0.497285      0.497288   1.000000   1.000000
   15        0.675516      0.675527   1.000000   1.000000
   16        0.917522      0.917536   1.000000   1.000000
   17        1.085868      1.085879   1.000000   1.000000
   18        1.291598      1.291616   1.000000   1.000000
   19        1.366984      1.367003   1.000000   1.000000
   20        1.514141      1.514165   1.000000   1.000000
   21        1.555251      1.555274   1.000000   1.000000
   22        1.770059      1.770088   1.000000   1.000000
   23        1.921135      1.921161   1.000000   1.000000
   24        2.283631      2.283678   1.000000   1.000000
   25        2.494056      2.494095   1.000000   1.000000
   26        2.514750      2.514787   1.000000   1.000000
   27        3.030983      3.031036   1.000000   1.000000
   28        3.113644      3.113700   1.000000   1.000000
   29        7.748342      7.748400   0.000000   0.000000
   30        8.455166      8.455135   0.000000   0.000000
   31        9.638785      9.638771   0.000000   0.000000
   32       10.454908     10.454911   0.000000   0.000000
   33       11.193198     11.193196   0.000000   0.000000
   34       11.553567     11.553531   0.000000   0.000000
   35       11.918885     11.918834   0.000000   0.000000
   36       12.141925     12.141858   0.000000   0.000000
   37       12.679649     12.679602   0.000000   0.000000
   38       12.939062     12.939005   0.000000   0.000000
   39       13.171737     13.171674   0.000000   0.000000
   40       13.379372     13.379312   0.000000   0.000000
   41       13.803754     13.803684   0.000000   0.000000
   42       14.454346     14.454270   0.000000   0.000000
   43       14.986550     14.986481   0.000000   0.000000
   44       15.436439     15.436339   0.000000   0.000000
   45       15.759225     15.759146   0.000000   0.000000
   46       15.986861     15.986761   0.000000   0.000000
   47       16.267931     16.267821   0.000000   0.000000
   48       16.525987     16.525911   0.000000   0.000000
 
  0.0000000E+00  0.5000000E+00  0.0000000E+00  0.1250000E+00
    1      -13.574414    -13.574400   1.000000   1.000000
    2      -13.170915    -13.170894   1.000000   1.000000
    3      -12.989595    -12.989582   1.000000   1.000000
    4      -12.985077    -12.985063   1.000000   1.000000
    5      -12.759213    -12.759194   1.000000   1.000000
    6      -12.407971    -12.407965   1.000000   1.000000
    7      -12.404003    -12.403996   1.000000   1.000000
    8       -0.928137     -0.928129   1.000000   1.000000
    9       -0.641883     -0.641894   1.000000   1.000000
   10       -0.640342     -0.640352   1.000000   1.000000
   11       -0.185817     -0.185826   1.000000   1.000000
   12        0.209727      0.209731   1.000000   1.000000
   13        0.303596      0.303600   1.000000   1.000000
   14        0.306023      0.306027   1.000000   1.000000
   15        0.636773      0.636790   1.000000   1.000000
   16        0.824960      0.824979   1.000000   1.000000
   17        1.002788      1.002800   1.000000   1.000000
   18        1.007041      1.007053   1.000000   1.000000
   19        1.574963      1.574991   1.000000   1.000000
   20        1.604779      1.604796   1.000000   1.000000
   21        1.606063      1.606080   1.000000   1.000000
   22        2.051563      2.051603   1.000000   1.000000
   23        2.053979      2.054019   1.000000   1.000000
   24        2.457220      2.457256   1.000000   1.000000
   25        2.461647      2.461684   1.000000   1.000000
   26        2.640917      2.640954   1.000000   1.000000
   27        2.995676      2.995729   1.000000   1.000000
   28        2.997288      2.997341   1.000000   1.000000
   29        7.216148      7.216183   0.000000   0.000000
   30        9.340825      9.340824   0.000000   0.000000
   31       10.419014     10.419047   0.000000   0.000000
   32       10.602393     10.602389   0.000000   0.000000
   33       10.609151     10.609147   0.000000   0.000000
   34       10.944104     10.944059   0.000000   0.000000
   35       11.538248     11.538209   0.000000   0.000000
   36       12.032194     12.032127   0.000000   0.000000
   37       12.036809     12.036741   0.000000   0.000000
   38       12.968018     12.967952   0.000000   0.000000
   39       12.970996     12.970930   0.000000   0.000000
   40       13.910716     13.910583   0.000000   0.000000
   41       14.324046     14.323974   0.000000   0.000000
   42       14.873892     14.873791   0.000000   0.000000
   43       14.906054     14.905971   0.000000   0.000000
   44       14.913703     14.913621   0.000000   0.000000
   45       15.399188     15.399097   0.000000   0.000000
   46       15.406395     15.406306   0.000000   0.000000
   47       16.677417     16.677331   0.000000   0.000000
   48       16.783143     16.785620   0.000000   0.000000
 
  0.5000000E+00  0.5000000E+00  0.0000000E+00  0.1250000E+00
    1      -13.427685    -13.427664   1.000000   1.000000
    2      -13.217518    -13.217508   1.000000   1.000000
    3      -13.072388    -13.072376   1.000000   1.000000
    4      -12.989734    -12.989710   1.000000   1.000000
    5      -12.706578    -12.706569   1.000000   1.000000
    6      -12.581363    -12.581357   1.000000   1.000000
    7      -12.323485    -12.323474   1.000000   1.000000
    8       -0.766929     -0.766929   1.000000   1.000000
    9       -0.468905     -0.468915   1.000000   1.000000
   10       -0.345048     -0.345047   1.000000   1.000000
   11       -0.126426     -0.126427   1.000000   1.000000
   12        0.167391      0.167393   1.000000   1.000000
   13        0.388722      0.388731   1.000000   1.000000
   14        0.466088      0.466093   1.000000   1.000000
   15        0.704102      0.704111   1.000000   1.000000
   16        0.841843      0.841857   1.000000   1.000000
   17        1.157107      1.157124   1.000000   1.000000
   18        1.189697      1.189714   1.000000   1.000000
   19        1.273543      1.273562   1.000000   1.000000
   20        1.318855      1.318871   1.000000   1.000000
   21        1.533993      1.534014   1.000000   1.000000
   22        1.574311      1.574335   1.000000   1.000000
   23        1.775989      1.776013   1.000000   1.000000
   24        2.109167      2.109204   1.000000   1.000000
   25        2.296763      2.296796   1.000000   1.000000
   26        2.807286      2.807341   1.000000   1.000000
   27        2.936454      2.936507   1.000000   1.000000
   28        3.053118      3.053171   1.000000   1.000000
   29        8.128105      8.128177   0.000000   0.000000
   30        8.944341      8.944324   0.000000   0.000000
   31        9.261586      9.261558   0.000000   0.000000
   32       10.526166     10.526186   0.000000   0.000000
   33       10.841730     10.841692   0.000000   0.000000
   34       11.334792     11.334786   0.000000   0.000000
   35       11.640489     11.640436   0.000000   0.000000
   36       12.200492     12.200474   0.000000   0.000000
   37       12.685172     12.685126   0.000000   0.000000
   38       13.246898     13.246832   0.000000   0.000000
   39       13.358458     13.358362   0.000000   0.000000
   40       13.697344     13.697243   0.000000   0.000000
   41       13.925916     13.925865   0.000000   0.000000
   42       14.323314     14.323242   0.000000   0.000000
   43       14.883143     14.883069   0.000000   0.000000
   44       15.161236     15.161177   0.000000   0.000000
   45       15.875223     15.875127   0.000000   0.000000
   46       15.905421     15.905321   0.000000   0.000000
   47       16.149555     16.149424   0.000000   0.000000
   48       16.471856     16.471747   0.000000   0.000000
 
  0.0000000E+00  0.0000000E+00  0.5000000E+00  0.1250000E+00
    1      -13.528902    -13.528885   1.000000   1.000000
    2      -13.299055    -13.299047   1.000000   1.000000
    3      -12.976182    -12.976156   1.000000   1.000000
    4      -12.962753    -12.962736   1.000000   1.000000
    5      -12.583236    -12.583226   1.000000   1.000000
    6      -12.504555    -12.504546   1.000000   1.000000
    7      -12.441748    -12.441741   1.000000   1.000000
    8       -0.924414     -0.924422   1.000000   1.000000
    9       -0.550571     -0.550579   1.000000   1.000000
   10       -0.437965     -0.437968   1.000000   1.000000
   11       -0.327155     -0.327155   1.000000   1.000000
   12        0.097472      0.097471   1.000000   1.000000
   13        0.271786      0.271803   1.000000   1.000000
   14        0.494035      0.494038   1.000000   1.000000
   15        0.675470      0.675479   1.000000   1.000000
   16        0.917315      0.917328   1.000000   1.000000
   17        1.086034      1.086046   1.000000   1.000000
   18        1.295820      1.295839   1.000000   1.000000
   19        1.369234      1.369254   1.000000   1.000000
   20        1.513264      1.513289   1.000000   1.000000
   21        1.556993      1.557016   1.000000   1.000000
   22        1.767586      1.767615   1.000000   1.000000
   23        1.917848      1.917874   1.000000   1.000000
   24        2.284926      2.284973   1.000000   1.000000
   25        2.495107      2.495143   1.000000   1.000000
   26        2.513511      2.513550   1.000000   1.000000
   27        3.030307      3.030361   1.000000   1.000000
   28        3.113150      3.113206   1.000000   1.000000
   29        7.747039      7.747098   0.000000   0.000000
   30        8.457467      8.457437   0.000000   0.000000
   31        9.641531      9.641518   0.000000   0.000000
   32       10.448815     10.448815   0.000000   0.000000
   33       11.192939     11.192938   0.000000   0.000000
   34       11.553257     11.553220   0.000000   0.000000
   35       11.915765     11.915717   0.000000   0.000000
   36       12.143238     12.143169   0.000000   0.000000
   37       12.678565     12.678522   0.000000   0.000000
   38       12.939939     12.939881   0.000000   0.000000
   39       13.178920     13.178856   0.000000   0.000000
   40       13.383039     13.382980   0.000000   0.000000
   41       13.812783     13.812710   0.000000   0.000000
   42       14.454659     14.454581   0.000000   0.000000
   43       14.984159     14.984092   0.000000   0.000000
   44       15.431748     15.431648   0.000000   0.000000
   45       15.751234     15.751160   0.000000   0.000000
   46       15.991922     15.991821   0.000000   0.000000
   47       16.265542     16.265431   0.000000   0.000000
   48       16.529359     16.529278   0.000000   0.000000
 
  0.5000000E+00  0.0000000E+00  0.5000000E+00  0.1250000E+00
    1      -13.427047    -13.427026   1.000000   1.000000
    2      -13.218669    -13.218658   1.000000   1.000000
    3      -13.073360    -13.073348   1.000000   1.000000
    4      -12.988454    -12.988431   1.000000   1.000000
    5      -12.704923    -12.704914   1.000000   1.000000
    6      -12.583508    -12.583503   1.000000   1.000000
    7      -12.322749    -12.322738   1.000000   1.000000
    8       -0.767216     -0.767216   1.000000   1.000000
    9       -0.471056     -0.471066   1.000000   1.000000
   10       -0.345158     -0.345156   1.000000   1.000000
   11       -0.123966     -0.123966   1.000000   1.000000
   12        0.165297      0.165299   1.000000   1.000000
   13        0.387986      0.387995   1.000000   1.000000
   14        0.468907      0.468913   1.000000   1.000000
   15        0.705595      0.705604   1.000000   1.000000
   16        0.839950      0.839964   1.000000   1.000000
   17        1.158830      1.158848   1.000000   1.000000
   18        1.189747      1.189763   1.000000   1.000000
   19        1.276001      1.276019   1.000000   1.000000
   20        1.316269      1.316285   1.000000   1.000000
   21        1.531453      1.531473   1.000000   1.000000
   22        1.573313      1.573336   1.000000   1.000000
   23        1.774266      1.774291   1.000000   1.000000
   24        2.109225      2.109262   1.000000   1.000000
   25        2.302533      2.302567   1.000000   1.000000
   26        2.806540      2.806595   1.000000   1.000000
   27        2.934902      2.934954   1.000000   1.000000
   28        3.054804      3.054857   1.000000   1.000000
   29        8.128081      8.128153   0.000000   0.000000
   30        8.945256      8.945239   0.000000   0.000000
   31        9.263290      9.263267   0.000000   0.000000
   32       10.524757     10.524777   0.000000   0.000000
   33       10.841765     10.841725   0.000000   0.000000
   34       11.333581     11.333570   0.000000   0.000000
   35       11.635568     11.635516   0.000000   0.000000
   36       12.197818     12.197799   0.000000   0.000000
   37       12.687297     12.687252   0.000000   0.000000
   38       13.246320     13.246257   0.000000   0.000000
   39       13.357111     13.357016   0.000000   0.000000
   40       13.692162     13.692062   0.000000   0.000000
   41       13.928705     13.928650   0.000000   0.000000
   42       14.316568     14.316499   0.000000   0.000000
   43       14.887609     14.887535   0.000000   0.000000
   44       15.163325     15.163266   0.000000   0.000000
   45       15.867012     15.866916   0.000000   0.000000
   46       15.911628     15.911526   0.000000   0.000000
   47       16.160467     16.160339   0.000000   0.000000
   48       16.470296     16.470191   0.000000   0.000000
 
  0.0000000E+00  0.5000000E+00  0.5000000E+00  0.1250000E+00
    1      -13.427228    -13.427206   1.000000   1.000000
    2      -13.216610    -13.216600   1.000000   1.000000
    3      -13.074025    -13.074013   1.000000   1.000000
    4      -12.991441    -12.991417   1.000000   1.000000
    5      -12.705970    -12.705961   1.000000   1.000000
    6      -12.578299    -12.578294   1.000000   1.000000
    7      -12.325149    -12.325138   1.000000   1.000000
    8       -0.769673     -0.769673   1.000000   1.000000
    9       -0.467365     -0.467376   1.000000   1.000000
   10       -0.347038     -0.347036   1.000000   1.000000
   11       -0.124691     -0.124690   1.000000   1.000000
   12        0.167238      0.167240   1.000000   1.000000
   13        0.391783      0.391791   1.000000   1.000000
   14        0.465649      0.465654   1.000000   1.000000
   15        0.705750      0.705760   1.000000   1.000000
   16        0.838975      0.838988   1.000000   1.000000
   17        1.160578      1.160596   1.000000   1.000000
   18        1.189353      1.189369   1.000000   1.000000
   19        1.273649      1.273667   1.000000   1.000000
   20        1.316685      1.316700   1.000000   1.000000
   21        1.530224      1.530245   1.000000   1.000000
   22        1.574453      1.574477   1.000000   1.000000
   23        1.776438      1.776464   1.000000   1.000000
   24        2.108990      2.109027   1.000000   1.000000
   25        2.300752      2.300786   1.000000   1.000000
   26        2.807789      2.807843   1.000000   1.000000
   27        2.933928      2.933981   1.000000   1.000000
   28        3.054599      3.054652   1.000000   1.000000
   29        8.128369      8.128440   0.000000   0.000000
   30        8.944718      8.944703   0.000000   0.000000
   31        9.262393      9.262366   0.000000   0.000000
   32       10.522278     10.522299   0.000000   0.000000
   33       10.838903     10.838867   0.000000   0.000000
   34       11.336244     11.336233   0.000000   0.000000
   35       11.641357     11.641303   0.000000   0.000000
   36       12.195918     12.195903   0.000000   0.000000
   37       12.685696     12.685646   0.000000   0.000000
   38       13.247314     13.247253   0.000000   0.000000
   39       13.354556     13.354459   0.000000   0.000000
   40       13.706066     13.705964   0.000000   0.000000
   41       13.926408     13.926354   0.000000   0.000000
   42       14.324334     14.324267   0.000000   0.000000
   43       14.886892     14.886818   0.000000   0.000000
   44       15.164209     15.164149   0.000000   0.000000
   45       15.867067     15.866973   0.000000   0.000000
   46       15.901529     15.901426   0.000000   0.000000
   47       16.153249     16.153119   0.000000   0.000000
   48       16.466645     16.466538   0.000000   0.000000
 
  0.5000000E+00  0.5000000E+00  0.5000000E+00  0.1250000E+00
    1      -13.528856    -13.528839   1.000000   1.000000
    2      -13.299013    -13.299005   1.000000   1.000000
    3      -12.978498    -12.978474   1.000000   1.000000
    4      -12.960141    -12.960122   1.000000   1.000000
    5      -12.581246    -12.581236   1.000000   1.000000
    6      -12.510387    -12.510380   1.000000   1.000000
    7      -12.438291    -12.438283   1.000000   1.000000
    8       -0.923944     -0.923953   1.000000   1.000000
    9       -0.552356     -0.552364   1.000000   1.000000
   10       -0.437264     -0.437267   1.000000   1.000000
   11       -0.324456     -0.324456   1.000000   1.000000
   12        0.094313      0.094312   1.000000   1.000000
   13        0.274451      0.274468   1.000000   1.000000
   14        0.496016      0.496019   1.000000   1.000000
   15        0.674146      0.674155   1.000000   1.000000
   16        0.913998      0.914011   1.000000   1.000000
   17        1.085018      1.085029   1.000000   1.000000
   18        1.294835      1.294854   1.000000   1.000000
   19        1.368237      1.368256   1.000000   1.000000
   20        1.515991      1.516015   1.000000   1.000000
   21        1.554561      1.554584   1.000000   1.000000
   22        1.768503      1.768532   1.000000   1.000000
   23        1.920575      1.920601   1.000000   1.000000
   24        2.285723      2.285770   1.000000   1.000000
   25        2.493031      2.493070   1.000000   1.000000
   26        2.514627      2.514663   1.000000   1.000000
   27        3.030079      3.030133   1.000000   1.000000
   28        3.113664      3.113720   1.000000   1.000000
   29        7.746494      7.746552   0.000000   0.000000
   30        8.457593      8.457560   0.000000   0.000000
   31        9.638948      9.638939   0.000000   0.000000
   32       10.448300     10.448298   0.000000   0.000000
   33       11.194601     11.194598   0.000000   0.000000
   34       11.558787     11.558751   0.000000   0.000000
   35       11.918955     11.918905   0.000000   0.000000
   36       12.142280     12.142213   0.000000   0.000000
   37       12.684633     12.684587   0.000000   0.000000
   38       12.940911     12.940856   0.000000   0.000000
   39       13.165462     13.165402   0.000000   0.000000
   40       13.383562     13.383501   0.000000   0.000000
   41       13.811964     13.811892   0.000000   0.000000
   42       14.461557     14.461478   0.000000   0.000000
   43       14.981768     14.981703   0.000000   0.000000
   44       15.431575     15.431473   0.000000   0.000000
   45       15.754976     15.754898   0.000000   0.000000
   46       15.989421     15.989323   0.000000   0.000000
   47       16.262605     16.262495   0.000000   0.000000
   48       16.524763     16.524683   0.000000   0.000000
