   16   16   20    2
  0.9574673E+01  0.6006014E-09  0.6006014E-09  0.6006014E-09  0.5000000E-15
  1.000000000000000E-004
  CAR 
 unknown system                          
     56     16     48
 
  0.2500000E+00  0.2500000E+00  0.2500000E+00  0.6250000E-01
    1      -13.760884    -13.760882   1.000000   1.000000
    2      -13.078828    -13.078818   1.000000   1.000000
    3      -12.976592    -12.976577   1.000000   1.000000
    4      -12.950763    -12.950758   1.000000   1.000000
    5      -12.615038    -12.615037   1.000000   1.000000
    6      -12.500834    -12.500837   1.000000   1.000000
    7      -12.455885    -12.455888   1.000000   1.000000
    8       -0.903716     -0.903731   1.000000   1.000000
    9       -0.782209     -0.782219   1.000000   1.000000
   10       -0.704361     -0.704371   1.000000   1.000000
   11       -0.522519     -0.522524   1.000000   1.000000
   12       -0.418903     -0.418906   1.000000   1.000000
   13        0.062170      0.062174   1.000000   1.000000
   14        0.399135      0.399133   1.000000   1.000000
   15        0.874063      0.874071   1.000000   1.000000
   16        1.099827      1.099838   1.000000   1.000000
   17        1.303259      1.303270   1.000000   1.000000
   18        1.407352      1.407366   1.000000   1.000000
   19        1.639532      1.639547   1.000000   1.000000
   20        1.672209      1.672234   1.000000   1.000000
   21        1.757053      1.757078   1.000000   1.000000
   22        1.946944      1.946963   1.000000   1.000000
   23        2.109523      2.109541   1.000000   1.000000
   24        2.295175      2.295205   1.000000   1.000000
   25        2.478514      2.478539   1.000000   1.000000
   26        2.698272      2.698307   1.000000   1.000000
   27        3.037692      3.037736   1.000000   1.000000
   28        3.119409      3.119455   1.000000   1.000000
   29        6.453367      6.453386   0.000000   0.000000
   30        9.347377      9.347404   0.000000   0.000000
   31       10.147887     10.147889   0.000000   0.000000
   32       10.422222     10.422222   0.000000   0.000000
   33       10.934956     10.934908   0.000000   0.000000
   34       11.404552     11.404534   0.000000   0.000000
   35       11.781968     11.781913   0.000000   0.000000
   36       12.296497     12.296458   0.000000   0.000000
   37       12.428576     12.428517   0.000000   0.000000
   38       12.649147     12.649097   0.000000   0.000000
   39       13.101616     13.101563   0.000000   0.000000
   40       13.477396     13.477330   0.000000   0.000000
   41       13.673552     13.673518   0.000000   0.000000
   42       14.359504     14.359442   0.000000   0.000000
   43       14.923907     14.923833   0.000000   0.000000
   44       15.131187     15.131117   0.000000   0.000000
   45       15.449144     15.449075   0.000000   0.000000
   46       15.946816     15.946743   0.000000   0.000000
   47       16.262641     16.262566   0.000000   0.000000
   48       16.513814     16.513722   0.000000   0.000000
 
  0.2500000E+00  0.0000000E+00  0.0000000E+00  0.6250000E-01
    1      -13.761022    -13.761020   1.000000   1.000000
    2      -13.076818    -13.076809   1.000000   1.000000
    3      -12.977864    -12.977848   1.000000   1.000000
    4      -12.951809    -12.951804   1.000000   1.000000
    5      -12.614702    -12.614701   1.000000   1.000000
    6      -12.500299    -12.500302   1.000000   1.000000
    7      -12.456308    -12.456311   1.000000   1.000000
    8       -0.902853     -0.902868   1.000000   1.000000
    9       -0.782457     -0.782468   1.000000   1.000000
   10       -0.706680     -0.706690   1.000000   1.000000
   11       -0.522517     -0.522522   1.000000   1.000000
   12       -0.418279     -0.418283   1.000000   1.000000
   13        0.064819      0.064824   1.000000   1.000000
   14        0.397464      0.397463   1.000000   1.000000
   15        0.875970      0.875979   1.000000   1.000000
   16        1.102655      1.102666   1.000000   1.000000
   17        1.300351      1.300361   1.000000   1.000000
   18        1.405578      1.405593   1.000000   1.000000
   19        1.635793      1.635807   1.000000   1.000000
   20        1.670602      1.670628   1.000000   1.000000
   21        1.757781      1.757805   1.000000   1.000000
   22        1.951029      1.951048   1.000000   1.000000
   23        2.111765      2.111783   1.000000   1.000000
   24        2.292192      2.292221   1.000000   1.000000
   25        2.480946      2.480971   1.000000   1.000000
   26        2.698778      2.698813   1.000000   1.000000
   27        3.037026      3.037069   1.000000   1.000000
   28        3.118176      3.118222   1.000000   1.000000
   29        6.454333      6.454352   0.000000   0.000000
   30        9.345745      9.345772   0.000000   0.000000
   31       10.136114     10.136116   0.000000   0.000000
   32       10.436587     10.436586   0.000000   0.000000
   33       10.934943     10.934894   0.000000   0.000000
   34       11.405130     11.405114   0.000000   0.000000
   35       11.787387     11.787331   0.000000   0.000000
   36       12.295587     12.295547   0.000000   0.000000
   37       12.430201     12.430144   0.000000   0.000000
   38       12.648788     12.648737   0.000000   0.000000
   39       13.092272     13.092218   0.000000   0.000000
   40       13.473214     13.473147   0.000000   0.000000
   41       13.670216     13.670184   0.000000   0.000000
   42       14.364065     14.364006   0.000000   0.000000
   43       14.923307     14.923235   0.000000   0.000000
   44       15.122960     15.122889   0.000000   0.000000
   45       15.455377     15.455307   0.000000   0.000000
   46       15.945691     15.945616   0.000000   0.000000
   47       16.259905     16.259830   0.000000   0.000000
   48       16.520281     16.520189   0.000000   0.000000
 
  0.0000000E+00  0.0000000E+00 -0.2500000E+00  0.6250000E-01
    1      -13.760852    -13.760850   1.000000   1.000000
    2      -13.078466    -13.078457   1.000000   1.000000
    3      -12.976603    -12.976587   1.000000   1.000000
    4      -12.951796    -12.951791   1.000000   1.000000
    5      -12.615915    -12.615914   1.000000   1.000000
    6      -12.495078    -12.495082   1.000000   1.000000
    7      -12.460047    -12.460049   1.000000   1.000000
    8       -0.903860     -0.903876   1.000000   1.000000
    9       -0.783575     -0.783585   1.000000   1.000000
   10       -0.705111     -0.705122   1.000000   1.000000
   11       -0.522944     -0.522948   1.000000   1.000000
   12       -0.420313     -0.420316   1.000000   1.000000
   13        0.065411      0.065415   1.000000   1.000000
   14        0.398946      0.398944   1.000000   1.000000
   15        0.873581      0.873590   1.000000   1.000000
   16        1.104333      1.104343   1.000000   1.000000
   17        1.294873      1.294883   1.000000   1.000000
   18        1.411200      1.411215   1.000000   1.000000
   19        1.637041      1.637056   1.000000   1.000000
   20        1.671742      1.671767   1.000000   1.000000
   21        1.757977      1.758002   1.000000   1.000000
   22        1.949171      1.949190   1.000000   1.000000
   23        2.112527      2.112546   1.000000   1.000000
   24        2.296652      2.296681   1.000000   1.000000
   25        2.476357      2.476382   1.000000   1.000000
   26        2.698665      2.698700   1.000000   1.000000
   27        3.039569      3.039612   1.000000   1.000000
   28        3.117587      3.117634   1.000000   1.000000
   29        6.454165      6.454184   0.000000   0.000000
   30        9.345311      9.345338   0.000000   0.000000
   31       10.140926     10.140929   0.000000   0.000000
   32       10.432168     10.432166   0.000000   0.000000
   33       10.931574     10.931526   0.000000   0.000000
   34       11.405818     11.405801   0.000000   0.000000
   35       11.781743     11.781688   0.000000   0.000000
   36       12.294244     12.294205   0.000000   0.000000
   37       12.425930     12.425871   0.000000   0.000000
   38       12.651167     12.651117   0.000000   0.000000
   39       13.102475     13.102422   0.000000   0.000000
   40       13.472058     13.471991   0.000000   0.000000
   41       13.669536     13.669503   0.000000   0.000000
   42       14.356075     14.356016   0.000000   0.000000
   43       14.927906     14.927832   0.000000   0.000000
   44       15.127052     15.126983   0.000000   0.000000
   45       15.456463     15.456394   0.000000   0.000000
   46       15.945933     15.945861   0.000000   0.000000
   47       16.269767     16.269691   0.000000   0.000000
   48       16.515946     16.515853   0.000000   0.000000
 
  0.0000000E+00  0.2500000E+00  0.0000000E+00  0.6250000E-01
    1      -13.765625    -13.765623   1.000000   1.000000
    2      -13.037207    -13.037187   1.000000   1.000000
    3      -13.000815    -13.000812   1.000000   1.000000
    4      -12.927368    -12.927363   1.000000   1.000000
    5      -12.709495    -12.709490   1.000000   1.000000
    6      -12.489254    -12.489259   1.000000   1.000000
    7      -12.406613    -12.406615   1.000000   1.000000
    8       -0.943843     -0.943859   1.000000   1.000000
    9       -0.857459     -0.857456   1.000000   1.000000
   10       -0.601880     -0.601893   1.000000   1.000000
   11       -0.531696     -0.531708   1.000000   1.000000
   12       -0.382482     -0.382488   1.000000   1.000000
   13       -0.086479     -0.086481   1.000000   1.000000
   14        0.422950      0.422952   1.000000   1.000000
   15        0.791876      0.791892   1.000000   1.000000
   16        0.961591      0.961598   1.000000   1.000000
   17        1.436195      1.436198   1.000000   1.000000
   18        1.457155      1.457184   1.000000   1.000000
   19        1.645470      1.645486   1.000000   1.000000
   20        1.689003      1.689011   1.000000   1.000000
   21        1.877400      1.877414   1.000000   1.000000
   22        1.962501      1.962535   1.000000   1.000000
   23        2.057127      2.057156   1.000000   1.000000
   24        2.302295      2.302316   1.000000   1.000000
   25        2.645306      2.645335   1.000000   1.000000
   26        2.736123      2.736156   1.000000   1.000000
   27        2.989423      2.989465   1.000000   1.000000
   28        3.099542      3.099588   1.000000   1.000000
   29        6.340705      6.340733   0.000000   0.000000
   30        9.798570      9.798616   0.000000   0.000000
   31       10.110718     10.110677   0.000000   0.000000
   32       10.566622     10.566633   0.000000   0.000000
   33       10.753145     10.753141   0.000000   0.000000
   34       11.371571     11.371542   0.000000   0.000000
   35       11.511763     11.511705   0.000000   0.000000
   36       12.029467     12.029406   0.000000   0.000000
   37       12.052936     12.052914   0.000000   0.000000
   38       12.903750     12.903679   0.000000   0.000000
   39       13.209245     13.209196   0.000000   0.000000
   40       13.588791     13.588694   0.000000   0.000000
   41       13.932012     13.931951   0.000000   0.000000
   42       14.354831     14.354767   0.000000   0.000000
   43       14.414574     14.414509   0.000000   0.000000
   44       15.314959     15.314868   0.000000   0.000000
   45       15.542864     15.542800   0.000000   0.000000
   46       15.745972     15.745902   0.000000   0.000000
   47       16.105226     16.105151   0.000000   0.000000
   48       16.607931     16.607836   0.000000   0.000000
 
 -0.2500000E+00  0.2500000E+00  0.2500000E+00  0.6250000E-01
    1      -13.514130    -13.514121   1.000000   1.000000
    2      -13.207722    -13.207720   1.000000   1.000000
    3      -13.071406    -13.071400   1.000000   1.000000
    4      -12.977748    -12.977737   1.000000   1.000000
    5      -12.673412    -12.673413   1.000000   1.000000
    6      -12.562056    -12.562058   1.000000   1.000000
    7      -12.381458    -12.381457   1.000000   1.000000
    8       -0.737980     -0.737993   1.000000   1.000000
    9       -0.596288     -0.596292   1.000000   1.000000
   10       -0.335872     -0.335875   1.000000   1.000000
   11       -0.290878     -0.290882   1.000000   1.000000
   12       -0.012099     -0.012100   1.000000   1.000000
   13        0.331705      0.331705   1.000000   1.000000
   14        0.506277      0.506277   1.000000   1.000000
   15        0.622321      0.622330   1.000000   1.000000
   16        0.778500      0.778504   1.000000   1.000000
   17        1.150030      1.150038   1.000000   1.000000
   18        1.232422      1.232428   1.000000   1.000000
   19        1.397178      1.397193   1.000000   1.000000
   20        1.457193      1.457205   1.000000   1.000000
   21        1.632905      1.632925   1.000000   1.000000
   22        1.669605      1.669621   1.000000   1.000000
   23        2.014741      2.014764   1.000000   1.000000
   24        2.107467      2.107489   1.000000   1.000000
   25        2.264490      2.264513   1.000000   1.000000
   26        2.628537      2.628576   1.000000   1.000000
   27        2.946089      2.946134   1.000000   1.000000
   28        3.061336      3.061382   1.000000   1.000000
   29        7.723607      7.723663   0.000000   0.000000
   30        8.831353      8.831356   0.000000   0.000000
   31        9.467791      9.467787   0.000000   0.000000
   32       10.620352     10.620342   0.000000   0.000000
   33       11.031434     11.031448   0.000000   0.000000
   34       11.429921     11.429898   0.000000   0.000000
   35       11.690786     11.690732   0.000000   0.000000
   36       12.127086     12.127074   0.000000   0.000000
   37       12.688229     12.688180   0.000000   0.000000
   38       13.045834     13.045772   0.000000   0.000000
   39       13.222540     13.222489   0.000000   0.000000
   40       13.553336     13.553269   0.000000   0.000000
   41       14.013003     14.012936   0.000000   0.000000
   42       14.339810     14.339753   0.000000   0.000000
   43       15.056428     15.056374   0.000000   0.000000
   44       15.193477     15.193399   0.000000   0.000000
   45       15.719908     15.719805   0.000000   0.000000
   46       16.020133     16.020042   0.000000   0.000000
   47       16.314728     16.314636   0.000000   0.000000
   48       16.433313     16.433219   0.000000   0.000000
 
  0.2500000E+00 -0.2500000E+00  0.2500000E+00  0.6250000E-01
    1      -13.534878    -13.534870   1.000000   1.000000
    2      -13.135383    -13.135371   1.000000   1.000000
    3      -13.048222    -13.048220   1.000000   1.000000
    4      -13.022543    -13.022540   1.000000   1.000000
    5      -12.774625    -12.774621   1.000000   1.000000
    6      -12.492658    -12.492660   1.000000   1.000000
    7      -12.377107    -12.377107   1.000000   1.000000
    8       -0.823426     -0.823424   1.000000   1.000000
    9       -0.569898     -0.569907   1.000000   1.000000
   10       -0.461807     -0.461817   1.000000   1.000000
   11       -0.207769     -0.207780   1.000000   1.000000
   12       -0.037111     -0.037112   1.000000   1.000000
   13        0.317984      0.317984   1.000000   1.000000
   14        0.510654      0.510658   1.000000   1.000000
   15        0.746926      0.746936   1.000000   1.000000
   16        0.806321      0.806327   1.000000   1.000000
   17        0.988954      0.988960   1.000000   1.000000
   18        1.175999      1.176004   1.000000   1.000000
   19        1.457567      1.457581   1.000000   1.000000
   20        1.513938      1.513955   1.000000   1.000000
   21        1.613261      1.613273   1.000000   1.000000
   22        1.677397      1.677416   1.000000   1.000000
   23        1.964530      1.964556   1.000000   1.000000
   24        2.200052      2.200071   1.000000   1.000000
   25        2.407916      2.407942   1.000000   1.000000
   26        2.737159      2.737201   1.000000   1.000000
   27        2.878154      2.878197   1.000000   1.000000
   28        2.988398      2.988443   1.000000   1.000000
   29        7.526871      7.526924   0.000000   0.000000
   30        9.547283      9.547323   0.000000   0.000000
   31        9.883813      9.883806   0.000000   0.000000
   32       10.132571     10.132543   0.000000   0.000000
   33       10.649622     10.649626   0.000000   0.000000
   34       11.110518     11.110500   0.000000   0.000000
   35       11.571686     11.571655   0.000000   0.000000
   36       12.225150     12.225105   0.000000   0.000000
   37       12.613114     12.613069   0.000000   0.000000
   38       12.944912     12.944874   0.000000   0.000000
   39       13.198011     13.197943   0.000000   0.000000
   40       13.855814     13.855712   0.000000   0.000000
   41       14.152014     14.151951   0.000000   0.000000
   42       14.537065     14.537006   0.000000   0.000000
   43       14.849493     14.849428   0.000000   0.000000
   44       14.990331     14.990246   0.000000   0.000000
   45       15.557289     15.557197   0.000000   0.000000
   46       15.857101     15.857010   0.000000   0.000000
   47       16.347906     16.347809   0.000000   0.000000
   48       16.531171     16.531087   0.000000   0.000000
 
  0.2500000E+00  0.2500000E+00 -0.2500000E+00  0.6250000E-01
    1      -13.514551    -13.514542   1.000000   1.000000
    2      -13.204540    -13.204538   1.000000   1.000000
    3      -13.070090    -13.070083   1.000000   1.000000
    4      -12.984780    -12.984770   1.000000   1.000000
    5      -12.670936    -12.670937   1.000000   1.000000
    6      -12.560136    -12.560137   1.000000   1.000000
    7      -12.382866    -12.382866   1.000000   1.000000
    8       -0.740023     -0.740036   1.000000   1.000000
    9       -0.568296     -0.568298   1.000000   1.000000
   10       -0.371588     -0.371595   1.000000   1.000000
   11       -0.301832     -0.301834   1.000000   1.000000
   12        0.046943      0.046942   1.000000   1.000000
   13        0.287826      0.287827   1.000000   1.000000
   14        0.409548      0.409548   1.000000   1.000000
   15        0.647871      0.647877   1.000000   1.000000
   16        0.869170      0.869181   1.000000   1.000000
   17        1.167461      1.167470   1.000000   1.000000
   18        1.227911      1.227915   1.000000   1.000000
   19        1.358857      1.358866   1.000000   1.000000
   20        1.524740      1.524755   1.000000   1.000000
   21        1.591868      1.591885   1.000000   1.000000
   22        1.695574      1.695594   1.000000   1.000000
   23        1.945595      1.945619   1.000000   1.000000
   24        2.092199      2.092216   1.000000   1.000000
   25        2.279651      2.279677   1.000000   1.000000
   26        2.674711      2.674752   1.000000   1.000000
   27        2.934870      2.934915   1.000000   1.000000
   28        3.058905      3.058950   1.000000   1.000000
   29        7.720353      7.720411   0.000000   0.000000
   30        8.852115      8.852115   0.000000   0.000000
   31        9.477948      9.477938   0.000000   0.000000
   32       10.521744     10.521763   0.000000   0.000000
   33       10.958906     10.958885   0.000000   0.000000
   34       11.370946     11.370933   0.000000   0.000000
   35       11.894671     11.894624   0.000000   0.000000
   36       12.293156     12.293132   0.000000   0.000000
   37       12.579460     12.579432   0.000000   0.000000
   38       12.946713     12.946652   0.000000   0.000000
   39       13.321337     13.321262   0.000000   0.000000
   40       13.523232     13.523174   0.000000   0.000000
   41       14.062119     14.062071   0.000000   0.000000
   42       14.403229     14.403163   0.000000   0.000000
   43       14.791996     14.791927   0.000000   0.000000
   44       15.240915     15.240832   0.000000   0.000000
   45       15.664299     15.664225   0.000000   0.000000
   46       15.981816     15.981720   0.000000   0.000000
   47       16.456411     16.456322   0.000000   0.000000
   48       16.541949     16.541842   0.000000   0.000000
 
  0.2500000E+00  0.0000000E+00  0.5000000E+00  0.6250000E-01
    1      -13.513355    -13.513346   1.000000   1.000000
    2      -13.211113    -13.211111   1.000000   1.000000
    3      -13.070229    -13.070223   1.000000   1.000000
    4      -12.976003    -12.975992   1.000000   1.000000
    5      -12.671350    -12.671351   1.000000   1.000000
    6      -12.565955    -12.565956   1.000000   1.000000
    7      -12.379797    -12.379797   1.000000   1.000000
    8       -0.738443     -0.738456   1.000000   1.000000
    9       -0.598222     -0.598226   1.000000   1.000000
   10       -0.337530     -0.337533   1.000000   1.000000
   11       -0.290343     -0.290348   1.000000   1.000000
   12       -0.012772     -0.012774   1.000000   1.000000
   13        0.328155      0.328156   1.000000   1.000000
   14        0.510403      0.510404   1.000000   1.000000
   15        0.622263      0.622272   1.000000   1.000000
   16        0.778089      0.778092   1.000000   1.000000
   17        1.151736      1.151744   1.000000   1.000000
   18        1.228625      1.228632   1.000000   1.000000
   19        1.398121      1.398135   1.000000   1.000000
   20        1.458307      1.458320   1.000000   1.000000
   21        1.636721      1.636741   1.000000   1.000000
   22        1.667344      1.667359   1.000000   1.000000
   23        2.012973      2.012995   1.000000   1.000000
   24        2.112643      2.112665   1.000000   1.000000
   25        2.265737      2.265760   1.000000   1.000000
   26        2.629364      2.629403   1.000000   1.000000
   27        2.947491      2.947536   1.000000   1.000000
   28        3.059985      3.060032   1.000000   1.000000
   29        7.719190      7.719246   0.000000   0.000000
   30        8.845478      8.845481   0.000000   0.000000
   31        9.455120      9.455118   0.000000   0.000000
   32       10.619716     10.619706   0.000000   0.000000
   33       11.037123     11.037138   0.000000   0.000000
   34       11.426429     11.426407   0.000000   0.000000
   35       11.683224     11.683170   0.000000   0.000000
   36       12.124579     12.124564   0.000000   0.000000
   37       12.688617     12.688570   0.000000   0.000000
   38       13.049950     13.049888   0.000000   0.000000
   39       13.220432     13.220382   0.000000   0.000000
   40       13.548061     13.547992   0.000000   0.000000
   41       14.018686     14.018618   0.000000   0.000000
   42       14.332556     14.332499   0.000000   0.000000
   43       15.057955     15.057903   0.000000   0.000000
   44       15.195760     15.195683   0.000000   0.000000
   45       15.723641     15.723536   0.000000   0.000000
   46       16.019971     16.019879   0.000000   0.000000
   47       16.312586     16.312489   0.000000   0.000000
   48       16.435893     16.435802   0.000000   0.000000
 
 -0.2500000E+00  0.5000000E+00  0.5000000E+00  0.6250000E-01
    1      -13.514420    -13.514411   1.000000   1.000000
    2      -13.205616    -13.205614   1.000000   1.000000
    3      -13.065588    -13.065582   1.000000   1.000000
    4      -12.988727    -12.988717   1.000000   1.000000
    5      -12.672373    -12.672374   1.000000   1.000000
    6      -12.556550    -12.556552   1.000000   1.000000
    7      -12.384686    -12.384685   1.000000   1.000000
    8       -0.739800     -0.739814   1.000000   1.000000
    9       -0.568010     -0.568012   1.000000   1.000000
   10       -0.371721     -0.371728   1.000000   1.000000
   11       -0.297940     -0.297941   1.000000   1.000000
   12        0.046972      0.046971   1.000000   1.000000
   13        0.289846      0.289847   1.000000   1.000000
   14        0.408163      0.408163   1.000000   1.000000
   15        0.649037      0.649043   1.000000   1.000000
   16        0.865740      0.865750   1.000000   1.000000
   17        1.170134      1.170143   1.000000   1.000000
   18        1.224503      1.224506   1.000000   1.000000
   19        1.362050      1.362059   1.000000   1.000000
   20        1.523976      1.523991   1.000000   1.000000
   21        1.588874      1.588891   1.000000   1.000000
   22        1.693224      1.693243   1.000000   1.000000
   23        1.947212      1.947237   1.000000   1.000000
   24        2.089030      2.089048   1.000000   1.000000
   25        2.281328      2.281353   1.000000   1.000000
   26        2.672291      2.672331   1.000000   1.000000
   27        2.935523      2.935568   1.000000   1.000000
   28        3.058873      3.058918   1.000000   1.000000
   29        7.719359      7.719417   0.000000   0.000000
   30        8.855214      8.855212   0.000000   0.000000
   31        9.481323      9.481316   0.000000   0.000000
   32       10.516537     10.516555   0.000000   0.000000
   33       10.956541     10.956521   0.000000   0.000000
   34       11.376281     11.376267   0.000000   0.000000
   35       11.893716     11.893667   0.000000   0.000000
   36       12.289214     12.289188   0.000000   0.000000
   37       12.578064     12.578037   0.000000   0.000000
   38       12.952243     12.952183   0.000000   0.000000
   39       13.324306     13.324233   0.000000   0.000000
   40       13.527425     13.527367   0.000000   0.000000
   41       14.068057     14.068008   0.000000   0.000000
   42       14.411652     14.411585   0.000000   0.000000
   43       14.790070     14.790003   0.000000   0.000000
   44       15.248042     15.247959   0.000000   0.000000
   45       15.660456     15.660380   0.000000   0.000000
   46       15.968338     15.968242   0.000000   0.000000
   47       16.448543     16.448456   0.000000   0.000000
   48       16.539783     16.539675   0.000000   0.000000
 
  0.2500000E+00  0.5000000E+00  0.0000000E+00  0.6250000E-01
    1      -13.534999    -13.534991   1.000000   1.000000
    2      -13.135725    -13.135714   1.000000   1.000000
    3      -13.043038    -13.043036   1.000000   1.000000
    4      -13.026942    -13.026938   1.000000   1.000000
    5      -12.774910    -12.774905   1.000000   1.000000
    6      -12.492969    -12.492971   1.000000   1.000000
    7      -12.376832    -12.376832   1.000000   1.000000
    8       -0.821155     -0.821153   1.000000   1.000000
    9       -0.572178     -0.572188   1.000000   1.000000
   10       -0.462168     -0.462179   1.000000   1.000000
   11       -0.208851     -0.208862   1.000000   1.000000
   12       -0.034632     -0.034633   1.000000   1.000000
   13        0.317891      0.317891   1.000000   1.000000
   14        0.511390      0.511393   1.000000   1.000000
   15        0.745347      0.745356   1.000000   1.000000
   16        0.806138      0.806143   1.000000   1.000000
   17        0.987998      0.988004   1.000000   1.000000
   18        1.175185      1.175190   1.000000   1.000000
   19        1.458905      1.458919   1.000000   1.000000
   20        1.518798      1.518815   1.000000   1.000000
   21        1.609059      1.609071   1.000000   1.000000
   22        1.678336      1.678356   1.000000   1.000000
   23        1.965361      1.965387   1.000000   1.000000
   24        2.200885      2.200903   1.000000   1.000000
   25        2.402511      2.402537   1.000000   1.000000
   26        2.737037      2.737079   1.000000   1.000000
   27        2.880337      2.880379   1.000000   1.000000
   28        2.988624      2.988669   1.000000   1.000000
   29        7.527702      7.527755   0.000000   0.000000
   30        9.546151      9.546191   0.000000   0.000000
   31        9.876638      9.876628   0.000000   0.000000
   32       10.125855     10.125827   0.000000   0.000000
   33       10.665867     10.665869   0.000000   0.000000
   34       11.110283     11.110266   0.000000   0.000000
   35       11.569541     11.569510   0.000000   0.000000
   36       12.234277     12.234236   0.000000   0.000000
   37       12.611759     12.611712   0.000000   0.000000
   38       12.943547     12.943509   0.000000   0.000000
   39       13.197078     13.197008   0.000000   0.000000
   40       13.856585     13.856486   0.000000   0.000000
   41       14.155707     14.155645   0.000000   0.000000
   42       14.535280     14.535220   0.000000   0.000000
   43       14.839519     14.839451   0.000000   0.000000
   44       14.987390     14.987306   0.000000   0.000000
   45       15.565519     15.565428   0.000000   0.000000
   46       15.852994     15.852902   0.000000   0.000000
   47       16.346708     16.346611   0.000000   0.000000
   48       16.529551     16.529465   0.000000   0.000000
 
  0.0000000E+00  0.5000000E+00 -0.2500000E+00  0.6250000E-01
    1      -13.534860    -13.534852   1.000000   1.000000
    2      -13.133303    -13.133291   1.000000   1.000000
    3      -13.047696    -13.047694   1.000000   1.000000
    4      -13.025863    -13.025860   1.000000   1.000000
    5      -12.774842    -12.774838   1.000000   1.000000
    6      -12.489295    -12.489298   1.000000   1.000000
    7      -12.379578    -12.379578   1.000000   1.000000
    8       -0.822469     -0.822466   1.000000   1.000000
    9       -0.570976     -0.570985   1.000000   1.000000
   10       -0.459634     -0.459644   1.000000   1.000000
   11       -0.209822     -0.209833   1.000000   1.000000
   12       -0.037237     -0.037238   1.000000   1.000000
   13        0.320415      0.320416   1.000000   1.000000
   14        0.510966      0.510969   1.000000   1.000000
   15        0.745825      0.745834   1.000000   1.000000
   16        0.806186      0.806191   1.000000   1.000000
   17        0.989291      0.989297   1.000000   1.000000
   18        1.176430      1.176436   1.000000   1.000000
   19        1.457878      1.457892   1.000000   1.000000
   20        1.517423      1.517440   1.000000   1.000000
   21        1.611211      1.611223   1.000000   1.000000