 vasp.5.4.1 05Feb16 (build Mar 31 2016 13:39:20) complex                        
  
 executed on           IFC91_ompi date 2018.04.28  13:03:09
 running on   16 total cores
 distrk:  each k-point on   16 cores,    1 groups
 distr:  one band on NCORES_PER_BAND=   4 cores,    4 groups


--------------------------------------------------------------------------------------------------------


 INCAR:
 POTCAR:    PAW_PBE Mg 13Apr2007                  
 POTCAR:    PAW_PBE O 08Apr2002                   
 POTCAR:    PAW_PBE Mg 13Apr2007                  
   VRHFIN =Mg: s2p0                                                             
   LEXCH  = PE                                                                  
   EATOM  =    23.0369 eV,    1.6932 Ry                                         
                                                                                
   TITEL  = PAW_PBE Mg 13Apr2007                                                
   LULTRA =        F    use ultrasoft PP ?                                      
   IUNSCR =        1    unscreen: 0-lin 1-nonlin 2-no                           
   RPACOR =    1.500    partial core radius                                     
   POMASS =   24.305; ZVAL   =    2.000    mass and valenz                      
   RCORE  =    2.000    outmost cutoff radius                                   
   RWIGS  =    2.880; RWIGS  =    1.524    wigner-seitz radius (au A)           
   ENMAX  =  126.143; ENMIN  =   94.607 eV                                      
   RCLOC  =    1.506    cutoff for local pot                                    
   LCOR   =        T    correct aug charges                                     
   LPAW   =        T    paw PP                                                  
   EAUG   =  454.734                                                            
   DEXC   =    0.000                                                            
   RMAX   =    2.045    core radius for proj-oper                               
   RAUG   =    1.300    factor for augmentation sphere                          
   RDEP   =    2.025    radius for radial grids                                 
   RDEPT  =    1.942    core radius for aug-charge                              
                                                                                
   Atomic configuration                                                         
    6 entries                                                                   
     n  l   j            E        occ.                                          
     1  0  0.50     -1259.6230   2.0000                                         
     2  0  0.50       -79.8442   2.0000                                         
     2  1  1.50       -46.6121   6.0000                                         
     3  0  0.50        -4.7055   2.0000                                         
     3  1  0.50        -1.3660   0.0000                                         
     3  2  1.50        -1.3606   0.0000                                         
   Description                                                                  
     l       E           TYP  RCUT    TYP  RCUT                                 
     0     -4.7054661     23  2.000                                             
     0     27.2116520     23  2.000                                             
     1      1.3605826     23  2.000                                             
     1     27.2116520     23  2.000                                             
     2     -1.3605826     23  2.000                                             
  local pseudopotential read in
  partial core-charges read in
  partial kinetic energy density read in
  atomic valenz-charges read in
  non local Contribution for L=           0  read in
    real space projection operators read in
  non local Contribution for L=           0  read in
    real space projection operators read in
  non local Contribution for L=           1  read in
    real space projection operators read in
  non local Contribution for L=           1  read in
    real space projection operators read in
  non local Contribution for L=           2  read in
    real space projection operators read in
    PAW grid and wavefunctions read in
 
   number of l-projection  operators is LMAX  =           5
   number of lm-projection operators is LMMAX =          13
 
 POTCAR:    PAW_PBE O 08Apr2002                   
   VRHFIN =O: s2p4                                                              
   LEXCH  = PE                                                                  
   EATOM  =   432.3788 eV,   31.7789 Ry                                         
                                                                                
   TITEL  = PAW_PBE O 08Apr2002                                                 
   LULTRA =        F    use ultrasoft PP ?                                      
   IUNSCR =        1    unscreen: 0-lin 1-nonlin 2-no                           
   RPACOR =    1.200    partial core radius                                     
   POMASS =   16.000; ZVAL   =    6.000    mass and valenz                      
   RCORE  =    1.520    outmost cutoff radius                                   
   RWIGS  =    1.550; RWIGS  =    0.820    wigner-seitz radius (au A)           
   ENMAX  =  400.000; ENMIN  =  300.000 eV                                      
   ICORE  =        2    local potential                                         
   LCOR   =        T    correct aug charges                                     
   LPAW   =        T    paw PP                                                  
   EAUG   =  605.392                                                            
   DEXC   =    0.000                                                            
   RMAX   =    1.553    core radius for proj-oper                               
   RAUG   =    1.300    factor for augmentation sphere                          
   RDEP   =    1.550    radius for radial grids                                 
   RDEPT  =    1.329    core radius for aug-charge                              
                                                                                
   Atomic configuration                                                         
    4 entries                                                                   
     n  l   j            E        occ.                                          
     1  0  0.50      -514.6923   2.0000                                         
     2  0  0.50       -23.9615   2.0000                                         
     2  1  0.50        -9.0305   4.0000                                         
     3  2  1.50        -9.5241   0.0000                                         
   Description                                                                  
     l       E           TYP  RCUT    TYP  RCUT                                 
     0    -23.9615318     23  1.200                                             
     0     -9.5240782     23  1.200                                             
     1     -9.0304911     23  1.520                                             
     1      8.1634956     23  1.520                                             
     2     -9.5240782      7  1.500                                             
  local pseudopotential read in
  partial core-charges read in
  partial kinetic energy density read in
  kinetic energy density of atom read in
  atomic valenz-charges read in
  non local Contribution for L=           0  read in
    real space projection operators read in
  non local Contribution for L=           0  read in
    real space projection operators read in
  non local Contribution for L=           1  read in
    real space projection operators read in
  non local Contribution for L=           1  read in
    real space projection operators read in
    PAW grid and wavefunctions read in
 
   number of l-projection  operators is LMAX  =           4
   number of lm-projection operators is LMMAX =           8
 
 Optimization of the real space projectors (new method)

 maximal supplied QI-value         = 18.90
 optimisation between [QCUT,QGAM] = [ 10.20, 20.41] = [ 29.16,116.64] Ry 
 Optimized for a Real-space Cutoff    1.30 Angstroem

   l    n(q)    QCUT    max X(q) W(low)/X(q) W(high)/X(q)  e(spline) 
   0      8    10.205    28.265    0.22E-03    0.17E-03    0.53E-07
   0      8    10.205    10.429    0.17E-03    0.15E-03    0.43E-07
   1      7    10.205    13.073    0.71E-04    0.41E-03    0.76E-07
   1      7    10.205     9.625    0.71E-04    0.33E-03    0.63E-07
   2      7    10.205     4.652    0.24E-03    0.41E-03    0.55E-07
 Optimization of the real space projectors (new method)

 maximal supplied QI-value         = 24.76
 optimisation between [QCUT,QGAM] = [ 10.15, 20.30] = [ 28.85,115.39] Ry 
 Optimized for a Real-space Cutoff    1.38 Angstroem

   l    n(q)    QCUT    max X(q) W(low)/X(q) W(high)/X(q)  e(spline) 
   0      8    10.150    20.381    0.22E-03    0.32E-03    0.29E-06
   0      8    10.150    15.268    0.23E-03    0.35E-03    0.30E-06
   1      8    10.150     5.964    0.46E-03    0.53E-03    0.21E-06
   1      8    10.150     5.382    0.38E-03    0.45E-03    0.19E-06
  PAW_PBE Mg 13Apr2007                  :
 energy of atom  1       EATOM=  -23.0369
 kinetic energy error for atom=    0.0001 (will be added to EATOM!!)
  PAW_PBE O 08Apr2002                   :
 energy of atom  2       EATOM= -432.3788
 kinetic energy error for atom=    0.1156 (will be added to EATOM!!)
 
 
 POSCAR: Mg9 O7                                  
  positions in direct lattice
  velocities in cartesian coordinates
 exchange correlation table for  LEXCH =        8
   RHO(1)=    0.500       N(1)  =     2000
   RHO(2)=  100.500       N(2)  =     4000
 


--------------------------------------------------------------------------------------------------------


 ion  position               nearest neighbor table
   1  0.169  0.494  0.170-  11 2.11  15 2.12  12 2.12   8 2.30   4 2.30   5 2.30  14 2.38  13 2.38
                            10 2.38   2 2.43   7 3.25   3 3.25   6 3.25   9 3.47   9 3.47   9 3.47
   2  0.004  0.989  0.005-  12 2.09  11 2.09  15 2.09  10 2.37  14 2.37  13 2.37   1 2.43   5 2.75
                             8 2.75   4 2.75   3 2.80   6 2.80   7 2.80   7 3.23   6 3.23   3 3.23
   3  0.017  0.937  0.488-  13 1.90  16 1.97  11 2.00  12 2.01   4 2.55   2 2.80   9 2.81   6 2.99
                             7 2.99   5 3.06   7 3.06   6 3.06   5 3.18   9 3.22   2 3.23   1 3.25
   4  0.072  0.470  0.859-  12 1.93  13 1.94  10 1.95  16 1.96   1 2.30   9 2.41   5 2.46   8 2.46
                             3 2.55   2 2.75   6 3.06   6 3.18   2 3.43   3 3.51   7 3.60
   5  0.858  0.470  0.602-  15 1.93  10 1.94  14 1.95  16 1.95   1 2.30   9 2.41   8 2.45   4 2.46
                             7 2.55   2 2.75   3 3.06   3 3.18   2 3.43   7 3.51   6 3.60
   6  0.560  0.937  0.018-  14 1.90  16 1.97  15 2.00  11 2.01   8 2.55   2 2.80   9 2.81   3 2.99
                             7 2.99   4 3.06   3 3.06   7 3.06   4 3.18   9 3.22   2 3.23   1 3.25
   7  0.487  0.937  0.561-  10 1.90  16 1.97  12 2.00  15 2.01   5 2.55   2 2.80   9 2.81   6 2.99
                             3 2.99   8 3.06   3 3.06   6 3.06   8 3.18   9 3.22   2 3.23   1 3.25
   8  0.601  0.470  0.073-  11 1.93  14 1.94  13 1.95  16 1.95   1 2.30   9 2.41   5 2.45   4 2.46
                             6 2.55   2 2.75   7 3.06   7 3.18   2 3.43   6 3.51   3 3.60
   9  0.503  0.492  0.504-  15 2.17  11 2.17  12 2.17  13 2.24  14 2.24  10 2.24   5 2.41   4 2.41
                             8 2.41   7 2.81   6 2.81   3 2.81   3 3.22   6 3.22   7 3.22   1 3.47
  10  0.230  0.279  0.603-   7 1.90   5 1.94   4 1.95   9 2.24   2 2.37   1 2.38
  11  0.284  0.746  0.214-   8 1.93   3 2.00   6 2.01   2 2.09   1 2.11   9 2.17
  12  0.213  0.747  0.758-   4 1.93   7 2.00   3 2.01   2 2.09   1 2.12   9 2.17
  13  0.889  0.280  0.232-   3 1.90   4 1.94   8 1.95   9 2.24   2 2.37   1 2.38
  14  0.601  0.279  0.891-   6 1.90   8 1.94   5 1.95   9 2.24   2 2.37   1 2.38
  15  0.757  0.746  0.286-   5 1.93   6 2.00   7 2.01   2 2.09   1 2.12   9 2.17
  16  0.752  0.744  0.753-   5 1.95   8 1.95   4 1.96   6 1.97   3 1.97   7 1.97
 
  LATTYP: Found a face centered cubic cell.
 ALAT       =     8.4937860000
  
  Lattice vectors:
  
 A1 = (   0.0000000000,   4.2468930000,   4.2468930000)
 A2 = (   4.2468930000,   0.0000000000,   4.2468930000)
 A3 = (   4.2468930000,   4.2468930000,   0.0000000000)


Analysis of symmetry for initial positions (statically):
=====================================================================
 Subroutine PRICEL returns:
 Original cell was already a primitive cell.
 

 Routine SETGRP: Setting up the symmetry group for a 
 face centered cubic supercell.


 Subroutine GETGRP returns: Found  1 space group operations
 (whereof  1 operations were pure point group operations)
 out of a pool of 48 trial point group operations.


The static configuration has the point symmetry C_1 .


Analysis of symmetry for dynamics (positions and initial velocities):
=====================================================================
 Subroutine PRICEL returns:
 Original cell was already a primitive cell.
 

 Routine SETGRP: Setting up the symmetry group for a 
 face centered cubic supercell.


 Subroutine GETGRP returns: Found  1 space group operations
 (whereof  1 operations were pure point group operations)
 out of a pool of 48 trial point group operations.


The dynamic configuration has the point symmetry C_1 .


Analysis of structural, dynamic, and magnetic symmetry:
=====================================================================
 Subroutine PRICEL returns:
 Original cell was already a primitive cell.
 

 Routine SETGRP: Setting up the symmetry group for a 
 face centered cubic supercell.


 Subroutine GETGRP returns: Found  1 space group operations
 (whereof  1 operations were pure point group operations)
 out of a pool of 48 trial point group operations.


The magnetic configuration has the point symmetry C_1 .


 Subroutine INISYM returns: Found  1 space group operations
 (whereof  1 operations are pure point group operations),
 and found     1 'primitive' translations

 
 
 KPOINTS: k-point mesh                            

Automatic generation of k-mesh.
Space group operators:
 irot       det(A)        alpha          n_x          n_y          n_z        tau_x        tau_y        tau_z
    1     1.000000     0.000000     1.000000     0.000000     0.000000     0.000000     0.000000     0.000000
 
 Subroutine IBZKPT returns following result:
 ===========================================
 
 Found      8 irreducible k-points:
 
 Following reciprocal coordinates:
            Coordinates               Weight
  0.000000  0.000000  0.000000      1.000000
  0.500000  0.000000  0.000000      1.000000
  0.000000  0.500000  0.000000      1.000000
  0.500000  0.500000  0.000000      1.000000
  0.000000  0.000000  0.500000      1.000000
  0.500000  0.000000  0.500000      1.000000
  0.000000  0.500000  0.500000      1.000000
  0.500000  0.500000  0.500000      1.000000
 
 Following cartesian coordinates:
            Coordinates               Weight
  0.000000  0.000000  0.000000      1.000000
 -0.058867  0.058867  0.058867      1.000000
  0.058867 -0.058867  0.058867      1.000000
  0.000000  0.000000  0.117733      1.000000
  0.058867  0.058867 -0.058867      1.000000
  0.000000  0.117733  0.000000      1.000000
  0.117733  0.000000  0.000000      1.000000
  0.058867  0.058867  0.058867      1.000000
 


--------------------------------------------------------------------------------------------------------




 Dimension of arrays:
   k-points           NKPTS =      8   k-points in BZ     NKDIM =      8   number of bands    NBANDS=     48
   number of dos      NEDOS =    301   number of ions     NIONS =     16
   non local maximal  LDIM  =      5   non local SUM 2l+1 LMDIM =     13
   total plane-waves  NPLWV =  27000
   max r-space proj   IRMAX =   1992   max aug-charges    IRDMAX=   7686
   dimension x,y,z NGX =    30 NGY =   30 NGZ =   30
   dimension x,y,z NGXF=    60 NGYF=   60 NGZF=   60
   support grid    NGXF=    60 NGYF=   60 NGZF=   60
   ions per type =               9   7
 NGX,Y,Z   is equivalent  to a cutoff of   8.30,  8.30,  8.30 a.u.
 NGXF,Y,Z  is equivalent  to a cutoff of  16.61, 16.61, 16.61 a.u.


 I would recommend the setting:
   dimension x,y,z NGX =    29 NGY =   29 NGZ =   29
 SYSTEM =  unknown system                          
 POSCAR =  Mg9 O7                                  

 Startparameter for this run:
   NWRITE =      2    write-flag & timer
   PREC   = n         normal or accurate (medium, high low for compatibility)
   ISTART =      0    job   : 0-new  1-cont  2-samecut
   ICHARG =      2    charge: 1-file 2-atom 10-const
   ISPIN  =      2    spin polarized calculation?
   LNONCOLLINEAR =      F non collinear calculations
   LSORBIT =      F    spin-orbit coupling
   INIWAV =      1    electr: 0-lowe 1-rand  2-diag
   LASPH  =      T    aspherical Exc in radial PAW
   METAGGA=      F    non-selfconsistent MetaGGA calc.

 Electronic Relaxation 1
   ENCUT  =  400.0 eV  29.40 Ry    5.42 a.u.   9.79  9.79  9.79*2*pi/ulx,y,z
   ENINI  =  400.0     initial cutoff
   ENAUG  =  605.4 eV  augmentation charge cutoff
   NELM   =    100;   NELMIN=  4; NELMDL=  0     # of ELM steps 
   EDIFF  = 0.1E-05   stopping-criterion for ELM
   LREAL  =      T    real-space projection
   NLSPLINE    = F    spline interpolate recip. space projectors
   LCOMPAT=      F    compatible to vasp.4.4
   GGA_COMPAT  = T    GGA compatible to vasp.4.4-vasp.4.6
   LMAXPAW     = -100 max onsite density
   LMAXMIX     =    2 max onsite mixed and CHGCAR
   VOSKOWN=      0    Vosko Wilk Nusair interpolation
   ROPT   =   -0.00050  -0.00050
 Ionic relaxation
   EDIFFG = -.5E-01   stopping-criterion for IOM
   NSW    =     20    number of steps for IOM
   NBLOCK =      1;   KBLOCK =     20    inner block; outer block 
   IBRION =      2    ionic relax: 0-MD 1-quasi-New 2-CG
   NFREE  =      1    steps in history (QN), initial steepest desc. (CG)
   ISIF   =      2    stress and relaxation
   IWAVPR =     11    prediction:  0-non 1-charg 2-wave 3-comb
   ISYM   =      2    0-nonsym 1-usesym 2-fastsym
   LCORR  =      T    Harris-Foulkes like correction to forces

   POTIM  = 0.5000    time-step for ionic-motion
   TEIN   =    0.0    initial temperature
   TEBEG  =    0.0;   TEEND  =   0.0 temperature during run
   SMASS  =  -3.00    Nose mass-parameter (am)
   estimated Nose-frequenzy (Omega)   =  0.10E-29 period in steps =****** mass=  -0.824E-27a.u.
   SCALEE = 1.0000    scale energy and forces
   NPACO  =    256;   APACO  = 16.0  distance and # of slots for P.C.
   PSTRESS=    0.0 pullay stress

  Mass of Ions in am
   POMASS =  24.30 16.00
  Ionic Valenz
   ZVAL   =   2.00  6.00
  Atomic Wigner-Seitz radii
   RWIGS  =  -1.00 -1.00
  virtual crystal weights 
   VCA    =   1.00  1.00
   NELECT =      56.0000    total number of electrons
   NUPDOWN=      -1.0000    fix difference up-down

 DOS related values:
   EMIN   =  10.00;   EMAX   =-10.00  energy-range for DOS
   EFERMI =   0.00
   ISMEAR =     0;   SIGMA  =   0.05  broadening in eV -4-tet -1-fermi 0-gaus

 Electronic relaxation 2 (details)
   IALGO  =     38    algorithm
   LDIAG  =      T    sub-space diagonalisation (order eigenvalues)
   LSUBROT=      F    optimize rotation matrix (better conditioning)
   TURBO    =      0    0=normal 1=particle mesh
   IRESTART =      0    0=no restart 2=restart with 2 vectors
   NREBOOT  =      0    no. of reboots
   NMIN     =      0    reboot dimension
   EREF     =   0.00    reference energy to select bands
   IMIX   =      4    mixing-type and parameters
     AMIX     =   0.40;   BMIX     =  1.00
     AMIX_MAG =   1.60;   BMIX_MAG =  1.00
     AMIN     =   0.10
     WC   =   100.;   INIMIX=   1;  MIXPRE=   1;  MAXMIX= -45

 Intra band minimization:
   WEIMIN = 0.0010     energy-eigenvalue tresh-hold
   EBREAK =  0.52E-08  absolut break condition
   DEPER  =   0.30     relativ break condition  

   TIME   =   0.40     timestep for ELM

  volume/ion in A,a.u.               =       9.57        64.61
  Fermi-wavevector in a.u.,A,eV,Ry     =   1.170549  2.212016 18.642492  1.370184
  Thomas-Fermi vector in A             =   2.307006
 
 Write flags
   LWAVE  =      F    write WAVECAR
   LCHARG =      F    write CHGCAR
   LVTOT  =      F    write LOCPOT, total local potential
   LVHAR  =      F    write LOCPOT, Hartree potential only
   LELF   =      F    write electronic localiz. function (ELF)
   LORBIT =     12    0 simple, 1 ext, 2 COOP (PROOUT)


 Dipole corrections
   LMONO  =      F    monopole corrections only (constant potential shift)
   LDIPOL =      F    correct potential (dipole corrections)
   IDIPOL =      0    1-x, 2-y, 3-z, 4-all directions 
   EPSILON=  1.0000000 bulk dielectric constant

 Exchange correlation treatment:
   GGA     =    --    GGA type
   LEXCH   =     8    internal setting for exchange type
   VOSKOWN=      0    Vosko Wilk Nusair interpolation
   LHFCALC =     F    Hartree Fock is set to
   LHFONE  =     F    Hartree Fock one center treatment
   AEXX    =    0.0000 exact exchange contribution

 Linear response parameters
   LEPSILON=     F    determine dielectric tensor
   LRPA    =     F    only Hartree local field effects (RPA)
   LNABLA  =     F    use nabla operator in PAW spheres
   LVEL    =     F    velocity operator in full k-point grid
   LINTERFAST=   F  fast interpolation
   KINTER  =     0    interpolate to denser k-point grid
   CSHIFT  =0.1000    complex shift for real part using Kramers Kronig
   OMEGAMAX=  -1.0    maximum frequency
   DEG_THRESHOLD= 0.2000000E-02 threshold for treating states as degnerate
   RTIME   =    0.100 relaxation time in fs

 Orbital magnetization related:
   ORBITALMAG=     F  switch on orbital magnetization
   LCHIMAG   =     F  perturbation theory with respect to B field
   DQ        =  0.001000  dq finite difference perturbation B field



--------------------------------------------------------------------------------------------------------


 conjugate gradient relaxation of ions
 charge density and potential will be updated during run
 spin polarized calculation
 Variant of blocked Davidson
 Davidson routine will perform the subspace rotation
 perform sub-space diagonalisation
    after iterative eigenvector-optimisation
 modified Broyden-mixing scheme, WC =      100.0
 initial mixing is a Kerker type mixing with AMIX =  0.4000 and BMIX =      1.0000
 Hartree-type preconditioning will be used
 using additional bands           20
 real space projection scheme for non local part
 use partial core corrections
 calculate Harris-corrections to forces 
   (improved forces if not selfconsistent)
 use gradient corrections 
 use of overlap-Matrix (Vanderbilt PP)
 Gauss-broadening in eV      SIGMA  =   0.05


--------------------------------------------------------------------------------------------------------


  energy-cutoff  :      400.00
  volume of cell :      153.19
      direct lattice vectors                 reciprocal lattice vectors
     0.000000000  4.246893000  4.246893000    -0.117733129  0.117733129  0.117733129
     4.246893000  0.000000000  4.246893000     0.117733129 -0.117733129  0.117733129
     4.246893000  4.246893000  0.000000000     0.117733129  0.117733129 -0.117733129

  length of vectors
     6.006013679  6.006013679  6.006013679     0.203919761  0.203919761  0.203919761


 
 k-points in units of 2pi/SCALE and weight: k-point mesh                            
   0.00000000  0.00000000  0.00000000       0.125
  -0.05886656  0.05886656  0.05886656       0.125
   0.05886656 -0.05886656  0.05886656       0.125
   0.00000000  0.00000000  0.11773313       0.125
   0.05886656  0.05886656 -0.05886656       0.125
   0.00000000  0.11773313  0.00000000       0.125
   0.11773313  0.00000000  0.00000000       0.125
   0.05886656  0.05886656  0.05886656       0.125
 
 k-points in reciprocal lattice and weights: k-point mesh                            
   0.00000000  0.00000000  0.00000000       0.125
   0.50000000  0.00000000  0.00000000       0.125
   0.00000000  0.50000000  0.00000000       0.125
   0.50000000  0.50000000  0.00000000       0.125
   0.00000000  0.00000000  0.50000000       0.125
   0.50000000  0.00000000  0.50000000       0.125
   0.00000000  0.50000000  0.50000000       0.125
   0.50000000  0.50000000  0.50000000       0.125
 
 position of ions in fractional coordinates (direct lattice) 
   0.16901583  0.49395704  0.17014389
   0.00382598  0.98892588  0.00505300
   0.01712519  0.93743948  0.48764211
   0.07247863  0.46970930  0.85915234
   0.85807955  0.46977029  0.60204516
   0.55968020  0.93705811  0.01802140
   0.48668025  0.93725065  0.56052650
   0.60089734  0.46986175  0.07293565
   0.50341846  0.49154009  0.50398845
   0.23035563  0.27907313  0.60286129
   0.28449406  0.74585878  0.21419301
   0.21296170  0.74667198  0.75775274
   0.88937841  0.27981415  0.23152164
   0.60084879  0.27940939  0.89087640
   0.75683309  0.74607642  0.28571678
   0.75234189  0.74409456  0.75311465
 
 position of ions in cartesian coordinates  (Angst):
   2.82036558  1.44037504  2.81557481
   4.22132194  0.03770808  4.21611094
   6.05216901  2.14369269  4.05393399
   5.64353321  3.95653704  2.30261412
   4.55188554  6.20099343  5.63923619
   4.05612049  2.45343686  6.35648746
   6.36089928  4.44737502  6.04728219
   2.30520249  2.86169663  4.54739928
   4.22790315  4.27834932  4.22548247
   3.74548111  3.53858309  2.16348945
   4.07723724  2.11787065  4.37579825
   6.38913080  4.12252037  4.07546157
   2.17158837  4.76034256  4.96543571
   4.97007854  6.33519729  3.73836231
   4.38191531  4.42759774  6.38269589
   6.35848734  6.39351284  6.35520549
 


--------------------------------------------------------------------------------------------------------


 k-point  1 :   0.0000 0.0000 0.0000  plane waves:    2733
 k-point  2 :   0.5000 0.0000 0.0000  plane waves:    2788
 k-point  3 :   0.0000 0.5000 0.0000  plane waves:    2788
 k-point  4 :   0.5000 0.5000 0.0000  plane waves:    2778
 k-point  5 :   0.0000 0.0000 0.5000  plane waves:    2788
 k-point  6 :   0.5000 0.0000 0.5000  plane waves:    2778
 k-point  7 :   0.0000 0.5000 0.5000  plane waves:    2778
 k-point  8 :   0.5000 0.5000 0.5000  plane waves:    2788

 maximum and minimum number of plane-waves per node :       715      668

 maximum number of plane-waves:      2788
 maximum index in each direction: 
   IXMAX=    9   IYMAX=    9   IZMAX=    9
   IXMIN=  -10   IYMIN=  -10   IZMIN=  -10

 WARNING: aliasing errors must be expected set NGX to  40 to avoid them
 WARNING: aliasing errors must be expected set NGY to  40 to avoid them
 WARNING: aliasing errors must be expected set NGZ to  40 to avoid them
 aliasing errors are usually negligible using standard VASP settings
 and one can safely disregard these warnings

 real space projection operators:
  total allocation   :       2260.44 KBytes
  max/ min on nodes  :        610.09        521.23


 parallel 3D FFT for wavefunctions:
    minimum data exchange during FFTs selected (reduces bandwidth)
 parallel 3D FFT for charge:
    minimum data exchange during FFTs selected (reduces bandwidth)


 total amount of memory used by VASP on root node    36167. kBytes
========================================================================

   base      :      30000. kBytes
   nonlr-proj:       1282. kBytes
   fftplans  :        708. kBytes
   grid      :       1766. kBytes
   one-center:         64. kBytes
   wavefun   :       2347. kBytes
 
     INWAV:  cpu time    0.0000: real time    0.0002
 Broyden mixing: mesh for mixing (old mesh)
   NGX = 19   NGY = 19   NGZ = 19
  (NGX  = 60   NGY  = 60   NGZ  = 60)
  gives a total of   6859 points

 initial charge density was supplied:
 charge density of overlapping atoms calculated
 number of electron      60.0000000 magnetization      16.0000000
 keeping initial charge density in first step


--------------------------------------------------------------------------------------------------------


 Maximum index for non-local projection operator          565
 Maximum index for augmentation-charges          632 (set IRDMAX)


--------------------------------------------------------------------------------------------------------


 First call to EWALD:  gamma=   0.331
 Maximum number of real-space cells 3x 3x 3
 Maximum number of reciprocal cells 3x 3x 3

 FEWALD executed in parallel
    FEWALD:  cpu time    0.0040: real time    0.0017


----------------------------------------- Iteration    1(   1)  ---------------------------------------


    POTLOK:  cpu time    0.0240: real time    0.0217
    SETDIJ:  cpu time    0.6760: real time    0.6786
     EDDAV:  cpu time    0.5560: real time    0.5541
       DOS:  cpu time    0.0000: real time    0.0005
    --------------------------------------------
      LOOP:  cpu time    1.2560: real time    1.2584

 eigenvalue-minimisations  :  1616
 total energy-change (2. order) : 0.2039584E+03  (-0.2337456E+04)
 number of electron      60.0000000 magnetization      16.0000000
 augmentation part       60.0000000 magnetization      16.0000000

 Free energy of the ion-electron system (eV)
  ---------------------------------------------------
  alpha Z        PSCENC =       142.81396753
  Ewald energy   TEWEN  =     -2444.70703593
  -Hartree energ DENC   =      -956.69839653
  -exchange      EXHF   =         0.00000000
  -V(xc)+E(xc)   XCENC  =      -235.85489462
  PAW double counting   =      3011.45132117    -2557.24446474
  entropy T*S    EENTRO =        -0.00026789
  eigenvalues    EBANDS =        11.02485747
  atomic energy  EATOM  =      3233.17333345
  Solvation  Ediel_sol  =         0.00000000
  ---------------------------------------------------
  free energy    TOTEN  =       203.95841993 eV

  energy without entropy =      203.95868782  energy(sigma->0) =      203.95855387


--------------------------------------------------------------------------------------------------------




----------------------------------------- Iteration    1(   2)  ---------------------------------------


     EDDAV:  cpu time    0.6320: real time    0.6309
       DOS:  cpu time    0.0000: real time    0.0002
    --------------------------------------------
      LOOP:  cpu time    0.6320: real time    0.6356

 eigenvalue-minimisations  :  1976
 total energy-change (2. order) :-0.2916737E+03  (-0.2807412E+03)
 number of electron      60.0000000 magnetization      16.0000000
 augmentation part       60.0000000 magnetization      16.0000000

 Free energy of the ion-electron system (eV)
  ---------------------------------------------------
  alpha Z        PSCENC =       142.81396753
  Ewald energy   TEWEN  =     -2444.70703593
  -Hartree energ DENC   =      -956.69839653
  -exchange      EXHF   =         0.00000000
  -V(xc)+E(xc)   XCENC  =      -235.85489462
  PAW double counting   =      3011.45132117    -2557.24446474
  entropy T*S    EENTRO =        -0.00000000
  eigenvalues    EBANDS =      -280.64913764
  atomic energy  EATOM  =      3233.17333345
  Solvation  Ediel_sol  =         0.00000000
  ---------------------------------------------------
  free energy    TOTEN  =       -87.71530729 eV

  energy without entropy =      -87.71530729  energy(sigma->0) =      -87.71530729


--------------------------------------------------------------------------------------------------------




----------------------------------------- Iteration    1(   3)  ---------------------------------------


     EDDAV:  cpu time    0.6120: real time    0.6147
       DOS:  cpu time    0.0000: real time    0.0003
    --------------------------------------------
      LOOP:  cpu time    0.6120: real time    0.6185

 eigenvalue-minimisations  :  1872
 total energy-change (2. order) :-0.1688401E+02  (-0.1679234E+02)
 number of electron      60.0000000 magnetization      16.0000000
 augmentation part       60.0000000 magnetization      16.0000000

 Free energy of the ion-electron system (eV)
  ---------------------------------------------------
  alpha Z        PSCENC =       142.81396753
  Ewald energy   TEWEN  =     -2444.70703593
  -Hartree energ DENC   =      -956.69839653
  -exchange      EXHF   =         0.00000000
  -V(xc)+E(xc)   XCENC  =      -235.85489462
  PAW double counting   =      3011.45132117    -2557.24446474
  entropy T*S    EENTRO =        -0.00000000
  eigenvalues    EBANDS =      -297.53314411
  atomic energy  EATOM  =      3233.17333345
  Solvation  Ediel_sol  =         0.00000000
  ---------------------------------------------------
  free energy    TOTEN  =      -104.59931377 eV

  energy without entropy =     -104.59931377  energy(sigma->0) =     -104.59931377


--------------------------------------------------------------------------------------------------------




----------------------------------------- Iteration    1(   4)  ---------------------------------------


     EDDAV:  cpu time    0.5600: real time    0.5614
       DOS:  cpu time    0.0000: real time    0.0002
    --------------------------------------------
      LOOP:  cpu time    0.5600: real time    0.5650

 eigenvalue-minimisations  :  1728
 total energy-change (2. order) :-0.9657415E-01  (-0.9655302E-01)
 number of electron      60.0000000 magnetization      16.0000000
 augmentation part       60.0000000 magnetization      16.0000000

 Free energy of the ion-electron system (eV)
  ---------------------------------------------------
  alpha Z        PSCENC =       142.81396753
  Ewald energy   TEWEN  =     -2444.70703593
  -Hartree energ DENC   =      -956.69839653
  -exchange      EXHF   =         0.00000000
  -V(xc)+E(xc)   XCENC  =      -235.85489462
  PAW double counting   =      3011.45132117    -2557.24446474
  entropy T*S    EENTRO =        -0.00000000
  eigenvalues    EBANDS =      -297.62971826
  atomic energy  EATOM  =      3233.17333345
  Solvation  Ediel_sol  =         0.00000000
  ---------------------------------------------------
  free energy    TOTEN  =      -104.69588791 eV

  energy without entropy =     -104.69588791  energy(sigma->0) =     -104.69588791


--------------------------------------------------------------------------------------------------------




----------------------------------------- Iteration    1(   5)  ---------------------------------------


     EDDAV:  cpu time    0.5920: real time    0.5939
       DOS:  cpu time    0.0000: real time    0.0002
    CHARGE:  cpu time    0.0200: real time    0.0190
    MIXING:  cpu time    0.0000: real time    0.0007
    --------------------------------------------
      LOOP:  cpu time    0.6160: real time    0.6182

 eigenvalue-minimisations  :  1848
 total energy-change (2. order) :-0.5141478E-03  (-0.5141327E-03)
 number of electron      55.9999958 magnetization       0.0909435
 augmentation part        5.5400085 magnetization       0.1380978

 Broyden mixing:
  rms(total) = 0.27363E+01    rms(broyden)= 0.27167E+01
  rms(prec ) = 0.45481E+01
  weight for this iteration     100.00

 Free energy of the ion-electron system (eV)
  ---------------------------------------------------
  alpha Z        PSCENC =       142.81396753
  Ewald energy   TEWEN  =     -2444.70703593
  -Hartree energ DENC   =      -956.69839653
  -exchange      EXHF   =         0.00000000
  -V(xc)+E(xc)   XCENC  =      -235.85489462
  PAW double counting   =      3011.45132117    -2557.24446474
  entropy T*S    EENTRO =        -0.00000000
  eigenvalues    EBANDS =      -297.63023240
  atomic energy  EATOM  =      3233.17333345
  Solvation  Ediel_sol  =         0.00000000
  ---------------------------------------------------
  free energy    TOTEN  =      -104.69640206 eV

  energy without entropy =     -104.69640206  energy(sigma->0) =     -104.69640206


--------------------------------------------------------------------------------------------------------




----------------------------------------- Iteration    1(   6)  ---------------------------------------


    POTLOK:  cpu time    0.0200: real time    0.0212
    SETDIJ:  cpu time    0.6840: real time    0.6811
     EDDAV:  cpu time    0.5840: real time    0.5846
       DOS:  cpu time    0.0000: real time    0.0003
    CHARGE:  cpu time    0.0200: real time    0.0196
    MIXING:  cpu time    0.0000: real time    0.0006
    --------------------------------------------
      LOOP:  cpu time    1.3080: real time    1.3105

 eigenvalue-minimisations  :  1792
 total energy-change (2. order) : 0.3068292E+01  (-0.3167910E+01)
 number of electron      55.9999965 magnetization       0.0042529
 augmentation part        4.6296060 magnetization      -0.1065883

 Broyden mixing:
  rms(total) = 0.77065E+00    rms(broyden)= 0.76948E+00
  rms(prec ) = 0.11599E+01
  weight for this iteration     100.00

 eigenvalues of (default mixing * dielectric matrix)
  average eigenvalue GAMMA=   0.8330
  0.8330

 Free energy of the ion-electron system (eV)
  ---------------------------------------------------
  alpha Z        PSCENC =       142.81396753
  Ewald energy   TEWEN  =     -2444.70703593
  -Hartree energ DENC   =     -1092.30530076
  -exchange      EXHF   =         0.00000000
  -V(xc)+E(xc)   XCENC  =      -241.13835080
  PAW double counting   =      3536.00956701    -3083.98356641
  entropy T*S    EENTRO =        -0.00000000
  eigenvalues    EBANDS =      -151.49072426
  atomic energy  EATOM  =      3233.17333345
  Solvation  Ediel_sol  =         0.00000000
  ---------------------------------------------------
  free energy    TOTEN  =      -101.62811016 eV

  energy without entropy =     -101.62811016  energy(sigma->0) =     -101.62811016


--------------------------------------------------------------------------------------------------------




----------------------------------------- Iteration    1(   7)  ---------------------------------------


    POTLOK:  cpu time    0.0200: real time    0.0218
    SETDIJ:  cpu time    0.6800: real time    0.6796
     EDDAV:  cpu time    0.5960: real time    0.5954
       DOS:  cpu time    0.0000: real time    0.0003
    CHARGE:  cpu time    0.0200: real time    0.0193
    MIXING:  cpu time    0.0000: real time    0.0006
    --------------------------------------------
      LOOP:  cpu time    1.3160: real time    1.3207

 eigenvalue-minimisations  :  1824
 total energy-change (2. order) : 0.3874757E-01  (-0.1036677E+00)
 number of electron      55.9999965 magnetization      -0.0027580
 augmentation part        4.6101014 magnetization      -0.0091491

 Broyden mixing:
  rms(total) = 0.40328E+00    rms(broyden)= 0.40319E+00
  rms(prec ) = 0.68531E+00
  weight for this iteration     100.00

 eigenvalues of (default mixing * dielectric matrix)
  average eigenvalue GAMMA=   0.9713
  0.9713  0.9713

 Free energy of the ion-electron system (eV)
  ---------------------------------------------------
  alpha Z        PSCENC =       142.81396753
  Ewald energy   TEWEN  =     -2444.70703593
  -Hartree energ DENC   =     -1099.29937657
  -exchange      EXHF   =         0.00000000
  -V(xc)+E(xc)   XCENC  =      -240.71438337
  PAW double counting   =      3722.90075174    -3270.66963116
  entropy T*S    EENTRO =        -0.00000000
  eigenvalues    EBANDS =      -145.08698828
  atomic energy  EATOM  =      3233.17333345
  Solvation  Ediel_sol  =         0.00000000
  ---------------------------------------------------
  free energy    TOTEN  =      -101.58936259 eV

  energy without entropy =     -101.58936259  energy(sigma->0) =     -101.58936259


--------------------------------------------------------------------------------------------------------




----------------------------------------- Iteration    1(   8)  ---------------------------------------


    POTLOK:  cpu time    0.0200: real time    0.0211
    SETDIJ:  cpu time    0.6840: real time    0.6803
     EDDAV:  cpu time    0.5840: real time    0.5847
       DOS:  cpu time    0.0000: real time    0.0003
    CHARGE:  cpu time    0.0160: real time    0.0189
    MIXING:  cpu time    0.0040: real time    0.0006
    --------------------------------------------
      LOOP:  cpu time    1.3080: real time    1.3093

 eigenvalue-minimisations  :  1816
 total energy-change (2. order) : 0.1534133E+00  (-0.1976841E-01)
 number of electron      55.9999964 magnetization      -0.0012732
 augmentation part        4.6205401 magnetization      -0.0012512

 Broyden mixing:
  rms(total) = 0.16230E+00    rms(broyden)= 0.16227E+00
  rms(prec ) = 0.26864E+00
  weight for this iteration     100.00

 eigenvalues of (default mixing * dielectric matrix)
  average eigenvalue GAMMA=   1.2667
  2.0563  0.9245  0.8195

 Free energy of the ion-electron system (eV)
  ---------------------------------------------------
  alpha Z        PSCENC =       142.81396753
  Ewald energy   TEWEN  =     -2444.70703593
  -Hartree energ DENC   =     -1106.92225389
  -exchange      EXHF   =         0.00000000
  -V(xc)+E(xc)   XCENC  =      -239.98478992
  PAW double counting   =      3917.10481614    -3464.67351216
  entropy T*S    EENTRO =        -0.00000000
  eigenvalues    EBANDS =      -138.24047454
  atomic energy  EATOM  =      3233.17333345
  Solvation  Ediel_sol  =         0.00000000
  ---------------------------------------------------
  free energy    TOTEN  =      -101.43594932 eV

  energy without entropy =     -101.43594932  energy(sigma->0) =     -101.43594932


--------------------------------------------------------------------------------------------------------




----------------------------------------- Iteration    1(   9)  ---------------------------------------


    POTLOK:  cpu time    0.0200: real time    0.0209
    SETDIJ:  cpu time    0.6880: real time    0.6893
     EDDAV:  cpu time    0.6080: real time    0.6074
       DOS:  cpu time    0.0000: real time    0.0003
    CHARGE:  cpu time    0.0200: real time    0.0188
    MIXING:  cpu time    0.0000: real time    0.0006
    --------------------------------------------
      LOOP:  cpu time    1.3360: real time    1.3409

 eigenvalue-minimisations  :  1880
 total energy-change (2. order) : 0.9100790E-02  (-0.5879543E-02)
 number of electron      55.9999964 magnetization      -0.0003645
 augmentation part        4.6143266 magnetization       0.0006135

 Broyden mixing:
  rms(total) = 0.57807E-01    rms(broyden)= 0.57778E-01
  rms(prec ) = 0.69509E-01
  weight for this iteration     100.00

 eigenvalues of (default mixing * dielectric matrix)
  average eigenvalue GAMMA=   1.2608
  2.4528  0.9691  0.9691  0.6521

 Free energy of the ion-electron system (eV)
  ---------------------------------------------------
  alpha Z        PSCENC =       142.81396753
  Ewald energy   TEWEN  =     -2444.70703593
  -Hartree energ DENC   =     -1112.97402653
  -exchange      EXHF   =         0.00000000
  -V(xc)+E(xc)   XCENC  =      -239.41713913
  PAW double counting   =      4013.57856946    -3561.09037202
  entropy T*S    EENTRO =        -0.00000000
  eigenvalues    EBANDS =      -132.80414537
  atomic energy  EATOM  =      3233.17333345
  Solvation  Ediel_sol  =         0.00000000
  ---------------------------------------------------
  free energy    TOTEN  =      -101.42684853 eV

  energy without entropy =     -101.42684853  energy(sigma->0) =     -101.42684853


--------------------------------------------------------------------------------------------------------




----------------------------------------- Iteration    1(  10)  ---------------------------------------


    POTLOK:  cpu time    0.0200: real time    0.0209
    SETDIJ:  cpu time    0.6840: real time    0.6808
     EDDAV:  cpu time    0.5680: real time    0.5715
       DOS:  cpu time    0.0000: real time    0.0003
    CHARGE:  cpu time    0.0160: real time    0.0189
    MIXING:  cpu time    0.0000: real time    0.0007
    --------------------------------------------
      LOOP:  cpu time    1.2920: real time    1.2967

 eigenvalue-minimisations  :  1744
 total energy-change (2. order) : 0.7506886E-03  (-0.5401961E-03)
 number of electron      55.9999964 magnetization       0.0004319
 augmentation part        4.6111361 magnetization       0.0012845

 Broyden mixing:
  rms(total) = 0.20043E-01    rms(broyden)= 0.20036E-01
  rms(prec ) = 0.31815E-01
  weight for this iteration     100.00

 eigenvalues of (default mixing * dielectric matrix)
  average eigenvalue GAMMA=   1.2320
  2.5049  1.2165  0.9003  0.9003  0.6379

 Free energy of the ion-electron system (eV)
  ---------------------------------------------------
  alpha Z        PSCENC =       142.81396753
  Ewald energy   TEWEN  =     -2444.70703593
  -Hartree energ DENC   =     -1113.59946015
  -exchange      EXHF   =         0.00000000
  -V(xc)+E(xc)   XCENC  =      -239.36318401
  PAW double counting   =      4008.39216978    -3555.91492959
  entropy T*S    EENTRO =        -0.00000000
  eigenvalues    EBANDS =      -132.22095893
  atomic energy  EATOM  =      3233.17333345
  Solvation  Ediel_sol  =         0.00000000
  ---------------------------------------------------
  free energy    TOTEN  =      -101.42609784 eV

  energy without entropy =     -101.42609784  energy(sigma->0) =     -101.42609784


--------------------------------------------------------------------------------------------------------




----------------------------------------- Iteration    1(  11)  ---------------------------------------


    POTLOK:  cpu time    0.0200: real time    0.0210
    SETDIJ:  cpu time    0.6800: real time    0.6806
     EDDAV:  cpu time    0.5840: real time    0.5840
       DOS:  cpu time    0.0000: real time    0.0003
    CHARGE:  cpu time    0.0200: real time    0.0188
    MIXING:  cpu time    0.0000: real time    0.0007
    --------------------------------------------
      LOOP:  cpu time    1.3080: real time    1.3089

 eigenvalue-minimisations  :  1800
 total energy-change (2. order) :-0.5464656E-03  (-0.1241798E-03)
 number of electron      55.9999964 magnetization       0.0000534
 augmentation part        4.6118911 magnetization      -0.0005658

 Broyden mixing:
  rms(total) = 0.78834E-02    rms(broyden)= 0.78791E-02
  rms(prec ) = 0.12452E-01
  weight for this iteration     100.00

 eigenvalues of (default mixing * dielectric matrix)
  average eigenvalue GAMMA=   1.3785
  2.7048  2.2129  0.9851  0.9851  0.7504  0.6329

 Free energy of the ion-electron system (eV)
  ---------------------------------------------------
  alpha Z        PSCENC =       142.81396753
  Ewald energy   TEWEN  =     -2444.70703593
  -Hartree energ DENC   =     -1113.62837902
  -exchange      EXHF   =         0.00000000
  -V(xc)+E(xc)   XCENC  =      -239.35719107
  PAW double counting   =      3991.98652042    -3539.52118188
  entropy T*S    EENTRO =        -0.00000000
  eigenvalues    EBANDS =      -132.18667782
  atomic energy  EATOM  =      3233.17333345
  Solvation  Ediel_sol  =         0.00000000
  ---------------------------------------------------
  free energy    TOTEN  =      -101.42664431 eV

  energy without entropy =     -101.42664431  energy(sigma->0) =     -101.42664431


--------------------------------------------------------------------------------------------------------




----------------------------------------- Iteration    1(  12)  ---------------------------------------


    POTLOK:  cpu time    0.0200: real time    0.0209
    SETDIJ:  cpu time    0.6800: real time    0.6801
     EDDAV:  cpu time    0.5840: real time    0.5832
       DOS:  cpu time    0.0000: real time    0.0003
    CHARGE:  cpu time    0.0200: real time    0.0188
    MIXING:  cpu time    0.0000: real time    0.0008
    --------------------------------------------
      LOOP:  cpu time    1.3040: real time    1.3074

 eigenvalue-minimisations  :  1784
 total energy-change (2. order) :-0.1541043E-03  (-0.2623595E-04)
 number of electron      55.9999964 magnetization      -0.0000508
 augmentation part        4.6122804 magnetization      -0.0002338

 Broyden mixing:
  rms(total) = 0.26715E-02    rms(broyden)= 0.26693E-02
  rms(prec ) = 0.42585E-02
  weight for this iteration     100.00

 eigenvalues of (default mixing * dielectric matrix)
  average eigenvalue GAMMA=   1.3321
  2.7764  2.3809  1.0357  0.9712  0.8252  0.7034  0.6316

 Free energy of the ion-electron system (eV)
  ---------------------------------------------------
  alpha Z        PSCENC =       142.81396753
  Ewald energy   TEWEN  =     -2444.70703593
  -Hartree energ DENC   =     -1113.67902707
  -exchange      EXHF   =         0.00000000
  -V(xc)+E(xc)   XCENC  =      -239.35316937
  PAW double counting   =      3984.96290303    -3532.50323318
  entropy T*S    EENTRO =        -0.00000000
  eigenvalues    EBANDS =      -132.13453688
  atomic energy  EATOM  =      3233.17333345
  Solvation  Ediel_sol  =         0.00000000
  ---------------------------------------------------
  free energy    TOTEN  =      -101.42679841 eV

  energy without entropy =     -101.42679841  energy(sigma->0) =     -101.42679841


--------------------------------------------------------------------------------------------------------




----------------------------------------- Iteration    1(  13)  ---------------------------------------


    POTLOK:  cpu time    0.0200: real time    0.0209
    SETDIJ:  cpu time    0.6840: real time    0.6812
     EDDAV:  cpu time    0.5760: real time    0.5782
       DOS:  cpu time    0.0000: real time    0.0003
    CHARGE:  cpu time    0.0200: real time    0.0188
    MIXING:  cpu time    0.0000: real time    0.0008
    --------------------------------------------
      LOOP:  cpu time    1.3000: real time    1.3038

 eigenvalue-minimisations  :  1784
 total energy-change (2. order) :-0.1457174E-04  (-0.8739293E-05)
 number of electron      55.9999964 magnetization      -0.0000104
 augmentation part        4.6120486 magnetization      -0.0000098

 Broyden mixing:
  rms(total) = 0.14119E-02    rms(broyden)= 0.14105E-02
  rms(prec ) = 0.24219E-02
  weight for this iteration     100.00

 eigenvalues of (default mixing * dielectric matrix)
  average eigenvalue GAMMA=   1.3053
  2.8541  2.4392  1.0770  0.9681  0.9681  0.8494  0.6285  0.6579

 Free energy of the ion-electron system (eV)
  ---------------------------------------------------
  alpha Z        PSCENC =       142.81396753
  Ewald energy   TEWEN  =     -2444.70703593
  -Hartree energ DENC   =     -1113.72268703
  -exchange      EXHF   =         0.00000000
  -V(xc)+E(xc)   XCENC  =      -239.35181682
  PAW double counting   =      3984.33516909    -3531.87701192
  entropy T*S    EENTRO =        -0.00000000
  eigenvalues    EBANDS =      -132.09073136
  atomic energy  EATOM  =      3233.17333345
  Solvation  Ediel_sol  =         0.00000000
  ---------------------------------------------------
  free energy    TOTEN  =      -101.42681298 eV

  energy without entropy =     -101.42681298  energy(sigma->0) =     -101.42681298


--------------------------------------------------------------------------------------------------------




----------------------------------------- Iteration    1(  14)  ---------------------------------------


    POTLOK:  cpu time    0.0240: real time    0.0230
    SETDIJ:  cpu time    0.6800: real time    0.6808
     EDDAV:  cpu time    0.5840: real time    0.5847
       DOS:  cpu time    0.0000: real time    0.0003
    --------------------------------------------
      LOOP:  cpu time    1.2880: real time    1.2920

 eigenvalue-minimisations  :  1792
 total energy-change (2. order) :-0.8919228E-06  (-0.5843719E-06)
 number of electron      55.9999964 magnetization      -0.0000104
 augmentation part        4.6120486 magnetization      -0.0000098

 Free energy of the ion-electron system (eV)
  ---------------------------------------------------
  alpha Z        PSCENC =       142.81396753
  Ewald energy   TEWEN  =     -2444.70703593
  -Hartree energ DENC   =     -1113.73264861
  -exchange      EXHF   =         0.00000000
  -V(xc)+E(xc)   XCENC  =      -239.35227459
  PAW double counting   =      3983.96037319    -3531.50298463
  entropy T*S    EENTRO =        -0.00000000
  eigenvalues    EBANDS =      -132.07954429
  atomic energy  EATOM  =      3233.17333345
  Solvation  Ediel_sol  =         0.00000000
  ---------------------------------------------------
  free energy    TOTEN  =      -101.42681387 eV

  energy without entropy =     -101.42681387  energy(sigma->0) =     -101.42681387


--------------------------------------------------------------------------------------------------------




 average (electrostatic) potential at core
  the test charge radii are     1.0714  0.7215
  (the norm of the test charge is              1.0000)
       1 -36.0140       2 -34.7723       3 -33.8809       4 -34.7137       5 -34.7183
       6 -33.8834       7 -33.8752       8 -34.7153       9 -35.1962      10 -70.0577
      11 -69.4820      12 -69.4753      13 -70.0641      14 -70.0659      15 -69.4798
      16 -69.6791
 
 
 
 E-fermi :   3.3826     XC(G=0): -10.5151     alpha+bet :-13.2968


 spin component 1

 k-point     1 :       0.0000    0.0000    0.0000
  band No.  band energies     occupation 
      1     -13.8704      1.00000
      2     -12.9637      1.00000
      3     -12.9453      1.00000
      4     -12.9410      1.00000
      5     -12.6006      1.00000
      6     -12.4498      1.00000
      7     -12.4457      1.00000
      8      -0.9414      1.00000
      9      -0.9000      1.00000
     10      -0.8330      1.00000
     11      -0.8317      1.00000
     12      -0.3249      1.00000
     13      -0.0357      1.00000
     14      -0.0346      1.00000
     15       0.5774      1.00000
     16       1.4746      1.00000
     17       1.4781      1.00000
     18       1.7213      1.00000
     19       1.7621      1.00000
     20       1.7649      1.00000
     21       2.0598      1.00000
     22       2.0630      1.00000
     23       2.2491      1.00000
     24       2.4914      1.00000
     25       2.4957      1.00000
     26       3.0762      1.00000
     27       3.0775      1.00000
     28       3.1608      1.00000
     29       5.5589      0.00000
     30       9.6932      0.00000
     31      10.3566      0.00000
     32      10.5725      0.00000
     33      10.5792      0.00000
     34      11.9137      0.00000
     35      11.9327      0.00000
     36      11.9375      0.00000
     37      12.3878      0.00000
     38      12.7348      0.00000
     39      12.8308      0.00000
     40      12.8371      0.00000
     41      13.8002      0.00000
     42      14.3133      0.00000
     43      14.5083      0.00000
     44      14.5175      0.00000
     45      15.9022      0.00000
     46      15.9076      0.00000
     47      16.4471      0.00000
     48      16.4555      0.00000

 k-point     2 :       0.5000    0.0000    0.0000
  band No.  band energies     occupation 
      1     -13.5304      1.00000
      2     -13.2964      1.00000
      3     -12.9778      1.00000
      4     -12.9623      1.00000
      5     -12.5816      1.00000
      6     -12.5084      1.00000
      7     -12.4396      1.00000
      8      -0.9243      1.00000
      9      -0.5536      1.00000
     10      -0.4377      1.00000
     11      -0.3246      1.00000
     12       0.0946      1.00000
     13       0.2736      1.00000
     14       0.4973      1.00000
     15       0.6755      1.00000
     16       0.9175      1.00000
     17       1.0859      1.00000
     18       1.2916      1.00000
     19       1.3670      1.00000
     20       1.5141      1.00000
     21       1.5553      1.00000
     22       1.7701      1.00000
     23       1.9211      1.00000
     24       2.2836      1.00000
     25       2.4941      1.00000
     26       2.5148      1.00000
     27       3.0310      1.00000
     28       3.1136      1.00000
     29       7.7483      0.00000
     30       8.4552      0.00000
     31       9.6388      0.00000
     32      10.4549      0.00000
     33      11.1932      0.00000
     34      11.5536      0.00000
     35      11.9189      0.00000
     36      12.1419      0.00000
     37      12.6796      0.00000
     38      12.9391      0.00000
     39      13.1717      0.00000
     40      13.3794      0.00000
     41      13.8038      0.00000
     42      14.4543      0.00000
     43      14.9866      0.00000
     44      15.4364      0.00000
     45      15.7592      0.00000
     46      15.9869      0.00000
     47      16.2679      0.00000
     48      16.5260      0.00000

 k-point     3 :       0.0000    0.5000    0.0000
  band No.  band energies     occupation 
      1     -13.5744      1.00000
      2     -13.1709      1.00000
      3     -12.9896      1.00000
      4     -12.9851      1.00000
      5     -12.7592      1.00000
      6     -12.4080      1.00000
      7     -12.4040      1.00000
      8      -0.9281      1.00000
      9      -0.6419      1.00000
     10      -0.6403      1.00000
     11      -0.1858      1.00000
     12       0.2097      1.00000
     13       0.3036      1.00000
     14       0.3060      1.00000
     15       0.6368      1.00000
     16       0.8250      1.00000
     17       1.0028      1.00000
     18       1.0070      1.00000
     19       1.5750      1.00000
     20       1.6048      1.00000
     21       1.6061      1.00000
     22       2.0516      1.00000
     23       2.0540      1.00000
     24       2.4572      1.00000
     25       2.4616      1.00000
     26       2.6409      1.00000
     27       2.9957      1.00000
     28       2.9973      1.00000
     29       7.2161      0.00000
     30       9.3408      0.00000
     31      10.4190      0.00000
     32      10.6024      0.00000
     33      10.6092      0.00000
     34      10.9441      0.00000
     35      11.5382      0.00000
     36      12.0322      0.00000
     37      12.0368      0.00000
     38      12.9680      0.00000
     39      12.9710      0.00000
     40      13.9107      0.00000
     41      14.3240      0.00000
     42      14.8739      0.00000
     43      14.9061      0.00000
     44      14.9137      0.00000
     45      15.3992      0.00000
     46      15.4064      0.00000
     47      16.6774      0.00000
     48      16.7831      0.00000

 k-point     4 :       0.5000    0.5000    0.0000
  band No.  band energies     occupation 
      1     -13.4277      1.00000
      2     -13.2175      1.00000
      3     -13.0724      1.00000
      4     -12.9897      1.00000
      5     -12.7066      1.00000
      6     -12.5814      1.00000
      7     -12.3235      1.00000
      8      -0.7669      1.00000
      9      -0.4689      1.00000
     10      -0.3450      1.00000
     11      -0.1264      1.00000
     12       0.1674      1.00000
     13       0.3887      1.00000
     14       0.4661      1.00000
     15       0.7041      1.00000
     16       0.8418      1.00000
     17       1.1571      1.00000
     18       1.1897      1.00000
     19       1.2735      1.00000
     20       1.3189      1.00000
     21       1.5340      1.00000
     22       1.5743      1.00000
     23       1.7760      1.00000
     24       2.1092      1.00000
     25       2.2968      1.00000
     26       2.8073      1.00000
     27       2.9365      1.00000
     28       3.0531      1.00000
     29       8.1281      0.00000
     30       8.9443      0.00000
     31       9.2616      0.00000
     32      10.5262      0.00000
     33      10.8417      0.00000
     34      11.3348      0.00000
     35      11.6405      0.00000
     36      12.2005      0.00000
     37      12.6852      0.00000
     38      13.2469      0.00000
     39      13.3585      0.00000
     40      13.6973      0.00000
     41      13.9259      0.00000
     42      14.3233      0.00000
     43      14.8831      0.00000
     44      15.1612      0.00000
     45      15.8752      0.00000
     46      15.9054      0.00000
     47      16.1496      0.00000
     48      16.4719      0.00000

 k-point     5 :       0.0000    0.0000    0.5000
  band No.  band energies     occupation 
      1     -13.5289      1.00000
      2     -13.2991      1.00000
      3     -12.9762      1.00000
      4     -12.9628      1.00000
      5     -12.5832      1.00000
      6     -12.5046      1.00000
      7     -12.4417      1.00000
      8      -0.9244      1.00000
      9      -0.5506      1.00000
     10      -0.4380      1.00000
     11      -0.3272      1.00000
     12       0.0975      1.00000
     13       0.2718      1.00000
     14       0.4940      1.00000
     15       0.6755      1.00000
     16       0.9173      1.00000
     17       1.0860      1.00000
     18       1.2958      1.00000
     19       1.3692      1.00000
     20       1.5133      1.00000
     21       1.5570      1.00000
     22       1.7676      1.00000
     23       1.9178      1.00000
     24       2.2849      1.00000
     25       2.4951      1.00000
     26       2.5135      1.00000
     27       3.0303      1.00000
     28       3.1132      1.00000
     29       7.7470      0.00000
     30       8.4575      0.00000
     31       9.6415      0.00000
     32      10.4488      0.00000
     33      11.1929      0.00000
     34      11.5533      0.00000
     35      11.9158      0.00000
     36      12.1432      0.00000
     37      12.6786      0.00000
     38      12.9399      0.00000
     39      13.1789      0.00000
     40      13.3830      0.00000
     41      13.8128      0.00000
     42      14.4547      0.00000
     43      14.9842      0.00000
     44      15.4317      0.00000
     45      15.7512      0.00000
     46      15.9919      0.00000
     47      16.2655      0.00000
     48      16.5294      0.00000

 k-point     6 :       0.5000    0.0000    0.5000
  band No.  band energies     occupation 
      1     -13.4270      1.00000
      2     -13.2187      1.00000
      3     -13.0734      1.00000
      4     -12.9885      1.00000
      5     -12.7049      1.00000
      6     -12.5835      1.00000
      7     -12.3227      1.00000
      8      -0.7672      1.00000
      9      -0.4711      1.00000
     10      -0.3452      1.00000
     11      -0.1240      1.00000
     12       0.1653      1.00000
     13       0.3880      1.00000
     14       0.4689      1.00000
     15       0.7056      1.00000
     16       0.8400      1.00000
     17       1.1588      1.00000
     18       1.1897      1.00000
     19       1.2760      1.00000
     20       1.3163      1.00000
     21       1.5315      1.00000
     22       1.5733      1.00000
     23       1.7743      1.00000
     24       2.1092      1.00000
     25       2.3025      1.00000
     26       2.8065      1.00000
     27       2.9349      1.00000
     28       3.0548      1.00000
     29       8.1281      0.00000
     30       8.9453      0.00000
     31       9.2633      0.00000
     32      10.5248      0.00000
     33      10.8418      0.00000
     34      11.3336      0.00000
     35      11.6356      0.00000
     36      12.1978      0.00000
     37      12.6873      0.00000
     38      13.2463      0.00000
     39      13.3571      0.00000
     40      13.6922      0.00000
     41      13.9287      0.00000
     42      14.3166      0.00000
     43      14.8876      0.00000
     44      15.1633      0.00000
     45      15.8670      0.00000
     46      15.9116      0.00000
     47      16.1605      0.00000
     48      16.4703      0.00000

 k-point     7 :       0.0000    0.5000    0.5000
  band No.  band energies     occupation 
      1     -13.4272      1.00000
      2     -13.2166      1.00000
      3     -13.0740      1.00000
      4     -12.9914      1.00000
      5     -12.7060      1.00000
      6     -12.5783      1.00000
      7     -12.3251      1.00000
      8      -0.7697      1.00000
      9      -0.4674      1.00000
     10      -0.3470      1.00000
     11      -0.1247      1.00000
     12       0.1672      1.00000
     13       0.3918      1.00000
     14       0.4656      1.00000
     15       0.7058      1.00000
     16       0.8390      1.00000
     17       1.1606      1.00000
     18       1.1894      1.00000
     19       1.2736      1.00000
     20       1.3167      1.00000
     21       1.5302      1.00000
     22       1.5745      1.00000
     23       1.7764      1.00000
     24       2.1090      1.00000
     25       2.3008      1.00000
     26       2.8078      1.00000
     27       2.9339      1.00000
     28       3.0546      1.00000
     29       8.1284      0.00000
     30       8.9447      0.00000
     31       9.2624      0.00000
     32      10.5223      0.00000
     33      10.8389      0.00000
     34      11.3362      0.00000
     35      11.6414      0.00000
     36      12.1959      0.00000
     37      12.6857      0.00000
     38      13.2473      0.00000
     39      13.3546      0.00000
     40      13.7061      0.00000
     41      13.9264      0.00000
     42      14.3243      0.00000
     43      14.8869      0.00000
     44      15.1642      0.00000
     45      15.8671      0.00000
     46      15.9015      0.00000
     47      16.1532      0.00000
     48      16.4666      0.00000

 k-point     8 :       0.5000    0.5000    0.5000
  band No.  band energies     occupation 
      1     -13.5289      1.00000
      2     -13.2990      1.00000
      3     -12.9785      1.00000
      4     -12.9601      1.00000
      5     -12.5812      1.00000
      6     -12.5104      1.00000
      7     -12.4383      1.00000
      8      -0.9239      1.00000
      9      -0.5524      1.00000
     10      -0.4373      1.00000
     11      -0.3245      1.00000
     12       0.0943      1.00000
     13       0.2745      1.00000
     14       0.4960      1.00000
     15       0.6741      1.00000
     16       0.9140      1.00000
     17       1.0850      1.00000
     18       1.2948      1.00000
     19       1.3682      1.00000
     20       1.5160      1.00000
     21       1.5546      1.00000
     22       1.7685      1.00000
     23       1.9206      1.00000
     24       2.2857      1.00000
     25       2.4930      1.00000
     26       2.5146      1.00000
     27       3.0301      1.00000
     28       3.1137      1.00000
     29       7.7465      0.00000
     30       8.4576      0.00000
     31       9.6389      0.00000
     32      10.4483      0.00000
     33      11.1946      0.00000
     34      11.5588      0.00000
     35      11.9190      0.00000
     36      12.1423      0.00000
     37      12.6846      0.00000
     38      12.9409      0.00000
     39      13.1655      0.00000
     40      13.3836      0.00000
     41      13.8120      0.00000
     42      14.4616      0.00000
     43      14.9818      0.00000
     44      15.4316      0.00000
     45      15.7550      0.00000
     46      15.9894      0.00000
     47      16.2626      0.00000
     48      16.5248      0.00000

 spin component 2

 k-point     1 :       0.0000    0.0000    0.0000
  band No.  band energies     occupation 
      1     -13.8703      1.00000
      2     -12.9637      1.00000
      3     -12.9452      1.00000
      4     -12.9410      1.00000
      5     -12.6006      1.00000
      6     -12.4498      1.00000
      7     -12.4457      1.00000
      8      -0.9414      1.00000
      9      -0.9000      1.00000
     10      -0.8330      1.00000
     11      -0.8317      1.00000
     12      -0.3249      1.00000
     13      -0.0357      1.00000
     14      -0.0346      1.00000
     15       0.5774      1.00000
     16       1.4746      1.00000
     17       1.4781      1.00000
     18       1.7214      1.00000
     19       1.7622      1.00000
     20       1.7649      1.00000
     21       2.0598      1.00000
     22       2.0631      1.00000
     23       2.2492      1.00000
     24       2.4914      1.00000
     25       2.4957      1.00000
     26       3.0763      1.00000
     27       3.0776      1.00000
     28       3.1608      1.00000
     29       5.5589      0.00000
     30       9.6933      0.00000
     31      10.3565      0.00000
     32      10.5725      0.00000
     33      10.5791      0.00000
     34      11.9137      0.00000
     35      11.9327      0.00000
     36      11.9374      0.00000
     37      12.3877      0.00000
     38      12.7348      0.00000
     39      12.8307      0.00000
     40      12.8371      0.00000
     41      13.8002      0.00000
     42      14.3132      0.00000
     43      14.5083      0.00000
     44      14.5174      0.00000
     45      15.9022      0.00000
     46      15.9075      0.00000
     47      16.4470      0.00000
     48      16.4554      0.00000

 k-point     2 :       0.5000    0.0000    0.0000
  band No.  band energies     occupation 
      1     -13.5303      1.00000
      2     -13.2964      1.00000
      3     -12.9777      1.00000
      4     -12.9622      1.00000
      5     -12.5816      1.00000
      6     -12.5084      1.00000
      7     -12.4396      1.00000
      8      -0.9243      1.00000
      9      -0.5536      1.00000
     10      -0.4377      1.00000
     11      -0.3246      1.00000
     12       0.0946      1.00000
     13       0.2736      1.00000
     14       0.4973      1.00000
     15       0.6755      1.00000
     16       0.9175      1.00000
     17       1.0859      1.00000
     18       1.2916      1.00000
     19       1.3670      1.00000
     20       1.5142      1.00000
     21       1.5553      1.00000
     22       1.7701      1.00000
     23       1.9212      1.00000
     24       2.2837      1.00000
     25       2.4941      1.00000
     26       2.5148      1.00000
     27       3.0310      1.00000
     28       3.1137      1.00000
     29       7.7484      0.00000
     30       8.4551      0.00000
     31       9.6388      0.00000
     32      10.4549      0.00000
     33      11.1932      0.00000
     34      11.5535      0.00000
     35      11.9188      0.00000
     36      12.1419      0.00000
     37      12.6796      0.00000
     38      12.9390      0.00000
     39      13.1717      0.00000
     40      13.3793      0.00000
     41      13.8037      0.00000
     42      14.4543      0.00000
     43      14.9865      0.00000
     44      15.4363      0.00000
     45      15.7591      0.00000
     46      15.9868      0.00000
     47      16.2678      0.00000
     48      16.5259      0.00000

 k-point     3 :       0.0000    0.5000    0.0000
  band No.  band energies     occupation 
      1     -13.5744      1.00000
      2     -13.1709      1.00000
      3     -12.9896      1.00000
      4     -12.9851      1.00000
      5     -12.7592      1.00000
      6     -12.4080      1.00000
      7     -12.4040      1.00000
      8      -0.9281      1.00000
      9      -0.6419      1.00000
     10      -0.6404      1.00000
     11      -0.1858      1.00000
     12       0.2097      1.00000
     13       0.3036      1.00000
     14       0.3060      1.00000
     15       0.6368      1.00000
     16       0.8250      1.00000
     17       1.0028      1.00000
     18       1.0071      1.00000
     19       1.5750      1.00000
     20       1.6048      1.00000
     21       1.6061      1.00000
     22       2.0516      1.00000
     23       2.0540      1.00000
     24       2.4573      1.00000
     25       2.4617      1.00000
     26       2.6410      1.00000
     27       2.9957      1.00000
     28       2.9973      1.00000
     29       7.2162      0.00000
     30       9.3408      0.00000
     31      10.4190      0.00000
     32      10.6024      0.00000
     33      10.6091      0.00000
     34      10.9441      0.00000
     35      11.5382      0.00000
     36      12.0321      0.00000
     37      12.0367      0.00000
     38      12.9680      0.00000
     39      12.9709      0.00000
     40      13.9106      0.00000
     41      14.3240      0.00000
     42      14.8738      0.00000
     43      14.9060      0.00000
     44      14.9136      0.00000
     45      15.3991      0.00000
     46      15.4063      0.00000
     47      16.6773      0.00000
     48      16.7856      0.00000

 k-point     4 :       0.5000    0.5000    0.0000
  band No.  band energies     occupation 
      1     -13.4277      1.00000
      2     -13.2175      1.00000
      3     -13.0724      1.00000
      4     -12.9897      1.00000
      5     -12.7066      1.00000
      6     -12.5814      1.00000
      7     -12.3235      1.00000
      8      -0.7669      1.00000
      9      -0.4689      1.00000
     10      -0.3450      1.00000
     11      -0.1264      1.00000
     12       0.1674      1.00000
     13       0.3887      1.00000
     14       0.4661      1.00000
     15       0.7041      1.00000
     16       0.8419      1.00000
     17       1.1571      1.00000
     18       1.1897      1.00000
     19       1.2736      1.00000
     20       1.3189      1.00000
     21       1.5340      1.00000
     22       1.5743      1.00000
     23       1.7760      1.00000
     24       2.1092      1.00000
     25       2.2968      1.00000
     26       2.8073      1.00000
     27       2.9365      1.00000
     28       3.0532      1.00000
     29       8.1282      0.00000
     30       8.9443      0.00000
     31       9.2616      0.00000
     32      10.5262      0.00000
     33      10.8417      0.00000
     34      11.3348      0.00000
     35      11.6404      0.00000
     36      12.2005      0.00000
     37      12.6851      0.00000
     38      13.2468      0.00000
     39      13.3584      0.00000
     40      13.6972      0.00000
     41      13.9259      0.00000
     42      14.3232      0.00000
     43      14.8831      0.00000
     44      15.1612      0.00000
     45      15.8751      0.00000
     46      15.9053      0.00000
     47      16.1494      0.00000
     48      16.4717      0.00000

 k-point     5 :       0.0000    0.0000    0.5000
  band No.  band energies     occupation 
      1     -13.5289      1.00000
      2     -13.2990      1.00000
      3     -12.9762      1.00000
      4     -12.9627      1.00000
      5     -12.5832      1.00000
      6     -12.5045      1.00000
      7     -12.4417      1.00000
      8      -0.9244      1.00000
      9      -0.5506      1.00000
     10      -0.4380      1.00000
     11      -0.3272      1.00000
     12       0.0975      1.00000
     13       0.2718      1.00000
     14       0.4940      1.00000
     15       0.6755      1.00000
     16       0.9173      1.00000
     17       1.0860      1.00000
     18       1.2958      1.00000
     19       1.3693      1.00000
     20       1.5133      1.00000
     21       1.5570      1.00000
     22       1.7676      1.00000
     23       1.9179      1.00000
     24       2.2850      1.00000
     25       2.4951      1.00000
     26       2.5136      1.00000
     27       3.0304      1.00000
     28       3.1132      1.00000
     29       7.7471      0.00000
     30       8.4574      0.00000
     31       9.6415      0.00000
     32      10.4488      0.00000
     33      11.1929      0.00000
     34      11.5532      0.00000
     35      11.9157      0.00000
     36      12.1432      0.00000
     37      12.6785      0.00000
     38      12.9399      0.00000
     39      13.1789      0.00000
     40      13.3830      0.00000
     41      13.8127      0.00000
     42      14.4546      0.00000
     43      14.9841      0.00000
     44      15.4316      0.00000
     45      15.7512      0.00000
     46      15.9918      0.00000
     47      16.2654      0.00000
     48      16.5293      0.00000

 k-point     6 :       0.5000    0.0000    0.5000
  band No.  band energies     occupation 
      1     -13.4270      1.00000
      2     -13.2187      1.00000
      3     -13.0733      1.00000
      4     -12.9884      1.00000
      5     -12.7049      1.00000
      6     -12.5835      1.00000
      7     -12.3227      1.00000
      8      -0.7672      1.00000
      9      -0.4711      1.00000
     10      -0.3452      1.00000
     11      -0.1240      1.00000
     12       0.1653      1.00000
     13       0.3880      1.00000
     14       0.4689      1.00000
     15       0.7056      1.00000
     16       0.8400      1.00000
     17       1.1588      1.00000
     18       1.1898      1.00000
     19       1.2760      1.00000
     20       1.3163      1.00000
     21       1.5315      1.00000
     22       1.5733      1.00000
     23       1.7743      1.00000
     24       2.1093      1.00000
     25       2.3026      1.00000
     26       2.8066      1.00000
     27       2.9350      1.00000
     28       3.0549      1.00000
     29       8.1282      0.00000
     30       8.9452      0.00000
     31       9.2633      0.00000
     32      10.5248      0.00000
     33      10.8417      0.00000
     34      11.3336      0.00000
     35      11.6355      0.00000
     36      12.1978      0.00000
     37      12.6873      0.00000
     38      13.2463      0.00000
     39      13.3570      0.00000
     40      13.6921      0.00000
     41      13.9286      0.00000
     42      14.3165      0.00000
     43      14.8875      0.00000
     44      15.1633      0.00000
     45      15.8669      0.00000
     46      15.9115      0.00000
     47      16.1603      0.00000
     48      16.4702      0.00000

 k-point     7 :       0.0000    0.5000    0.5000
  band No.  band energies     occupation 
      1     -13.4272      1.00000
      2     -13.2166      1.00000
      3     -13.0740      1.00000
      4     -12.9914      1.00000
      5     -12.7060      1.00000
      6     -12.5783      1.00000
      7     -12.3251      1.00000
      8      -0.7697      1.00000
      9      -0.4674      1.00000
     10      -0.3470      1.00000
     11      -0.1247      1.00000
     12       0.1672      1.00000
     13       0.3918      1.00000
     14       0.4657      1.00000
     15       0.7058      1.00000
     16       0.8390      1.00000
     17       1.1606      1.00000
     18       1.1894      1.00000
     19       1.2737      1.00000
     20       1.3167      1.00000
     21       1.5302      1.00000
     22       1.5745      1.00000
     23       1.7765      1.00000
     24       2.1090      1.00000
     25       2.3008      1.00000
     26       2.8078      1.00000
     27       2.9340      1.00000
     28       3.0547      1.00000
     29       8.1284      0.00000
     30       8.9447      0.00000
     31       9.2624      0.00000
     32      10.5223      0.00000
     33      10.8389      0.00000
     34      11.3362      0.00000
     35      11.6413      0.00000
     36      12.1959      0.00000
     37      12.6856      0.00000
     38      13.2473      0.00000
     39      13.3545      0.00000
     40      13.7060      0.00000
     41      13.9264      0.00000
     42      14.3243      0.00000
     43      14.8868      0.00000
     44      15.1641      0.00000
     45      15.8670      0.00000
     46      15.9014      0.00000
     47      16.1531      0.00000
     48      16.4665      0.00000

 k-point     8 :       0.5000    0.5000    0.5000
  band No.  band energies     occupation 
      1     -13.5288      1.00000
      2     -13.2990      1.00000
      3     -12.9785      1.00000
      4     -12.9601      1.00000
      5     -12.5812      1.00000
      6     -12.5104      1.00000
      7     -12.4383      1.00000
      8      -0.9240      1.00000
      9      -0.5524      1.00000
     10      -0.4373      1.00000
     11      -0.3245      1.00000
     12       0.0943      1.00000
     13       0.2745      1.00000
     14       0.4960      1.00000
     15       0.6742      1.00000
     16       0.9140      1.00000
     17       1.0850      1.00000
     18       1.2949      1.00000
     19       1.3683      1.00000
     20       1.5160      1.00000
     21       1.5546      1.00000
     22       1.7685      1.00000
     23       1.9206      1.00000
     24       2.2858      1.00000
     25       2.4931      1.00000
     26       2.5147      1.00000
     27       3.0301      1.00000
     28       3.1137      1.00000
     29       7.7466      0.00000
     30       8.4576      0.00000
     31       9.6389      0.00000
     32      10.4483      0.00000
     33      11.1946      0.00000
     34      11.5588      0.00000
     35      11.9189      0.00000
     36      12.1422      0.00000
     37      12.6846      0.00000
     38      12.9409      0.00000
     39      13.1654      0.00000
     40      13.3835      0.00000
     41      13.8119      0.00000
     42      14.4615      0.00000
     43      14.9817      0.00000
     44      15.4315      0.00000
     45      15.7549      0.00000
     46      15.9893      0.00000
     47      16.2625      0.00000
     48      16.5247      0.00000


--------------------------------------------------------------------------------------------------------


 soft charge-density along one line, spin component           1
         0         1         2         3         4         5         6         7         8         9
 total charge-density along one line
 
 soft charge-density along one line, spin component           2
         0         1         2         3         4         5         6         7         8         9
 total charge-density along one line
 
 pseudopotential strength for first ion, spin component:           1
  2.974   9.465   0.003  -0.003  -0.003   0.008  -0.008  -0.008
  9.465  29.963   0.014  -0.014  -0.014   0.027  -0.027  -0.027
  0.003   0.014   7.237   0.001   0.002  10.527   0.003   0.003
 -0.003  -0.014   0.001   7.237  -0.002   0.003  10.527  -0.003
 -0.003  -0.014   0.002  -0.002   7.237   0.003  -0.003  10.527
  0.008   0.027  10.527   0.003   0.003  14.516   0.004   0.004
 -0.008  -0.027   0.003  10.527  -0.003   0.004  14.516  -0.004
 -0.008  -0.027   0.003  -0.003  10.527   0.004  -0.004  14.516
  0.001   0.003  -0.013  -0.004   0.008  -0.014  -0.004   0.008
  0.001   0.003  -0.008   0.013  -0.004  -0.009   0.014  -0.004
 -0.000  -0.000  -0.003  -0.010   0.007  -0.003  -0.010   0.008
 -0.001  -0.003  -0.004  -0.008  -0.013  -0.004  -0.009  -0.014
 -0.000  -0.000  -0.010  -0.002  -0.007  -0.010  -0.003  -0.008
 pseudopotential strength for first ion, spin component:           2
  2.974   9.465   0.003  -0.003  -0.003   0.008  -0.008  -0.008
  9.465  29.963   0.014  -0.014  -0.014   0.027  -0.027  -0.027
  0.003   0.014   7.237   0.001   0.002  10.527   0.003   0.003
 -0.003  -0.014   0.001   7.237  -0.002   0.003  10.527  -0.003
 -0.003  -0.014   0.002  -0.002   7.237   0.003  -0.003  10.527
  0.008   0.027  10.527   0.003   0.003  14.516   0.004   0.004
 -0.008  -0.027   0.003  10.527  -0.003   0.004  14.516  -0.004
 -0.008  -0.027   0.003  -0.003  10.527   0.004  -0.004  14.516
  0.001   0.003  -0.013  -0.004   0.008  -0.014  -0.004   0.008
  0.001   0.003  -0.008   0.013  -0.004  -0.009   0.014  -0.004
 -0.000  -0.000  -0.003  -0.010   0.007  -0.003  -0.010   0.008
 -0.001  -0.003  -0.004  -0.008  -0.013  -0.004  -0.009  -0.014
 -0.000  -0.000  -0.010  -0.002  -0.007  -0.010  -0.003  -0.008
 total augmentation occupancy for first ion, spin component:           1
  0.979  -0.038  -0.047   0.048   0.048   0.007  -0.007  -0.007   0.008   0.009   0.000  -0.008   0.000
 -0.038   0.002   0.002  -0.002  -0.002  -0.000   0.000   0.000  -0.000  -0.000  -0.000   0.000  -0.000
 -0.047   0.002   0.098   0.005   0.005  -0.010  -0.000  -0.000   0.008   0.012   0.004   0.011   0.006
  0.048  -0.002   0.005   0.098  -0.004  -0.000  -0.010   0.000   0.011  -0.008   0.007   0.012  -0.000
  0.048  -0.002   0.005  -0.004   0.098  -0.000   0.000  -0.010  -0.012   0.011  -0.003   0.008   0.006
  0.007  -0.000  -0.010  -0.000  -0.000   0.001   0.000   0.000  -0.001  -0.001  -0.000  -0.001  -0.001
 -0.007   0.000  -0.000  -0.010   0.000   0.000   0.001  -0.000  -0.001   0.001  -0.001  -0.001   0.000
 -0.007   0.000  -0.000   0.000  -0.010   0.000  -0.000   0.001   0.001  -0.001   0.000  -0.001  -0.001
  0.008  -0.000   0.008   0.011  -0.012  -0.001  -0.001   0.001   0.023  -0.007   0.005   0.007  -0.007
  0.009  -0.000   0.012  -0.008   0.011  -0.001   0.001  -0.001  -0.007   0.024   0.004   0.007   0.008
  0.000  -0.000   0.004   0.007  -0.003  -0.000  -0.001   0.000   0.005   0.004   0.016   0.009  -0.000
 -0.008   0.000   0.011   0.012   0.008  -0.001  -0.001  -0.001   0.007   0.007   0.009   0.024   0.001
  0.000  -0.000   0.006  -0.000   0.006  -0.001   0.000  -0.001  -0.007   0.008  -0.000   0.001   0.016
 total augmentation occupancy for first ion, spin component:           2
 -0.000  -0.000   0.000  -0.000  -0.000   0.000  -0.000  -0.000   0.000   0.000  -0.000  -0.000  -0.000
 -0.000   0.000  -0.000   0.000   0.000   0.000  -0.000  -0.000  -0.000  -0.000  -0.000   0.000   0.000
  0.000  -0.000  -0.000  -0.000  -0.000   0.000   0.000   0.000  -0.000  -0.000  -0.000  -0.000  -0.000
 -0.000   0.000  -0.000  -0.000   0.000   0.000   0.000  -0.000  -0.000   0.000  -0.000  -0.000  -0.000
 -0.000   0.000  -0.000   0.000  -0.000   0.000  -0.000   0.000   0.000  -0.000   0.000  -0.000  -0.000
  0.000   0.000   0.000   0.000   0.000  -0.000  -0.000  -0.000   0.000  -0.000  -0.000  -0.000  -0.000
 -0.000  -0.000   0.000   0.000  -0.000  -0.000  -0.000   0.000  -0.000  -0.000  -0.000  -0.000   0.000
 -0.000  -0.000   0.000  -0.000   0.000  -0.000   0.000  -0.000   0.000  -0.000  -0.000  -0.000  -0.000
  0.000  -0.000  -0.000  -0.000   0.000   0.000  -0.000   0.000  -0.000   0.000  -0.000  -0.000   0.000
  0.000  -0.000  -0.000   0.000  -0.000  -0.000  -0.000  -0.000   0.000  -0.000  -0.000  -0.000  -0.000
 -0.000  -0.000  -0.000  -0.000   0.000  -0.000  -0.000  -0.000  -0.000  -0.000  -0.000  -0.000  -0.000
 -0.000   0.000  -0.000  -0.000  -0.000  -0.000  -0.000  -0.000  -0.000  -0.000  -0.000  -0.000  -0.000
 -0.000   0.000  -0.000  -0.000  -0.000  -0.000   0.000  -0.000   0.000  -0.000  -0.000  -0.000  -0.000


------------------------ aborting loop because EDIFF is reached ----------------------------------------


 


 total charge     
 
# of ion     s       p       d       tot
----------------------------------------
  1        0.147   0.149   0.056   0.352
  2        0.130   0.140   0.055   0.325
  3        0.156   0.183   0.077   0.416
  4        0.189   0.226   0.098   0.513
  5        0.189   0.226   0.098   0.513
  6        0.156   0.183   0.077   0.416
  7        0.157   0.183   0.077   0.417
  8        0.190   0.226   0.098   0.514
  9        0.136   0.145   0.056   0.337
 10        1.570   3.493   0.000   5.063
 11        1.567   3.534   0.000   5.101
 12        1.567   3.534   0.000   5.101
 13        1.570   3.493   0.000   5.063
 14        1.570   3.492   0.000   5.062
 15        1.567   3.534   0.000   5.101
 16        1.569   3.616   0.000   5.184
------------------------------------------------
tot       12.430  26.357   0.692  39.479
 


 magnetization (x)
 
# of ion     s       p       d       tot
----------------------------------------
  1       -0.000  -0.000   0.000  -0.000
  2       -0.000  -0.000   0.000  -0.000
  3       -0.000  -0.000   0.000  -0.000
  4       -0.000  -0.000  -0.000  -0.000
  5       -0.000  -0.000  -0.000  -0.000
  6       -0.000  -0.000   0.000  -0.000
  7       -0.000  -0.000   0.000  -0.000
  8       -0.000  -0.000  -0.000  -0.000
  9       -0.000  -0.000   0.000  -0.000
 10        0.000   0.000   0.000   0.000
 11       -0.000   0.000   0.000   0.000
 12       -0.000   0.000   0.000   0.000
 13        0.000   0.000   0.000   0.000
 14        0.000   0.000   0.000   0.000
 15       -0.000   0.000   0.000   0.000
 16        0.000   0.000   0.000   0.000
------------------------------------------------
tot       -0.000   0.000   0.000   0.000
 
    CHARGE:  cpu time    0.0160: real time    0.0190
    FORLOC:  cpu time    0.0040: real time    0.0015
    FORNL :  cpu time    0.1400: real time    0.1419
    STRESS:  cpu time    0.4240: real time    0.4238
    FORCOR:  cpu time    0.0200: real time    0.0220
    FORHAR:  cpu time    0.0040: real time    0.0031
    MIXING:  cpu time    0.0000: real time    0.0010
    OFIELD:  cpu time    0.0000: real time    0.0000

  FORCE on cell =-STRESS in cart. coord.  units (eV):
  Direction    XX          YY          ZZ          XY          YZ          ZX
  --------------------------------------------------------------------------------------
  Alpha Z   142.81397   142.81397   142.81397
  Ewald    -814.46251  -815.32700  -814.92213     9.25297     9.40390    -8.91167
  Hartree   371.32433   371.16637   371.23460     7.14253     7.07506    -6.95099
  E(xc)    -255.80674  -255.79785  -255.80094     0.04906     0.04814    -0.05346
  Local    -375.52624  -374.54506  -375.02128   -13.33062   -13.40548    12.82618
  n-local  -113.18304  -113.24795  -113.22038     0.08901     0.09191    -0.05364
  augment    47.45610    47.45693    47.45652    -0.23088    -0.23309     0.23492
  Kinetic   985.20090   985.18347   985.18149    -3.68628    -3.73223     3.76912
  Fock        0.00000     0.00000     0.00000     0.00000     0.00000     0.00000
  -------------------------------------------------------------------------------------
  Total     -12.18323   -12.29712   -12.27815    -0.71421    -0.75179     0.86048
  in kB    -127.41750  -128.60865  -128.41021    -7.46948    -7.86254     8.99925
  external pressure =     -128.15 kB  Pullay stress =        0.00 kB


 VOLUME and BASIS-vectors are now :
 -----------------------------------------------------------------------------
  energy-cutoff  :      400.00
  volume of cell :      153.19
      direct lattice vectors                 reciprocal lattice vectors
     0.000000000  4.246893000  4.246893000    -0.117733129  0.117733129  0.117733129
     4.246893000  0.000000000  4.246893000     0.117733129 -0.117733129  0.117733129
     4.246893000  4.246893000  0.000000000     0.117733129  0.117733129 -0.117733129

  length of vectors
     6.006013679  6.006013679  6.006013679     0.203919761  0.203919761  0.203919761


 FORCES acting on ions
    electron-ion (+dipol)            ewald-force                    non-local-force                 convergence-correction
 -----------------------------------------------------------------------------------------------
   0.181E+02 -.180E+02 0.181E+02   -.164E+02 0.163E+02 -.164E+02   -.173E+01 0.169E+01 -.173E+01   -.443E-03 0.418E-03 -.439E-03
   -.111E+02 0.110E+02 -.109E+02   0.986E+01 -.972E+01 0.968E+01   0.125E+01 -.123E+01 0.123E+01   -.461E-04 0.397E-04 -.575E-04
   -.159E+02 0.298E+01 -.176E+02   0.146E+02 -.348E+01 0.167E+02   0.125E+01 0.504E+00 0.862E+00   0.489E-03 -.332E-03 0.205E-03
   0.101E+02 -.238E+02 0.211E+01   -.934E+01 0.217E+02 -.211E+01   -.724E+00 0.209E+01 0.255E-01   0.318E-04 0.476E-03 0.240E-03
   0.238E+02 -.216E+01 0.102E+02   -.217E+02 0.216E+01 -.944E+01   -.211E+01 -.215E-01 -.764E+00   -.467E-03 -.242E-03 0.152E-04
   -.176E+02 0.159E+02 -.289E+01   0.167E+02 -.147E+02 0.341E+01   0.865E+00 -.125E+01 -.518E+00   0.207E-03 -.472E-03 0.348E-03
   -.286E+01 0.175E+02 -.161E+02   0.339E+01 -.167E+02 0.148E+02   -.515E+00 -.843E+00 0.128E+01   0.324E-03 -.206E-03 0.475E-03
   0.221E+01 -.101E+02 0.237E+02   -.220E+01 0.938E+01 -.217E+02   0.731E-02 0.742E+00 -.209E+01   0.223E-03 -.856E-05 -.467E-03
   0.965E+01 -.966E+01 0.988E+01   -.885E+01 0.886E+01 -.906E+01   -.796E+00 0.793E+00 -.836E+00   -.246E-03 0.259E-03 -.248E-03
   0.371E+02 -.186E+02 0.770E+01   -.404E+02 0.196E+02 -.489E+01   0.331E+01 -.107E+01 -.277E+01   -.124E-01 0.356E-02 0.204E-02
   -.194E+02 0.994E+01 -.172E+02   0.234E+02 -.121E+02 0.152E+02   -.396E+01 0.219E+01 0.202E+01   0.555E-02 -.304E-02 0.168E-02
   -.992E+01 0.173E+02 -.192E+02   0.121E+02 -.153E+02 0.231E+02   -.222E+01 -.200E+01 -.393E+01   0.304E-02 -.173E-02 0.533E-02
   0.816E+01 -.374E+02 0.188E+02   -.535E+01 0.407E+02 -.199E+02   -.280E+01 -.327E+01 0.101E+01   0.190E-02 0.125E-01 -.362E-02
   0.186E+02 -.795E+01 0.373E+02   -.197E+02 0.516E+01 -.405E+02   0.106E+01 0.277E+01 0.331E+01   -.355E-02 -.192E-02 -.124E-01
   -.173E+02 0.194E+02 -.101E+02   0.153E+02 -.233E+02 0.124E+02   0.203E+01 0.394E+01 -.222E+01   0.167E-02 -.547E-02 0.315E-02
   -.254E+02 0.254E+02 -.254E+02   0.286E+02 -.286E+02 0.287E+02   -.321E+01 0.324E+01 -.327E+01   0.931E-02 -.929E-02 0.937E-02
 -----------------------------------------------------------------------------------------------
   0.828E+01 -.824E+01 0.838E+01   0.711E-14 0.711E-14 0.000E+00   -.830E+01 0.827E+01 -.839E+01   0.560E-02 -.546E-02 0.558E-02
 
 
 POSITION                                       TOTAL-FORCE (eV/Angst)
 -----------------------------------------------------------------------------------
      2.82037      1.44038      2.81557        -0.005219     -0.003918     -0.007411
      4.22132      0.03771      4.21611        -0.016641      0.011141     -0.005683
      6.05217      2.14369      4.05393        -0.039157      0.002745     -0.015034
      5.64353      3.95654      2.30261         0.016137     -0.011019      0.020830
      4.55189      6.20099      5.63924        -0.011438     -0.017220      0.008318
      4.05612      2.45344      6.35649        -0.002219      0.032391      0.003663
      6.36090      4.44738      6.04728         0.007346      0.020578     -0.025273
      2.30520      2.86170      4.54740         0.018970     -0.006796     -0.004389
      4.22790      4.27835      4.22548        -0.001726     -0.012909     -0.014291
      3.74548      3.53858      2.16349         0.004439     -0.013697      0.030400
      4.07724      2.11787      4.37580        -0.001280     -0.004955      0.023685
      6.38913      4.12252      4.07546        -0.004379     -0.002583     -0.029882
      2.17159      4.76034      4.96544         0.012084      0.015861     -0.001617
      4.97008      6.33520      3.73836         0.009037     -0.028571      0.011893
      4.38192      4.42760      6.38270         0.012966      0.010516      0.009882
      6.35849      6.39351      6.35521         0.001081      0.008436     -0.005091
 -----------------------------------------------------------------------------------
    total drift:                               -0.017434      0.019284     -0.012299


--------------------------------------------------------------------------------------------------------



  FREE ENERGIE OF THE ION-ELECTRON SYSTEM (eV)
  ---------------------------------------------------
  free  energy   TOTEN  =      -101.42681387 eV

  energy  without entropy=     -101.42681387  energy(sigma->0) =     -101.42681387
 


--------------------------------------------------------------------------------------------------------


    POTLOK:  cpu time    0.7000: real time    0.7006


--------------------------------------------------------------------------------------------------------




--------------------------------------------------------------------------------------------------------


  
 reached required accuracy - stopping structural energy minimisation
     LOOP+:  cpu time   17.4320: real time   17.4892
    4ORBIT:  cpu time    0.0000: real time    0.0000
 


 total charge     
 
# of ion     s       p       d       tot
----------------------------------------
  1        0.147   0.149   0.056   0.352
  2        0.130   0.140   0.055   0.325
  3        0.156   0.183   0.077   0.416
  4        0.189   0.226   0.098   0.513
  5        0.189   0.226   0.098   0.513
  6        0.156   0.183   0.077   0.416
  7        0.157   0.183   0.077   0.417
  8        0.190   0.226   0.098   0.514
  9        0.136   0.145   0.056   0.337
 10        1.570   3.493   0.000   5.063
 11        1.567   3.534   0.000   5.101
 12        1.567   3.534   0.000   5.101
 13        1.570   3.493   0.000   5.063
 14        1.570   3.492   0.000   5.062
 15        1.567   3.534   0.000   5.101
 16        1.569   3.616   0.000   5.184
------------------------------------------------
tot       12.430  26.357   0.692  39.479
 


 magnetization (x)
 
# of ion     s       p       d       tot
----------------------------------------
  1       -0.000  -0.000   0.000  -0.000
  2       -0.000  -0.000   0.000  -0.000
  3       -0.000  -0.000   0.000  -0.000
  4       -0.000  -0.000  -0.000  -0.000
  5       -0.000  -0.000  -0.000  -0.000
  6       -0.000  -0.000   0.000  -0.000
  7       -0.000  -0.000   0.000  -0.000
  8       -0.000  -0.000  -0.000  -0.000
  9       -0.000  -0.000   0.000  -0.000
 10        0.000   0.000   0.000   0.000
 11       -0.000   0.000   0.000   0.000
 12       -0.000   0.000   0.000   0.000
 13        0.000   0.000   0.000   0.000
 14        0.000   0.000   0.000   0.000
 15       -0.000   0.000   0.000   0.000
 16        0.000   0.000   0.000   0.000
------------------------------------------------
tot       -0.000   0.000   0.000   0.000
 

 total amount of memory used by VASP on root node    36167. kBytes
========================================================================

   base      :      30000. kBytes
   nonlr-proj:       1282. kBytes
   fftplans  :        708. kBytes
   grid      :       1766. kBytes
   one-center:         64. kBytes
   wavefun   :       2347. kBytes
 
  
  
 General timing and accounting informations for this job:
 ========================================================
  
                  Total CPU time used (sec):       18.616
                            User time (sec):       18.356
                          System time (sec):        0.260
                         Elapsed time (sec):       18.834
  
                   Maximum memory used (kb):       63804.
                   Average memory used (kb):           0.
  
                          Minor page faults:        14227
                          Major page faults:            9
                 Voluntary context switches:         1351
