<?xml version="1.0" encoding="ISO-8859-1"?>
<modeling>
 <generator>
  <i name="program" type="string">vasp </i>
  <i name="version" type="string">5.4.1  </i>
  <i name="subversion" type="string">05Feb16 (build Mar 31 2016 13:39:20) complex                          parallel </i>
  <i name="platform" type="string">IFC91_ompi </i>
  <i name="date" type="string">2018 04 12 </i>
  <i name="time" type="string">14:24:07 </i>
 </generator>
 <incar>
  <i type="string" name="PREC">n</i>
  <i type="string" name="ALGO"> N</i>
  <i type="int" name="ISPIN">     2</i>
  <i type="int" name="NELM">   100</i>
  <i type="int" name="NELMIN">     4</i>
  <i type="int" name="IBRION">     2</i>
  <i name="EDIFF">      0.00000100</i>
  <i name="EDIFFG">     -0.05000000</i>
  <i type="int" name="NSW">    20</i>
  <i type="int" name="ISIF">     2</i>
  <i name="ENCUT">    400.00000000</i>
  <i name="NELECT">     56.00000000</i>
  <i type="string" name="LREAL"> A</i>
  <i type="int" name="ISMEAR">     0</i>
  <i name="SIGMA">      0.05000000</i>
  <i type="logical" name="LWAVE"> F  </i>
  <i type="logical" name="LCHARG"> F  </i>
  <i type="logical" name="LORBIT"> F  </i>
  <i type="logical" name="LASPH"> T  </i>
  <v type="int" name="KPOINT_BSE">    -1     0     0     0</v>
  <i type="int" name="NELM">   100</i>
  <i type="logical" name="LASPH"> T  </i>
 </incar>
 <kpoints>
  <generation param="Monkhorst-Pack">
   <v type="int" name="divisions">       2        2        2 </v>
   <v name="usershift">      0.00000000       0.00000000       0.00000000 </v>
   <v name="genvec1">      0.50000000       0.00000000       0.00000000 </v>
   <v name="genvec2">      0.00000000       0.50000000       0.00000000 </v>
   <v name="genvec3">      0.00000000       0.00000000       0.50000000 </v>
   <v name="shift">      0.50000000       0.50000000       0.50000000 </v>
  </generation>
  <varray name="kpointlist" >
   <v>       0.25000000       0.25000000       0.25000000 </v>
   <v>       0.25000000       0.00000000       0.00000000 </v>
   <v>       0.00000000       0.00000000      -0.25000000 </v>
   <v>       0.00000000       0.25000000       0.00000000 </v>
   <v>      -0.25000000       0.25000000       0.25000000 </v>
   <v>       0.25000000      -0.25000000       0.25000000 </v>
   <v>       0.25000000       0.25000000      -0.25000000 </v>
   <v>       0.25000000       0.00000000       0.50000000 </v>
   <v>      -0.25000000       0.50000000       0.50000000 </v>
   <v>       0.25000000       0.50000000       0.00000000 </v>
   <v>       0.00000000       0.50000000      -0.25000000 </v>
   <v>       0.50000000       0.00000000      -0.25000000 </v>
   <v>       0.50000000       0.50000000       0.25000000 </v>
   <v>       0.50000000      -0.25000000       0.50000000 </v>
   <v>       0.00000000       0.25000000       0.50000000 </v>
   <v>       0.50000000       0.25000000       0.00000000 </v>
  </varray>
  <varray name="weights" >
   <v>       0.06250000 </v>
   <v>       0.06250000 </v>
   <v>       0.06250000 </v>
   <v>       0.06250000 </v>
   <v>       0.06250000 </v>
   <v>       0.06250000 </v>
   <v>       0.06250000 </v>
   <v>       0.06250000 </v>
   <v>       0.06250000 </v>
   <v>       0.06250000 </v>
   <v>       0.06250000 </v>
   <v>       0.06250000 </v>
   <v>       0.06250000 </v>
   <v>       0.06250000 </v>
   <v>       0.06250000 </v>
   <v>       0.06250000 </v>
  </varray>
 </kpoints>
 <parameters>
  <separator name="general" >
   <i type="string" name="SYSTEM">unknown system</i>
   <i type="logical" name="LCOMPAT"> F  </i>
  </separator>
  <separator name="electronic" >
   <i type="string" name="PREC">n</i>
   <i name="ENMAX">    400.00000000</i>
   <i name="ENAUG">    605.39200000</i>
   <i name="EDIFF">      0.00000100</i>
   <i type="int" name="IALGO">    38</i>
   <i type="int" name="IWAVPR">    11</i>
   <i type="int" name="NBANDS">    48</i>
   <i name="NELECT">     56.00000000</i>
   <i type="int" name="TURBO">     0</i>
   <i type="int" name="IRESTART">     0</i>
   <i type="int" name="NREBOOT">     0</i>
   <i type="int" name="NMIN">     0</i>
   <i name="EREF">      0.00000000</i>
   <separator name="electronic smearing" >
    <i type="int" name="ISMEAR">     0</i>
    <i name="SIGMA">      0.05000000</i>
    <i name="KSPACING">      0.50000000</i>
    <i type="logical" name="KGAMMA"> T  </i>
   </separator>
   <separator name="electronic projectors" >
    <i type="logical" name="LREAL"> T  </i>
    <v name="ROPT">     -0.00050000     -0.00050000</v>
    <i type="int" name="LMAXPAW">  -100</i>
    <i type="int" name="LMAXMIX">     2</i>
    <i type="logical" name="NLSPLINE"> F  </i>
   </separator>
   <separator name="electronic startup" >
    <i type="int" name="ISTART">     0</i>
    <i type="int" name="ICHARG">     2</i>
    <i type="int" name="INIWAV">     1</i>
   </separator>
   <separator name="electronic spin" >
    <i type="int" name="ISPIN">     2</i>
    <i type="logical" name="LNONCOLLINEAR"> F  </i>
    <v name="MAGMOM">      1.00000000      1.00000000      1.00000000      1.00000000      1.00000000      1.00000000      1.00000000      1.00000000      1.00000000      1.00000000      1.00000000      1.00000000      1.00000000      1.00000000      1.00000000      1.00000000</v>
    <i name="NUPDOWN">     -1.00000000</i>
    <i type="logical" name="LSORBIT"> F  </i>
    <v name="SAXIS">      0.00000000      0.00000000      1.00000000</v>
    <i type="logical" name="LSPIRAL"> F  </i>
    <v name="QSPIRAL">      0.00000000      0.00000000      0.00000000</v>
    <i type="logical" name="LZEROZ"> F  </i>
   </separator>
   <separator name="electronic exchange-correlation" >
    <i type="logical" name="LASPH"> T  </i>
    <i type="logical" name="LMETAGGA"> F  </i>
   </separator>
   <separator name="electronic convergence" >
    <i type="int" name="NELM">   100</i>
    <i type="int" name="NELMDL">     0</i>
    <i type="int" name="NELMIN">     4</i>
    <i name="ENINI">    400.00000000</i>
    <separator name="electronic convergence detail" >
     <i type="logical" name="LDIAG"> T  </i>
     <i type="logical" name="LSUBROT"> F  </i>
     <i name="WEIMIN">      0.00100000</i>
     <i name="EBREAK">      0.00000001</i>
     <i name="DEPER">      0.30000000</i>
     <i type="int" name="NRMM">     4</i>
     <i name="TIME">      0.40000000</i>
    </separator>
   </separator>
   <separator name="electronic mixer" >
    <i name="AMIX">      0.40000000</i>
    <i name="BMIX">      1.00000000</i>
    <i name="AMIN">      0.10000000</i>
    <i name="AMIX_MAG">      1.60000000</i>
    <i name="BMIX_MAG">      1.00000000</i>
    <separator name="electronic mixer details" >
     <i type="int" name="IMIX">     4</i>
     <i type="logical" name="MIXFIRST"> F  </i>
     <i type="int" name="MAXMIX">   -45</i>
     <i name="WC">    100.00000000</i>
     <i type="int" name="INIMIX">     1</i>
     <i type="int" name="MIXPRE">     1</i>
     <i type="int" name="MREMOVE">     5</i>
    </separator>
   </separator>
   <separator name="electronic dipolcorrection" >
    <i type="logical" name="LDIPOL"> F  </i>
    <i type="logical" name="LMONO"> F  </i>
    <i type="int" name="IDIPOL">     0</i>
    <i name="EPSILON">      1.00000000</i>
    <v name="DIPOL">   -100.00000000   -100.00000000   -100.00000000</v>
    <i name="EFIELD">      0.00000000</i>
   </separator>
  </separator>
  <separator name="grids" >
   <i type="int" name="NGX">    30</i>
   <i type="int" name="NGY">    30</i>
   <i type="int" name="NGZ">    30</i>
   <i type="int" name="NGXF">    60</i>
   <i type="int" name="NGYF">    60</i>
   <i type="int" name="NGZF">    60</i>
   <i type="logical" name="ADDGRID"> F  </i>
  </separator>
  <separator name="ionic" >
   <i type="int" name="NSW">    20</i>
   <i type="int" name="IBRION">     2</i>
   <i type="int" name="ISIF">     2</i>
   <i name="PSTRESS">      0.00000000</i>
   <i name="EDIFFG">     -0.05000000</i>
   <i type="int" name="NFREE">     1</i>
   <i name="POTIM">      0.50000000</i>
   <i name="SMASS">     -3.00000000</i>
   <i name="SCALEE">      1.00000000</i>
  </separator>
  <separator name="ionic md" >
   <i name="TEBEG">      0.00010000</i>
   <i name="TEEND">      0.00010000</i>
   <i type="int" name="NBLOCK">     1</i>
   <i type="int" name="KBLOCK">    20</i>
   <i type="int" name="NPACO">   256</i>
   <i name="APACO">     16.00000000</i>
  </separator>
  <separator name="symmetry" >
   <i type="int" name="ISYM">     2</i>
   <i name="SYMPREC">      0.00001000</i>
  </separator>
  <separator name="dos" >
   <i type="logical" name="LORBIT"> F  </i>
   <v name="RWIGS">     -1.00000000     -1.00000000</v>
   <i type="int" name="NEDOS">   301</i>
   <i name="EMIN">     10.00000000</i>
   <i name="EMAX">    -10.00000000</i>
   <i name="EFERMI">      0.00000000</i>
  </separator>
  <separator name="writing" >
   <i type="int" name="NWRITE">     2</i>
   <i type="logical" name="LWAVE"> F  </i>
   <i type="logical" name="LCHARG"> F  </i>
   <i type="logical" name="LPARD"> F  </i>
   <i type="logical" name="LVTOT"> F  </i>
   <i type="logical" name="LVHAR"> F  </i>
   <i type="logical" name="LELF"> F  </i>
   <i type="logical" name="LOPTICS"> F  </i>
   <v name="STM">      0.00000000      0.00000000      0.00000000      0.00000000      0.00000000      0.00000000      0.00000000</v>
  </separator>
  <separator name="performance" >
   <i type="int" name="NPAR">     4</i>
   <i type="int" name="NSIM">     4</i>
   <i type="int" name="NBLK">    -1</i>
   <i type="logical" name="LPLANE"> T  </i>
   <i type="logical" name="LSCALAPACK"> T  </i>
   <i type="logical" name="LSCAAWARE"> F  </i>
   <i type="logical" name="LSCALU"> F  </i>
   <i type="logical" name="LASYNC"> F  </i>
   <i type="logical" name="LORBITALREAL"> F  </i>
  </separator>
  <separator name="miscellaneous" >
   <i type="int" name="IDIOT">     3</i>
   <i type="logical" name="LMUSIC"> F  </i>
   <v name="POMASS">     24.30500000     16.00000000</v>
   <v name="DARWINR">      0.00000000      0.00000000</v>
   <v name="DARWINV">      1.00000000      1.00000000</v>
   <i type="logical" name="LCORR"> T  </i>
  </separator>
  <i type="logical" name="GGA_COMPAT"> T  </i>
  <i type="logical" name="LBERRY"> F  </i>
  <i type="int" name="ICORELEVEL">     0</i>
  <i type="logical" name="LDAU"> F  </i>
  <i type="int" name="I_CONSTRAINED_M">     0</i>
  <separator name="electronic exchange-correlation" >
   <i type="string" name="GGA">--</i>
   <i type="int" name="VOSKOWN">     0</i>
   <i type="logical" name="LHFCALC"> F  </i>
   <i type="string" name="PRECFOCK"></i>
   <i type="logical" name="LSYMGRAD"> F  </i>
   <i type="logical" name="LHFONE"> F  </i>
   <i type="logical" name="LRHFCALC"> F  </i>
   <i type="logical" name="LTHOMAS"> F  </i>
   <i type="logical" name="LMODELHF"> F  </i>
   <i name="ENCUT4O">     -1.00000000</i>
   <i type="int" name="EXXOEP">     0</i>
   <i type="int" name="FOURORBIT">     0</i>
   <i name="AEXX">      0.00000000</i>
   <i name="HFALPHA">      0.00000000</i>
   <i name="MCALPHA">      0.00000000</i>
   <i name="ALDAX">      1.00000000</i>
   <i name="AGGAX">      1.00000000</i>
   <i name="ALDAC">      1.00000000</i>
   <i name="AGGAC">      1.00000000</i>
   <i type="int" name="NKREDX">     1</i>
   <i type="int" name="NKREDY">     1</i>
   <i type="int" name="NKREDZ">     1</i>
   <i type="logical" name="SHIFTRED"> F  </i>
   <i type="logical" name="ODDONLY"> F  </i>
   <i type="logical" name="EVENONLY"> F  </i>
   <i type="int" name="LMAXFOCK">     0</i>
   <i type="int" name="NMAXFOCKAE">     0</i>
   <i type="logical" name="LFOCKAEDFT"> F  </i>
   <i name="HFSCREEN">      0.00000000</i>
   <i name="HFSCREENC">      0.00000000</i>
   <i type="int" name="NBANDSGWLOW">     0</i>
  </separator>
  <separator name="vdW DFT" >
   <i type="logical" name="LUSE_VDW"> F  </i>
   <i name="Zab_VDW">     -0.84910000</i>
   <i name="PARAM1">      0.12340000</i>
   <i name="PARAM2">      1.00000000</i>
   <i name="PARAM3">      0.00000000</i>
  </separator>
  <separator name="model GW" >
   <i type="int" name="MODEL_GW">     0</i>
   <i name="MODEL_EPS0">      5.74480406</i>
   <i name="MODEL_ALPHA">      1.00000000</i>
  </separator>
  <separator name="linear response parameters" >
   <i type="logical" name="LEPSILON"> F  </i>
   <i type="logical" name="LRPA"> F  </i>
   <i type="logical" name="LNABLA"> F  </i>
   <i type="logical" name="LVEL"> F  </i>
   <i type="int" name="KINTER">     0</i>
   <i name="CSHIFT">      0.10000000</i>
   <i name="OMEGAMAX">     -1.00000000</i>
   <i name="DEG_THRESHOLD">      0.00200000</i>
  </separator>
  <separator name="orbital magnetization" >
   <i type="logical" name="NUCIND"> F  </i>
   <v name="MAGPOS">      0.00000000      0.00000000      0.00000000</v>
   <i type="logical" name="LNICSALL"> T  </i>
   <i type="logical" name="ORBITALMAG"> F  </i>
   <i type="logical" name="LMAGBLOCH"> F  </i>
   <i type="logical" name="LCHIMAG"> F  </i>
   <i type="logical" name="LGAUGE"> T  </i>
   <i type="int" name="MAGATOM">     0</i>
   <v name="MAGDIPOL">      0.00000000      0.00000000      0.00000000</v>
   <v name="AVECCONST">      0.00000000      0.00000000      0.00000000</v>
  </separator>
  <separator name="response functions" >
   <i type="logical" name="LADDER"> F  </i>
   <i type="logical" name="LFXC"> F  </i>
   <i type="logical" name="LHARTREE"> T  </i>
   <i type="int" name="IBSE">     0</i>
   <v type="int" name="KPOINT">    -1     0     0     0</v>
   <i type="logical" name="LTCTE"> F  </i>
   <i type="logical" name="LTETE"> F  </i>
   <i type="logical" name="LTRIPLET"> F  </i>
   <i type="logical" name="LFXCEPS"> F  </i>
   <i type="logical" name="LFXHEG"> F  </i>
   <i type="int" name="NATURALO">     0</i>
   <i type="logical" name="L2ORDER"> F  </i>
   <i type="logical" name="LUSEW"> F  </i>
   <i name="ENCUTGW">     -2.00000000</i>
   <i name="ENCUTGWSOFT">     -2.00000000</i>
   <i name="ENCUTLF">     -1.00000000</i>
   <i type="int" name="LMAXMP2">    -1</i>
   <i name="SCISSOR">      0.00000000</i>
   <i type="int" name="NOMEGA">     0</i>
   <i type="int" name="NOMEGAR">     0</i>
   <i type="int" name="NBANDSGW">    -1</i>
   <i type="int" name="NBANDSO">    -1</i>
   <i type="int" name="NBANDSV">    -1</i>
   <i type="int" name="NELM">   100</i>
   <i type="int" name="NELMHF">     1</i>
   <i type="int" name="DIM">     3</i>
   <i type="int" name="ANTIRES">     0</i>
   <i name="OMEGAMAX">    -30.00000000</i>
   <i name="OMEGAMIN">    -30.00000000</i>
   <i name="OMEGATL">   -200.00000000</i>
   <i type="int" name="OMEGAGRID">     0</i>
   <i name="CSHIFT">     -0.10000000</i>
   <i type="logical" name="SELFENERGY"> F  </i>
   <i type="logical" name="LSPECTRAL"> F  </i>
   <i type="logical" name="LSPECTRALGW"> F  </i>
   <i type="logical" name="LSINGLES"> F  </i>
   <i type="logical" name="LFERMIGW"> F  </i>
   <i type="logical" name="ODDONLYGW"> F  </i>
   <i type="logical" name="EVENONLYGW"> F  </i>
   <i type="int" name="NKREDLFX">     1</i>
   <i type="int" name="NKREDLFY">     1</i>
   <i type="int" name="NKREDLFZ">     1</i>
   <i type="int" name="MAXMEM">  1800</i>
   <i type="int" name="TELESCOPE">     0</i>
   <i type="int" name="TAUPAR">     1</i>
   <i type="int" name="OMEGAPAR">    -1</i>
   <i name="LAMBDA">      1.00000000</i>
  </separator>
  <separator name="External order field" >
   <i name="OFIELD_KAPPA">      0.00000000</i>
   <v name="OFIELD_K">      0.00000000      0.00000000      0.00000000</v>
   <i name="OFIELD_Q6_NEAR">      0.00000000</i>
   <i name="OFIELD_Q6_FAR">      0.00000000</i>
   <i name="OFIELD_A">      0.00000000</i>
  </separator>
 </parameters>
 <atominfo>
  <atoms>      16 </atoms>
  <types>       2 </types>
  <array name="atoms" >
   <dimension dim="1">ion</dimension>
   <field type="string">element</field>
   <field type="int">atomtype</field>
   <set>
    <rc><c>Mg</c><c>   1</c></rc>
    <rc><c>Mg</c><c>   1</c></rc>
    <rc><c>Mg</c><c>   1</c></rc>
    <rc><c>Mg</c><c>   1</c></rc>
    <rc><c>Mg</c><c>   1</c></rc>
    <rc><c>Mg</c><c>   1</c></rc>
    <rc><c>Mg</c><c>   1</c></rc>
    <rc><c>Mg</c><c>   1</c></rc>
    <rc><c>Mg</c><c>   1</c></rc>
    <rc><c>O </c><c>   2</c></rc>
    <rc><c>O </c><c>   2</c></rc>
    <rc><c>O </c><c>   2</c></rc>
    <rc><c>O </c><c>   2</c></rc>
    <rc><c>O </c><c>   2</c></rc>
    <rc><c>O </c><c>   2</c></rc>
    <rc><c>O </c><c>   2</c></rc>
   </set>
  </array>
  <array name="atomtypes" >
   <dimension dim="1">type</dimension>
   <field type="int">atomspertype</field>
   <field type="string">element</field>
   <field>mass</field>
   <field>valence</field>
   <field type="string">pseudopotential</field>
   <set>
    <rc><c>   9</c><c>Mg</c><c>     24.30500000</c><c>      2.00000000</c><c>  PAW_PBE Mg 13Apr2007                  </c></rc>
    <rc><c>   7</c><c>O </c><c>     16.00000000</c><c>      6.00000000</c><c>  PAW_PBE O 08Apr2002                   </c></rc>
   </set>
  </array>
 </atominfo>
 <structure name="initialpos" >
  <crystal>
   <varray name="basis" >
    <v>       0.00000000       4.24689300       4.24689300 </v>
    <v>       4.24689300       0.00000000       4.24689300 </v>
    <v>       4.24689300       4.24689300       0.00000000 </v>
   </varray>
   <i name="volume">    153.19477498 </i>
   <varray name="rec_basis" >
    <v>      -0.11773313       0.11773313       0.11773313 </v>
    <v>       0.11773313      -0.11773313       0.11773313 </v>
    <v>       0.11773313       0.11773313      -0.11773313 </v>
   </varray>
  </crystal>
  <varray name="positions" >
   <v>       0.16821016       0.49559846       0.16964285 </v>
   <v>       0.00408993       0.99036910       0.00439640 </v>
   <v>       0.01724620       0.93745189       0.48807384 </v>
   <v>       0.07085054       0.47120657       0.86020745 </v>
   <v>       0.85887901       0.47006070       0.60162516 </v>
   <v>       0.55915287       0.93718677       0.01851370 </v>
   <v>       0.48753717       0.93764301       0.55949976 </v>
   <v>       0.60001897       0.47047133       0.07182772 </v>
   <v>       0.50357916       0.48987997       0.50436811 </v>
   <v>       0.23025678       0.27834218       0.60577258 </v>
   <v>       0.28422507       0.74535297       0.21488415 </v>
   <v>       0.21364176       0.74620787       0.75803208 </v>
   <v>       0.88785756       0.27833031       0.23134929 </v>
   <v>       0.60289013       0.27860454       0.88928840 </v>
   <v>       0.75800547       0.74502083       0.28513423 </v>
   <v>       0.75197422       0.74478448       0.75292927 </v>
  </varray>
 </structure>
 <calculation>
  <scstep>
   <time name="dav">    0.70    0.71</time>
   <time name="total">    1.08    1.09</time>
   <energy>
    <i name="alphaZ">    142.81396753 </i>
    <i name="ewald">  -2444.39797317 </i>
    <i name="hartreedc">   -956.90701147 </i>
    <i name="XCdc">   -235.85387223 </i>
    <i name="pawpsdc">   3011.45132117 </i>
    <i name="pawaedc">  -2557.24446474 </i>
    <i name="eentropy">     -0.00309037 </i>
    <i name="bandstr">      5.16703536 </i>
    <i name="atom">   3233.17333345 </i>
    <i name="e_fr_energy">    198.19924553 </i>
    <i name="e_wo_entrp">    198.20233590 </i>
    <i name="e_0_energy">    198.20079072 </i>
   </energy>
  </scstep>
  <scstep>
   <time name="dav">    0.74    0.75</time>
   <time name="total">    0.74    0.75</time>
   <energy>
    <i name="e_fr_energy">    -88.57119355 </i>
    <i name="e_wo_entrp">    -88.57119355 </i>
    <i name="e_0_energy">    -88.57119355 </i>
   </energy>
  </scstep>
  <scstep>
   <time name="dav">    0.74    0.74</time>
   <time name="total">    0.74    0.75</time>
   <energy>
    <i name="e_fr_energy">   -104.63889447 </i>
    <i name="e_wo_entrp">   -104.63889447 </i>
    <i name="e_0_energy">   -104.63889447 </i>
   </energy>
  </scstep>
  <scstep>
   <time name="dav">    0.68    0.68</time>
   <time name="total">    0.68    0.69</time>
   <energy>
    <i name="e_fr_energy">   -104.73028108 </i>
    <i name="e_wo_entrp">   -104.73028108 </i>
    <i name="e_0_energy">   -104.73028108 </i>
   </energy>
  </scstep>
  <scstep>
   <time name="dav">    0.71    0.71</time>
   <time name="total">    0.73    0.73</time>
   <energy>
    <i name="e_fr_energy">   -104.73076442 </i>
    <i name="e_wo_entrp">   -104.73076442 </i>
    <i name="e_0_energy">   -104.73076442 </i>
   </energy>
  </scstep>
  <scstep>
   <time name="dav">    0.70    0.70</time>
   <time name="total">    1.08    1.09</time>
   <energy>
    <i name="e_fr_energy">   -101.69009320 </i>
    <i name="e_wo_entrp">   -101.69009320 </i>
    <i name="e_0_energy">   -101.69009320 </i>
   </energy>
  </scstep>
  <scstep>
   <time name="dav">    0.70    0.70</time>
   <time name="total">    1.08    1.09</time>
   <energy>
    <i name="e_fr_energy">   -101.65126659 </i>
    <i name="e_wo_entrp">   -101.65126659 </i>
    <i name="e_0_energy">   -101.65126659 </i>
   </energy>
  </scstep>
  <scstep>
   <time name="dav">    0.72    0.72</time>
   <time name="total">    1.11    1.11</time>
   <energy>
    <i name="e_fr_energy">   -101.49733010 </i>
    <i name="e_wo_entrp">   -101.49733010 </i>
    <i name="e_0_energy">   -101.49733010 </i>
   </energy>
  </scstep>
  <scstep>
   <time name="dav">    0.73    0.73</time>
   <time name="total">    1.11    1.12</time>
   <energy>
    <i name="e_fr_energy">   -101.48833052 </i>
    <i name="e_wo_entrp">   -101.48833052 </i>
    <i name="e_0_energy">   -101.48833052 </i>
   </energy>
  </scstep>
  <scstep>
   <time name="dav">    0.70    0.70</time>
   <time name="total">    1.08    1.08</time>
   <energy>
    <i name="e_fr_energy">   -101.48758898 </i>
    <i name="e_wo_entrp">   -101.48758898 </i>
    <i name="e_0_energy">   -101.48758898 </i>
   </energy>
  </scstep>
  <scstep>
   <time name="dav">    0.70    0.70</time>
   <time name="total">    1.09    1.09</time>
   <energy>
    <i name="e_fr_energy">   -101.48810752 </i>
    <i name="e_wo_entrp">   -101.48810752 </i>
    <i name="e_0_energy">   -101.48810752 </i>
   </energy>
  </scstep>
  <scstep>
   <time name="dav">    0.70    0.69</time>
   <time name="total">    1.08    1.08</time>
   <energy>
    <i name="e_fr_energy">   -101.48825480 </i>
    <i name="e_wo_entrp">   -101.48825480 </i>
    <i name="e_0_energy">   -101.48825480 </i>
   </energy>
  </scstep>
  <scstep>
   <time name="dav">    0.70    0.70</time>
   <time name="total">    1.08    1.09</time>
   <energy>
    <i name="e_fr_energy">   -101.48826942 </i>
    <i name="e_wo_entrp">   -101.48826942 </i>
    <i name="e_0_energy">   -101.48826942 </i>
   </energy>
  </scstep>
  <scstep>
   <time name="dav">    0.71    0.71</time>
   <time name="total">    1.08    1.08</time>
   <energy>
    <i name="alphaZ">    142.81396753 </i>
    <i name="ewald">  -2444.39797317 </i>
    <i name="hartreedc">  -1113.47585104 </i>
    <i name="XCdc">   -239.38575031 </i>
    <i name="pawpsdc">   3981.13444951 </i>
    <i name="pawaedc">  -3528.66067464 </i>
    <i name="eentropy">     -0.00000000 </i>
    <i name="bandstr">   -132.68977154 </i>
    <i name="atom">   3233.17333345 </i>
    <i name="e_fr_energy">   -101.48827021 </i>
    <i name="e_wo_entrp">   -101.48827021 </i>
    <i name="e_0_energy">   -101.48827021 </i>
   </energy>
  </scstep>
  <structure>
   <crystal>
    <varray name="basis" >
     <v>       0.00000000       4.24689300       4.24689300 </v>
     <v>       4.24689300       0.00000000       4.24689300 </v>
     <v>       4.24689300       4.24689300       0.00000000 </v>
    </varray>
    <i name="volume">    153.19477498 </i>
    <varray name="rec_basis" >
     <v>      -0.11773313       0.11773313       0.11773313 </v>
     <v>       0.11773313      -0.11773313       0.11773313 </v>
     <v>       0.11773313       0.11773313      -0.11773313 </v>
    </varray>
   </crystal>
   <varray name="positions" >
    <v>       0.16821016       0.49559846       0.16964285 </v>
    <v>       0.00408993       0.99036910       0.00439640 </v>
    <v>       0.01724620       0.93745189       0.48807384 </v>
    <v>       0.07085054       0.47120657       0.86020745 </v>
    <v>       0.85887901       0.47006070       0.60162516 </v>
    <v>       0.55915287       0.93718677       0.01851370 </v>
    <v>       0.48753717       0.93764301       0.55949976 </v>
    <v>       0.60001897       0.47047133       0.07182772 </v>
    <v>       0.50357916       0.48987997       0.50436811 </v>
    <v>       0.23025678       0.27834218       0.60577258 </v>
    <v>       0.28422507       0.74535297       0.21488415 </v>
    <v>       0.21364176       0.74620787       0.75803208 </v>
    <v>       0.88785756       0.27833031       0.23134929 </v>
    <v>       0.60289013       0.27860454       0.88928840 </v>
    <v>       0.75800547       0.74502083       0.28513423 </v>
    <v>       0.75197422       0.74478448       0.75292927 </v>
   </varray>
  </structure>
  <varray name="forces" >
   <v>      -0.00517357       0.01326158      -0.00081460 </v>
   <v>      -0.01220250       0.01466091      -0.00195404 </v>
   <v>      -0.02947216      -0.01330012       0.00333134 </v>
   <v>      -0.02440955       0.00285749      -0.00896669 </v>
   <v>      -0.00765369      -0.00137573       0.00044183 </v>
   <v>      -0.01085857       0.01198301       0.00513267 </v>
   <v>       0.02364430      -0.00734558      -0.03384173 </v>
   <v>       0.01763621       0.01284150       0.01007464 </v>
   <v>       0.00174574       0.01266281      -0.01895820 </v>
   <v>      -0.03551502      -0.02197309       0.01928756 </v>
   <v>       0.00347632      -0.00108694       0.01183965 </v>
   <v>       0.00768990       0.00144393       0.01304217 </v>
   <v>       0.02435609       0.01286331       0.01122689 </v>
   <v>       0.02362926      -0.02109378      -0.00589968 </v>
   <v>       0.02091712      -0.02578895       0.00758553 </v>
   <v>       0.00219013       0.00938967      -0.01152733 </v>
  </varray>
  <varray name="stress" >
   <v>    -126.64080019      -7.27833497       8.62303306 </v>
   <v>      -7.27833554    -126.16236990      -7.94045243 </v>
   <v>       8.62304078      -7.94045318    -127.10858844 </v>
  </varray>
  <energy>
   <i name="e_fr_energy">   -101.48827021 </i>
   <i name="e_wo_entrp">   -101.48827021 </i>
   <i name="e_0_energy">     -0.00000000 </i>
  </energy>
  <time name="totalsc">   15.02   15.09</time>
  <eigenvalues>
   <array>
    <dimension dim="1">band</dimension>
    <dimension dim="2">kpoint</dimension>
    <dimension dim="3">spin</dimension>
    <field>eigene</field>
    <field>occ</field>
    <set>
     <set comment="spin 1">
      <set comment="kpoint 1">
       <r>  -13.7609    1.0000 </r>
       <r>  -13.0788    1.0000 </r>
       <r>  -12.9766    1.0000 </r>
       <r>  -12.9508    1.0000 </r>
       <r>  -12.6150    1.0000 </r>
       <r>  -12.5008    1.0000 </r>
       <r>  -12.4559    1.0000 </r>
       <r>   -0.9037    1.0000 </r>
       <r>   -0.7822    1.0000 </r>
       <r>   -0.7044    1.0000 </r>
       <r>   -0.5225    1.0000 </r>
       <r>   -0.4189    1.0000 </r>
       <r>    0.0622    1.0000 </r>
       <r>    0.3991    1.0000 </r>
       <r>    0.8741    1.0000 </r>
       <r>    1.0998    1.0000 </r>
       <r>    1.3033    1.0000 </r>
       <r>    1.4074    1.0000 </r>
       <r>    1.6395    1.0000 </r>
       <r>    1.6722    1.0000 </r>
       <r>    1.7571    1.0000 </r>
       <r>    1.9469    1.0000 </r>
       <r>    2.1095    1.0000 </r>
       <r>    2.2952    1.0000 </r>
       <r>    2.4785    1.0000 </r>
       <r>    2.6983    1.0000 </r>
       <r>    3.0377    1.0000 </r>
       <r>    3.1194    1.0000 </r>
       <r>    6.4534    0.0000 </r>
       <r>    9.3474    0.0000 </r>
       <r>   10.1479    0.0000 </r>
       <r>   10.4222    0.0000 </r>
       <r>   10.9350    0.0000 </r>
       <r>   11.4046    0.0000 </r>
       <r>   11.7820    0.0000 </r>
       <r>   12.2965    0.0000 </r>
       <r>   12.4286    0.0000 </r>
       <r>   12.6491    0.0000 </r>
       <r>   13.1016    0.0000 </r>
       <r>   13.4774    0.0000 </r>
       <r>   13.6736    0.0000 </r>
       <r>   14.3595    0.0000 </r>
       <r>   14.9239    0.0000 </r>
       <r>   15.1312    0.0000 </r>
       <r>   15.4491    0.0000 </r>
       <r>   15.9468    0.0000 </r>
       <r>   16.2626    0.0000 </r>
       <r>   16.5138    0.0000 </r>
      </set>
      <set comment="kpoint 2">
       <r>  -13.7610    1.0000 </r>
       <r>  -13.0768    1.0000 </r>
       <r>  -12.9779    1.0000 </r>
       <r>  -12.9518    1.0000 </r>
       <r>  -12.6147    1.0000 </r>
       <r>  -12.5003    1.0000 </r>
       <r>  -12.4563    1.0000 </r>
       <r>   -0.9029    1.0000 </r>
       <r>   -0.7825    1.0000 </r>
       <r>   -0.7067    1.0000 </r>
       <r>   -0.5225    1.0000 </r>
       <r>   -0.4183    1.0000 </r>
       <r>    0.0648    1.0000 </r>
       <r>    0.3975    1.0000 </r>
       <r>    0.8760    1.0000 </r>
       <r>    1.1027    1.0000 </r>
       <r>    1.3004    1.0000 </r>
       <r>    1.4056    1.0000 </r>
       <r>    1.6358    1.0000 </r>
       <r>    1.6706    1.0000 </r>
       <r>    1.7578    1.0000 </r>
       <r>    1.9510    1.0000 </r>
       <r>    2.1118    1.0000 </r>
       <r>    2.2922    1.0000 </r>
       <r>    2.4809    1.0000 </r>
       <r>    2.6988    1.0000 </r>
       <r>    3.0370    1.0000 </r>
       <r>    3.1182    1.0000 </r>
       <r>    6.4543    0.0000 </r>
       <r>    9.3457    0.0000 </r>
       <r>   10.1361    0.0000 </r>
       <r>   10.4366    0.0000 </r>
       <r>   10.9349    0.0000 </r>
       <r>   11.4051    0.0000 </r>
       <r>   11.7874    0.0000 </r>
       <r>   12.2956    0.0000 </r>
       <r>   12.4302    0.0000 </r>
       <r>   12.6488    0.0000 </r>
       <r>   13.0923    0.0000 </r>
       <r>   13.4732    0.0000 </r>
       <r>   13.6702    0.0000 </r>
       <r>   14.3641    0.0000 </r>
       <r>   14.9233    0.0000 </r>
       <r>   15.1230    0.0000 </r>
       <r>   15.4554    0.0000 </r>
       <r>   15.9457    0.0000 </r>
       <r>   16.2599    0.0000 </r>
       <r>   16.5203    0.0000 </r>
      </set>
      <set comment="kpoint 3">
       <r>  -13.7609    1.0000 </r>
       <r>  -13.0785    1.0000 </r>
       <r>  -12.9766    1.0000 </r>
       <r>  -12.9518    1.0000 </r>
       <r>  -12.6159    1.0000 </r>
       <r>  -12.4951    1.0000 </r>
       <r>  -12.4600    1.0000 </r>
       <r>   -0.9039    1.0000 </r>
       <r>   -0.7836    1.0000 </r>
       <r>   -0.7051    1.0000 </r>
       <r>   -0.5229    1.0000 </r>
       <r>   -0.4203    1.0000 </r>
       <r>    0.0654    1.0000 </r>
       <r>    0.3989    1.0000 </r>
       <r>    0.8736    1.0000 </r>
       <r>    1.1043    1.0000 </r>
       <r>    1.2949    1.0000 </r>
       <r>    1.4112    1.0000 </r>
       <r>    1.6370    1.0000 </r>
       <r>    1.6717    1.0000 </r>
       <r>    1.7580    1.0000 </r>
       <r>    1.9492    1.0000 </r>
       <r>    2.1125    1.0000 </r>
       <r>    2.2967    1.0000 </r>
       <r>    2.4764    1.0000 </r>
       <r>    2.6987    1.0000 </r>
       <r>    3.0396    1.0000 </r>
       <r>    3.1176    1.0000 </r>
       <r>    6.4542    0.0000 </r>
       <r>    9.3453    0.0000 </r>
       <r>   10.1409    0.0000 </r>
       <r>   10.4322    0.0000 </r>
       <r>   10.9316    0.0000 </r>
       <r>   11.4058    0.0000 </r>
       <r>   11.7817    0.0000 </r>
       <r>   12.2942    0.0000 </r>
       <r>   12.4259    0.0000 </r>
       <r>   12.6512    0.0000 </r>
       <r>   13.1025    0.0000 </r>
       <r>   13.4721    0.0000 </r>
       <r>   13.6695    0.0000 </r>
       <r>   14.3561    0.0000 </r>
       <r>   14.9279    0.0000 </r>
       <r>   15.1271    0.0000 </r>
       <r>   15.4565    0.0000 </r>
       <r>   15.9459    0.0000 </r>
       <r>   16.2698    0.0000 </r>
       <r>   16.5159    0.0000 </r>
      </set>
      <set comment="kpoint 4">
       <r>  -13.7656    1.0000 </r>
       <r>  -13.0372    1.0000 </r>
       <r>  -13.0008    1.0000 </r>
       <r>  -12.9274    1.0000 </r>
       <r>  -12.7095    1.0000 </r>
       <r>  -12.4893    1.0000 </r>
       <r>  -12.4066    1.0000 </r>
       <r>   -0.9438    1.0000 </r>
       <r>   -0.8575    1.0000 </r>
       <r>   -0.6019    1.0000 </r>
       <r>   -0.5317    1.0000 </r>
       <r>   -0.3825    1.0000 </r>
       <r>   -0.0865    1.0000 </r>
       <r>    0.4229    1.0000 </r>
       <r>    0.7919    1.0000 </r>
       <r>    0.9616    1.0000 </r>
       <r>    1.4362    1.0000 </r>
       <r>    1.4572    1.0000 </r>
       <r>    1.6455    1.0000 </r>
       <r>    1.6890    1.0000 </r>
       <r>    1.8774    1.0000 </r>
       <r>    1.9625    1.0000 </r>
       <r>    2.0571    1.0000 </r>
       <r>    2.3023    1.0000 </r>
       <r>    2.6453    1.0000 </r>
       <r>    2.7361    1.0000 </r>
       <r>    2.9894    1.0000 </r>
       <r>    3.0995    1.0000 </r>
       <r>    6.3407    0.0000 </r>
       <r>    9.7986    0.0000 </r>
       <r>   10.1107    0.0000 </r>
       <r>   10.5666    0.0000 </r>
       <r>   10.7531    0.0000 </r>
       <r>   11.3716    0.0000 </r>
       <r>   11.5118    0.0000 </r>
       <r>   12.0295    0.0000 </r>
       <r>   12.0529    0.0000 </r>
       <r>   12.9038    0.0000 </r>
       <r>   13.2092    0.0000 </r>
       <r>   13.5888    0.0000 </r>
       <r>   13.9320    0.0000 </r>
       <r>   14.3548    0.0000 </r>
       <r>   14.4146    0.0000 </r>
       <r>   15.3150    0.0000 </r>
       <r>   15.5429    0.0000 </r>
       <r>   15.7460    0.0000 </r>
       <r>   16.1052    0.0000 </r>
       <r>   16.6079    0.0000 </r>
      </set>
      <set comment="kpoint 5">
       <r>  -13.5141    1.0000 </r>
       <r>  -13.2077    1.0000 </r>
       <r>  -13.0714    1.0000 </r>
       <r>  -12.9777    1.0000 </r>
       <r>  -12.6734    1.0000 </r>
       <r>  -12.5621    1.0000 </r>
       <r>  -12.3815    1.0000 </r>
       <r>   -0.7380    1.0000 </r>
       <r>   -0.5963    1.0000 </r>
       <r>   -0.3359    1.0000 </r>
       <r>   -0.2909    1.0000 </r>
       <r>   -0.0121    1.0000 </r>
       <r>    0.3317    1.0000 </r>
       <r>    0.5063    1.0000 </r>
       <r>    0.6223    1.0000 </r>
       <r>    0.7785    1.0000 </r>
       <r>    1.1500    1.0000 </r>
       <r>    1.2324    1.0000 </r>
       <r>    1.3972    1.0000 </r>
       <r>    1.4572    1.0000 </r>
       <r>    1.6329    1.0000 </r>
       <r>    1.6696    1.0000 </r>
       <r>    2.0147    1.0000 </r>
       <r>    2.1075    1.0000 </r>
       <r>    2.2645    1.0000 </r>
       <r>    2.6285    1.0000 </r>
       <r>    2.9461    1.0000 </r>
       <r>    3.0613    1.0000 </r>
       <r>    7.7236    0.0000 </r>
       <r>    8.8314    0.0000 </r>
       <r>    9.4678    0.0000 </r>
       <r>   10.6204    0.0000 </r>
       <r>   11.0314    0.0000 </r>
       <r>   11.4299    0.0000 </r>
       <r>   11.6908    0.0000 </r>
       <r>   12.1271    0.0000 </r>
       <r>   12.6882    0.0000 </r>
       <r>   13.0458    0.0000 </r>
       <r>   13.2225    0.0000 </r>
       <r>   13.5533    0.0000 </r>
       <r>   14.0130    0.0000 </r>
       <r>   14.3398    0.0000 </r>
       <r>   15.0564    0.0000 </r>
       <r>   15.1935    0.0000 </r>
       <r>   15.7199    0.0000 </r>
       <r>   16.0201    0.0000 </r>
       <r>   16.3147    0.0000 </r>
       <r>   16.4333    0.0000 </r>
      </set>
      <set comment="kpoint 6">
       <r>  -13.5349    1.0000 </r>
       <r>  -13.1354    1.0000 </r>
       <r>  -13.0482    1.0000 </r>
       <r>  -13.0225    1.0000 </r>
       <r>  -12.7746    1.0000 </r>
       <r>  -12.4927    1.0000 </r>
       <r>  -12.3771    1.0000 </r>
       <r>   -0.8234    1.0000 </r>
       <r>   -0.5699    1.0000 </r>
       <r>   -0.4618    1.0000 </r>
       <r>   -0.2078    1.0000 </r>
       <r>   -0.0371    1.0000 </r>
       <r>    0.3180    1.0000 </r>
       <r>    0.5107    1.0000 </r>
       <r>    0.7469    1.0000 </r>
       <r>    0.8063    1.0000 </r>
       <r>    0.9890    1.0000 </r>
       <r>    1.1760    1.0000 </r>
       <r>    1.4576    1.0000 </r>
       <r>    1.5139    1.0000 </r>
       <r>    1.6133    1.0000 </r>
       <r>    1.6774    1.0000 </r>
       <r>    1.9645    1.0000 </r>
       <r>    2.2001    1.0000 </r>
       <r>    2.4079    1.0000 </r>
       <r>    2.7372    1.0000 </r>
       <r>    2.8782    1.0000 </r>
       <r>    2.9884    1.0000 </r>
       <r>    7.5269    0.0000 </r>
       <r>    9.5473    0.0000 </r>
       <r>    9.8838    0.0000 </r>
       <r>   10.1326    0.0000 </r>
       <r>   10.6496    0.0000 </r>
       <r>   11.1105    0.0000 </r>
       <r>   11.5717    0.0000 </r>
       <r>   12.2251    0.0000 </r>
       <r>   12.6131    0.0000 </r>
       <r>   12.9449    0.0000 </r>
       <r>   13.1980    0.0000 </r>
       <r>   13.8558    0.0000 </r>
       <r>   14.1520    0.0000 </r>
       <r>   14.5371    0.0000 </r>
       <r>   14.8495    0.0000 </r>
       <r>   14.9903    0.0000 </r>
       <r>   15.5573    0.0000 </r>
       <r>   15.8571    0.0000 </r>
       <r>   16.3479    0.0000 </r>
       <r>   16.5312    0.0000 </r>
      </set>
      <set comment="kpoint 7">
       <r>  -13.5146    1.0000 </r>
       <r>  -13.2045    1.0000 </r>
       <r>  -13.0701    1.0000 </r>
       <r>  -12.9848    1.0000 </r>
       <r>  -12.6709    1.0000 </r>
       <r>  -12.5601    1.0000 </r>
       <r>  -12.3829    1.0000 </r>
       <r>   -0.7400    1.0000 </r>
       <r>   -0.5683    1.0000 </r>
       <r>   -0.3716    1.0000 </r>
       <r>   -0.3018    1.0000 </r>
       <r>    0.0469    1.0000 </r>
       <r>    0.2878    1.0000 </r>
       <r>    0.4095    1.0000 </r>
       <r>    0.6479    1.0000 </r>
       <r>    0.8692    1.0000 </r>
       <r>    1.1675    1.0000 </r>
       <r>    1.2279    1.0000 </r>
       <r>    1.3589    1.0000 </r>
       <r>    1.5247    1.0000 </r>
       <r>    1.5919    1.0000 </r>
       <r>    1.6956    1.0000 </r>
       <r>    1.9456    1.0000 </r>
       <r>    2.0922    1.0000 </r>
       <r>    2.2797    1.0000 </r>
       <r>    2.6747    1.0000 </r>
       <r>    2.9349    1.0000 </r>
       <r>    3.0589    1.0000 </r>
       <r>    7.7204    0.0000 </r>
       <r>    8.8521    0.0000 </r>
       <r>    9.4779    0.0000 </r>
       <r>   10.5217    0.0000 </r>
       <r>   10.9589    0.0000 </r>
       <r>   11.3709    0.0000 </r>
       <r>   11.8947    0.0000 </r>
       <r>   12.2932    0.0000 </r>
       <r>   12.5795    0.0000 </r>
       <r>   12.9467    0.0000 </r>
       <r>   13.3213    0.0000 </r>
       <r>   13.5232    0.0000 </r>
       <r>   14.0621    0.0000 </r>
       <r>   14.4032    0.0000 </r>
       <r>   14.7920    0.0000 </r>
       <r>   15.2409    0.0000 </r>
       <r>   15.6643    0.0000 </r>
       <r>   15.9818    0.0000 </r>
       <r>   16.4564    0.0000 </r>
       <r>   16.5419    0.0000 </r>
      </set>
      <set comment="kpoint 8">
       <r>  -13.5134    1.0000 </r>
       <r>  -13.2111    1.0000 </r>
       <r>  -13.0702    1.0000 </r>
       <r>  -12.9760    1.0000 </r>
       <r>  -12.6714    1.0000 </r>
       <r>  -12.5660    1.0000 </r>
       <r>  -12.3798    1.0000 </r>
       <r>   -0.7384    1.0000 </r>
       <r>   -0.5982    1.0000 </r>
       <r>   -0.3375    1.0000 </r>
       <r>   -0.2903    1.0000 </r>
       <r>   -0.0128    1.0000 </r>
       <r>    0.3282    1.0000 </r>
       <r>    0.5104    1.0000 </r>
       <r>    0.6223    1.0000 </r>
       <r>    0.7781    1.0000 </r>
       <r>    1.1517    1.0000 </r>
       <r>    1.2286    1.0000 </r>
       <r>    1.3981    1.0000 </r>
       <r>    1.4583    1.0000 </r>
       <r>    1.6367    1.0000 </r>
       <r>    1.6673    1.0000 </r>
       <r>    2.0130    1.0000 </r>
       <r>    2.1126    1.0000 </r>
       <r>    2.2657    1.0000 </r>
       <r>    2.6294    1.0000 </r>
       <r>    2.9475    1.0000 </r>
       <r>    3.0600    1.0000 </r>
       <r>    7.7192    0.0000 </r>
       <r>    8.8455    0.0000 </r>
       <r>    9.4551    0.0000 </r>
       <r>   10.6197    0.0000 </r>
       <r>   11.0371    0.0000 </r>
       <r>   11.4264    0.0000 </r>
       <r>   11.6832    0.0000 </r>
       <r>   12.1246    0.0000 </r>
       <r>   12.6886    0.0000 </r>
       <r>   13.0499    0.0000 </r>
       <r>   13.2204    0.0000 </r>
       <r>   13.5481    0.0000 </r>
       <r>   14.0187    0.0000 </r>
       <r>   14.3326    0.0000 </r>
       <r>   15.0580    0.0000 </r>
       <r>   15.1958    0.0000 </r>
       <r>   15.7236    0.0000 </r>
       <r>   16.0200    0.0000 </r>
       <r>   16.3126    0.0000 </r>
       <r>   16.4359    0.0000 </r>
      </set>
      <set comment="kpoint 9">
       <r>  -13.5144    1.0000 </r>
       <r>  -13.2056    1.0000 </r>
       <r>  -13.0656    1.0000 </r>
       <r>  -12.9887    1.0000 </r>
       <r>  -12.6724    1.0000 </r>
       <r>  -12.5566    1.0000 </r>
       <r>  -12.3847    1.0000 </r>
       <r>   -0.7398    1.0000 </r>
       <r>   -0.5680    1.0000 </r>
       <r>   -0.3717    1.0000 </r>
       <r>   -0.2979    1.0000 </r>
       <r>    0.0470    1.0000 </r>
       <r>    0.2898    1.0000 </r>
       <r>    0.4082    1.0000 </r>
       <r>    0.6490    1.0000 </r>
       <r>    0.8657    1.0000 </r>
       <r>    1.1701    1.0000 </r>
       <r>    1.2245    1.0000 </r>
       <r>    1.3621    1.0000 </r>
       <r>    1.5240    1.0000 </r>
       <r>    1.5889    1.0000 </r>
       <r>    1.6932    1.0000 </r>
       <r>    1.9472    1.0000 </r>
       <r>    2.0890    1.0000 </r>
       <r>    2.2813    1.0000 </r>
       <r>    2.6723    1.0000 </r>
       <r>    2.9355    1.0000 </r>
       <r>    3.0589    1.0000 </r>
       <r>    7.7194    0.0000 </r>
       <r>    8.8552    0.0000 </r>
       <r>    9.4813    0.0000 </r>
       <r>   10.5165    0.0000 </r>
       <r>   10.9565    0.0000 </r>
       <r>   11.3763    0.0000 </r>
       <r>   11.8937    0.0000 </r>
       <r>   12.2892    0.0000 </r>
       <r>   12.5781    0.0000 </r>
       <r>   12.9522    0.0000 </r>
       <r>   13.3243    0.0000 </r>
       <r>   13.5274    0.0000 </r>
       <r>   14.0681    0.0000 </r>
       <r>   14.4117    0.0000 </r>
       <r>   14.7901    0.0000 </r>
       <r>   15.2480    0.0000 </r>
       <r>   15.6605    0.0000 </r>
       <r>   15.9683    0.0000 </r>
       <r>   16.4485    0.0000 </r>
       <r>   16.5398    0.0000 </r>
      </set>
      <set comment="kpoint 10">
       <r>  -13.5350    1.0000 </r>
       <r>  -13.1357    1.0000 </r>
       <r>  -13.0430    1.0000 </r>
       <r>  -13.0269    1.0000 </r>
       <r>  -12.7749    1.0000 </r>
       <r>  -12.4930    1.0000 </r>
       <r>  -12.3768    1.0000 </r>
       <r>   -0.8212    1.0000 </r>
       <r>   -0.5722    1.0000 </r>
       <r>   -0.4622    1.0000 </r>
       <r>   -0.2089    1.0000 </r>
       <r>   -0.0346    1.0000 </r>
       <r>    0.3179    1.0000 </r>
       <r>    0.5114    1.0000 </r>
       <r>    0.7453    1.0000 </r>
       <r>    0.8061    1.0000 </r>
       <r>    0.9880    1.0000 </r>
       <r>    1.1752    1.0000 </r>
       <r>    1.4589    1.0000 </r>
       <r>    1.5188    1.0000 </r>
       <r>    1.6091    1.0000 </r>
       <r>    1.6783    1.0000 </r>
       <r>    1.9654    1.0000 </r>
       <r>    2.2009    1.0000 </r>
       <r>    2.4025    1.0000 </r>
       <r>    2.7370    1.0000 </r>
       <r>    2.8803    1.0000 </r>
       <r>    2.9886    1.0000 </r>
       <r>    7.5277    0.0000 </r>
       <r>    9.5462    0.0000 </r>
       <r>    9.8766    0.0000 </r>
       <r>   10.1259    0.0000 </r>
       <r>   10.6659    0.0000 </r>
       <r>   11.1103    0.0000 </r>
       <r>   11.5695    0.0000 </r>
       <r>   12.2343    0.0000 </r>
       <r>   12.6118    0.0000 </r>
       <r>   12.9435    0.0000 </r>
       <r>   13.1971    0.0000 </r>
       <r>   13.8566    0.0000 </r>
       <r>   14.1557    0.0000 </r>
       <r>   14.5353    0.0000 </r>
       <r>   14.8395    0.0000 </r>
       <r>   14.9874    0.0000 </r>
       <r>   15.5655    0.0000 </r>
       <r>   15.8530    0.0000 </r>
       <r>   16.3467    0.0000 </r>
       <r>   16.5296    0.0000 </r>
      </set>
      <set comment="kpoint 11">
       <r>  -13.5349    1.0000 </r>
       <r>  -13.1333    1.0000 </r>
       <r>  -13.0477    1.0000 </r>
       <r>  -13.0259    1.0000 </r>
       <r>  -12.7748    1.0000 </r>
       <r>  -12.4893    1.0000 </r>
       <r>  -12.3796    1.0000 </r>
       <r>   -0.8225    1.0000 </r>
       <r>   -0.5710    1.0000 </r>
       <r>   -0.4596    1.0000 </r>
       <r>   -0.2098    1.0000 </r>
       <r>   -0.0372    1.0000 </r>
       <r>    0.3204    1.0000 </r>
       <r>    0.5110    1.0000 </r>
       <r>    0.7458    1.0000 </r>
       <r>    0.8062    1.0000 </r>
       <r>    0.9893    1.0000 </r>
       <r>    1.1764    1.0000 </r>
       <r>    1.4579    1.0000 </r>
       <r>    1.5174    1.0000 </r>
       <r>    1.6112    1.0000 </r>
       <r>    1.6760    1.0000 </r>
       <r>    1.9639    1.0000 </r>
       <r>    2.2000    1.0000 </r>
       <r>    2.4027    1.0000 </r>
       <r>    2.7377    1.0000 </r>
       <r>    2.8788    1.0000 </r>
       <r>    2.9892    1.0000 </r>
       <r>    7.5276    0.0000 </r>
       <r>    9.5501    0.0000 </r>
       <r>    9.8781    0.0000 </r>
       <r>   10.1321    0.0000 </r>
       <r>   10.6510    0.0000 </r>
       <r>   11.1104    0.0000 </r>
       <r>   11.5715    0.0000 </r>
       <r>   12.2290    0.0000 </r>
       <r>   12.6146    0.0000 </r>
       <r>   12.9423    0.0000 </r>
       <r>   13.2001    0.0000 </r>
       <r>   13.8598    0.0000 </r>
       <r>   14.1593    0.0000 </r>
       <r>   14.5427    0.0000 </r>
       <r>   14.8488    0.0000 </r>
       <r>   14.9871    0.0000 </r>
       <r>   15.5518    0.0000 </r>
       <r>   15.8493    0.0000 </r>
       <r>   16.3429    0.0000 </r>
       <r>   16.5312    0.0000 </r>
      </set>
      <set comment="kpoint 12">
       <r>  -13.5150    1.0000 </r>
       <r>  -13.2032    1.0000 </r>
       <r>  -13.0700    1.0000 </r>
       <r>  -12.9858    1.0000 </r>
       <r>  -12.6703    1.0000 </r>
       <r>  -12.5608    1.0000 </r>
       <r>  -12.3828    1.0000 </r>
       <r>   -0.7372    1.0000 </r>
       <r>   -0.5703    1.0000 </r>
       <r>   -0.3724    1.0000 </r>
       <r>   -0.3003    1.0000 </r>
       <r>    0.0460    1.0000 </r>
       <r>    0.2888    1.0000 </r>
       <r>    0.4100    1.0000 </r>
       <r>    0.6490    1.0000 </r>
       <r>    0.8703    1.0000 </r>
       <r>    1.1679    1.0000 </r>
       <r>    1.2240    1.0000 </r>
       <r>    1.3641    1.0000 </r>
       <r>    1.5217    1.0000 </r>
       <r>    1.5860    1.0000 </r>
       <r>    1.6926    1.0000 </r>
       <r>    1.9446    1.0000 </r>
       <r>    2.0973    1.0000 </r>
       <r>    2.2841    1.0000 </r>
       <r>    2.6728    1.0000 </r>
       <r>    2.9340    1.0000 </r>
       <r>    3.0577    1.0000 </r>
       <r>    7.7211    0.0000 </r>
       <r>    8.8472    0.0000 </r>
       <r>    9.4860    0.0000 </r>
       <r>   10.5224    0.0000 </r>
       <r>   10.9566    0.0000 </r>
       <r>   11.3776    0.0000 </r>
       <r>   11.8936    0.0000 </r>
       <r>   12.2917    0.0000 </r>
       <r>   12.5734    0.0000 </r>
       <r>   12.9478    0.0000 </r>
       <r>   13.3190    0.0000 </r>
       <r>   13.5244    0.0000 </r>
       <r>   14.0574    0.0000 </r>
       <r>   14.4096    0.0000 </r>
       <r>   14.7904    0.0000 </r>
       <r>   15.2455    0.0000 </r>
       <r>   15.6601    0.0000 </r>
       <r>   15.9818    0.0000 </r>
       <r>   16.4590    0.0000 </r>
       <r>   16.5375    0.0000 </r>
      </set>
      <set comment="kpoint 13">
       <r>  -13.5138    1.0000 </r>
       <r>  -13.2099    1.0000 </r>
       <r>  -13.0711    1.0000 </r>
       <r>  -12.9751    1.0000 </r>
       <r>  -12.6715    1.0000 </r>
       <r>  -12.5673    1.0000 </r>
       <r>  -12.3793    1.0000 </r>
       <r>   -0.7386    1.0000 </r>
       <r>   -0.5985    1.0000 </r>
       <r>   -0.3340    1.0000 </r>
       <r>   -0.2881    1.0000 </r>
       <r>   -0.0118    1.0000 </r>
       <r>    0.3278    1.0000 </r>
       <r>    0.5071    1.0000 </r>
       <r>    0.6211    1.0000 </r>
       <r>    0.7801    1.0000 </r>
       <r>    1.1493    1.0000 </r>
       <r>    1.2279    1.0000 </r>
       <r>    1.3965    1.0000 </r>
       <r>    1.4583    1.0000 </r>
       <r>    1.6368    1.0000 </r>
       <r>    1.6697    1.0000 </r>
       <r>    2.0122    1.0000 </r>
       <r>    2.1089    1.0000 </r>
       <r>    2.2666    1.0000 </r>
       <r>    2.6291    1.0000 </r>
       <r>    2.9463    1.0000 </r>
       <r>    3.0620    1.0000 </r>
       <r>    7.7198    0.0000 </r>
       <r>    8.8362    0.0000 </r>
       <r>    9.4680    0.0000 </r>
       <r>   10.6177    0.0000 </r>
       <r>   11.0311    0.0000 </r>
       <r>   11.4249    0.0000 </r>
       <r>   11.6831    0.0000 </r>
       <r>   12.1362    0.0000 </r>
       <r>   12.6923    0.0000 </r>
       <r>   13.0519    0.0000 </r>
       <r>   13.2188    0.0000 </r>
       <r>   13.5505    0.0000 </r>
       <r>   14.0239    0.0000 </r>
       <r>   14.3376    0.0000 </r>
       <r>   15.0555    0.0000 </r>
       <r>   15.1840    0.0000 </r>
       <r>   15.7187    0.0000 </r>
       <r>   16.0224    0.0000 </r>
       <r>   16.3218    0.0000 </r>
       <r>   16.4311    0.0000 </r>
      </set>
      <set comment="kpoint 14">
       <r>  -13.5157    1.0000 </r>
       <r>  -13.2051    1.0000 </r>
       <r>  -13.0462    1.0000 </r>
       <r>  -13.0052    1.0000 </r>
       <r>  -12.6963    1.0000 </r>
       <r>  -12.5230    1.0000 </r>
       <r>  -12.3964    1.0000 </r>
       <r>   -0.8602    1.0000 </r>
       <r>   -0.4751    1.0000 </r>
       <r>   -0.3447    1.0000 </r>
       <r>   -0.2361    1.0000 </r>
       <r>    0.0292    1.0000 </r>
       <r>    0.2157    1.0000 </r>
       <r>    0.5299    1.0000 </r>
       <r>    0.7395    1.0000 </r>
       <r>    0.7648    1.0000 </r>
       <r>    1.0058    1.0000 </r>
       <r>    1.2920    1.0000 </r>
       <r>    1.4632    1.0000 </r>
       <r>    1.4976    1.0000 </r>
       <r>    1.6046    1.0000 </r>
       <r>    1.6673    1.0000 </r>
       <r>    1.7372    1.0000 </r>
       <r>    2.1149    1.0000 </r>
       <r>    2.4186    1.0000 </r>
       <r>    2.7219    1.0000 </r>
       <r>    2.8712    1.0000 </r>
       <r>    3.0662    1.0000 </r>
       <r>    7.7883    0.0000 </r>
       <r>    8.8100    0.0000 </r>
       <r>    9.4980    0.0000 </r>
       <r>   10.5350    0.0000 </r>
       <r>   10.8730    0.0000 </r>
       <r>   11.3410    0.0000 </r>
       <r>   11.9592    0.0000 </r>
       <r>   12.1771    0.0000 </r>
       <r>   12.5073    0.0000 </r>
       <r>   13.1811    0.0000 </r>
       <r>   13.2670    0.0000 </r>
       <r>   13.6281    0.0000 </r>
       <r>   13.9143    0.0000 </r>
       <r>   14.5029    0.0000 </r>
       <r>   14.7482    0.0000 </r>
       <r>   15.2350    0.0000 </r>
       <r>   15.7839    0.0000 </r>
       <r>   15.9140    0.0000 </r>
       <r>   16.3944    0.0000 </r>
       <r>   16.5501    0.0000 </r>
      </set>
      <set comment="kpoint 15">
       <r>  -13.5155    1.0000 </r>
       <r>  -13.2044    1.0000 </r>
       <r>  -13.0444    1.0000 </r>
       <r>  -13.0093    1.0000 </r>
       <r>  -12.6964    1.0000 </r>
       <r>  -12.5189    1.0000 </r>
       <r>  -12.3990    1.0000 </r>
       <r>   -0.8602    1.0000 </r>
       <r>   -0.4737    1.0000 </r>
       <r>   -0.3459    1.0000 </r>
       <r>   -0.2380    1.0000 </r>
       <r>    0.0262    1.0000 </r>
       <r>    0.2180    1.0000 </r>
       <r>    0.5317    1.0000 </r>
       <r>    0.7382    1.0000 </r>
       <r>    0.7648    1.0000 </r>
       <r>    1.0056    1.0000 </r>
       <r>    1.2943    1.0000 </r>
       <r>    1.4612    1.0000 </r>
       <r>    1.5021    1.0000 </r>
       <r>    1.6061    1.0000 </r>
       <r>    1.6700    1.0000 </r>
       <r>    1.7367    1.0000 </r>
       <r>    2.1117    1.0000 </r>
       <r>    2.4128    1.0000 </r>
       <r>    2.7230    1.0000 </r>
       <r>    2.8722    1.0000 </r>
       <r>    3.0670    1.0000 </r>
       <r>    7.7889    0.0000 </r>
       <r>    8.8112    0.0000 </r>
       <r>    9.4926    0.0000 </r>
       <r>   10.5379    0.0000 </r>
       <r>   10.8708    0.0000 </r>
       <r>   11.3411    0.0000 </r>
       <r>   11.9643    0.0000 </r>
       <r>   12.1726    0.0000 </r>
       <r>   12.5084    0.0000 </r>
       <r>   13.1795    0.0000 </r>
       <r>   13.2710    0.0000 </r>
       <r>   13.6280    0.0000 </r>
       <r>   13.9096    0.0000 </r>
       <r>   14.5049    0.0000 </r>
       <r>   14.7451    0.0000 </r>
       <r>   15.2332    0.0000 </r>
       <r>   15.7900    0.0000 </r>
       <r>   15.9214    0.0000 </r>
       <r>   16.3961    0.0000 </r>
       <r>   16.5435    0.0000 </r>
      </set>
      <set comment="kpoint 16">
       <r>  -13.5164    1.0000 </r>
       <r>  -13.2028    1.0000 </r>
       <r>  -13.0433    1.0000 </r>
       <r>  -13.0100    1.0000 </r>
       <r>  -12.6961    1.0000 </r>
       <r>  -12.5231    1.0000 </r>
       <r>  -12.3962    1.0000 </r>
       <r>   -0.8580    1.0000 </r>
       <r>   -0.4749    1.0000 </r>
       <r>   -0.3465    1.0000 </r>
       <r>   -0.2373    1.0000 </r>
       <r>    0.0268    1.0000 </r>
       <r>    0.2174    1.0000 </r>
       <r>    0.5315    1.0000 </r>
       <r>    0.7409    1.0000 </r>
       <r>    0.7632    1.0000 </r>
       <r>    1.0049    1.0000 </r>
       <r>    1.2922    1.0000 </r>
       <r>    1.4604    1.0000 </r>
       <r>    1.5018    1.0000 </r>
       <r>    1.6076    1.0000 </r>
       <r>    1.6706    1.0000 </r>
       <r>    1.7343    1.0000 </r>
       <r>    2.1117    1.0000 </r>
       <r>    2.4151    1.0000 </r>
       <r>    2.7252    1.0000 </r>
       <r>    2.8700    1.0000 </r>
       <r>    3.0662    1.0000 </r>
       <r>    7.7937    0.0000 </r>
       <r>    8.8025    0.0000 </r>
       <r>    9.4845    0.0000 </r>
       <r>   10.5470    0.0000 </r>
       <r>   10.8800    0.0000 </r>
       <r>   11.3502    0.0000 </r>
       <r>   11.9664    0.0000 </r>
       <r>   12.1714    0.0000 </r>
       <r>   12.5065    0.0000 </r>
       <r>   13.1719    0.0000 </r>
       <r>   13.2646    0.0000 </r>
       <r>   13.6287    0.0000 </r>
       <r>   13.9128    0.0000 </r>
       <r>   14.4897    0.0000 </r>
       <r>   14.7445    0.0000 </r>
       <r>   15.2406    0.0000 </r>
       <r>   15.7829    0.0000 </r>
       <r>   15.9232    0.0000 </r>
       <r>   16.3998    0.0000 </r>
       <r>   16.5453    0.0000 </r>
      </set>
     </set>
     <set comment="spin 2">
      <set comment="kpoint 1">
       <r>  -13.7609    1.0000 </r>
       <r>  -13.0788    1.0000 </r>
       <r>  -12.9766    1.0000 </r>
       <r>  -12.9508    1.0000 </r>
       <r>  -12.6150    1.0000 </r>
       <r>  -12.5008    1.0000 </r>
       <r>  -12.4559    1.0000 </r>
       <r>   -0.9037    1.0000 </r>
       <r>   -0.7822    1.0000 </r>
       <r>   -0.7044    1.0000 </r>
       <r>   -0.5225    1.0000 </r>
       <r>   -0.4189    1.0000 </r>
       <r>    0.0622    1.0000 </r>
       <r>    0.3991    1.0000 </r>
       <r>    0.8741    1.0000 </r>
       <r>    1.0998    1.0000 </r>
       <r>    1.3033    1.0000 </r>
       <r>    1.4074    1.0000 </r>
       <r>    1.6395    1.0000 </r>
       <r>    1.6722    1.0000 </r>
       <r>    1.7571    1.0000 </r>
       <r>    1.9470    1.0000 </r>
       <r>    2.1095    1.0000 </r>
       <r>    2.2952    1.0000 </r>
       <r>    2.4785    1.0000 </r>
       <r>    2.6983    1.0000 </r>
       <r>    3.0377    1.0000 </r>
       <r>    3.1195    1.0000 </r>
       <r>    6.4534    0.0000 </r>
       <r>    9.3474    0.0000 </r>
       <r>   10.1479    0.0000 </r>
       <r>   10.4222    0.0000 </r>
       <r>   10.9349    0.0000 </r>
       <r>   11.4045    0.0000 </r>
       <r>   11.7819    0.0000 </r>
       <r>   12.2965    0.0000 </r>
       <r>   12.4285    0.0000 </r>
       <r>   12.6491    0.0000 </r>
       <r>   13.1016    0.0000 </r>
       <r>   13.4773    0.0000 </r>
       <r>   13.6735    0.0000 </r>
       <r>   14.3594    0.0000 </r>
       <r>   14.9238    0.0000 </r>
       <r>   15.1311    0.0000 </r>
       <r>   15.4491    0.0000 </r>
       <r>   15.9467    0.0000 </r>
       <r>   16.2626    0.0000 </r>
       <r>   16.5137    0.0000 </r>
      </set>
      <set comment="kpoint 2">
       <r>  -13.7610    1.0000 </r>
       <r>  -13.0768    1.0000 </r>
       <r>  -12.9778    1.0000 </r>
       <r>  -12.9518    1.0000 </r>
       <r>  -12.6147    1.0000 </r>
       <r>  -12.5003    1.0000 </r>
       <r>  -12.4563    1.0000 </r>
       <r>   -0.9029    1.0000 </r>
       <r>   -0.7825    1.0000 </r>
       <r>   -0.7067    1.0000 </r>
       <r>   -0.5225    1.0000 </r>
       <r>   -0.4183    1.0000 </r>
       <r>    0.0648    1.0000 </r>
       <r>    0.3975    1.0000 </r>
       <r>    0.8760    1.0000 </r>
       <r>    1.1027    1.0000 </r>
       <r>    1.3004    1.0000 </r>
       <r>    1.4056    1.0000 </r>
       <r>    1.6358    1.0000 </r>
       <r>    1.6706    1.0000 </r>
       <r>    1.7578    1.0000 </r>
       <r>    1.9510    1.0000 </r>
       <r>    2.1118    1.0000 </r>
       <r>    2.2922    1.0000 </r>
       <r>    2.4810    1.0000 </r>
       <r>    2.6988    1.0000 </r>
       <r>    3.0371    1.0000 </r>
       <r>    3.1182    1.0000 </r>
       <r>    6.4544    0.0000 </r>
       <r>    9.3458    0.0000 </r>
       <r>   10.1361    0.0000 </r>
       <r>   10.4366    0.0000 </r>
       <r>   10.9349    0.0000 </r>
       <r>   11.4051    0.0000 </r>
       <r>   11.7873    0.0000 </r>
       <r>   12.2955    0.0000 </r>
       <r>   12.4301    0.0000 </r>
       <r>   12.6487    0.0000 </r>
       <r>   13.0922    0.0000 </r>
       <r>   13.4731    0.0000 </r>
       <r>   13.6702    0.0000 </r>
       <r>   14.3640    0.0000 </r>
       <r>   14.9232    0.0000 </r>
       <r>   15.1229    0.0000 </r>
       <r>   15.4553    0.0000 </r>
       <r>   15.9456    0.0000 </r>
       <r>   16.2598    0.0000 </r>
       <r>   16.5202    0.0000 </r>
      </set>
      <set comment="kpoint 3">
       <r>  -13.7609    1.0000 </r>
       <r>  -13.0785    1.0000 </r>
       <r>  -12.9766    1.0000 </r>
       <r>  -12.9518    1.0000 </r>
       <r>  -12.6159    1.0000 </r>
       <r>  -12.4951    1.0000 </r>
       <r>  -12.4600    1.0000 </r>
       <r>   -0.9039    1.0000 </r>
       <r>   -0.7836    1.0000 </r>
       <r>   -0.7051    1.0000 </r>
       <r>   -0.5229    1.0000 </r>
       <r>   -0.4203    1.0000 </r>
       <r>    0.0654    1.0000 </r>
       <r>    0.3989    1.0000 </r>
       <r>    0.8736    1.0000 </r>
       <r>    1.1043    1.0000 </r>
       <r>    1.2949    1.0000 </r>
       <r>    1.4112    1.0000 </r>
       <r>    1.6371    1.0000 </r>
       <r>    1.6718    1.0000 </r>
       <r>    1.7580    1.0000 </r>
       <r>    1.9492    1.0000 </r>
       <r>    2.1125    1.0000 </r>
       <r>    2.2967    1.0000 </r>
       <r>    2.4764    1.0000 </r>
       <r>    2.6987    1.0000 </r>
       <r>    3.0396    1.0000 </r>
       <r>    3.1176    1.0000 </r>
       <r>    6.4542    0.0000 </r>
       <r>    9.3453    0.0000 </r>
       <r>   10.1409    0.0000 </r>
       <r>   10.4322    0.0000 </r>
       <r>   10.9315    0.0000 </r>
       <r>   11.4058    0.0000 </r>
       <r>   11.7817    0.0000 </r>
       <r>   12.2942    0.0000 </r>
       <r>   12.4259    0.0000 </r>
       <r>   12.6511    0.0000 </r>
       <r>   13.1024    0.0000 </r>
       <r>   13.4720    0.0000 </r>
       <r>   13.6695    0.0000 </r>
       <r>   14.3560    0.0000 </r>
       <r>   14.9278    0.0000 </r>
       <r>   15.1270    0.0000 </r>
       <r>   15.4564    0.0000 </r>
       <r>   15.9459    0.0000 </r>
       <r>   16.2697    0.0000 </r>
       <r>   16.5159    0.0000 </r>
      </set>
      <set comment="kpoint 4">
       <r>  -13.7656    1.0000 </r>
       <r>  -13.0372    1.0000 </r>
       <r>  -13.0008    1.0000 </r>
       <r>  -12.9274    1.0000 </r>
       <r>  -12.7095    1.0000 </r>
       <r>  -12.4893    1.0000 </r>
       <r>  -12.4066    1.0000 </r>
       <r>   -0.9439    1.0000 </r>
       <r>   -0.8575    1.0000 </r>
       <r>   -0.6019    1.0000 </r>
       <r>   -0.5317    1.0000 </r>
       <r>   -0.3825    1.0000 </r>
       <r>   -0.0865    1.0000 </r>
       <r>    0.4230    1.0000 </r>
       <r>    0.7919    1.0000 </r>
       <r>    0.9616    1.0000 </r>
       <r>    1.4362    1.0000 </r>
       <r>    1.4572    1.0000 </r>
       <r>    1.6455    1.0000 </r>
       <r>    1.6890    1.0000 </r>
       <r>    1.8774    1.0000 </r>
       <r>    1.9625    1.0000 </r>
       <r>    2.0572    1.0000 </r>
       <r>    2.3023    1.0000 </r>
       <r>    2.6453    1.0000 </r>
       <r>    2.7362    1.0000 </r>
       <r>    2.9895    1.0000 </r>
       <r>    3.0996    1.0000 </r>
       <r>    6.3407    0.0000 </r>
       <r>    9.7986    0.0000 </r>
       <r>   10.1107    0.0000 </r>
       <r>   10.5666    0.0000 </r>
       <r>   10.7531    0.0000 </r>
       <r>   11.3715    0.0000 </r>
       <r>   11.5117    0.0000 </r>
       <r>   12.0294    0.0000 </r>
       <r>   12.0529    0.0000 </r>
       <r>   12.9037    0.0000 </r>
       <r>   13.2092    0.0000 </r>
       <r>   13.5887    0.0000 </r>
       <r>   13.9320    0.0000 </r>
       <r>   14.3548    0.0000 </r>
       <r>   14.4145    0.0000 </r>
       <r>   15.3149    0.0000 </r>
       <r>   15.5428    0.0000 </r>
       <r>   15.7459    0.0000 </r>
       <r>   16.1052    0.0000 </r>
       <r>   16.6078    0.0000 </r>
      </set>
      <set comment="kpoint 5">
       <r>  -13.5141    1.0000 </r>
       <r>  -13.2077    1.0000 </r>
       <r>  -13.0714    1.0000 </r>
       <r>  -12.9777    1.0000 </r>
       <r>  -12.6734    1.0000 </r>
       <r>  -12.5621    1.0000 </r>
       <r>  -12.3815    1.0000 </r>
       <r>   -0.7380    1.0000 </r>
       <r>   -0.5963    1.0000 </r>
       <r>   -0.3359    1.0000 </r>
       <r>   -0.2909    1.0000 </r>
       <r>   -0.0121    1.0000 </r>
       <r>    0.3317    1.0000 </r>
       <r>    0.5063    1.0000 </r>
       <r>    0.6223    1.0000 </r>
       <r>    0.7785    1.0000 </r>
       <r>    1.1500    1.0000 </r>
       <r>    1.2324    1.0000 </r>
       <r>    1.3972    1.0000 </r>
       <r>    1.4572    1.0000 </r>
       <r>    1.6329    1.0000 </r>
       <r>    1.6696    1.0000 </r>
       <r>    2.0148    1.0000 </r>
       <r>    2.1075    1.0000 </r>
       <r>    2.2645    1.0000 </r>
       <r>    2.6286    1.0000 </r>
       <r>    2.9461    1.0000 </r>
       <r>    3.0614    1.0000 </r>
       <r>    7.7237    0.0000 </r>
       <r>    8.8314    0.0000 </r>
       <r>    9.4678    0.0000 </r>
       <r>   10.6203    0.0000 </r>
       <r>   11.0314    0.0000 </r>
       <r>   11.4299    0.0000 </r>
       <r>   11.6907    0.0000 </r>
       <r>   12.1271    0.0000 </r>
       <r>   12.6882    0.0000 </r>
       <r>   13.0458    0.0000 </r>
       <r>   13.2225    0.0000 </r>
       <r>   13.5533    0.0000 </r>
       <r>   14.0129    0.0000 </r>
       <r>   14.3398    0.0000 </r>
       <r>   15.0564    0.0000 </r>
       <r>   15.1934    0.0000 </r>
       <r>   15.7198    0.0000 </r>
       <r>   16.0200    0.0000 </r>
       <r>   16.3146    0.0000 </r>
       <r>   16.4332    0.0000 </r>
      </set>
      <set comment="kpoint 6">
       <r>  -13.5349    1.0000 </r>
       <r>  -13.1354    1.0000 </r>
       <r>  -13.0482    1.0000 </r>
       <r>  -13.0225    1.0000 </r>
       <r>  -12.7746    1.0000 </r>
       <r>  -12.4927    1.0000 </r>
       <r>  -12.3771    1.0000 </r>
       <r>   -0.8234    1.0000 </r>
       <r>   -0.5699    1.0000 </r>
       <r>   -0.4618    1.0000 </r>
       <r>   -0.2078    1.0000 </r>
       <r>   -0.0371    1.0000 </r>
       <r>    0.3180    1.0000 </r>
       <r>    0.5107    1.0000 </r>
       <r>    0.7469    1.0000 </r>
       <r>    0.8063    1.0000 </r>
       <r>    0.9890    1.0000 </r>
       <r>    1.1760    1.0000 </r>
       <r>    1.4576    1.0000 </r>
       <r>    1.5140    1.0000 </r>
       <r>    1.6133    1.0000 </r>
       <r>    1.6774    1.0000 </r>
       <r>    1.9646    1.0000 </r>
       <r>    2.2001    1.0000 </r>
       <r>    2.4079    1.0000 </r>
       <r>    2.7372    1.0000 </r>
       <r>    2.8782    1.0000 </r>
       <r>    2.9884    1.0000 </r>
       <r>    7.5269    0.0000 </r>
       <r>    9.5473    0.0000 </r>
       <r>    9.8838    0.0000 </r>
       <r>   10.1325    0.0000 </r>
       <r>   10.6496    0.0000 </r>
       <r>   11.1105    0.0000 </r>
       <r>   11.5717    0.0000 </r>
       <r>   12.2251    0.0000 </r>
       <r>   12.6131    0.0000 </r>
       <r>   12.9449    0.0000 </r>
       <r>   13.1979    0.0000 </r>
       <r>   13.8557    0.0000 </r>
       <r>   14.1520    0.0000 </r>
       <r>   14.5370    0.0000 </r>
       <r>   14.8494    0.0000 </r>
       <r>   14.9902    0.0000 </r>
       <r>   15.5572    0.0000 </r>
       <r>   15.8570    0.0000 </r>
       <r>   16.3478    0.0000 </r>
       <r>   16.5311    0.0000 </r>
      </set>
      <set comment="kpoint 7">
       <r>  -13.5145    1.0000 </r>
       <r>  -13.2045    1.0000 </r>
       <r>  -13.0701    1.0000 </r>
       <r>  -12.9848    1.0000 </r>
       <r>  -12.6709    1.0000 </r>
       <r>  -12.5601    1.0000 </r>
       <r>  -12.3829    1.0000 </r>
       <r>   -0.7400    1.0000 </r>
       <r>   -0.5683    1.0000 </r>
       <r>   -0.3716    1.0000 </r>
       <r>   -0.3018    1.0000 </r>
       <r>    0.0469    1.0000 </r>
       <r>    0.2878    1.0000 </r>
       <r>    0.4095    1.0000 </r>
       <r>    0.6479    1.0000 </r>
       <r>    0.8692    1.0000 </r>
       <r>    1.1675    1.0000 </r>
       <r>    1.2279    1.0000 </r>
       <r>    1.3589    1.0000 </r>
       <r>    1.5248    1.0000 </r>
       <r>    1.5919    1.0000 </r>
       <r>    1.6956    1.0000 </r>
       <r>    1.9456    1.0000 </r>
       <r>    2.0922    1.0000 </r>
       <r>    2.2797    1.0000 </r>
       <r>    2.6748    1.0000 </r>
       <r>    2.9349    1.0000 </r>
       <r>    3.0590    1.0000 </r>
       <r>    7.7204    0.0000 </r>
       <r>    8.8521    0.0000 </r>
       <r>    9.4779    0.0000 </r>
       <r>   10.5218    0.0000 </r>
       <r>   10.9589    0.0000 </r>
       <r>   11.3709    0.0000 </r>
       <r>   11.8946    0.0000 </r>
       <r>   12.2931    0.0000 </r>
       <r>   12.5794    0.0000 </r>
       <r>   12.9467    0.0000 </r>
       <r>   13.3213    0.0000 </r>
       <r>   13.5232    0.0000 </r>
       <r>   14.0621    0.0000 </r>
       <r>   14.4032    0.0000 </r>
       <r>   14.7919    0.0000 </r>
       <r>   15.2408    0.0000 </r>
       <r>   15.6642    0.0000 </r>
       <r>   15.9817    0.0000 </r>
       <r>   16.4563    0.0000 </r>
       <r>   16.5418    0.0000 </r>
      </set>
      <set comment="kpoint 8">
       <r>  -13.5133    1.0000 </r>
       <r>  -13.2111    1.0000 </r>
       <r>  -13.0702    1.0000 </r>
       <r>  -12.9760    1.0000 </r>
       <r>  -12.6714    1.0000 </r>
       <r>  -12.5660    1.0000 </r>
       <r>  -12.3798    1.0000 </r>
       <r>   -0.7385    1.0000 </r>
       <r>   -0.5982    1.0000 </r>
       <r>   -0.3375    1.0000 </r>
       <r>   -0.2903    1.0000 </r>
       <r>   -0.0128    1.0000 </r>
       <r>    0.3282    1.0000 </r>
       <r>    0.5104    1.0000 </r>
       <r>    0.6223    1.0000 </r>
       <r>    0.7781    1.0000 </r>
       <r>    1.1517    1.0000 </r>
       <r>    1.2286    1.0000 </r>
       <r>    1.3981    1.0000 </r>
       <r>    1.4583    1.0000 </r>
       <r>    1.6367    1.0000 </r>
       <r>    1.6674    1.0000 </r>
       <r>    2.0130    1.0000 </r>
       <r>    2.1127    1.0000 </r>
       <r>    2.2658    1.0000 </r>
       <r>    2.6294    1.0000 </r>
       <r>    2.9475    1.0000 </r>
       <r>    3.0600    1.0000 </r>
       <r>    7.7192    0.0000 </r>
       <r>    8.8455    0.0000 </r>
       <r>    9.4551    0.0000 </r>
       <r>   10.6197    0.0000 </r>
       <r>   11.0371    0.0000 </r>
       <r>   11.4264    0.0000 </r>
       <r>   11.6832    0.0000 </r>
       <r>   12.1246    0.0000 </r>
       <r>   12.6886    0.0000 </r>
       <r>   13.0499    0.0000 </r>
       <r>   13.2204    0.0000 </r>
       <r>   13.5480    0.0000 </r>
       <r>   14.0186    0.0000 </r>
       <r>   14.3325    0.0000 </r>
       <r>   15.0579    0.0000 </r>
       <r>   15.1957    0.0000 </r>
       <r>   15.7235    0.0000 </r>
       <r>   16.0199    0.0000 </r>
       <r>   16.3125    0.0000 </r>
       <r>   16.4358    0.0000 </r>
      </set>
      <set comment="kpoint 9">
       <r>  -13.5144    1.0000 </r>
       <r>  -13.2056    1.0000 </r>
       <r>  -13.0656    1.0000 </r>
       <r>  -12.9887    1.0000 </r>
       <r>  -12.6724    1.0000 </r>
       <r>  -12.5566    1.0000 </r>
       <r>  -12.3847    1.0000 </r>
       <r>   -0.7398    1.0000 </r>
       <r>   -0.5680    1.0000 </r>
       <r>   -0.3717    1.0000 </r>
       <r>   -0.2979    1.0000 </r>
       <r>    0.0470    1.0000 </r>
       <r>    0.2898    1.0000 </r>
       <r>    0.4082    1.0000 </r>
       <r>    0.6490    1.0000 </r>
       <r>    0.8657    1.0000 </r>
       <r>    1.1701    1.0000 </r>
       <r>    1.2245    1.0000 </r>
       <r>    1.3621    1.0000 </r>
       <r>    1.5240    1.0000 </r>
       <r>    1.5889    1.0000 </r>
       <r>    1.6932    1.0000 </r>
       <r>    1.9472    1.0000 </r>
       <r>    2.0890    1.0000 </r>
       <r>    2.2814    1.0000 </r>
       <r>    2.6723    1.0000 </r>
       <r>    2.9356    1.0000 </r>
       <r>    3.0589    1.0000 </r>
       <r>    7.7194    0.0000 </r>
       <r>    8.8552    0.0000 </r>
       <r>    9.4813    0.0000 </r>
       <r>   10.5166    0.0000 </r>
       <r>   10.9565    0.0000 </r>
       <r>   11.3763    0.0000 </r>
       <r>   11.8937    0.0000 </r>
       <r>   12.2892    0.0000 </r>
       <r>   12.5780    0.0000 </r>
       <r>   12.9522    0.0000 </r>
       <r>   13.3242    0.0000 </r>
       <r>   13.5274    0.0000 </r>
       <r>   14.0680    0.0000 </r>
       <r>   14.4116    0.0000 </r>
       <r>   14.7900    0.0000 </r>
       <r>   15.2480    0.0000 </r>
       <r>   15.6604    0.0000 </r>
       <r>   15.9682    0.0000 </r>
       <r>   16.4485    0.0000 </r>
       <r>   16.5397    0.0000 </r>
      </set>
      <set comment="kpoint 10">
       <r>  -13.5350    1.0000 </r>
       <r>  -13.1357    1.0000 </r>
       <r>  -13.0430    1.0000 </r>
       <r>  -13.0269    1.0000 </r>
       <r>  -12.7749    1.0000 </r>
       <r>  -12.4930    1.0000 </r>
       <r>  -12.3768    1.0000 </r>
       <r>   -0.8212    1.0000 </r>
       <r>   -0.5722    1.0000 </r>
       <r>   -0.4622    1.0000 </r>
       <r>   -0.2089    1.0000 </r>
       <r>   -0.0346    1.0000 </r>
       <r>    0.3179    1.0000 </r>
       <r>    0.5114    1.0000 </r>
       <r>    0.7454    1.0000 </r>
       <r>    0.8061    1.0000 </r>
       <r>    0.9880    1.0000 </r>
       <r>    1.1752    1.0000 </r>
       <r>    1.4589    1.0000 </r>
       <r>    1.5188    1.0000 </r>
       <r>    1.6091    1.0000 </r>
       <r>    1.6784    1.0000 </r>
       <r>    1.9654    1.0000 </r>
       <r>    2.2009    1.0000 </r>
       <r>    2.4025    1.0000 </r>
       <r>    2.7371    1.0000 </r>
       <r>    2.8804    1.0000 </r>
       <r>    2.9887    1.0000 </r>
       <r>    7.5278    0.0000 </r>
       <r>    9.5462    0.0000 </r>
       <r>    9.8766    0.0000 </r>
       <r>   10.1258    0.0000 </r>
       <r>   10.6659    0.0000 </r>
       <r>   11.1103    0.0000 </r>
       <r>   11.5695    0.0000 </r>
       <r>   12.2342    0.0000 </r>
       <r>   12.6117    0.0000 </r>
       <r>   12.9435    0.0000 </r>
       <r>   13.1970    0.0000 </r>
       <r>   13.8565    0.0000 </r>
       <r>   14.1556    0.0000 </r>
       <r>   14.5352    0.0000 </r>
       <r>   14.8395    0.0000 </r>
       <r>   14.9873    0.0000 </r>
       <r>   15.5654    0.0000 </r>
       <r>   15.8529    0.0000 </r>
       <r>   16.3466    0.0000 </r>
       <r>   16.5295    0.0000 </r>
      </set>
      <set comment="kpoint 11">
       <r>  -13.5349    1.0000 </r>
       <r>  -13.1333    1.0000 </r>
       <r>  -13.0477    1.0000 </r>
       <r>  -13.0259    1.0000 </r>
       <r>  -12.7748    1.0000 </r>
       <r>  -12.4893    1.0000 </r>
       <r>  -12.3796    1.0000 </r>
       <r>   -0.8225    1.0000 </r>
       <r>   -0.5710    1.0000 </r>
       <r>   -0.4596    1.0000 </r>
       <r>   -0.2098    1.0000 </r>
       <r>   -0.0372    1.0000 </r>
       <r>    0.3204    1.0000 </r>
       <r>    0.5110    1.0000 </r>
       <r>    0.7458    1.0000 </r>
       <r>    0.8062    1.0000 </r>
       <r>    0.9893    1.0000 </r>
       <r>    1.1764    1.0000 </r>
       <r>    1.4579    1.0000 </r>
       <r>    1.5174    1.0000 </r>
       <r>    1.6112    1.0000 </r>
       <r>    1.6761    1.0000 </r>
       <r>    1.9639    1.0000 </r>
       <r>    2.2000    1.0000 </r>
       <r>    2.4027    1.0000 </r>
       <r>    2.7377    1.0000 </r>
       <r>    2.8788    1.0000 </r>
       <r>    2.9893    1.0000 </r>
       <r>    7.5276    0.0000 </r>
       <r>    9.5502    0.0000 </r>
       <r>    9.8781    0.0000 </r>
       <r>   10.1321    0.0000 </r>
       <r>   10.6510    0.0000 </r>
       <r>   11.1104    0.0000 </r>
       <r>   11.5715    0.0000 </r>
       <r>   12.2290    0.0000 </r>
       <r>   12.6145    0.0000 </r>
       <r>   12.9422    0.0000 </r>
       <r>   13.2000    0.0000 </r>
       <r>   13.8597    0.0000 </r>
       <r>   14.1592    0.0000 </r>
       <r>   14.5427    0.0000 </r>
       <r>   14.8487    0.0000 </r>
       <r>   14.9870    0.0000 </r>
       <r>   15.5518    0.0000 </r>
       <r>   15.8492    0.0000 </r>
       <r>   16.3428    0.0000 </r>
       <r>   16.5312    0.0000 </r>
      </set>
      <set comment="kpoint 12">
       <r>  -13.5150    1.0000 </r>
       <r>  -13.2032    1.0000 </r>
       <r>  -13.0700    1.0000 </r>
       <r>  -12.9858    1.0000 </r>
       <r>  -12.6703    1.0000 </r>
       <r>  -12.5609    1.0000 </r>
       <r>  -12.3828    1.0000 </r>
       <r>   -0.7372    1.0000 </r>
       <r>   -0.5703    1.0000 </r>
       <r>   -0.3724    1.0000 </r>
       <r>   -0.3003    1.0000 </r>
       <r>    0.0460    1.0000 </r>
       <r>    0.2888    1.0000 </r>
       <r>    0.4100    1.0000 </r>
       <r>    0.6490    1.0000 </r>
       <r>    0.8703    1.0000 </r>
       <r>    1.1679    1.0000 </r>
       <r>    1.2240    1.0000 </r>
       <r>    1.3641    1.0000 </r>
       <r>    1.5217    1.0000 </r>
       <r>    1.5860    1.0000 </r>
       <r>    1.6926    1.0000 </r>
       <r>    1.9446    1.0000 </r>
       <r>    2.0973    1.0000 </r>
       <r>    2.2841    1.0000 </r>
       <r>    2.6728    1.0000 </r>
       <r>    2.9340    1.0000 </r>
       <r>    3.0578    1.0000 </r>
       <r>    7.7212    0.0000 </r>
       <r>    8.8472    0.0000 </r>
       <r>    9.4860    0.0000 </r>
       <r>   10.5224    0.0000 </r>
       <r>   10.9565    0.0000 </r>
       <r>   11.3776    0.0000 </r>
       <r>   11.8935    0.0000 </r>
       <r>   12.2917    0.0000 </r>
       <r>   12.5733    0.0000 </r>
       <r>   12.9478    0.0000 </r>
       <r>   13.3189    0.0000 </r>
       <r>   13.5244    0.0000 </r>
       <r>   14.0573    0.0000 </r>
       <r>   14.4095    0.0000 </r>
       <r>   14.7904    0.0000 </r>
       <r>   15.2454    0.0000 </r>
       <r>   15.6600    0.0000 </r>
       <r>   15.9817    0.0000 </r>
       <r>   16.4589    0.0000 </r>
       <r>   16.5374    0.0000 </r>
      </set>
      <set comment="kpoint 13">
       <r>  -13.5138    1.0000 </r>
       <r>  -13.2099    1.0000 </r>
       <r>  -13.0711    1.0000 </r>
       <r>  -12.9751    1.0000 </r>
       <r>  -12.6715    1.0000 </r>
       <r>  -12.5673    1.0000 </r>
       <r>  -12.3793    1.0000 </r>
       <r>   -0.7386    1.0000 </r>
       <r>   -0.5985    1.0000 </r>
       <r>   -0.3340    1.0000 </r>
       <r>   -0.2881    1.0000 </r>
       <r>   -0.0118    1.0000 </r>
       <r>    0.3278    1.0000 </r>
       <r>    0.5071    1.0000 </r>
       <r>    0.6211    1.0000 </r>
       <r>    0.7801    1.0000 </r>
       <r>    1.1493    1.0000 </r>
       <r>    1.2279    1.0000 </r>
       <r>    1.3965    1.0000 </r>
       <r>    1.4583    1.0000 </r>
       <r>    1.6368    1.0000 </r>
       <r>    1.6697    1.0000 </r>
       <r>    2.0123    1.0000 </r>
       <r>    2.1089    1.0000 </r>
       <r>    2.2666    1.0000 </r>
       <r>    2.6292    1.0000 </r>
       <r>    2.9463    1.0000 </r>
       <r>    3.0620    1.0000 </r>
       <r>    7.7199    0.0000 </r>
       <r>    8.8362    0.0000 </r>
       <r>    9.4680    0.0000 </r>
       <r>   10.6176    0.0000 </r>
       <r>   11.0311    0.0000 </r>
       <r>   11.4249    0.0000 </r>
       <r>   11.6831    0.0000 </r>
       <r>   12.1362    0.0000 </r>
       <r>   12.6923    0.0000 </r>
       <r>   13.0518    0.0000 </r>
       <r>   13.2187    0.0000 </r>
       <r>   13.5504    0.0000 </r>
       <r>   14.0238    0.0000 </r>
       <r>   14.3375    0.0000 </r>
       <r>   15.0555    0.0000 </r>
       <r>   15.1839    0.0000 </r>
       <r>   15.7186    0.0000 </r>
       <r>   16.0224    0.0000 </r>
       <r>   16.3217    0.0000 </r>
       <r>   16.4310    0.0000 </r>
      </set>
      <set comment="kpoint 14">
       <r>  -13.5157    1.0000 </r>
       <r>  -13.2051    1.0000 </r>
       <r>  -13.0462    1.0000 </r>
       <r>  -13.0052    1.0000 </r>
       <r>  -12.6963    1.0000 </r>
       <r>  -12.5230    1.0000 </r>
       <r>  -12.3964    1.0000 </r>
       <r>   -0.8602    1.0000 </r>
       <r>   -0.4751    1.0000 </r>
       <r>   -0.3447    1.0000 </r>
       <r>   -0.2361    1.0000 </r>
       <r>    0.0292    1.0000 </r>
       <r>    0.2157    1.0000 </r>
       <r>    0.5299    1.0000 </r>
       <r>    0.7395    1.0000 </r>
       <r>    0.7648    1.0000 </r>
       <r>    1.0058    1.0000 </r>
       <r>    1.2920    1.0000 </r>
       <r>    1.4632    1.0000 </r>
       <r>    1.4976    1.0000 </r>
       <r>    1.6046    1.0000 </r>
       <r>    1.6674    1.0000 </r>
       <r>    1.7372    1.0000 </r>
       <r>    2.1149    1.0000 </r>
       <r>    2.4186    1.0000 </r>
       <r>    2.7219    1.0000 </r>
       <r>    2.8712    1.0000 </r>
       <r>    3.0663    1.0000 </r>
       <r>    7.7884    0.0000 </r>
       <r>    8.8099    0.0000 </r>
       <r>    9.4980    0.0000 </r>
       <r>   10.5350    0.0000 </r>
       <r>   10.8729    0.0000 </r>
       <r>   11.3410    0.0000 </r>
       <r>   11.9592    0.0000 </r>
       <r>   12.1771    0.0000 </r>
       <r>   12.5073    0.0000 </r>
       <r>   13.1811    0.0000 </r>
       <r>   13.2670    0.0000 </r>
       <r>   13.6281    0.0000 </r>
       <r>   13.9142    0.0000 </r>
       <r>   14.5028    0.0000 </r>
       <r>   14.7481    0.0000 </r>
       <r>   15.2349    0.0000 </r>
       <r>   15.7838    0.0000 </r>
       <r>   15.9140    0.0000 </r>
       <r>   16.3943    0.0000 </r>
       <r>   16.5500    0.0000 </r>
      </set>
      <set comment="kpoint 15">
[...]
        <r>  0.0001  0.0068  0.0009  0.0069  0.0000  0.0000  0.0000  0.0000  0.0000 </r>
        <r>  0.0038  0.0171  0.0086  0.0022  0.0000  0.0000  0.0000  0.0000  0.0000 </r>
        <r>  0.0087  0.0079  0.0221  0.0249  0.0000  0.0000  0.0000  0.0000  0.0000 </r>
        <r>  0.0007  0.0063  0.0028  0.0099  0.0000  0.0000  0.0000  0.0000  0.0000 </r>
        <r>  0.0003  0.0155  0.0003  0.0069  0.0000  0.0000  0.0000  0.0000  0.0000 </r>
        <r>  0.0239  0.0029  0.0058  0.0066  0.0000  0.0000  0.0000  0.0000  0.0000 </r>
        <r>  0.0139  0.0101  0.0043  0.0039  0.0000  0.0000  0.0000  0.0000  0.0000 </r>
       </set>
       <set comment="band 37">
        <r>  0.0037  0.0029  0.0090  0.0087  0.0003  0.0010  0.0020  0.0015  0.0003 </r>
        <r>  0.0054  0.0002  0.0061  0.0008  0.0008  0.0007  0.0010  0.0028  0.0010 </r>
        <r>  0.0019  0.0006  0.0019  0.0145  0.0001  0.0008  0.0021  0.0026  0.0031 </r>
        <r>  0.0184  0.0141  0.0009  0.0014  0.0006  0.0006  0.0001  0.0010  0.0025 </r>
        <r>  0.0017  0.0011  0.0082  0.0012  0.0002  0.0016  0.0021  0.0024  0.0029 </r>
        <r>  0.0020  0.0008  0.0027  0.0002  0.0046  0.0002  0.0014  0.0026  0.0001 </r>
        <r>  0.0043  0.0006  0.0052  0.0018  0.0016  0.0005  0.0013  0.0014  0.0001 </r>
        <r>  0.0040  0.0055  0.0009  0.0025  0.0017  0.0013  0.0012  0.0009  0.0011 </r>
        <r>  0.0214  0.0094  0.0009  0.0058  0.0052  0.0005  0.0006  0.0017  0.0003 </r>
        <r>  0.0004  0.0083  0.0017  0.0041  0.0000  0.0000  0.0000  0.0000  0.0000 </r>
        <r>  0.0008  0.0039  0.0161  0.0064  0.0000  0.0000  0.0000  0.0000  0.0000 </r>
        <r>  0.0028  0.0004  0.0028  0.0001  0.0000  0.0000  0.0000  0.0000  0.0000 </r>
        <r>  0.0012  0.0099  0.0036  0.0037  0.0000  0.0000  0.0000  0.0000  0.0000 </r>
        <r>  0.0006  0.0074  0.0063  0.0272  0.0000  0.0000  0.0000  0.0000  0.0000 </r>
        <r>  0.0077  0.0010  0.0064  0.0002  0.0000  0.0000  0.0000  0.0000  0.0000 </r>
        <r>  0.0015  0.0038  0.0011  0.0078  0.0000  0.0000  0.0000  0.0000  0.0000 </r>
       </set>
       <set comment="band 38">
        <r>  0.0091  0.0148  0.0066  0.0089  0.0012  0.0021  0.0011  0.0014  0.0029 </r>
        <r>  0.0041  0.0043  0.0019  0.0000  0.0009  0.0012  0.0026  0.0011  0.0002 </r>
        <r>  0.0164  0.0003  0.0026  0.0000  0.0010  0.0002  0.0022  0.0014  0.0006 </r>
        <r>  0.0066  0.0068  0.0004  0.0194  0.0009  0.0051  0.0059  0.0003  0.0031 </r>
        <r>  0.0059  0.0005  0.0025  0.0019  0.0032  0.0032  0.0030  0.0021  0.0000 </r>
        <r>  0.0068  0.0045  0.0001  0.0019  0.0023  0.0017  0.0004  0.0009  0.0001 </r>
        <r>  0.0004  0.0018  0.0001  0.0031  0.0012  0.0021  0.0015  0.0024  0.0000 </r>
        <r>  0.0127  0.0020  0.0004  0.0002  0.0011  0.0012  0.0003  0.0008  0.0005 </r>
        <r>  0.0318  0.0051  0.0011  0.0044  0.0036  0.0003  0.0001  0.0007  0.0004 </r>
        <r>  0.0003  0.0010  0.0005  0.0023  0.0000  0.0000  0.0000  0.0000  0.0000 </r>
        <r>  0.0071  0.0145  0.0071  0.0016  0.0000  0.0000  0.0000  0.0000  0.0000 </r>
        <r>  0.0018  0.0011  0.0200  0.0011  0.0000  0.0000  0.0000  0.0000  0.0000 </r>
        <r>  0.0004  0.0097  0.0237  0.0014  0.0000  0.0000  0.0000  0.0000  0.0000 </r>
        <r>  0.0012  0.0131  0.0031  0.0072  0.0000  0.0000  0.0000  0.0000  0.0000 </r>
        <r>  0.0009  0.0108  0.0096  0.0112  0.0000  0.0000  0.0000  0.0000  0.0000 </r>
        <r>  0.0006  0.0045  0.0292  0.0096  0.0000  0.0000  0.0000  0.0000  0.0000 </r>
       </set>
       <set comment="band 39">
        <r>  0.0002  0.0043  0.0020  0.0002  0.0001  0.0005  0.0006  0.0023  0.0011 </r>
        <r>  0.0168  0.0005  0.0036  0.0008  0.0026  0.0001  0.0002  0.0000  0.0008 </r>
        <r>  0.0022  0.0021  0.0000  0.0048  0.0020  0.0002  0.0011  0.0000  0.0005 </r>
        <r>  0.0078  0.0005  0.0003  0.0026  0.0005  0.0003  0.0001  0.0000  0.0034 </r>
        <r>  0.0063  0.0045  0.0049  0.0074  0.0007  0.0065  0.0019  0.0027  0.0017 </r>
        <r>  0.0063  0.0041  0.0042  0.0010  0.0019  0.0050  0.0001  0.0032  0.0003 </r>
        <r>  0.0089  0.0017  0.0041  0.0010  0.0002  0.0057  0.0001  0.0014  0.0001 </r>
        <r>  0.0005  0.0132  0.0070  0.0171  0.0058  0.0010  0.0003  0.0052  0.0043 </r>
        <r>  0.0021  0.0199  0.0005  0.0132  0.0004  0.0072  0.0002  0.0052  0.0004 </r>
        <r>  0.0005  0.0003  0.0026  0.0049  0.0000  0.0000  0.0000  0.0000  0.0000 </r>
        <r>  0.0041  0.0154  0.0044  0.0023  0.0000  0.0000  0.0000  0.0000  0.0000 </r>
        <r>  0.0014  0.0092  0.0119  0.0135  0.0000  0.0000  0.0000  0.0000  0.0000 </r>
        <r>  0.0027  0.0027  0.0002  0.0124  0.0000  0.0000  0.0000  0.0000  0.0000 </r>
        <r>  0.0033  0.0059  0.0156  0.0128  0.0000  0.0000  0.0000  0.0000  0.0000 </r>
        <r>  0.0015  0.0136  0.0021  0.0159  0.0000  0.0000  0.0000  0.0000  0.0000 </r>
        <r>  0.0005  0.0150  0.0119  0.0142  0.0000  0.0000  0.0000  0.0000  0.0000 </r>
       </set>
       <set comment="band 40">
        <r>  0.0099  0.0002  0.0058  0.0013  0.0021  0.0004  0.0022  0.0002  0.0022 </r>
        <r>  0.0198  0.0016  0.0027  0.0030  0.0006  0.0032  0.0000  0.0020  0.0003 </r>
        <r>  0.0021  0.0015  0.0023  0.0019  0.0026  0.0036  0.0017  0.0052  0.0000 </r>
        <r>  0.0192  0.0032  0.0064  0.0033  0.0035  0.0049  0.0005  0.0026  0.0023 </r>
        <r>  0.0030  0.0047  0.0104  0.0057  0.0034  0.0009  0.0043  0.0025  0.0003 </r>
        <r>  0.0109  0.0032  0.0051  0.0005  0.0013  0.0018  0.0019  0.0017  0.0003 </r>
        <r>  0.0005  0.0012  0.0074  0.0020  0.0017  0.0006  0.0018  0.0013  0.0000 </r>
        <r>  0.0183  0.0025  0.0001  0.0006  0.0015  0.0020  0.0011  0.0014  0.0004 </r>
        <r>  0.0007  0.0051  0.0005  0.0053  0.0010  0.0037  0.0007  0.0052  0.0004 </r>
        <r>  0.0026  0.0135  0.0062  0.0125  0.0000  0.0000  0.0000  0.0000  0.0000 </r>
        <r>  0.0025  0.0067  0.0319  0.0126  0.0000  0.0000  0.0000  0.0000  0.0000 </r>
        <r>  0.0002  0.0032  0.0142  0.0263  0.0000  0.0000  0.0000  0.0000  0.0000 </r>
        <r>  0.0015  0.0029  0.0077  0.0045  0.0000  0.0000  0.0000  0.0000  0.0000 </r>
        <r>  0.0020  0.0003  0.0008  0.0062  0.0000  0.0000  0.0000  0.0000  0.0000 </r>
        <r>  0.0009  0.0051  0.0059  0.0001  0.0000  0.0000  0.0000  0.0000  0.0000 </r>
        <r>  0.0054  0.0053  0.0085  0.0175  0.0000  0.0000  0.0000  0.0000  0.0000 </r>
       </set>
       <set comment="band 41">
        <r>  0.0196  0.0048  0.0097  0.0016  0.0051  0.0001  0.0040  0.0005  0.0020 </r>
        <r>  0.0002  0.0037  0.0002  0.0139  0.0049  0.0020  0.0006  0.0005  0.0002 </r>
        <r>  0.0029  0.0150  0.0004  0.0034  0.0060  0.0047  0.0007  0.0017  0.0005 </r>
        <r>  0.0005  0.0049  0.0041  0.0080  0.0016  0.0019  0.0030  0.0042  0.0005 </r>
        <r>  0.0031  0.0064  0.0137  0.0010  0.0016  0.0043  0.0038  0.0017  0.0011 </r>
        <r>  0.0043  0.0001  0.0022  0.0003  0.0006  0.0001  0.0009  0.0023  0.0000 </r>
        <r>  0.0004  0.0049  0.0030  0.0022  0.0009  0.0004  0.0011  0.0041  0.0009 </r>
        <r>  0.0042  0.0055  0.0050  0.0035  0.0011  0.0008  0.0008  0.0022  0.0037 </r>
        <r>  0.0023  0.0057  0.0284  0.0039  0.0055  0.0004  0.0006  0.0014  0.0001 </r>
        <r>  0.0015  0.0013  0.0093  0.0005  0.0000  0.0000  0.0000  0.0000  0.0000 </r>
        <r>  0.0015  0.0012  0.0059  0.0097  0.0000  0.0000  0.0000  0.0000  0.0000 </r>
        <r>  0.0044  0.0050  0.0013  0.0045  0.0000  0.0000  0.0000  0.0000  0.0000 </r>
        <r>  0.0012  0.0006  0.0151  0.0046  0.0000  0.0000  0.0000  0.0000  0.0000 </r>
        <r>  0.0003  0.0084  0.0046  0.0009  0.0000  0.0000  0.0000  0.0000  0.0000 </r>
        <r>  0.0005  0.0104  0.0466  0.0037  0.0000  0.0000  0.0000  0.0000  0.0000 </r>
        <r>  0.0009  0.0082  0.0018  0.0025  0.0000  0.0000  0.0000  0.0000  0.0000 </r>
       </set>
       <set comment="band 42">
        <r>  0.0077  0.0058  0.0138  0.0251  0.0010  0.0035  0.0015  0.0004  0.0011 </r>
        <r>  0.0122  0.0140  0.0095  0.0020  0.0013  0.0020  0.0012  0.0021  0.0011 </r>
        <r>  0.0119  0.0075  0.0012  0.0000  0.0008  0.0027  0.0012  0.0008  0.0005 </r>
        <r>  0.0061  0.0029  0.0025  0.0014  0.0009  0.0033  0.0002  0.0020  0.0022 </r>
        <r>  0.0028  0.0002  0.0161  0.0007  0.0014  0.0022  0.0013  0.0022  0.0027 </r>
        <r>  0.0015  0.0023  0.0051  0.0048  0.0004  0.0047  0.0003  0.0003  0.0003 </r>
        <r>  0.0030  0.0020  0.0029  0.0018  0.0003  0.0017  0.0016  0.0027  0.0002 </r>
        <r>  0.0036  0.0127  0.0071  0.0015  0.0010  0.0037  0.0008  0.0005  0.0030 </r>
        <r>  0.0104  0.0018  0.0098  0.0062  0.0070  0.0005  0.0005  0.0006  0.0003 </r>
        <r>  0.0021  0.0057  0.0026  0.0004  0.0000  0.0000  0.0000  0.0000  0.0000 </r>
        <r>  0.0001  0.0042  0.0027  0.0050  0.0000  0.0000  0.0000  0.0000  0.0000 </r>
        <r>  0.0030  0.0108  0.0008  0.0044  0.0000  0.0000  0.0000  0.0000  0.0000 </r>
        <r>  0.0015  0.0019  0.0035  0.0016  0.0000  0.0000  0.0000  0.0000  0.0000 </r>
        <r>  0.0012  0.0146  0.0016  0.0152  0.0000  0.0000  0.0000  0.0000  0.0000 </r>
        <r>  0.0013  0.0005  0.0272  0.0127  0.0000  0.0000  0.0000  0.0000  0.0000 </r>
        <r>  0.0028  0.0049  0.0031  0.0006  0.0000  0.0000  0.0000  0.0000  0.0000 </r>
       </set>
       <set comment="band 43">
        <r>  0.0006  0.0267  0.0032  0.0045  0.0008  0.0004  0.0010  0.0048  0.0031 </r>
        <r>  0.0062  0.0117  0.0020  0.0004  0.0015  0.0008  0.0000  0.0060  0.0001 </r>
        <r>  0.0075  0.0004  0.0001  0.0007  0.0028  0.0004  0.0006  0.0003  0.0002 </r>
        <r>  0.0090  0.0011  0.0044  0.0194  0.0002  0.0038  0.0024  0.0009  0.0038 </r>
        <r>  0.0061  0.0009  0.0007  0.0067  0.0111  0.0012  0.0000  0.0030  0.0002 </r>
        <r>  0.0118  0.0020  0.0000  0.0026  0.0025  0.0017  0.0017  0.0012  0.0002 </r>
        <r>  0.0024  0.0011  0.0036  0.0010  0.0043  0.0015  0.0011  0.0027  0.0004 </r>
        <r>  0.0103  0.0008  0.0000  0.0010  0.0027  0.0032  0.0041  0.0014  0.0023 </r>
        <r>  0.0014  0.0154  0.0094  0.0011  0.0065  0.0042  0.0005  0.0040  0.0029 </r>
        <r>  0.0014  0.0025  0.0029  0.0072  0.0000  0.0000  0.0000  0.0000  0.0000 </r>
        <r>  0.0058  0.0069  0.0004  0.0122  0.0000  0.0000  0.0000  0.0000  0.0000 </r>
        <r>  0.0044  0.0149  0.0031  0.0000  0.0000  0.0000  0.0000  0.0000  0.0000 </r>
        <r>  0.0010  0.0025  0.0050  0.0016  0.0000  0.0000  0.0000  0.0000  0.0000 </r>
        <r>  0.0033  0.0113  0.0008  0.0018  0.0000  0.0000  0.0000  0.0000  0.0000 </r>
        <r>  0.0019  0.0079  0.0038  0.0147  0.0000  0.0000  0.0000  0.0000  0.0000 </r>
        <r>  0.0016  0.0046  0.0022  0.0011  0.0000  0.0000  0.0000  0.0000  0.0000 </r>
       </set>
       <set comment="band 44">
        <r>  0.0006  0.0214  0.0189  0.0042  0.0003  0.0035  0.0016  0.0034  0.0040 </r>
        <r>  0.0095  0.0108  0.0026  0.0045  0.0020  0.0002  0.0004  0.0015  0.0004 </r>
        <r>  0.0052  0.0030  0.0008  0.0028  0.0039  0.0002  0.0002  0.0013  0.0002 </r>
        <r>  0.0008  0.0014  0.0017  0.0051  0.0066  0.0005  0.0004  0.0022  0.0004 </r>
        <r>  0.0055  0.0004  0.0041  0.0002  0.0007  0.0012  0.0019  0.0008  0.0004 </r>
        <r>  0.0055  0.0015  0.0003  0.0084  0.0007  0.0012  0.0003  0.0021  0.0009 </r>
        <r>  0.0510  0.0001  0.0084  0.0030  0.0019  0.0026  0.0010  0.0039  0.0003 </r>
        <r>  0.0100  0.0085  0.0097  0.0008  0.0004  0.0057  0.0008  0.0036  0.0008 </r>
        <r>  0.0023  0.0035  0.0047  0.0098  0.0010  0.0001  0.0012  0.0004  0.0000 </r>
        <r>  0.0008  0.0037  0.0068  0.0112  0.0000  0.0000  0.0000  0.0000  0.0000 </r>
        <r>  0.0027  0.0189  0.0108  0.0016  0.0000  0.0000  0.0000  0.0000  0.0000 </r>
        <r>  0.0030  0.0078  0.0049  0.0140  0.0000  0.0000  0.0000  0.0000  0.0000 </r>
        <r>  0.0003  0.0024  0.0052  0.0089  0.0000  0.0000  0.0000  0.0000  0.0000 </r>
        <r>  0.0022  0.0109  0.0010  0.0029  0.0000  0.0000  0.0000  0.0000  0.0000 </r>
        <r>  0.0021  0.0061  0.0005  0.0077  0.0000  0.0000  0.0000  0.0000  0.0000 </r>
        <r>  0.0038  0.0034  0.0010  0.0062  0.0000  0.0000  0.0000  0.0000  0.0000 </r>
       </set>
       <set comment="band 45">
        <r>  0.0130  0.0018  0.0240  0.0087  0.0102  0.0055  0.0016  0.0015  0.0005 </r>
        <r>  0.0493  0.0058  0.0047  0.0052  0.0029  0.0034  0.0001  0.0055  0.0013 </r>
        <r>  0.0232  0.0000  0.0010  0.0024  0.0006  0.0001  0.0000  0.0024  0.0014 </r>
        <r>  0.0050  0.0014  0.0062  0.0040  0.0043  0.0024  0.0019  0.0013  0.0003 </r>
        <r>  0.0005  0.0054  0.0029  0.0088  0.0012  0.0019  0.0029  0.0029  0.0005 </r>
        <r>  0.0013  0.0043  0.0010  0.0012  0.0001  0.0003  0.0003  0.0014  0.0018 </r>
        <r>  0.0166  0.0013  0.0051  0.0010  0.0003  0.0002  0.0001  0.0027  0.0005 </r>
        <r>  0.0068  0.0053  0.0013  0.0042  0.0028  0.0008  0.0014  0.0064  0.0013 </r>
        <r>  0.0044  0.0082  0.0047  0.0128  0.0041  0.0005  0.0000  0.0021  0.0028 </r>
        <r>  0.0005  0.0012  0.0075  0.0003  0.0000  0.0000  0.0000  0.0000  0.0000 </r>
        <r>  0.0018  0.0214  0.0015  0.0087  0.0000  0.0000  0.0000  0.0000  0.0000 </r>
        <r>  0.0001  0.0120  0.0019  0.0179  0.0000  0.0000  0.0000  0.0000  0.0000 </r>
        <r>  0.0003  0.0023  0.0049  0.0017  0.0000  0.0000  0.0000  0.0000  0.0000 </r>
        <r>  0.0009  0.0002  0.0015  0.0016  0.0000  0.0000  0.0000  0.0000  0.0000 </r>
        <r>  0.0010  0.0001  0.0111  0.0040  0.0000  0.0000  0.0000  0.0000  0.0000 </r>
        <r>  0.0007  0.0036  0.0299  0.0096  0.0000  0.0000  0.0000  0.0000  0.0000 </r>
       </set>
       <set comment="band 46">
        <r>  0.0042  0.0230  0.0014  0.0051  0.0036  0.0029  0.0031  0.0035  0.0000 </r>
        <r>  0.0024  0.0028  0.0057  0.0030  0.0001  0.0042  0.0001  0.0050  0.0002 </r>
        <r>  0.0063  0.0016  0.0052  0.0031  0.0014  0.0077  0.0014  0.0025  0.0003 </r>
        <r>  0.0078  0.0032  0.0014  0.0050  0.0088  0.0099  0.0032  0.0007  0.0006 </r>
        <r>  0.0048  0.0054  0.0003  0.0003  0.0001  0.0002  0.0020  0.0126  0.0047 </r>
        <r>  0.0085  0.0004  0.0055  0.0009  0.0041  0.0022  0.0013  0.0008  0.0007 </r>
        <r>  0.0057  0.0016  0.0032  0.0029  0.0062  0.0016  0.0041  0.0022  0.0006 </r>
        <r>  0.0127  0.0007  0.0094  0.0000  0.0028  0.0001  0.0014  0.0010  0.0003 </r>
        <r>  0.0068  0.0060  0.0024  0.0092  0.0022  0.0057  0.0007  0.0024  0.0000 </r>
        <r>  0.0031  0.0002  0.0097  0.0008  0.0000  0.0000  0.0000  0.0000  0.0000 </r>
        <r>  0.0006  0.0026  0.0014  0.0038  0.0000  0.0000  0.0000  0.0000  0.0000 </r>
        <r>  0.0002  0.0044  0.0240  0.0090  0.0000  0.0000  0.0000  0.0000  0.0000 </r>
        <r>  0.0007  0.0046  0.0054  0.0024  0.0000  0.0000  0.0000  0.0000  0.0000 </r>
        <r>  0.0006  0.0006  0.0006  0.0007  0.0000  0.0000  0.0000  0.0000  0.0000 </r>
        <r>  0.0022  0.0104  0.0031  0.0001  0.0000  0.0000  0.0000  0.0000  0.0000 </r>
        <r>  0.0015  0.0018  0.0181  0.0015  0.0000  0.0000  0.0000  0.0000  0.0000 </r>
       </set>
       <set comment="band 47">
        <r>  0.0022  0.0022  0.0016  0.0094  0.0003  0.0027  0.0006  0.0010  0.0002 </r>
        <r>  0.0208  0.0014  0.0167  0.0145  0.0001  0.0096  0.0009  0.0018  0.0014 </r>
        <r>  0.0043  0.0025  0.0026  0.0020  0.0011  0.0028  0.0014  0.0006  0.0006 </r>
        <r>  0.0015  0.0090  0.0002  0.0011  0.0047  0.0014  0.0001  0.0002  0.0014 </r>
        <r>  0.0110  0.0020  0.0019  0.0056  0.0081  0.0062  0.0009  0.0003  0.0008 </r>
        <r>  0.0086  0.0041  0.0117  0.0011  0.0025  0.0024  0.0008  0.0060  0.0004 </r>
        <r>  0.0060  0.0038  0.0008  0.0086  0.0051  0.0003  0.0014  0.0012  0.0014 </r>
        <r>  0.0034  0.0023  0.0017  0.0040  0.0039  0.0011  0.0000  0.0183  0.0012 </r>
        <r>  0.0011  0.0076  0.0012  0.0018  0.0002  0.0025  0.0017  0.0065  0.0013 </r>
        <r>  0.0001  0.0010  0.0231  0.0013  0.0000  0.0000  0.0000  0.0000  0.0000 </r>
        <r>  0.0001  0.0011  0.0124  0.0040  0.0000  0.0000  0.0000  0.0000  0.0000 </r>
        <r>  0.0006  0.0005  0.0035  0.0039  0.0000  0.0000  0.0000  0.0000  0.0000 </r>
        <r>  0.0015  0.0003  0.0044  0.0027  0.0000  0.0000  0.0000  0.0000  0.0000 </r>
        <r>  0.0021  0.0007  0.0094  0.0005  0.0000  0.0000  0.0000  0.0000  0.0000 </r>
        <r>  0.0005  0.0066  0.0031  0.0067  0.0000  0.0000  0.0000  0.0000  0.0000 </r>
        <r>  0.0011  0.0161  0.0061  0.0196  0.0000  0.0000  0.0000  0.0000  0.0000 </r>
       </set>
       <set comment="band 48">
        <r>  0.0015  0.0086  0.0017  0.0399  0.0007  0.0001  0.0013  0.0003  0.0003 </r>
        <r>  0.0090  0.0009  0.0040  0.0098  0.0095  0.0011  0.0017  0.0037  0.0003 </r>
        <r>  0.0002  0.0023  0.0110  0.0037  0.0041  0.0002  0.0030  0.0021  0.0003 </r>
        <r>  0.0018  0.0037  0.0029  0.0018  0.0031  0.0005  0.0018  0.0001  0.0011 </r>
        <r>  0.0002  0.0006  0.0041  0.0048  0.0015  0.0029  0.0008  0.0046  0.0020 </r>
        <r>  0.0173  0.0032  0.0060  0.0019  0.0045  0.0033  0.0005  0.0003  0.0006 </r>
        <r>  0.0279  0.0094  0.0023  0.0116  0.0029  0.0003  0.0001  0.0022  0.0008 </r>
        <r>  0.0005  0.0026  0.0073  0.0075  0.0022  0.0040  0.0005  0.0015  0.0000 </r>
        <r>  0.0176  0.0052  0.0038  0.0124  0.0003  0.0068  0.0013  0.0001  0.0004 </r>
        <r>  0.0004  0.0027  0.0030  0.0022  0.0000  0.0000  0.0000  0.0000  0.0000 </r>
        <r>  0.0016  0.0081  0.0057  0.0054  0.0000  0.0000  0.0000  0.0000  0.0000 </r>
        <r>  0.0007  0.0026  0.0041  0.0012  0.0000  0.0000  0.0000  0.0000  0.0000 </r>
        <r>  0.0005  0.0021  0.0075  0.0021  0.0000  0.0000  0.0000  0.0000  0.0000 </r>
        <r>  0.0009  0.0024  0.0002  0.0036  0.0000  0.0000  0.0000  0.0000  0.0000 </r>
        <r>  0.0025  0.0051  0.0008  0.0067  0.0000  0.0000  0.0000  0.0000  0.0000 </r>
        <r>  0.0012  0.0046  0.0040  0.0019  0.0000  0.0000  0.0000  0.0000  0.0000 </r>
       </set>
      </set>
     </set>
    </set>
   </array>
  </projected>
 </calculation>
 <structure name="finalpos" >
  <crystal>
   <varray name="basis" >
    <v>       0.00000000       4.24689300       4.24689300 </v>
    <v>       4.24689300       0.00000000       4.24689300 </v>
    <v>       4.24689300       4.24689300       0.00000000 </v>
   </varray>
   <i name="volume">    153.19477498 </i>
   <varray name="rec_basis" >
    <v>      -0.11773313       0.11773313       0.11773313 </v>
    <v>       0.11773313      -0.11773313       0.11773313 </v>
    <v>       0.11773313       0.11773313      -0.11773313 </v>
   </varray>
  </crystal>
  <varray name="positions" >
   <v>       0.16821016       0.49559846       0.16964285 </v>
   <v>       0.00408993       0.99036910       0.00439640 </v>
   <v>       0.01724620       0.93745189       0.48807384 </v>
   <v>       0.07085054       0.47120657       0.86020745 </v>
   <v>       0.85887901       0.47006070       0.60162516 </v>
   <v>       0.55915287       0.93718677       0.01851370 </v>
   <v>       0.48753717       0.93764301       0.55949976 </v>
   <v>       0.60001897       0.47047133       0.07182772 </v>
   <v>       0.50357916       0.48987997       0.50436811 </v>
   <v>       0.23025678       0.27834218       0.60577258 </v>
   <v>       0.28422507       0.74535297       0.21488415 </v>
   <v>       0.21364176       0.74620787       0.75803208 </v>
   <v>       0.88785756       0.27833031       0.23134929 </v>
   <v>       0.60289013       0.27860454       0.88928840 </v>
   <v>       0.75800547       0.74502083       0.28513423 </v>
   <v>       0.75197422       0.74478448       0.75292927 </v>
  </varray>
 </structure>
</modeling>
