<?xml version="1.0" encoding="ISO-8859-1"?>
<modeling>
 <generator>
  <i name="program" type="string">vasp </i>
  <i name="version" type="string">5.4.1  </i>
  <i name="subversion" type="string">05Feb16 (build Mar 31 2016 13:39:20) complex                          parallel </i>
  <i name="platform" type="string">IFC91_ompi </i>
  <i name="date" type="string">2018 04 28 </i>
  <i name="time" type="string">13:03:09 </i>
 </generator>
 <incar>
  <i type="string" name="PREC">n</i>
  <i type="string" name="ALGO"> N</i>
  <i type="int" name="ISPIN">     2</i>
  <i type="int" name="NELM">   100</i>
  <i type="int" name="NELMIN">     4</i>
  <i type="int" name="IBRION">     2</i>
  <i name="EDIFF">      0.00000100</i>
  <i name="EDIFFG">     -0.05000000</i>
  <i type="int" name="NSW">    20</i>
  <i type="int" name="ISIF">     2</i>
  <i name="ENCUT">    400.00000000</i>
  <i name="NELECT">     56.00000000</i>
  <i type="string" name="LREAL"> A</i>
  <i type="int" name="ISMEAR">     0</i>
  <i name="SIGMA">      0.05000000</i>
  <i type="logical" name="LWAVE"> F  </i>
  <i type="logical" name="LCHARG"> F  </i>
  <i type="logical" name="LORBIT"> F  </i>
  <i type="logical" name="LASPH"> T  </i>
  <v type="int" name="KPOINT_BSE">    -1     0     0     0</v>
  <i type="int" name="NELM">   100</i>
  <i type="logical" name="LASPH"> T  </i>
 </incar>
 <kpoints>
  <generation param="Gamma">
   <v type="int" name="divisions">       2        2        2 </v>
   <v name="usershift">      0.00000000       0.00000000       0.00000000 </v>
   <v name="genvec1">      0.50000000       0.00000000       0.00000000 </v>
   <v name="genvec2">      0.00000000       0.50000000       0.00000000 </v>
   <v name="genvec3">      0.00000000       0.00000000       0.50000000 </v>
   <v name="shift">      0.00000000       0.00000000       0.00000000 </v>
  </generation>
  <varray name="kpointlist" >
   <v>       0.00000000       0.00000000       0.00000000 </v>
   <v>       0.50000000       0.00000000       0.00000000 </v>
   <v>       0.00000000       0.50000000       0.00000000 </v>
   <v>       0.50000000       0.50000000       0.00000000 </v>
   <v>       0.00000000       0.00000000       0.50000000 </v>
   <v>       0.50000000       0.00000000       0.50000000 </v>
   <v>       0.00000000       0.50000000       0.50000000 </v>
   <v>       0.50000000       0.50000000       0.50000000 </v>
  </varray>
  <varray name="weights" >
   <v>       0.12500000 </v>
   <v>       0.12500000 </v>
   <v>       0.12500000 </v>
   <v>       0.12500000 </v>
   <v>       0.12500000 </v>
   <v>       0.12500000 </v>
   <v>       0.12500000 </v>
   <v>       0.12500000 </v>
  </varray>
 </kpoints>
 <parameters>
  <separator name="general" >
   <i type="string" name="SYSTEM">unknown system</i>
   <i type="logical" name="LCOMPAT"> F  </i>
  </separator>
  <separator name="electronic" >
   <i type="string" name="PREC">n</i>
   <i name="ENMAX">    400.00000000</i>
   <i name="ENAUG">    605.39200000</i>
   <i name="EDIFF">      0.00000100</i>
   <i type="int" name="IALGO">    38</i>
   <i type="int" name="IWAVPR">    11</i>
   <i type="int" name="NBANDS">    48</i>
   <i name="NELECT">     56.00000000</i>
   <i type="int" name="TURBO">     0</i>
   <i type="int" name="IRESTART">     0</i>
   <i type="int" name="NREBOOT">     0</i>
   <i type="int" name="NMIN">     0</i>
   <i name="EREF">      0.00000000</i>
   <separator name="electronic smearing" >
    <i type="int" name="ISMEAR">     0</i>
    <i name="SIGMA">      0.05000000</i>
    <i name="KSPACING">      0.50000000</i>
    <i type="logical" name="KGAMMA"> T  </i>
   </separator>
   <separator name="electronic projectors" >
    <i type="logical" name="LREAL"> T  </i>
    <v name="ROPT">     -0.00050000     -0.00050000</v>
    <i type="int" name="LMAXPAW">  -100</i>
    <i type="int" name="LMAXMIX">     2</i>
    <i type="logical" name="NLSPLINE"> F  </i>
   </separator>
   <separator name="electronic startup" >
    <i type="int" name="ISTART">     0</i>
    <i type="int" name="ICHARG">     2</i>
    <i type="int" name="INIWAV">     1</i>
   </separator>
   <separator name="electronic spin" >
    <i type="int" name="ISPIN">     2</i>
    <i type="logical" name="LNONCOLLINEAR"> F  </i>
    <v name="MAGMOM">      1.00000000      1.00000000      1.00000000      1.00000000      1.00000000      1.00000000      1.00000000      1.00000000      1.00000000      1.00000000      1.00000000      1.00000000      1.00000000      1.00000000      1.00000000      1.00000000</v>
    <i name="NUPDOWN">     -1.00000000</i>
    <i type="logical" name="LSORBIT"> F  </i>
    <v name="SAXIS">      0.00000000      0.00000000      1.00000000</v>
    <i type="logical" name="LSPIRAL"> F  </i>
    <v name="QSPIRAL">      0.00000000      0.00000000      0.00000000</v>
    <i type="logical" name="LZEROZ"> F  </i>
   </separator>
   <separator name="electronic exchange-correlation" >
    <i type="logical" name="LASPH"> T  </i>
    <i type="logical" name="LMETAGGA"> F  </i>
   </separator>
   <separator name="electronic convergence" >
    <i type="int" name="NELM">   100</i>
    <i type="int" name="NELMDL">     0</i>
    <i type="int" name="NELMIN">     4</i>
    <i name="ENINI">    400.00000000</i>
    <separator name="electronic convergence detail" >
     <i type="logical" name="LDIAG"> T  </i>
     <i type="logical" name="LSUBROT"> F  </i>
     <i name="WEIMIN">      0.00100000</i>
     <i name="EBREAK">      0.00000001</i>
     <i name="DEPER">      0.30000000</i>
     <i type="int" name="NRMM">     4</i>
     <i name="TIME">      0.40000000</i>
    </separator>
   </separator>
   <separator name="electronic mixer" >
    <i name="AMIX">      0.40000000</i>
    <i name="BMIX">      1.00000000</i>
    <i name="AMIN">      0.10000000</i>
    <i name="AMIX_MAG">      1.60000000</i>
    <i name="BMIX_MAG">      1.00000000</i>
    <separator name="electronic mixer details" >
     <i type="int" name="IMIX">     4</i>
     <i type="logical" name="MIXFIRST"> F  </i>
     <i type="int" name="MAXMIX">   -45</i>
     <i name="WC">    100.00000000</i>
     <i type="int" name="INIMIX">     1</i>
     <i type="int" name="MIXPRE">     1</i>
     <i type="int" name="MREMOVE">     5</i>
    </separator>
   </separator>
   <separator name="electronic dipolcorrection" >
    <i type="logical" name="LDIPOL"> F  </i>
    <i type="logical" name="LMONO"> F  </i>
    <i type="int" name="IDIPOL">     0</i>
    <i name="EPSILON">      1.00000000</i>
    <v name="DIPOL">   -100.00000000   -100.00000000   -100.00000000</v>
    <i name="EFIELD">      0.00000000</i>
   </separator>
  </separator>
  <separator name="grids" >
   <i type="int" name="NGX">    30</i>
   <i type="int" name="NGY">    30</i>
   <i type="int" name="NGZ">    30</i>
   <i type="int" name="NGXF">    60</i>
   <i type="int" name="NGYF">    60</i>
   <i type="int" name="NGZF">    60</i>
   <i type="logical" name="ADDGRID"> F  </i>
  </separator>
  <separator name="ionic" >
   <i type="int" name="NSW">    20</i>
   <i type="int" name="IBRION">     2</i>
   <i type="int" name="ISIF">     2</i>
   <i name="PSTRESS">      0.00000000</i>
   <i name="EDIFFG">     -0.05000000</i>
   <i type="int" name="NFREE">     1</i>
   <i name="POTIM">      0.50000000</i>
   <i name="SMASS">     -3.00000000</i>
   <i name="SCALEE">      1.00000000</i>
  </separator>
  <separator name="ionic md" >
   <i name="TEBEG">      0.00010000</i>
   <i name="TEEND">      0.00010000</i>
   <i type="int" name="NBLOCK">     1</i>
   <i type="int" name="KBLOCK">    20</i>
   <i type="int" name="NPACO">   256</i>
   <i name="APACO">     16.00000000</i>
  </separator>
  <separator name="symmetry" >
   <i type="int" name="ISYM">     2</i>
   <i name="SYMPREC">      0.00001000</i>
  </separator>
  <separator name="dos" >
   <i type="logical" name="LORBIT"> F  </i>
   <v name="RWIGS">     -1.00000000     -1.00000000</v>
   <i type="int" name="NEDOS">   301</i>
   <i name="EMIN">     10.00000000</i>
   <i name="EMAX">    -10.00000000</i>
   <i name="EFERMI">      0.00000000</i>
  </separator>
  <separator name="writing" >
   <i type="int" name="NWRITE">     2</i>
   <i type="logical" name="LWAVE"> F  </i>
   <i type="logical" name="LCHARG"> F  </i>
   <i type="logical" name="LPARD"> F  </i>
   <i type="logical" name="LVTOT"> F  </i>
   <i type="logical" name="LVHAR"> F  </i>
   <i type="logical" name="LELF"> F  </i>
   <i type="logical" name="LOPTICS"> F  </i>
   <v name="STM">      0.00000000      0.00000000      0.00000000      0.00000000      0.00000000      0.00000000      0.00000000</v>
  </separator>
  <separator name="performance" >
   <i type="int" name="NPAR">     4</i>
   <i type="int" name="NSIM">     4</i>
   <i type="int" name="NBLK">    -1</i>
   <i type="logical" name="LPLANE"> T  </i>
   <i type="logical" name="LSCALAPACK"> T  </i>
   <i type="logical" name="LSCAAWARE"> F  </i>
   <i type="logical" name="LSCALU"> F  </i>
   <i type="logical" name="LASYNC"> F  </i>
   <i type="logical" name="LORBITALREAL"> F  </i>
  </separator>
  <separator name="miscellaneous" >
   <i type="int" name="IDIOT">     3</i>
   <i type="logical" name="LMUSIC"> F  </i>
   <v name="POMASS">     24.30500000     16.00000000</v>
   <v name="DARWINR">      0.00000000      0.00000000</v>
   <v name="DARWINV">      1.00000000      1.00000000</v>
   <i type="logical" name="LCORR"> T  </i>
  </separator>
  <i type="logical" name="GGA_COMPAT"> T  </i>
  <i type="logical" name="LBERRY"> F  </i>
  <i type="int" name="ICORELEVEL">     0</i>
  <i type="logical" name="LDAU"> F  </i>
  <i type="int" name="I_CONSTRAINED_M">     0</i>
  <separator name="electronic exchange-correlation" >
   <i type="string" name="GGA">--</i>
   <i type="int" name="VOSKOWN">     0</i>
   <i type="logical" name="LHFCALC"> F  </i>
   <i type="string" name="PRECFOCK"></i>
   <i type="logical" name="LSYMGRAD"> F  </i>
   <i type="logical" name="LHFONE"> F  </i>
   <i type="logical" name="LRHFCALC"> F  </i>
   <i type="logical" name="LTHOMAS"> F  </i>
   <i type="logical" name="LMODELHF"> F  </i>
   <i name="ENCUT4O">     -1.00000000</i>
   <i type="int" name="EXXOEP">     0</i>
   <i type="int" name="FOURORBIT">     0</i>
   <i name="AEXX">      0.00000000</i>
   <i name="HFALPHA">      0.00000000</i>
   <i name="MCALPHA">      0.00000000</i>
   <i name="ALDAX">      1.00000000</i>
   <i name="AGGAX">      1.00000000</i>
   <i name="ALDAC">      1.00000000</i>
   <i name="AGGAC">      1.00000000</i>
   <i type="int" name="NKREDX">     1</i>
   <i type="int" name="NKREDY">     1</i>
   <i type="int" name="NKREDZ">     1</i>
   <i type="logical" name="SHIFTRED"> F  </i>
   <i type="logical" name="ODDONLY"> F  </i>
   <i type="logical" name="EVENONLY"> F  </i>
   <i type="int" name="LMAXFOCK">     0</i>
   <i type="int" name="NMAXFOCKAE">     0</i>
   <i type="logical" name="LFOCKAEDFT"> F  </i>
   <i name="HFSCREEN">      0.00000000</i>
   <i name="HFSCREENC">      0.00000000</i>
   <i type="int" name="NBANDSGWLOW">     0</i>
  </separator>
  <separator name="vdW DFT" >
   <i type="logical" name="LUSE_VDW"> F  </i>
   <i name="Zab_VDW">     -0.84910000</i>
   <i name="PARAM1">      0.12340000</i>
   <i name="PARAM2">      1.00000000</i>
   <i name="PARAM3">      0.00000000</i>
  </separator>
  <separator name="model GW" >
   <i type="int" name="MODEL_GW">     0</i>
   <i name="MODEL_EPS0">      5.74480406</i>
   <i name="MODEL_ALPHA">      1.00000000</i>
  </separator>
  <separator name="linear response parameters" >
   <i type="logical" name="LEPSILON"> F  </i>
   <i type="logical" name="LRPA"> F  </i>
   <i type="logical" name="LNABLA"> F  </i>
   <i type="logical" name="LVEL"> F  </i>
   <i type="int" name="KINTER">     0</i>
   <i name="CSHIFT">      0.10000000</i>
   <i name="OMEGAMAX">     -1.00000000</i>
   <i name="DEG_THRESHOLD">      0.00200000</i>
  </separator>
  <separator name="orbital magnetization" >
   <i type="logical" name="NUCIND"> F  </i>
   <v name="MAGPOS">      0.00000000      0.00000000      0.00000000</v>
   <i type="logical" name="LNICSALL"> T  </i>
   <i type="logical" name="ORBITALMAG"> F  </i>
   <i type="logical" name="LMAGBLOCH"> F  </i>
   <i type="logical" name="LCHIMAG"> F  </i>
   <i type="logical" name="LGAUGE"> T  </i>
   <i type="int" name="MAGATOM">     0</i>
   <v name="MAGDIPOL">      0.00000000      0.00000000      0.00000000</v>
   <v name="AVECCONST">      0.00000000      0.00000000      0.00000000</v>
  </separator>
  <separator name="response functions" >
   <i type="logical" name="LADDER"> F  </i>
   <i type="logical" name="LFXC"> F  </i>
   <i type="logical" name="LHARTREE"> T  </i>
   <i type="int" name="IBSE">     0</i>
   <v type="int" name="KPOINT">    -1     0     0     0</v>
   <i type="logical" name="LTCTE"> F  </i>
   <i type="logical" name="LTETE"> F  </i>
   <i type="logical" name="LTRIPLET"> F  </i>
   <i type="logical" name="LFXCEPS"> F  </i>
   <i type="logical" name="LFXHEG"> F  </i>
   <i type="int" name="NATURALO">     0</i>
   <i type="logical" name="L2ORDER"> F  </i>
   <i type="logical" name="LUSEW"> F  </i>
   <i name="ENCUTGW">     -2.00000000</i>
   <i name="ENCUTGWSOFT">     -2.00000000</i>
   <i name="ENCUTLF">     -1.00000000</i>
   <i type="int" name="LMAXMP2">    -1</i>
   <i name="SCISSOR">      0.00000000</i>
   <i type="int" name="NOMEGA">     0</i>
   <i type="int" name="NOMEGAR">     0</i>
   <i type="int" name="NBANDSGW">    -1</i>
   <i type="int" name="NBANDSO">    -1</i>
   <i type="int" name="NBANDSV">    -1</i>
   <i type="int" name="NELM">   100</i>
   <i type="int" name="NELMHF">     1</i>
   <i type="int" name="DIM">     3</i>
   <i type="int" name="ANTIRES">     0</i>
   <i name="OMEGAMAX">    -30.00000000</i>
   <i name="OMEGAMIN">    -30.00000000</i>
   <i name="OMEGATL">   -200.00000000</i>
   <i type="int" name="OMEGAGRID">     0</i>
   <i name="CSHIFT">     -0.10000000</i>
   <i type="logical" name="SELFENERGY"> F  </i>
   <i type="logical" name="LSPECTRAL"> F  </i>
   <i type="logical" name="LSPECTRALGW"> F  </i>
   <i type="logical" name="LSINGLES"> F  </i>
   <i type="logical" name="LFERMIGW"> F  </i>
   <i type="logical" name="ODDONLYGW"> F  </i>
   <i type="logical" name="EVENONLYGW"> F  </i>
   <i type="int" name="NKREDLFX">     1</i>
   <i type="int" name="NKREDLFY">     1</i>
   <i type="int" name="NKREDLFZ">     1</i>
   <i type="int" name="MAXMEM">  1800</i>
   <i type="int" name="TELESCOPE">     0</i>
   <i type="int" name="TAUPAR">     1</i>
   <i type="int" name="OMEGAPAR">    -1</i>
   <i name="LAMBDA">      1.00000000</i>
  </separator>
  <separator name="External order field" >
   <i name="OFIELD_KAPPA">      0.00000000</i>
   <v name="OFIELD_K">      0.00000000      0.00000000      0.00000000</v>
   <i name="OFIELD_Q6_NEAR">      0.00000000</i>
   <i name="OFIELD_Q6_FAR">      0.00000000</i>
   <i name="OFIELD_A">      0.00000000</i>
  </separator>
 </parameters>
 <atominfo>
  <atoms>      16 </atoms>
  <types>       2 </types>
  <array name="atoms" >
   <dimension dim="1">ion</dimension>
   <field type="string">element</field>
   <field type="int">atomtype</field>
   <set>
    <rc><c>Mg</c><c>   1</c></rc>
    <rc><c>Mg</c><c>   1</c></rc>
    <rc><c>Mg</c><c>   1</c></rc>
    <rc><c>Mg</c><c>   1</c></rc>
    <rc><c>Mg</c><c>   1</c></rc>
    <rc><c>Mg</c><c>   1</c></rc>
    <rc><c>Mg</c><c>   1</c></rc>
    <rc><c>Mg</c><c>   1</c></rc>
    <rc><c>Mg</c><c>   1</c></rc>
    <rc><c>O </c><c>   2</c></rc>
    <rc><c>O </c><c>   2</c></rc>
    <rc><c>O </c><c>   2</c></rc>
    <rc><c>O </c><c>   2</c></rc>
    <rc><c>O </c><c>   2</c></rc>
    <rc><c>O </c><c>   2</c></rc>
    <rc><c>O </c><c>   2</c></rc>
   </set>
  </array>
  <array name="atomtypes" >
   <dimension dim="1">type</dimension>
   <field type="int">atomspertype</field>
   <field type="string">element</field>
   <field>mass</field>
   <field>valence</field>
   <field type="string">pseudopotential</field>
   <set>
    <rc><c>   9</c><c>Mg</c><c>     24.30500000</c><c>      2.00000000</c><c>  PAW_PBE Mg 13Apr2007                  </c></rc>
    <rc><c>   7</c><c>O </c><c>     16.00000000</c><c>      6.00000000</c><c>  PAW_PBE O 08Apr2002                   </c></rc>
   </set>
  </array>
 </atominfo>
 <structure name="initialpos" >
  <crystal>
   <varray name="basis" >
    <v>       0.00000000       4.24689300       4.24689300 </v>
    <v>       4.24689300       0.00000000       4.24689300 </v>
    <v>       4.24689300       4.24689300       0.00000000 </v>
   </varray>
   <i name="volume">    153.19477498 </i>
   <varray name="rec_basis" >
    <v>      -0.11773313       0.11773313       0.11773313 </v>
    <v>       0.11773313      -0.11773313       0.11773313 </v>
    <v>       0.11773313       0.11773313      -0.11773313 </v>
   </varray>
  </crystal>
  <varray name="positions" >
   <v>       0.16901583       0.49395704       0.17014389 </v>
   <v>       0.00382598       0.98892588       0.00505300 </v>
   <v>       0.01712519       0.93743948       0.48764211 </v>
   <v>       0.07247863       0.46970930       0.85915234 </v>
   <v>       0.85807955       0.46977029       0.60204516 </v>
   <v>       0.55968020       0.93705811       0.01802140 </v>
   <v>       0.48668025       0.93725065       0.56052650 </v>
   <v>       0.60089734       0.46986175       0.07293565 </v>
   <v>       0.50341846       0.49154009       0.50398845 </v>
   <v>       0.23035563       0.27907313       0.60286129 </v>
   <v>       0.28449406       0.74585878       0.21419301 </v>
   <v>       0.21296170       0.74667198       0.75775274 </v>
   <v>       0.88937841       0.27981415       0.23152164 </v>
   <v>       0.60084879       0.27940939       0.89087640 </v>
   <v>       0.75683309       0.74607642       0.28571678 </v>
   <v>       0.75234189       0.74409456       0.75311465 </v>
  </varray>
 </structure>
 <calculation>
  <scstep>
   <time name="dav">    0.56    0.55</time>
   <time name="total">    1.26    1.26</time>
   <energy>
    <i name="alphaZ">    142.81396753 </i>
    <i name="ewald">  -2444.70703593 </i>
    <i name="hartreedc">   -956.69839653 </i>
    <i name="XCdc">   -235.85489462 </i>
    <i name="pawpsdc">   3011.45132117 </i>
    <i name="pawaedc">  -2557.24446474 </i>
    <i name="eentropy">     -0.00026789 </i>
    <i name="bandstr">     11.02485747 </i>
    <i name="atom">   3233.17333345 </i>
    <i name="e_fr_energy">    203.95841993 </i>
    <i name="e_wo_entrp">    203.95868782 </i>
    <i name="e_0_energy">    203.95855387 </i>
   </energy>
  </scstep>
  <scstep>
   <time name="dav">    0.63    0.63</time>
   <time name="total">    0.63    0.64</time>
   <energy>
    <i name="e_fr_energy">    -87.71530729 </i>
    <i name="e_wo_entrp">    -87.71530729 </i>
    <i name="e_0_energy">    -87.71530729 </i>
   </energy>
  </scstep>
  <scstep>
   <time name="dav">    0.61    0.61</time>
   <time name="total">    0.61    0.62</time>
   <energy>
    <i name="e_fr_energy">   -104.59931377 </i>
    <i name="e_wo_entrp">   -104.59931377 </i>
    <i name="e_0_energy">   -104.59931377 </i>
   </energy>
  </scstep>
  <scstep>
   <time name="dav">    0.56    0.56</time>
   <time name="total">    0.56    0.57</time>
   <energy>
    <i name="e_fr_energy">   -104.69588791 </i>
    <i name="e_wo_entrp">   -104.69588791 </i>
    <i name="e_0_energy">   -104.69588791 </i>
   </energy>
  </scstep>
  <scstep>
   <time name="dav">    0.59    0.59</time>
   <time name="total">    0.62    0.62</time>
   <energy>
    <i name="e_fr_energy">   -104.69640206 </i>
    <i name="e_wo_entrp">   -104.69640206 </i>
    <i name="e_0_energy">   -104.69640206 </i>
   </energy>
  </scstep>
  <scstep>
   <time name="dav">    0.58    0.58</time>
   <time name="total">    1.31    1.31</time>
   <energy>
    <i name="e_fr_energy">   -101.62811016 </i>
    <i name="e_wo_entrp">   -101.62811016 </i>
    <i name="e_0_energy">   -101.62811016 </i>
   </energy>
  </scstep>
  <scstep>
   <time name="dav">    0.60    0.60</time>
   <time name="total">    1.32    1.32</time>
   <energy>
    <i name="e_fr_energy">   -101.58936259 </i>
    <i name="e_wo_entrp">   -101.58936259 </i>
    <i name="e_0_energy">   -101.58936259 </i>
   </energy>
  </scstep>
  <scstep>
   <time name="dav">    0.58    0.58</time>
   <time name="total">    1.31    1.31</time>
   <energy>
    <i name="e_fr_energy">   -101.43594932 </i>
    <i name="e_wo_entrp">   -101.43594932 </i>
    <i name="e_0_energy">   -101.43594932 </i>
   </energy>
  </scstep>
  <scstep>
   <time name="dav">    0.61    0.61</time>
   <time name="total">    1.34    1.34</time>
   <energy>
    <i name="e_fr_energy">   -101.42684853 </i>
    <i name="e_wo_entrp">   -101.42684853 </i>
    <i name="e_0_energy">   -101.42684853 </i>
   </energy>
  </scstep>
  <scstep>
   <time name="dav">    0.57    0.57</time>
   <time name="total">    1.29    1.30</time>
   <energy>
    <i name="e_fr_energy">   -101.42609784 </i>
    <i name="e_wo_entrp">   -101.42609784 </i>
    <i name="e_0_energy">   -101.42609784 </i>
   </energy>
  </scstep>
  <scstep>
   <time name="dav">    0.58    0.58</time>
   <time name="total">    1.31    1.31</time>
   <energy>
    <i name="e_fr_energy">   -101.42664431 </i>
    <i name="e_wo_entrp">   -101.42664431 </i>
    <i name="e_0_energy">   -101.42664431 </i>
   </energy>
  </scstep>
  <scstep>
   <time name="dav">    0.58    0.58</time>
   <time name="total">    1.30    1.31</time>
   <energy>
    <i name="e_fr_energy">   -101.42679841 </i>
    <i name="e_wo_entrp">   -101.42679841 </i>
    <i name="e_0_energy">   -101.42679841 </i>
   </energy>
  </scstep>
  <scstep>
   <time name="dav">    0.58    0.58</time>
   <time name="total">    1.30    1.30</time>
   <energy>
    <i name="e_fr_energy">   -101.42681298 </i>
    <i name="e_wo_entrp">   -101.42681298 </i>
    <i name="e_0_energy">   -101.42681298 </i>
   </energy>
  </scstep>
  <scstep>
   <time name="dav">    0.58    0.58</time>
   <time name="total">    1.29    1.29</time>
   <energy>
    <i name="alphaZ">    142.81396753 </i>
    <i name="ewald">  -2444.70703593 </i>
    <i name="hartreedc">  -1113.73264861 </i>
    <i name="XCdc">   -239.35227459 </i>
    <i name="pawpsdc">   3983.96037319 </i>
    <i name="pawaedc">  -3531.50298463 </i>
    <i name="eentropy">     -0.00000000 </i>
    <i name="bandstr">   -132.07954429 </i>
    <i name="atom">   3233.17333345 </i>
    <i name="e_fr_energy">   -101.42681387 </i>
    <i name="e_wo_entrp">   -101.42681387 </i>
    <i name="e_0_energy">   -101.42681387 </i>
   </energy>
  </scstep>
  <structure>
   <crystal>
    <varray name="basis" >
     <v>       0.00000000       4.24689300       4.24689300 </v>
     <v>       4.24689300       0.00000000       4.24689300 </v>
     <v>       4.24689300       4.24689300       0.00000000 </v>
    </varray>
    <i name="volume">    153.19477498 </i>
    <varray name="rec_basis" >
     <v>      -0.11773313       0.11773313       0.11773313 </v>
     <v>       0.11773313      -0.11773313       0.11773313 </v>
     <v>       0.11773313       0.11773313      -0.11773313 </v>
    </varray>
   </crystal>
   <varray name="positions" >
    <v>       0.16901583       0.49395704       0.17014389 </v>
    <v>       0.00382598       0.98892588       0.00505300 </v>
    <v>       0.01712519       0.93743948       0.48764211 </v>
    <v>       0.07247863       0.46970930       0.85915234 </v>
    <v>       0.85807955       0.46977029       0.60204516 </v>
    <v>       0.55968020       0.93705811       0.01802140 </v>
    <v>       0.48668025       0.93725065       0.56052650 </v>
    <v>       0.60089734       0.46986175       0.07293565 </v>
    <v>       0.50341846       0.49154009       0.50398845 </v>
    <v>       0.23035563       0.27907313       0.60286129 </v>
    <v>       0.28449406       0.74585878       0.21419301 </v>
    <v>       0.21296170       0.74667198       0.75775274 </v>
    <v>       0.88937841       0.27981415       0.23152164 </v>
    <v>       0.60084879       0.27940939       0.89087640 </v>
    <v>       0.75683309       0.74607642       0.28571678 </v>
    <v>       0.75234189       0.74409456       0.75311465 </v>
   </varray>
  </structure>
  <varray name="forces" >
   <v>      -0.00521896      -0.00391828      -0.00741068 </v>
   <v>      -0.01664127       0.01114086      -0.00568344 </v>
   <v>      -0.03915691       0.00274464      -0.01503428 </v>
   <v>       0.01613665      -0.01101880       0.02083029 </v>
   <v>      -0.01143798      -0.01721965       0.00831831 </v>
   <v>      -0.00221872       0.03239123       0.00366339 </v>
   <v>       0.00734570       0.02057798      -0.02527289 </v>
   <v>       0.01896983      -0.00679603      -0.00438939 </v>
   <v>      -0.00172576      -0.01290867      -0.01429073 </v>
   <v>       0.00443938      -0.01369663       0.03040015 </v>
   <v>      -0.00128017      -0.00495515       0.02368475 </v>
   <v>      -0.00437924      -0.00258334      -0.02988208 </v>
   <v>       0.01208421       0.01586052      -0.00161741 </v>
   <v>       0.00903653      -0.02857121       0.01189279 </v>
   <v>       0.01296575       0.01051623       0.00988241 </v>
   <v>       0.00108095       0.00843630      -0.00509119 </v>
  </varray>
  <varray name="stress" >
   <v>    -127.41749774      -7.46947592       8.99924709 </v>
   <v>      -7.46947696    -128.60864647      -7.86253442 </v>
   <v>       8.99925422      -7.86253569    -128.41021182 </v>
  </varray>
  <energy>
   <i name="e_fr_energy">   -101.42681387 </i>
   <i name="e_wo_entrp">   -101.42681387 </i>
   <i name="e_0_energy">     -0.00000000 </i>
  </energy>
  <time name="totalsc">   17.43   17.49</time>
  <eigenvalues>
   <array>
    <dimension dim="1">band</dimension>
    <dimension dim="2">kpoint</dimension>
    <dimension dim="3">spin</dimension>
    <field>eigene</field>
    <field>occ</field>
    <set>
     <set comment="spin 1">
      <set comment="kpoint 1">
       <r>  -13.8704    1.0000 </r>
       <r>  -12.9637    1.0000 </r>
       <r>  -12.9453    1.0000 </r>
       <r>  -12.9410    1.0000 </r>
       <r>  -12.6006    1.0000 </r>
       <r>  -12.4498    1.0000 </r>
       <r>  -12.4457    1.0000 </r>
       <r>   -0.9414    1.0000 </r>
       <r>   -0.9000    1.0000 </r>
       <r>   -0.8330    1.0000 </r>
       <r>   -0.8317    1.0000 </r>
       <r>   -0.3249    1.0000 </r>
       <r>   -0.0357    1.0000 </r>
       <r>   -0.0346    1.0000 </r>
       <r>    0.5774    1.0000 </r>
       <r>    1.4746    1.0000 </r>
       <r>    1.4781    1.0000 </r>
       <r>    1.7213    1.0000 </r>
       <r>    1.7621    1.0000 </r>
       <r>    1.7649    1.0000 </r>
       <r>    2.0598    1.0000 </r>
       <r>    2.0630    1.0000 </r>
       <r>    2.2491    1.0000 </r>
       <r>    2.4914    1.0000 </r>
       <r>    2.4957    1.0000 </r>
       <r>    3.0762    1.0000 </r>
       <r>    3.0775    1.0000 </r>
       <r>    3.1608    1.0000 </r>
       <r>    5.5589    0.0000 </r>
       <r>    9.6932    0.0000 </r>
       <r>   10.3566    0.0000 </r>
       <r>   10.5725    0.0000 </r>
       <r>   10.5792    0.0000 </r>
       <r>   11.9137    0.0000 </r>
       <r>   11.9327    0.0000 </r>
       <r>   11.9375    0.0000 </r>
       <r>   12.3878    0.0000 </r>
       <r>   12.7348    0.0000 </r>
       <r>   12.8308    0.0000 </r>
       <r>   12.8371    0.0000 </r>
       <r>   13.8002    0.0000 </r>
       <r>   14.3133    0.0000 </r>
       <r>   14.5083    0.0000 </r>
       <r>   14.5175    0.0000 </r>
       <r>   15.9022    0.0000 </r>
       <r>   15.9076    0.0000 </r>
       <r>   16.4471    0.0000 </r>
       <r>   16.4555    0.0000 </r>
      </set>
      <set comment="kpoint 2">
       <r>  -13.5304    1.0000 </r>
       <r>  -13.2964    1.0000 </r>
       <r>  -12.9778    1.0000 </r>
       <r>  -12.9623    1.0000 </r>
       <r>  -12.5816    1.0000 </r>
       <r>  -12.5084    1.0000 </r>
       <r>  -12.4396    1.0000 </r>
       <r>   -0.9243    1.0000 </r>
       <r>   -0.5536    1.0000 </r>
       <r>   -0.4377    1.0000 </r>
       <r>   -0.3246    1.0000 </r>
       <r>    0.0946    1.0000 </r>
       <r>    0.2736    1.0000 </r>
       <r>    0.4973    1.0000 </r>
       <r>    0.6755    1.0000 </r>
       <r>    0.9175    1.0000 </r>
       <r>    1.0859    1.0000 </r>
       <r>    1.2916    1.0000 </r>
       <r>    1.3670    1.0000 </r>
       <r>    1.5141    1.0000 </r>
       <r>    1.5553    1.0000 </r>
       <r>    1.7701    1.0000 </r>
       <r>    1.9211    1.0000 </r>
       <r>    2.2836    1.0000 </r>
       <r>    2.4941    1.0000 </r>
       <r>    2.5148    1.0000 </r>
       <r>    3.0310    1.0000 </r>
       <r>    3.1136    1.0000 </r>
       <r>    7.7483    0.0000 </r>
       <r>    8.4552    0.0000 </r>
       <r>    9.6388    0.0000 </r>
       <r>   10.4549    0.0000 </r>
       <r>   11.1932    0.0000 </r>
       <r>   11.5536    0.0000 </r>
       <r>   11.9189    0.0000 </r>
       <r>   12.1419    0.0000 </r>
       <r>   12.6796    0.0000 </r>
       <r>   12.9391    0.0000 </r>
       <r>   13.1717    0.0000 </r>
       <r>   13.3794    0.0000 </r>
       <r>   13.8038    0.0000 </r>
       <r>   14.4543    0.0000 </r>
       <r>   14.9866    0.0000 </r>
       <r>   15.4364    0.0000 </r>
       <r>   15.7592    0.0000 </r>
       <r>   15.9869    0.0000 </r>
       <r>   16.2679    0.0000 </r>
       <r>   16.5260    0.0000 </r>
      </set>
      <set comment="kpoint 3">
       <r>  -13.5744    1.0000 </r>
       <r>  -13.1709    1.0000 </r>
       <r>  -12.9896    1.0000 </r>
       <r>  -12.9851    1.0000 </r>
       <r>  -12.7592    1.0000 </r>
       <r>  -12.4080    1.0000 </r>
       <r>  -12.4040    1.0000 </r>
       <r>   -0.9281    1.0000 </r>
       <r>   -0.6419    1.0000 </r>
       <r>   -0.6403    1.0000 </r>
       <r>   -0.1858    1.0000 </r>
       <r>    0.2097    1.0000 </r>
       <r>    0.3036    1.0000 </r>
       <r>    0.3060    1.0000 </r>
       <r>    0.6368    1.0000 </r>
       <r>    0.8250    1.0000 </r>
       <r>    1.0028    1.0000 </r>
       <r>    1.0070    1.0000 </r>
       <r>    1.5750    1.0000 </r>
       <r>    1.6048    1.0000 </r>
       <r>    1.6061    1.0000 </r>
       <r>    2.0516    1.0000 </r>
       <r>    2.0540    1.0000 </r>
       <r>    2.4572    1.0000 </r>
       <r>    2.4616    1.0000 </r>
       <r>    2.6409    1.0000 </r>
       <r>    2.9957    1.0000 </r>
       <r>    2.9973    1.0000 </r>
       <r>    7.2161    0.0000 </r>
       <r>    9.3408    0.0000 </r>
       <r>   10.4190    0.0000 </r>
       <r>   10.6024    0.0000 </r>
       <r>   10.6092    0.0000 </r>
       <r>   10.9441    0.0000 </r>
       <r>   11.5382    0.0000 </r>
       <r>   12.0322    0.0000 </r>
       <r>   12.0368    0.0000 </r>
       <r>   12.9680    0.0000 </r>
       <r>   12.9710    0.0000 </r>
       <r>   13.9107    0.0000 </r>
       <r>   14.3240    0.0000 </r>
       <r>   14.8739    0.0000 </r>
       <r>   14.9061    0.0000 </r>
       <r>   14.9137    0.0000 </r>
       <r>   15.3992    0.0000 </r>
       <r>   15.4064    0.0000 </r>
       <r>   16.6774    0.0000 </r>
       <r>   16.7831    0.0000 </r>
      </set>
      <set comment="kpoint 4">
       <r>  -13.4277    1.0000 </r>
       <r>  -13.2175    1.0000 </r>
       <r>  -13.0724    1.0000 </r>
       <r>  -12.9897    1.0000 </r>
       <r>  -12.7066    1.0000 </r>
       <r>  -12.5814    1.0000 </r>
       <r>  -12.3235    1.0000 </r>
       <r>   -0.7669    1.0000 </r>
       <r>   -0.4689    1.0000 </r>
       <r>   -0.3450    1.0000 </r>
       <r>   -0.1264    1.0000 </r>
       <r>    0.1674    1.0000 </r>
       <r>    0.3887    1.0000 </r>
       <r>    0.4661    1.0000 </r>
       <r>    0.7041    1.0000 </r>
       <r>    0.8418    1.0000 </r>
       <r>    1.1571    1.0000 </r>
       <r>    1.1897    1.0000 </r>
       <r>    1.2735    1.0000 </r>
       <r>    1.3189    1.0000 </r>
       <r>    1.5340    1.0000 </r>
       <r>    1.5743    1.0000 </r>
       <r>    1.7760    1.0000 </r>
       <r>    2.1092    1.0000 </r>
       <r>    2.2968    1.0000 </r>
       <r>    2.8073    1.0000 </r>
       <r>    2.9365    1.0000 </r>
       <r>    3.0531    1.0000 </r>
       <r>    8.1281    0.0000 </r>
       <r>    8.9443    0.0000 </r>
       <r>    9.2616    0.0000 </r>
       <r>   10.5262    0.0000 </r>
       <r>   10.8417    0.0000 </r>
       <r>   11.3348    0.0000 </r>
       <r>   11.6405    0.0000 </r>
       <r>   12.2005    0.0000 </r>
       <r>   12.6852    0.0000 </r>
       <r>   13.2469    0.0000 </r>
       <r>   13.3585    0.0000 </r>
       <r>   13.6973    0.0000 </r>
       <r>   13.9259    0.0000 </r>
       <r>   14.3233    0.0000 </r>
       <r>   14.8831    0.0000 </r>
       <r>   15.1612    0.0000 </r>
       <r>   15.8752    0.0000 </r>
       <r>   15.9054    0.0000 </r>
       <r>   16.1496    0.0000 </r>
       <r>   16.4719    0.0000 </r>
      </set>
      <set comment="kpoint 5">
       <r>  -13.5289    1.0000 </r>
       <r>  -13.2991    1.0000 </r>
       <r>  -12.9762    1.0000 </r>
       <r>  -12.9628    1.0000 </r>
       <r>  -12.5832    1.0000 </r>
       <r>  -12.5046    1.0000 </r>
       <r>  -12.4417    1.0000 </r>
       <r>   -0.9244    1.0000 </r>
       <r>   -0.5506    1.0000 </r>
       <r>   -0.4380    1.0000 </r>
       <r>   -0.3272    1.0000 </r>
       <r>    0.0975    1.0000 </r>
       <r>    0.2718    1.0000 </r>
       <r>    0.4940    1.0000 </r>
       <r>    0.6755    1.0000 </r>
       <r>    0.9173    1.0000 </r>
       <r>    1.0860    1.0000 </r>
       <r>    1.2958    1.0000 </r>
       <r>    1.3692    1.0000 </r>
       <r>    1.5133    1.0000 </r>
       <r>    1.5570    1.0000 </r>
       <r>    1.7676    1.0000 </r>
       <r>    1.9178    1.0000 </r>
       <r>    2.2849    1.0000 </r>
       <r>    2.4951    1.0000 </r>
       <r>    2.5135    1.0000 </r>
       <r>    3.0303    1.0000 </r>
       <r>    3.1132    1.0000 </r>
       <r>    7.7470    0.0000 </r>
       <r>    8.4575    0.0000 </r>
       <r>    9.6415    0.0000 </r>
       <r>   10.4488    0.0000 </r>
       <r>   11.1929    0.0000 </r>
       <r>   11.5533    0.0000 </r>
       <r>   11.9158    0.0000 </r>
       <r>   12.1432    0.0000 </r>
       <r>   12.6786    0.0000 </r>
       <r>   12.9399    0.0000 </r>
       <r>   13.1789    0.0000 </r>
       <r>   13.3830    0.0000 </r>
       <r>   13.8128    0.0000 </r>
       <r>   14.4547    0.0000 </r>
       <r>   14.9842    0.0000 </r>
       <r>   15.4317    0.0000 </r>
       <r>   15.7512    0.0000 </r>
       <r>   15.9919    0.0000 </r>
       <r>   16.2655    0.0000 </r>
       <r>   16.5294    0.0000 </r>
      </set>
      <set comment="kpoint 6">
       <r>  -13.4270    1.0000 </r>
       <r>  -13.2187    1.0000 </r>
       <r>  -13.0734    1.0000 </r>
       <r>  -12.9885    1.0000 </r>
       <r>  -12.7049    1.0000 </r>
       <r>  -12.5835    1.0000 </r>
       <r>  -12.3227    1.0000 </r>
       <r>   -0.7672    1.0000 </r>
       <r>   -0.4711    1.0000 </r>
       <r>   -0.3452    1.0000 </r>
       <r>   -0.1240    1.0000 </r>
       <r>    0.1653    1.0000 </r>
       <r>    0.3880    1.0000 </r>
       <r>    0.4689    1.0000 </r>
       <r>    0.7056    1.0000 </r>
       <r>    0.8400    1.0000 </r>
       <r>    1.1588    1.0000 </r>
       <r>    1.1897    1.0000 </r>
       <r>    1.2760    1.0000 </r>
       <r>    1.3163    1.0000 </r>
       <r>    1.5315    1.0000 </r>
       <r>    1.5733    1.0000 </r>
       <r>    1.7743    1.0000 </r>
       <r>    2.1092    1.0000 </r>
       <r>    2.3025    1.0000 </r>
       <r>    2.8065    1.0000 </r>
       <r>    2.9349    1.0000 </r>
       <r>    3.0548    1.0000 </r>
       <r>    8.1281    0.0000 </r>
       <r>    8.9453    0.0000 </r>
       <r>    9.2633    0.0000 </r>
       <r>   10.5248    0.0000 </r>
       <r>   10.8418    0.0000 </r>
       <r>   11.3336    0.0000 </r>
       <r>   11.6356    0.0000 </r>
       <r>   12.1978    0.0000 </r>
       <r>   12.6873    0.0000 </r>
       <r>   13.2463    0.0000 </r>
       <r>   13.3571    0.0000 </r>
       <r>   13.6922    0.0000 </r>
       <r>   13.9287    0.0000 </r>
       <r>   14.3166    0.0000 </r>
       <r>   14.8876    0.0000 </r>
       <r>   15.1633    0.0000 </r>
       <r>   15.8670    0.0000 </r>
       <r>   15.9116    0.0000 </r>
       <r>   16.1605    0.0000 </r>
       <r>   16.4703    0.0000 </r>
      </set>
      <set comment="kpoint 7">
       <r>  -13.4272    1.0000 </r>
       <r>  -13.2166    1.0000 </r>
       <r>  -13.0740    1.0000 </r>
       <r>  -12.9914    1.0000 </r>
       <r>  -12.7060    1.0000 </r>
       <r>  -12.5783    1.0000 </r>
       <r>  -12.3251    1.0000 </r>
       <r>   -0.7697    1.0000 </r>
       <r>   -0.4674    1.0000 </r>
       <r>   -0.3470    1.0000 </r>
       <r>   -0.1247    1.0000 </r>
       <r>    0.1672    1.0000 </r>
       <r>    0.3918    1.0000 </r>
       <r>    0.4656    1.0000 </r>
       <r>    0.7058    1.0000 </r>
       <r>    0.8390    1.0000 </r>
       <r>    1.1606    1.0000 </r>
       <r>    1.1894    1.0000 </r>
       <r>    1.2736    1.0000 </r>
       <r>    1.3167    1.0000 </r>
       <r>    1.5302    1.0000 </r>
       <r>    1.5745    1.0000 </r>
       <r>    1.7764    1.0000 </r>
       <r>    2.1090    1.0000 </r>
       <r>    2.3008    1.0000 </r>
       <r>    2.8078    1.0000 </r>
       <r>    2.9339    1.0000 </r>
       <r>    3.0546    1.0000 </r>
       <r>    8.1284    0.0000 </r>
       <r>    8.9447    0.0000 </r>
       <r>    9.2624    0.0000 </r>
       <r>   10.5223    0.0000 </r>
       <r>   10.8389    0.0000 </r>
       <r>   11.3362    0.0000 </r>
       <r>   11.6414    0.0000 </r>
       <r>   12.1959    0.0000 </r>
       <r>   12.6857    0.0000 </r>
       <r>   13.2473    0.0000 </r>
       <r>   13.3546    0.0000 </r>
       <r>   13.7061    0.0000 </r>
       <r>   13.9264    0.0000 </r>
       <r>   14.3243    0.0000 </r>
       <r>   14.8869    0.0000 </r>
       <r>   15.1642    0.0000 </r>
       <r>   15.8671    0.0000 </r>
       <r>   15.9015    0.0000 </r>
       <r>   16.1532    0.0000 </r>
       <r>   16.4666    0.0000 </r>
      </set>
      <set comment="kpoint 8">
       <r>  -13.5289    1.0000 </r>
       <r>  -13.2990    1.0000 </r>
       <r>  -12.9785    1.0000 </r>
       <r>  -12.9601    1.0000 </r>
       <r>  -12.5812    1.0000 </r>
       <r>  -12.5104    1.0000 </r>
       <r>  -12.4383    1.0000 </r>
       <r>   -0.9239    1.0000 </r>
       <r>   -0.5524    1.0000 </r>
       <r>   -0.4373    1.0000 </r>
       <r>   -0.3245    1.0000 </r>
       <r>    0.0943    1.0000 </r>
       <r>    0.2745    1.0000 </r>
       <r>    0.4960    1.0000 </r>
       <r>    0.6741    1.0000 </r>
       <r>    0.9140    1.0000 </r>
       <r>    1.0850    1.0000 </r>
       <r>    1.2948    1.0000 </r>
       <r>    1.3682    1.0000 </r>
       <r>    1.5160    1.0000 </r>
       <r>    1.5546    1.0000 </r>
       <r>    1.7685    1.0000 </r>
       <r>    1.9206    1.0000 </r>
       <r>    2.2857    1.0000 </r>
       <r>    2.4930    1.0000 </r>
       <r>    2.5146    1.0000 </r>
       <r>    3.0301    1.0000 </r>
       <r>    3.1137    1.0000 </r>
       <r>    7.7465    0.0000 </r>
       <r>    8.4576    0.0000 </r>
       <r>    9.6389    0.0000 </r>
       <r>   10.4483    0.0000 </r>
       <r>   11.1946    0.0000 </r>
       <r>   11.5588    0.0000 </r>
       <r>   11.9190    0.0000 </r>
       <r>   12.1423    0.0000 </r>
       <r>   12.6846    0.0000 </r>
       <r>   12.9409    0.0000 </r>
       <r>   13.1655    0.0000 </r>
       <r>   13.3836    0.0000 </r>
       <r>   13.8120    0.0000 </r>
       <r>   14.4616    0.0000 </r>
       <r>   14.9818    0.0000 </r>
       <r>   15.4316    0.0000 </r>
       <r>   15.7550    0.0000 </r>
       <r>   15.9894    0.0000 </r>
       <r>   16.2626    0.0000 </r>
       <r>   16.5248    0.0000 </r>
      </set>
     </set>
     <set comment="spin 2">
      <set comment="kpoint 1">
       <r>  -13.8703    1.0000 </r>
       <r>  -12.9637    1.0000 </r>
       <r>  -12.9452    1.0000 </r>
       <r>  -12.9410    1.0000 </r>
       <r>  -12.6006    1.0000 </r>
       <r>  -12.4498    1.0000 </r>
       <r>  -12.4457    1.0000 </r>
       <r>   -0.9414    1.0000 </r>
       <r>   -0.9000    1.0000 </r>
       <r>   -0.8330    1.0000 </r>
       <r>   -0.8317    1.0000 </r>
       <r>   -0.3249    1.0000 </r>
       <r>   -0.0357    1.0000 </r>
       <r>   -0.0346    1.0000 </r>
       <r>    0.5774    1.0000 </r>
       <r>    1.4746    1.0000 </r>
       <r>    1.4781    1.0000 </r>
       <r>    1.7214    1.0000 </r>
       <r>    1.7622    1.0000 </r>
       <r>    1.7649    1.0000 </r>
       <r>    2.0598    1.0000 </r>
       <r>    2.0631    1.0000 </r>
       <r>    2.2492    1.0000 </r>
       <r>    2.4914    1.0000 </r>
       <r>    2.4957    1.0000 </r>
       <r>    3.0763    1.0000 </r>
       <r>    3.0776    1.0000 </r>
       <r>    3.1608    1.0000 </r>
       <r>    5.5589    0.0000 </r>
       <r>    9.6933    0.0000 </r>
       <r>   10.3565    0.0000 </r>
       <r>   10.5725    0.0000 </r>
       <r>   10.5791    0.0000 </r>
       <r>   11.9137    0.0000 </r>
       <r>   11.9327    0.0000 </r>
       <r>   11.9374    0.0000 </r>
       <r>   12.3877    0.0000 </r>
       <r>   12.7348    0.0000 </r>
       <r>   12.8307    0.0000 </r>
       <r>   12.8371    0.0000 </r>
       <r>   13.8002    0.0000 </r>
       <r>   14.3132    0.0000 </r>
       <r>   14.5083    0.0000 </r>
       <r>   14.5174    0.0000 </r>
       <r>   15.9022    0.0000 </r>
       <r>   15.9075    0.0000 </r>
       <r>   16.4470    0.0000 </r>
       <r>   16.4554    0.0000 </r>
      </set>
      <set comment="kpoint 2">
       <r>  -13.5303    1.0000 </r>
       <r>  -13.2964    1.0000 </r>
       <r>  -12.9777    1.0000 </r>
       <r>  -12.9622    1.0000 </r>
       <r>  -12.5816    1.0000 </r>
       <r>  -12.5084    1.0000 </r>
       <r>  -12.4396    1.0000 </r>
       <r>   -0.9243    1.0000 </r>
       <r>   -0.5536    1.0000 </r>
       <r>   -0.4377    1.0000 </r>
       <r>   -0.3246    1.0000 </r>
       <r>    0.0946    1.0000 </r>
       <r>    0.2736    1.0000 </r>
       <r>    0.4973    1.0000 </r>
       <r>    0.6755    1.0000 </r>
       <r>    0.9175    1.0000 </r>
       <r>    1.0859    1.0000 </r>
       <r>    1.2916    1.0000 </r>
       <r>    1.3670    1.0000 </r>
       <r>    1.5142    1.0000 </r>
       <r>    1.5553    1.0000 </r>
       <r>    1.7701    1.0000 </r>
       <r>    1.9212    1.0000 </r>
       <r>    2.2837    1.0000 </r>
       <r>    2.4941    1.0000 </r>
       <r>    2.5148    1.0000 </r>
       <r>    3.0310    1.0000 </r>
       <r>    3.1137    1.0000 </r>
       <r>    7.7484    0.0000 </r>
       <r>    8.4551    0.0000 </r>
       <r>    9.6388    0.0000 </r>
       <r>   10.4549    0.0000 </r>
       <r>   11.1932    0.0000 </r>
       <r>   11.5535    0.0000 </r>
       <r>   11.9188    0.0000 </r>
       <r>   12.1419    0.0000 </r>
       <r>   12.6796    0.0000 </r>
       <r>   12.9390    0.0000 </r>
       <r>   13.1717    0.0000 </r>
       <r>   13.3793    0.0000 </r>
       <r>   13.8037    0.0000 </r>
       <r>   14.4543    0.0000 </r>
       <r>   14.9865    0.0000 </r>
       <r>   15.4363    0.0000 </r>
       <r>   15.7591    0.0000 </r>
       <r>   15.9868    0.0000 </r>
       <r>   16.2678    0.0000 </r>
       <r>   16.5259    0.0000 </r>
      </set>
      <set comment="kpoint 3">
       <r>  -13.5744    1.0000 </r>
       <r>  -13.1709    1.0000 </r>
       <r>  -12.9896    1.0000 </r>
       <r>  -12.9851    1.0000 </r>
       <r>  -12.7592    1.0000 </r>
       <r>  -12.4080    1.0000 </r>
       <r>  -12.4040    1.0000 </r>
       <r>   -0.9281    1.0000 </r>
       <r>   -0.6419    1.0000 </r>
       <r>   -0.6404    1.0000 </r>
       <r>   -0.1858    1.0000 </r>
       <r>    0.2097    1.0000 </r>
       <r>    0.3036    1.0000 </r>
       <r>    0.3060    1.0000 </r>
       <r>    0.6368    1.0000 </r>
       <r>    0.8250    1.0000 </r>
       <r>    1.0028    1.0000 </r>
       <r>    1.0071    1.0000 </r>
       <r>    1.5750    1.0000 </r>
       <r>    1.6048    1.0000 </r>
       <r>    1.6061    1.0000 </r>
       <r>    2.0516    1.0000 </r>
       <r>    2.0540    1.0000 </r>
       <r>    2.4573    1.0000 </r>
       <r>    2.4617    1.0000 </r>
       <r>    2.6410    1.0000 </r>
       <r>    2.9957    1.0000 </r>
       <r>    2.9973    1.0000 </r>
       <r>    7.2162    0.0000 </r>
       <r>    9.3408    0.0000 </r>
       <r>   10.4190    0.0000 </r>
       <r>   10.6024    0.0000 </r>
       <r>   10.6091    0.0000 </r>
       <r>   10.9441    0.0000 </r>
       <r>   11.5382    0.0000 </r>
       <r>   12.0321    0.0000 </r>
       <r>   12.0367    0.0000 </r>
       <r>   12.9680    0.0000 </r>
       <r>   12.9709    0.0000 </r>
       <r>   13.9106    0.0000 </r>
       <r>   14.3240    0.0000 </r>
       <r>   14.8738    0.0000 </r>
       <r>   14.9060    0.0000 </r>
       <r>   14.9136    0.0000 </r>
       <r>   15.3991    0.0000 </r>
       <r>   15.4063    0.0000 </r>
       <r>   16.6773    0.0000 </r>
       <r>   16.7856    0.0000 </r>
      </set>
      <set comment="kpoint 4">
       <r>  -13.4277    1.0000 </r>
       <r>  -13.2175    1.0000 </r>
       <r>  -13.0724    1.0000 </r>
       <r>  -12.9897    1.0000 </r>
       <r>  -12.7066    1.0000 </r>
       <r>  -12.5814    1.0000 </r>
       <r>  -12.3235    1.0000 </r>
       <r>   -0.7669    1.0000 </r>
       <r>   -0.4689    1.0000 </r>
       <r>   -0.3450    1.0000 </r>
       <r>   -0.1264    1.0000 </r>
       <r>    0.1674    1.0000 </r>
       <r>    0.3887    1.0000 </r>
       <r>    0.4661    1.0000 </r>
       <r>    0.7041    1.0000 </r>
       <r>    0.8419    1.0000 </r>
       <r>    1.1571    1.0000 </r>
       <r>    1.1897    1.0000 </r>
       <r>    1.2736    1.0000 </r>
       <r>    1.3189    1.0000 </r>
       <r>    1.5340    1.0000 </r>
       <r>    1.5743    1.0000 </r>
       <r>    1.7760    1.0000 </r>
       <r>    2.1092    1.0000 </r>
       <r>    2.2968    1.0000 </r>
       <r>    2.8073    1.0000 </r>
       <r>    2.9365    1.0000 </r>
       <r>    3.0532    1.0000 </r>
       <r>    8.1282    0.0000 </r>
       <r>    8.9443    0.0000 </r>
       <r>    9.2616    0.0000 </r>
       <r>   10.5262    0.0000 </r>
       <r>   10.8417    0.0000 </r>
       <r>   11.3348    0.0000 </r>
       <r>   11.6404    0.0000 </r>
       <r>   12.2005    0.0000 </r>
       <r>   12.6851    0.0000 </r>
       <r>   13.2468    0.0000 </r>
       <r>   13.3584    0.0000 </r>
       <r>   13.6972    0.0000 </r>
       <r>   13.9259    0.0000 </r>
       <r>   14.3232    0.0000 </r>
       <r>   14.8831    0.0000 </r>
       <r>   15.1612    0.0000 </r>
       <r>   15.8751    0.0000 </r>
       <r>   15.9053    0.0000 </r>
       <r>   16.1494    0.0000 </r>
       <r>   16.4717    0.0000 </r>
      </set>
      <set comment="kpoint 5">
       <r>  -13.5289    1.0000 </r>
       <r>  -13.2990    1.0000 </r>
       <r>  -12.9762    1.0000 </r>
       <r>  -12.9627    1.0000 </r>
       <r>  -12.5832    1.0000 </r>
       <r>  -12.5045    1.0000 </r>
       <r>  -12.4417    1.0000 </r>
       <r>   -0.9244    1.0000 </r>
       <r>   -0.5506    1.0000 </r>
       <r>   -0.4380    1.0000 </r>
       <r>   -0.3272    1.0000 </r>
       <r>    0.0975    1.0000 </r>
       <r>    0.2718    1.0000 </r>
       <r>    0.4940    1.0000 </r>
       <r>    0.6755    1.0000 </r>
       <r>    0.9173    1.0000 </r>
       <r>    1.0860    1.0000 </r>
       <r>    1.2958    1.0000 </r>
       <r>    1.3693    1.0000 </r>
       <r>    1.5133    1.0000 </r>
       <r>    1.5570    1.0000 </r>
       <r>    1.7676    1.0000 </r>
       <r>    1.9179    1.0000 </r>
       <r>    2.2850    1.0000 </r>
       <r>    2.4951    1.0000 </r>
       <r>    2.5136    1.0000 </r>
       <r>    3.0304    1.0000 </r>
       <r>    3.1132    1.0000 </r>
       <r>    7.7471    0.0000 </r>
       <r>    8.4574    0.0000 </r>
       <r>    9.6415    0.0000 </r>
       <r>   10.4488    0.0000 </r>
       <r>   11.1929    0.0000 </r>
       <r>   11.5532    0.0000 </r>
       <r>   11.9157    0.0000 </r>
       <r>   12.1432    0.0000 </r>
       <r>   12.6785    0.0000 </r>
       <r>   12.9399    0.0000 </r>
       <r>   13.1789    0.0000 </r>
       <r>   13.3830    0.0000 </r>
       <r>   13.8127    0.0000 </r>
       <r>   14.4546    0.0000 </r>
       <r>   14.9841    0.0000 </r>
       <r>   15.4316    0.0000 </r>
       <r>   15.7512    0.0000 </r>
       <r>   15.9918    0.0000 </r>
       <r>   16.2654    0.0000 </r>
       <r>   16.5293    0.0000 </r>
      </set>
      <set comment="kpoint 6">
       <r>  -13.4270    1.0000 </r>
       <r>  -13.2187    1.0000 </r>
       <r>  -13.0733    1.0000 </r>
       <r>  -12.9884    1.0000 </r>
       <r>  -12.7049    1.0000 </r>
       <r>  -12.5835    1.0000 </r>
       <r>  -12.3227    1.0000 </r>
       <r>   -0.7672    1.0000 </r>
       <r>   -0.4711    1.0000 </r>
       <r>   -0.3452    1.0000 </r>
       <r>   -0.1240    1.0000 </r>
       <r>    0.1653    1.0000 </r>
       <r>    0.3880    1.0000 </r>
       <r>    0.4689    1.0000 </r>
       <r>    0.7056    1.0000 </r>
       <r>    0.8400    1.0000 </r>
       <r>    1.1588    1.0000 </r>
       <r>    1.1898    1.0000 </r>
       <r>    1.2760    1.0000 </r>
       <r>    1.3163    1.0000 </r>
       <r>    1.5315    1.0000 </r>
       <r>    1.5733    1.0000 </r>
       <r>    1.7743    1.0000 </r>
       <r>    2.1093    1.0000 </r>
       <r>    2.3026    1.0000 </r>
       <r>    2.8066    1.0000 </r>
       <r>    2.9350    1.0000 </r>
       <r>    3.0549    1.0000 </r>
       <r>    8.1282    0.0000 </r>
       <r>    8.9452    0.0000 </r>
       <r>    9.2633    0.0000 </r>
       <r>   10.5248    0.0000 </r>
       <r>   10.8417    0.0000 </r>
       <r>   11.3336    0.0000 </r>
       <r>   11.6355    0.0000 </r>
       <r>   12.1978    0.0000 </r>
       <r>   12.6873    0.0000 </r>
       <r>   13.2463    0.0000 </r>
       <r>   13.3570    0.0000 </r>
       <r>   13.6921    0.0000 </r>
       <r>   13.9286    0.0000 </r>
       <r>   14.3165    0.0000 </r>
       <r>   14.8875    0.0000 </r>
       <r>   15.1633    0.0000 </r>
       <r>   15.8669    0.0000 </r>
       <r>   15.9115    0.0000 </r>
       <r>   16.1603    0.0000 </r>
       <r>   16.4702    0.0000 </r>
      </set>
      <set comment="kpoint 7">
       <r>  -13.4272    1.0000 </r>
       <r>  -13.2166    1.0000 </r>
       <r>  -13.0740    1.0000 </r>
       <r>  -12.9914    1.0000 </r>
       <r>  -12.7060    1.0000 </r>
       <r>  -12.5783    1.0000 </r>
       <r>  -12.3251    1.0000 </r>
       <r>   -0.7697    1.0000 </r>
       <r>   -0.4674    1.0000 </r>
       <r>   -0.3470    1.0000 </r>
       <r>   -0.1247    1.0000 </r>
       <r>    0.1672    1.0000 </r>
       <r>    0.3918    1.0000 </r>
       <r>    0.4657    1.0000 </r>
       <r>    0.7058    1.0000 </r>
       <r>    0.8390    1.0000 </r>
       <r>    1.1606    1.0000 </r>
       <r>    1.1894    1.0000 </r>
       <r>    1.2737    1.0000 </r>
       <r>    1.3167    1.0000 </r>
       <r>    1.5302    1.0000 </r>
       <r>    1.5745    1.0000 </r>
       <r>    1.7765    1.0000 </r>
       <r>    2.1090    1.0000 </r>
       <r>    2.3008    1.0000 </r>
       <r>    2.8078    1.0000 </r>
       <r>    2.9340    1.0000 </r>
       <r>    3.0547    1.0000 </r>
       <r>    8.1284    0.0000 </r>
       <r>    8.9447    0.0000 </r>
       <r>    9.2624    0.0000 </r>
       <r>   10.5223    0.0000 </r>
       <r>   10.8389    0.0000 </r>
       <r>   11.3362    0.0000 </r>
       <r>   11.6413    0.0000 </r>
       <r>   12.1959    0.0000 </r>
       <r>   12.6856    0.0000 </r>
       <r>   13.2473    0.0000 </r>
       <r>   13.3545    0.0000 </r>
       <r>   13.7060    0.0000 </r>
       <r>   13.9264    0.0000 </r>
       <r>   14.3243    0.0000 </r>
       <r>   14.8868    0.0000 </r>
       <r>   15.1641    0.0000 </r>
       <r>   15.8670    0.0000 </r>
       <r>   15.9014    0.0000 </r>
       <r>   16.1531    0.0000 </r>
       <r>   16.4665    0.0000 </r>
      </set>
      <set comment="kpoint 8">
       <r>  -13.5288    1.0000 </r>
       <r>  -13.2990    1.0000 </r>
       <r>  -12.9785    1.0000 </r>
       <r>  -12.9601    1.0000 </r>
       <r>  -12.5812    1.0000 </r>
       <r>  -12.5104    1.0000 </r>
       <r>  -12.4383    1.0000 </r>
       <r>   -0.9240    1.0000 </r>
       <r>   -0.5524    1.0000 </r>
       <r>   -0.4373    1.0000 </r>
       <r>   -0.3245    1.0000 </r>
       <r>    0.0943    1.0000 </r>
       <r>    0.2745    1.0000 </r>
       <r>    0.4960    1.0000 </r>
       <r>    0.6742    1.0000 </r>
       <r>    0.9140    1.0000 </r>
       <r>    1.0850    1.0000 </r>
       <r>    1.2949    1.0000 </r>
       <r>    1.3683    1.0000 </r>
       <r>    1.5160    1.0000 </r>
       <r>    1.5546    1.0000 </r>
       <r>    1.7685    1.0000 </r>
       <r>    1.9206    1.0000 </r>
       <r>    2.2858    1.0000 </r>
       <r>    2.4931    1.0000 </r>
       <r>    2.5147    1.0000 </r>
       <r>    3.0301    1.0000 </r>
       <r>    3.1137    1.0000 </r>
       <r>    7.7466    0.0000 </r>
       <r>    8.4576    0.0000 </r>
       <r>    9.6389    0.0000 </r>
       <r>   10.4483    0.0000 </r>
       <r>   11.1946    0.0000 </r>
       <r>   11.5588    0.0000 </r>
       <r>   11.9189    0.0000 </r>
       <r>   12.1422    0.0000 </r>
       <r>   12.6846    0.0000 </r>
       <r>   12.9409    0.0000 </r>
       <r>   13.1654    0.0000 </r>
       <r>   13.3835    0.0000 </r>
       <r>   13.8119    0.0000 </r>
       <r>   14.4615    0.0000 </r>
       <r>   14.9817    0.0000 </r>
       <r>   15.4315    0.0000 </r>
       <r>   15.7549    0.0000 </r>
       <r>   15.9893    0.0000 </r>
       <r>   16.2625    0.0000 </r>
       <r>   16.5247    0.0000 </r>
      </set>
     </set>
    </set>
   </array>
  </eigenvalues>
  <separator name="orbital magnetization" >
   <v name="MAGDIPOLOUT">      0.00000000      0.00000000      0.00000000</v>
  </separator>
  <dos>
   <i name="efermi">      3.38257108 </i>
   <total>
    <array>
     <dimension dim="1">gridpoints</dimension>
     <dimension dim="2">spin</dimension>
     <field>energy</field>
     <field>total</field>
     <field>integrated</field>
     <set>
      <set comment="spin 1">
       <r>   -15.4032     0.0000     0.0000 </r>
       <r>   -15.2908     0.0000     0.0000 </r>
       <r>   -15.1783     0.0000     0.0000 </r>
       <r>   -15.0659     0.0000     0.0000 </r>
       <r>   -14.9535     0.0000     0.0000 </r>
       <r>   -14.8411     0.0000     0.0000 </r>
       <r>   -14.7287     0.0000     0.0000 </r>
       <r>   -14.6163     0.0000     0.0000 </r>
       <r>   -14.5039     0.0000     0.0000 </r>
       <r>   -14.3915     0.0000     0.0000 </r>
       <r>   -14.2791     0.0000     0.0000 </r>
       <r>   -14.1667     0.0000     0.0000 </r>
       <r>   -14.0543     0.0000     0.0000 </r>
       <r>   -13.9419     0.0239     0.0027 </r>
       <r>   -13.8295     0.9504     0.1095 </r>
       <r>   -13.7171     0.1377     0.1250 </r>
       <r>   -13.6047     0.2734     0.1557 </r>
       <r>   -13.4923     3.7836     0.5810 </r>
       <r>   -13.3799     3.4628     0.9703 </r>
       <r>   -13.2675     3.2260     1.3329 </r>
       <r>   -13.1551     4.3655     1.8236 </r>
       <r>   -13.0426     3.6724     2.2364 </r>
       <r>   -12.9302    13.5047     3.7544 </r>
       <r>   -12.8178     2.2412     4.0063 </r>
       <r>   -12.7054     2.6708     4.3065 </r>
       <r>   -12.5930     4.8839     4.8555 </r>
       <r>   -12.4806     8.0513     5.7605 </r>
       <r>   -12.3682     7.6226     6.6173 </r>
       <r>   -12.2558     3.3134     6.9898 </r>
       <r>   -12.1434     0.0911     7.0000 </r>
       <r>   -12.0310     0.0000     7.0000 </r>
       <r>   -11.9186     0.0000     7.0000 </r>
       <r>   -11.8062     0.0000     7.0000 </r>
       <r>   -11.6938     0.0000     7.0000 </r>
       <r>   -11.5814     0.0000     7.0000 </r>
       <r>   -11.4690     0.0000     7.0000 </r>
       <r>   -11.3566     0.0000     7.0000 </r>
       <r>   -11.2442     0.0000     7.0000 </r>
       <r>   -11.1318     0.0000     7.0000 </r>
       <r>   -11.0194     0.0000     7.0000 </r>
       <r>   -10.9069     0.0000     7.0000 </r>
       <r>   -10.7945     0.0000     7.0000 </r>
       <r>   -10.6821     0.0000     7.0000 </r>
       <r>   -10.5697     0.0000     7.0000 </r>
       <r>   -10.4573     0.0000     7.0000 </r>
       <r>   -10.3449     0.0000     7.0000 </r>
       <r>   -10.2325     0.0000     7.0000 </r>
       <r>   -10.1201     0.0000     7.0000 </r>
       <r>   -10.0077     0.0000     7.0000 </r>
       <r>    -9.8953     0.0000     7.0000 </r>
       <r>    -9.7829     0.0000     7.0000 </r>
       <r>    -9.6705     0.0000     7.0000 </r>
       <r>    -9.5581     0.0000     7.0000 </r>
       <r>    -9.4457     0.0000     7.0000 </r>
       <r>    -9.3333     0.0000     7.0000 </r>
       <r>    -9.2209     0.0000     7.0000 </r>
       <r>    -9.1085     0.0000     7.0000 </r>
       <r>    -8.9961     0.0000     7.0000 </r>
       <r>    -8.8837     0.0000     7.0000 </r>
       <r>    -8.7712     0.0000     7.0000 </r>
       <r>    -8.6588     0.0000     7.0000 </r>
       <r>    -8.5464     0.0000     7.0000 </r>
       <r>    -8.4340     0.0000     7.0000 </r>
       <r>    -8.3216     0.0000     7.0000 </r>
       <r>    -8.2092     0.0000     7.0000 </r>
       <r>    -8.0968     0.0000     7.0000 </r>
       <r>    -7.9844     0.0000     7.0000 </r>
       <r>    -7.8720     0.0000     7.0000 </r>
       <r>    -7.7596     0.0000     7.0000 </r>
       <r>    -7.6472     0.0000     7.0000 </r>
       <r>    -7.5348     0.0000     7.0000 </r>
       <r>    -7.4224     0.0000     7.0000 </r>
       <r>    -7.3100     0.0000     7.0000 </r>
       <r>    -7.1976     0.0000     7.0000 </r>
       <r>    -7.0852     0.0000     7.0000 </r>
       <r>    -6.9728     0.0000     7.0000 </r>
       <r>    -6.8604     0.0000     7.0000 </r>
       <r>    -6.7480     0.0000     7.0000 </r>
       <r>    -6.6355     0.0000     7.0000 </r>
       <r>    -6.5231     0.0000     7.0000 </r>
       <r>    -6.4107     0.0000     7.0000 </r>
       <r>    -6.2983     0.0000     7.0000 </r>
       <r>    -6.1859     0.0000     7.0000 </r>
       <r>    -6.0735     0.0000     7.0000 </r>
       <r>    -5.9611     0.0000     7.0000 </r>
       <r>    -5.8487     0.0000     7.0000 </r>
       <r>    -5.7363     0.0000     7.0000 </r>
       <r>    -5.6239     0.0000     7.0000 </r>
       <r>    -5.5115     0.0000     7.0000 </r>
       <r>    -5.3991     0.0000     7.0000 </r>
       <r>    -5.2867     0.0000     7.0000 </r>
       <r>    -5.1743     0.0000     7.0000 </r>
       <r>    -5.0619     0.0000     7.0000 </r>
       <r>    -4.9495     0.0000     7.0000 </r>
       <r>    -4.8371     0.0000     7.0000 </r>
       <r>    -4.7247     0.0000     7.0000 </r>
       <r>    -4.6123     0.0000     7.0000 </r>
       <r>    -4.4998     0.0000     7.0000 </r>
       <r>    -4.3874     0.0000     7.0000 </r>
       <r>    -4.2750     0.0000     7.0000 </r>
       <r>    -4.1626     0.0000     7.0000 </r>
       <r>    -4.0502     0.0000     7.0000 </r>
       <r>    -3.9378     0.0000     7.0000 </r>
       <r>    -3.8254     0.0000     7.0000 </r>
       <r>    -3.7130     0.0000     7.0000 </r>
       <r>    -3.6006     0.0000     7.0000 </r>
       <r>    -3.4882     0.0000     7.0000 </r>
       <r>    -3.3758     0.0000     7.0000 </r>
       <r>    -3.2634     0.0000     7.0000 </r>
       <r>    -3.1510     0.0000     7.0000 </r>
       <r>    -3.0386     0.0000     7.0000 </r>
       <r>    -2.9262     0.0000     7.0000 </r>
       <r>    -2.8138     0.0000     7.0000 </r>
       <r>    -2.7014     0.0000     7.0000 </r>
       <r>    -2.5890     0.0000     7.0000 </r>
       <r>    -2.4766     0.0000     7.0000 </r>
       <r>    -2.3641     0.0000     7.0000 </r>
       <r>    -2.2517     0.0000     7.0000 </r>
       <r>    -2.1393     0.0000     7.0000 </r>
       <r>    -2.0269     0.0000     7.0000 </r>
       <r>    -1.9145     0.0000     7.0000 </r>
       <r>    -1.8021     0.0000     7.0000 </r>
       <r>    -1.6897     0.0000     7.0000 </r>
       <r>    -1.5773     0.0000     7.0000 </r>
       <r>    -1.4649     0.0000     7.0000 </r>
       <r>    -1.3525     0.0000     7.0000 </r>
       <r>    -1.2401     0.0000     7.0000 </r>
       <r>    -1.1277     0.0000     7.0000 </r>
       <r>    -1.0153     0.0453     7.0051 </r>
       <r>    -0.9029     4.7572     7.5398 </r>
       <r>    -0.7905     4.7039     8.0686 </r>
       <r>    -0.6781     3.0375     8.4100 </r>
       <r>    -0.5657     3.0599     8.7539 </r>
       <r>    -0.4533     5.5289     9.3754 </r>
       <r>    -0.3409     6.6402    10.1218 </r>
       <r>    -0.2284     4.5937    10.6382 </r>
       <r>    -0.1160     2.9952    10.9748 </r>
       <r>    -0.0036     3.1532    11.3293 </r>
       <r>     0.1088     2.7359    11.6368 </r>
       <r>     0.2212     5.0891    12.2088 </r>
       <r>     0.3336     5.5068    12.8278 </r>
       <r>     0.4460     4.7627    13.3632 </r>
       <r>     0.5584     5.8661    14.0226 </r>
       <r>     0.6708     3.8932    14.4602 </r>
       <r>     0.7832     5.0637    15.0294 </r>
       <r>     0.8956     4.9002    15.5802 </r>
       <r>     1.0080     3.8434    16.0122 </r>
       <r>     1.1204     4.3428    16.5003 </r>
       <r>     1.2328     6.8067    17.2654 </r>
       <r>     1.3452     9.6939    18.3551 </r>
       <r>     1.4576     4.4101    18.8508 </r>
       <r>     1.5700    11.8895    20.1873 </r>
       <r>     1.6824     6.2941    20.8947 </r>
       <r>     1.7948     7.6503    21.7547 </r>
       <r>     1.9073     3.3859    22.1353 </r>
       <r>     2.0197     2.7971    22.4497 </r>
       <r>     2.1321     6.1801    23.1444 </r>
       <r>     2.2445     2.0570    23.3756 </r>
       <r>     2.3569     6.4202    24.0972 </r>
       <r>     2.4693     3.2963    24.4677 </r>
       <r>     2.5817     7.9920    25.3661 </r>
       <r>     2.6941     1.1199    25.4920 </r>
       <r>     2.8065     1.7132    25.6845 </r>
       <r>     2.9189     2.8053    25.9999 </r>
       <r>     3.0313     6.8941    26.7748 </r>
       <r>     3.1437     9.3959    27.8310 </r>
       <r>     3.2561     1.4998    27.9996 </r>
       <r>     3.3685     0.0040    28.0000 </r>
       <r>     3.4809     0.0000    28.0000 </r>
       <r>     3.5933     0.0000    28.0000 </r>
       <r>     3.7057     0.0000    28.0000 </r>
       <r>     3.8181     0.0000    28.0000 </r>
       <r>     3.9305     0.0000    28.0000 </r>
       <r>     4.0430     0.0000    28.0000 </r>
       <r>     4.1554     0.0000    28.0000 </r>
       <r>     4.2678     0.0000    28.0000 </r>
       <r>     4.3802     0.0000    28.0000 </r>
       <r>     4.4926     0.0000    28.0000 </r>
       <r>     4.6050     0.0000    28.0000 </r>
       <r>     4.7174     0.0000    28.0000 </r>
       <r>     4.8298     0.0000    28.0000 </r>
       <r>     4.9422     0.0000    28.0000 </r>
       <r>     5.0546     0.0000    28.0000 </r>
       <r>     5.1670     0.0000    28.0000 </r>
       <r>     5.2794     0.0000    28.0000 </r>
       <r>     5.3918     0.0000    28.0000 </r>
       <r>     5.5042     0.0677    28.0076 </r>
       <r>     5.6166     0.9872    28.1186 </r>
       <r>     5.7290     0.0571    28.1250 </r>
       <r>     5.8414     0.0000    28.1250 </r>
       <r>     5.9538     0.0000    28.1250 </r>
       <r>     6.0662     0.0000    28.1250 </r>
       <r>     6.1787     0.0000    28.1250 </r>
       <r>     6.2911     0.0000    28.1250 </r>
       <r>     6.4035     0.0000    28.1250 </r>
       <r>     6.5159     0.0000    28.1250 </r>
       <r>     6.6283     0.0000    28.1250 </r>
       <r>     6.7407     0.0000    28.1250 </r>
       <r>     6.8531     0.0000    28.1250 </r>
       <r>     6.9655     0.0000    28.1250 </r>
       <r>     7.0779     0.0001    28.1250 </r>
       <r>     7.1903     0.2583    28.1540 </r>
       <r>     7.3027     0.8457    28.2491 </r>
       <r>     7.4151     0.0080    28.2500 </r>
       <r>     7.5275     0.0000    28.2500 </r>
       <r>     7.6399     0.0040    28.2504 </r>
       <r>     7.7523     1.8529    28.4587 </r>
       <r>     7.8647     1.4778    28.6248 </r>
       <r>     7.9771     0.0015    28.6250 </r>
       <r>     8.0895     0.4577    28.6764 </r>
       <r>     8.2019     2.8168    28.9931 </r>
       <r>     8.3144     0.0617    29.0000 </r>
       <r>     8.4268     0.6615    29.0744 </r>
       <r>     8.5392     2.6415    29.3713 </r>
       <r>     8.6516     0.0330    29.3750 </r>
       <r>     8.7640     0.0000    29.3750 </r>
       <r>     8.8764     0.0885    29.3850 </r>
       <r>     8.9888     2.8920    29.7100 </r>
       <r>     9.1012     0.3557    29.7500 </r>
       <r>     9.2136     0.2793    29.7814 </r>
       <r>     9.3260     3.3117    30.1536 </r>
       <r>     9.4384     0.8540    30.2496 </r>
       <r>     9.5508     0.0231    30.2522 </r>
       <r>     9.6632     2.6900    30.5546 </r>
       <r>     9.7756     1.7270    30.7487 </r>
       <r>     9.8880     0.0112    30.7500 </r>
       <r>    10.0004     0.0000    30.7500 </r>
       <r>    10.1128     0.0000    30.7500 </r>
       <r>    10.2252     0.0001    30.7500 </r>
       <r>    10.3376     0.3435    30.7886 </r>
       <r>    10.4501     3.3694    31.1674 </r>
       <r>    10.5625     5.7429    31.8129 </r>
       <r>    10.6749     3.8252    32.2429 </r>
       <r>    10.7873     0.2808    32.2744 </r>
       <r>    10.8997     3.0746    32.6200 </r>
       <r>    11.0121     1.1259    32.7466 </r>
       <r>    11.1245     0.1149    32.7595 </r>
       <r>    11.2369     2.8928    33.0847 </r>
       <r>    11.3493     2.5548    33.3718 </r>
       <r>    11.4617     1.1704    33.5034 </r>
       <r>    11.5741     3.3657    33.8817 </r>
       <r>    11.6865     4.0854    34.3409 </r>
       <r>    11.7989     0.3051    34.3752 </r>
       <r>    11.9113     2.5057    34.6569 </r>
       <r>    12.0237     4.9927    35.2181 </r>
       <r>    12.1361     2.9554    35.5503 </r>
       <r>    12.2485     4.8513    36.0956 </r>
       <r>    12.3609     0.5101    36.1529 </r>
       <r>    12.4733     0.8548    36.2490 </r>
       <r>    12.5858     0.0284    36.2522 </r>
       <r>    12.6982     4.5515    36.7638 </r>
       <r>    12.8106     3.7616    37.1867 </r>
       <r>    12.9230     2.9236    37.5153 </r>
       <r>    13.0354     4.2311    37.9909 </r>
       <r>    13.1478     0.9199    38.0943 </r>
       <r>    13.2602     4.6445    38.6164 </r>
       <r>    13.3726     4.7528    39.1506 </r>
       <r>    13.4850     3.1019    39.4993 </r>
       <r>    13.5974     0.0144    39.5009 </r>
       <r>    13.7098     2.0871    39.7355 </r>
       <r>    13.8222     4.2005    40.2076 </r>
       <r>    13.9346     4.2746    40.6881 </r>
       <r>    14.0470     1.6613    40.8749 </r>
       <r>    14.1594     0.0012    40.8750 </r>
       <r>    14.2718     0.4834    40.9293 </r>
       <r>    14.3842     4.9428    41.4849 </r>
       <r>    14.4966     3.7529    41.9068 </r>
       <r>    14.6090     1.9336    42.1241 </r>
       <r>    14.7215     0.0078    42.1250 </r>
       <r>    14.8339     0.4158    42.1717 </r>
       <r>    14.9463     6.2207    42.8710 </r>
       <r>    15.0587     3.3182    43.2440 </r>
       <r>    15.1711     2.0256    43.4717 </r>
       <r>    15.2835     1.3640    43.6250 </r>
       <r>    15.3959     1.4270    43.7854 </r>
       <r>    15.5083     4.0731    44.2432 </r>
       <r>    15.6207     0.0606    44.2500 </r>
       <r>    15.7331     0.8918    44.3503 </r>
       <r>    15.8455     3.5033    44.7441 </r>
       <r>    15.9579     8.0445    45.6483 </r>
       <r>    16.0703     3.1221    45.9992 </r>
       <r>    16.1827     2.6630    46.2986 </r>
       <r>    16.2951     3.3475    46.6748 </r>
       <r>    16.4075     1.0461    46.7924 </r>
       <r>    16.5199     6.2789    47.4982 </r>
       <r>    16.6323     2.3476    47.7621 </r>
       <r>    16.7447     1.1270    47.8888 </r>
       <r>    16.8572     0.9692    47.9977 </r>
       <r>    16.9696     0.0202    48.0000 </r>
       <r>    17.0820     0.0000    48.0000 </r>
       <r>    17.1944     0.0000    48.0000 </r>
       <r>    17.3068     0.0000    48.0000 </r>
       <r>    17.4192     0.0000    48.0000 </r>
       <r>    17.5316     0.0000    48.0000 </r>
       <r>    17.6440     0.0000    48.0000 </r>
       <r>    17.7564     0.0000    48.0000 </r>
       <r>    17.8688     0.0000    48.0000 </r>
       <r>    17.9812     0.0000    48.0000 </r>
       <r>    18.0936     0.0000    48.0000 </r>
       <r>    18.2060     0.0000    48.0000 </r>
       <r>    18.3184     0.0000    48.0000 </r>
      </set>
      <set comment="spin 2">
       <r>   -15.4032     0.0000     0.0000 </r>
       <r>   -15.2908     0.0000     0.0000 </r>
       <r>   -15.1783     0.0000     0.0000 </r>
       <r>   -15.0659     0.0000     0.0000 </r>
       <r>   -14.9535     0.0000     0.0000 </r>
       <r>   -14.8411     0.0000     0.0000 </r>
       <r>   -14.7287     0.0000     0.0000 </r>
       <r>   -14.6163     0.0000     0.0000 </r>
       <r>   -14.5039     0.0000     0.0000 </r>
       <r>   -14.3915     0.0000     0.0000 </r>
       <r>   -14.2791     0.0000     0.0000 </r>
       <r>   -14.1667     0.0000     0.0000 </r>
       <r>   -14.0543     0.0000     0.0000 </r>
       <r>   -13.9419     0.0239     0.0027 </r>
       <r>   -13.8295     0.9504     0.1095 </r>
       <r>   -13.7171     0.1378     0.1250 </r>
       <r>   -13.6047     0.2732     0.1557 </r>
       <r>   -13.4923     3.7832     0.5810 </r>
       <r>   -13.3799     3.4630     0.9702 </r>
       <r>   -13.2675     3.2260     1.3328 </r>
       <r>   -13.1551     4.3655     1.8236 </r>
       <r>   -13.0426     3.6717     2.2363 </r>
       <r>   -12.9302    13.5039     3.7542 </r>
       <r>   -12.8178     2.2429     4.0063 </r>
       <r>   -12.7054     2.6704     4.3065 </r>
       <r>   -12.5930     4.8836     4.8554 </r>
       <r>   -12.4806     8.0516     5.7605 </r>
       <r>   -12.3682     7.6227     6.6173 </r>
       <r>   -12.2558     3.3137     6.9898 </r>
       <r>   -12.1434     0.0911     7.0000 </r>
       <r>   -12.0310     0.0000     7.0000 </r>
       <r>   -11.9186     0.0000     7.0000 </r>
       <r>   -11.8062     0.0000     7.0000 </r>
       <r>   -11.6938     0.0000     7.0000 </r>
       <r>   -11.5814     0.0000     7.0000 </r>
       <r>   -11.4690     0.0000     7.0000 </r>
       <r>   -11.3566     0.0000     7.0000 </r>
       <r>   -11.2442     0.0000     7.0000 </r>
       <r>   -11.1318     0.0000     7.0000 </r>
       <r>   -11.0194     0.0000     7.0000 </r>
       <r>   -10.9069     0.0000     7.0000 </r>
       <r>   -10.7945     0.0000     7.0000 </r>
       <r>   -10.6821     0.0000     7.0000 </r>
       <r>   -10.5697     0.0000     7.0000 </r>
       <r>   -10.4573     0.0000     7.0000 </r>
       <r>   -10.3449     0.0000     7.0000 </r>
       <r>   -10.2325     0.0000     7.0000 </r>
       <r>   -10.1201     0.0000     7.0000 </r>
       <r>   -10.0077     0.0000     7.0000 </r>
       <r>    -9.8953     0.0000     7.0000 </r>
       <r>    -9.7829     0.0000     7.0000 </r>
       <r>    -9.6705     0.0000     7.0000 </r>
       <r>    -9.5581     0.0000     7.0000 </r>
       <r>    -9.4457     0.0000     7.0000 </r>
       <r>    -9.3333     0.0000     7.0000 </r>
       <r>    -9.2209     0.0000     7.0000 </r>
       <r>    -9.1085     0.0000     7.0000 </r>
       <r>    -8.9961     0.0000     7.0000 </r>
       <r>    -8.8837     0.0000     7.0000 </r>
       <r>    -8.7712     0.0000     7.0000 </r>
       <r>    -8.6588     0.0000     7.0000 </r>
       <r>    -8.5464     0.0000     7.0000 </r>
       <r>    -8.4340     0.0000     7.0000 </r>
       <r>    -8.3216     0.0000     7.0000 </r>
       <r>    -8.2092     0.0000     7.0000 </r>
       <r>    -8.0968     0.0000     7.0000 </r>
       <r>    -7.9844     0.0000     7.0000 </r>
       <r>    -7.8720     0.0000     7.0000 </r>
       <r>    -7.7596     0.0000     7.0000 </r>
       <r>    -7.6472     0.0000     7.0000 </r>
       <r>    -7.5348     0.0000     7.0000 </r>
       <r>    -7.4224     0.0000     7.0000 </r>
       <r>    -7.3100     0.0000     7.0000 </r>
       <r>    -7.1976     0.0000     7.0000 </r>
       <r>    -7.0852     0.0000     7.0000 </r>
       <r>    -6.9728     0.0000     7.0000 </r>
       <r>    -6.8604     0.0000     7.0000 </r>
       <r>    -6.7480     0.0000     7.0000 </r>
       <r>    -6.6355     0.0000     7.0000 </r>
       <r>    -6.5231     0.0000     7.0000 </r>
       <r>    -6.4107     0.0000     7.0000 </r>
       <r>    -6.2983     0.0000     7.0000 </r>
       <r>    -6.1859     0.0000     7.0000 </r>
       <r>    -6.0735     0.0000     7.0000 </r>
       <r>    -5.9611     0.0000     7.0000 </r>
       <r>    -5.8487     0.0000     7.0000 </r>
       <r>    -5.7363     0.0000     7.0000 </r>
       <r>    -5.6239     0.0000     7.0000 </r>
       <r>    -5.5115     0.0000     7.0000 </r>
       <r>    -5.3991     0.0000     7.0000 </r>
       <r>    -5.2867     0.0000     7.0000 </r>
       <r>    -5.1743     0.0000     7.0000 </r>
       <r>    -5.0619     0.0000     7.0000 </r>
       <r>    -4.9495     0.0000     7.0000 </r>
       <r>    -4.8371     0.0000     7.0000 </r>
       <r>    -4.7247     0.0000     7.0000 </r>
       <r>    -4.6123     0.0000     7.0000 </r>
       <r>    -4.4998     0.0000     7.0000 </r>
       <r>    -4.3874     0.0000     7.0000 </r>
       <r>    -4.2750     0.0000     7.0000 </r>
       <r>    -4.1626     0.0000     7.0000 </r>
       <r>    -4.0502     0.0000     7.0000 </r>
       <r>    -3.9378     0.0000     7.0000 </r>
       <r>    -3.8254     0.0000     7.0000 </r>
       <r>    -3.7130     0.0000     7.0000 </r>
       <r>    -3.6006     0.0000     7.0000 </r>
       <r>    -3.4882     0.0000     7.0000 </r>
       <r>    -3.3758     0.0000     7.0000 </r>
       <r>    -3.2634     0.0000     7.0000 </r>
       <r>    -3.1510     0.0000     7.0000 </r>
       <r>    -3.0386     0.0000     7.0000 </r>
       <r>    -2.9262     0.0000     7.0000 </r>
       <r>    -2.8138     0.0000     7.0000 </r>
       <r>    -2.7014     0.0000     7.0000 </r>
       <r>    -2.5890     0.0000     7.0000 </r>
       <r>    -2.4766     0.0000     7.0000 </r>
       <r>    -2.3641     0.0000     7.0000 </r>
       <r>    -2.2517     0.0000     7.0000 </r>
       <r>    -2.1393     0.0000     7.0000 </r>
       <r>    -2.0269     0.0000     7.0000 </r>
       <r>    -1.9145     0.0000     7.0000 </r>
       <r>    -1.8021     0.0000     7.0000 </r>
       <r>    -1.6897     0.0000     7.0000 </r>
       <r>    -1.5773     0.0000     7.0000 </r>
       <r>    -1.4649     0.0000     7.0000 </r>
       <r>    -1.3525     0.0000     7.0000 </r>
       <r>    -1.2401     0.0000     7.0000 </r>
       <r>    -1.1277     0.0000     7.0000 </r>
       <r>    -1.0153     0.0453     7.0051 </r>
       <r>    -0.9029     4.7575     7.5399 </r>
       <r>    -0.7905     4.7038     8.0686 </r>
       <r>    -0.6781     3.0374     8.4100 </r>
       <r>    -0.5657     3.0600     8.7540 </r>
       <r>    -0.4533     5.5291     9.3755 </r>
       <r>    -0.3409     6.6397    10.1218 </r>
       <r>    -0.2284     4.5938    10.6382 </r>
       <r>    -0.1160     2.9951    10.9748 </r>
       <r>    -0.0036     3.1531    11.3293 </r>
       <r>     0.1088     2.7360    11.6368 </r>
       <r>     0.2212     5.0888    12.2088 </r>
       <r>     0.3336     5.5067    12.8278 </r>
       <r>     0.4460     4.7627    13.3631 </r>
       <r>     0.5584     5.8660    14.0225 </r>
       <r>     0.6708     3.8928    14.4601 </r>
       <r>     0.7832     5.0641    15.0293 </r>
       <r>     0.8956     4.8999    15.5801 </r>
       <r>     1.0080     3.8437    16.0122 </r>
       <r>     1.1204     4.3424    16.5003 </r>
       <r>     1.2328     6.8065    17.2653 </r>
       <r>     1.3452     9.6934    18.3549 </r>
       <r>     1.4576     4.4107    18.8507 </r>
       <r>     1.5700    11.8873    20.1869 </r>
       <r>     1.6824     6.2967    20.8947 </r>
       <r>     1.7948     7.6486    21.7544 </r>
       <r>     1.9073     3.3872    22.1352 </r>
       <r>     2.0197     2.7968    22.4496 </r>
       <r>     2.1321     6.1799    23.1442 </r>
       <r>     2.2445     2.0566    23.3754 </r>
       <r>     2.3569     6.4213    24.0972 </r>
       <r>     2.4693     3.2936    24.4674 </r>
       <r>     2.5817     7.9948    25.3660 </r>
       <r>     2.6941     1.1202    25.4920 </r>
       <r>     2.8065     1.7113    25.6843 </r>
       <r>     2.9189     2.8055    25.9997 </r>
       <r>     3.0313     6.8909    26.7742 </r>
       <r>     3.1437     9.3987    27.8307 </r>
       <r>     3.2561     1.5022    27.9995 </r>
       <r>     3.3685     0.0040    28.0000 </r>
       <r>     3.4809     0.0000    28.0000 </r>
       <r>     3.5933     0.0000    28.0000 </r>
       <r>     3.7057     0.0000    28.0000 </r>
       <r>     3.8181     0.0000    28.0000 </r>
       <r>     3.9305     0.0000    28.0000 </r>
       <r>     4.0430     0.0000    28.0000 </r>
       <r>     4.1554     0.0000    28.0000 </r>
       <r>     4.2678     0.0000    28.0000 </r>
       <r>     4.3802     0.0000    28.0000 </r>
       <r>     4.4926     0.0000    28.0000 </r>
       <r>     4.6050     0.0000    28.0000 </r>
       <r>     4.7174     0.0000    28.0000 </r>
       <r>     4.8298     0.0000    28.0000 </r>
       <r>     4.9422     0.0000    28.0000 </r>
       <r>     5.0546     0.0000    28.0000 </r>
       <r>     5.1670     0.0000    28.0000 </r>
       <r>     5.2794     0.0000    28.0000 </r>
       <r>     5.3918     0.0000    28.0000 </r>
       <r>     5.5042     0.0677    28.0076 </r>
       <r>     5.6166     0.9872    28.1186 </r>
       <r>     5.7290     0.0571    28.1250 </r>
       <r>     5.8414     0.0000    28.1250 </r>
       <r>     5.9538     0.0000    28.1250 </r>
       <r>     6.0662     0.0000    28.1250 </r>
       <r>     6.1787     0.0000    28.1250 </r>
       <r>     6.2911     0.0000    28.1250 </r>
       <r>     6.4035     0.0000    28.1250 </r>
       <r>     6.5159     0.0000    28.1250 </r>
       <r>     6.6283     0.0000    28.1250 </r>
       <r>     6.7407     0.0000    28.1250 </r>
       <r>     6.8531     0.0000    28.1250 </r>
       <r>     6.9655     0.0000    28.1250 </r>
       <r>     7.0779     0.0001    28.1250 </r>
       <r>     7.1903     0.2580    28.1540 </r>
       <r>     7.3027     0.8460    28.2491 </r>
       <r>     7.4151     0.0080    28.2500 </r>
       <r>     7.5275     0.0000    28.2500 </r>
       <r>     7.6399     0.0040    28.2504 </r>
       <r>     7.7523     1.8507    28.4585 </r>
       <r>     7.8647     1.4799    28.6248 </r>
       <r>     7.9771     0.0015    28.6250 </r>
       <r>     8.0895     0.4562    28.6763 </r>
[...]
        <r>  0.0000  0.0228  0.0002  0.0027  0.0000  0.0000  0.0000  0.0000  0.0000 </r>
        <r>  0.0049  0.0115  0.0011  0.0137  0.0000  0.0000  0.0000  0.0000  0.0000 </r>
        <r>  0.0117  0.0051  0.0008  0.0002  0.0000  0.0000  0.0000  0.0000  0.0000 </r>
        <r>  0.0000  0.0067  0.0036  0.0000  0.0000  0.0000  0.0000  0.0000  0.0000 </r>
        <r>  0.0013  0.0041  0.0029  0.0045  0.0000  0.0000  0.0000  0.0000  0.0000 </r>
        <r>  0.0000  0.0590  0.0024  0.0057  0.0000  0.0000  0.0000  0.0000  0.0000 </r>
        <r>  0.0252  0.0045  0.0047  0.0010  0.0000  0.0000  0.0000  0.0000  0.0000 </r>
       </set>
       <set comment="band 37">
        <r>  0.0083  0.0244  0.0017  0.0029  0.0004  0.0000  0.0011  0.0012  0.0005 </r>
        <r>  0.0144  0.0001  0.0024  0.0031  0.0050  0.0002  0.0014  0.0005  0.0012 </r>
        <r>  0.0007  0.0038  0.0040  0.0073  0.0000  0.0000  0.0001  0.0007  0.0010 </r>
        <r>  0.0198  0.0023  0.0022  0.0000  0.0000  0.0049  0.0000  0.0043  0.0000 </r>
        <r>  0.0141  0.0000  0.0002  0.0003  0.0085  0.0002  0.0005  0.0011  0.0007 </r>
        <r>  0.0014  0.0001  0.0020  0.0000  0.0005  0.0025  0.0000  0.0057  0.0000 </r>
        <r>  0.0069  0.0000  0.0001  0.0001  0.0000  0.0014  0.0014  0.0000  0.0003 </r>
        <r>  0.0003  0.0012  0.0013  0.0180  0.0062  0.0019  0.0010  0.0037  0.0001 </r>
        <r>  0.0527  0.0000  0.0006  0.0176  0.0001  0.0000  0.0004  0.0000  0.0009 </r>
        <r>  0.0000  0.0140  0.0047  0.0051  0.0000  0.0000  0.0000  0.0000  0.0000 </r>
        <r>  0.0034  0.0033  0.0000  0.0000  0.0000  0.0000  0.0000  0.0000  0.0000 </r>
        <r>  0.0144  0.0016  0.0003  0.0157  0.0000  0.0000  0.0000  0.0000  0.0000 </r>
        <r>  0.0022  0.0006  0.0250  0.0386  0.0000  0.0000  0.0000  0.0000  0.0000 </r>
        <r>  0.0008  0.0001  0.0072  0.0050  0.0000  0.0000  0.0000  0.0000  0.0000 </r>
        <r>  0.0001  0.0028  0.0289  0.0042  0.0000  0.0000  0.0000  0.0000  0.0000 </r>
        <r>  0.0002  0.0199  0.0007  0.0006  0.0000  0.0000  0.0000  0.0000  0.0000 </r>
       </set>
       <set comment="band 38">
        <r>  0.0076  0.0006  0.0032  0.0000  0.0015  0.0002  0.0009  0.0003  0.0000 </r>
        <r>  0.0071  0.0042  0.0030  0.0032  0.0000  0.0001  0.0001  0.0000  0.0001 </r>
        <r>  0.0014  0.0009  0.0056  0.0104  0.0001  0.0040  0.0001  0.0101  0.0000 </r>
        <r>  0.0224  0.0001  0.0060  0.0024  0.0005  0.0020  0.0001  0.0009  0.0002 </r>
        <r>  0.0158  0.0000  0.0047  0.0063  0.0000  0.0001  0.0061  0.0001  0.0013 </r>
        <r>  0.0006  0.0005  0.0019  0.0038  0.0010  0.0023  0.0001  0.0074  0.0001 </r>
        <r>  0.0001  0.0042  0.0059  0.0001  0.0000  0.0003  0.0064  0.0015  0.0020 </r>
        <r>  0.0021  0.0007  0.0011  0.0002  0.0005  0.0002  0.0005  0.0048  0.0001 </r>
        <r>  0.0004  0.0034  0.0016  0.0106  0.0000  0.0072  0.0000  0.0107  0.0008 </r>
        <r>  0.0002  0.0000  0.0001  0.0183  0.0000  0.0000  0.0000  0.0000  0.0000 </r>
        <r>  0.0098  0.0011  0.0030  0.0004  0.0000  0.0000  0.0000  0.0000  0.0000 </r>
        <r>  0.0020  0.0007  0.0265  0.0127  0.0000  0.0000  0.0000  0.0000  0.0000 </r>
        <r>  0.0015  0.0000  0.0264  0.0031  0.0000  0.0000  0.0000  0.0000  0.0000 </r>
        <r>  0.0002  0.0003  0.0071  0.0009  0.0000  0.0000  0.0000  0.0000  0.0000 </r>
        <r>  0.0006  0.0030  0.0059  0.0140  0.0000  0.0000  0.0000  0.0000  0.0000 </r>
        <r>  0.0011  0.0143  0.0009  0.0062  0.0000  0.0000  0.0000  0.0000  0.0000 </r>
       </set>
       <set comment="band 39">
        <r>  0.0015  0.0001  0.0041  0.0084  0.0009  0.0036  0.0006  0.0002  0.0009 </r>
        <r>  0.0249  0.0086  0.0021  0.0006  0.0002  0.0001  0.0000  0.0001  0.0017 </r>
        <r>  0.0029  0.0077  0.0000  0.0008  0.0092  0.0003  0.0007  0.0000  0.0002 </r>
        <r>  0.0137  0.0028  0.0105  0.0083  0.0010  0.0001  0.0024  0.0074  0.0021 </r>
        <r>  0.0055  0.0000  0.0071  0.0074  0.0006  0.0007  0.0019  0.0001  0.0023 </r>
        <r>  0.0166  0.0001  0.0002  0.0003  0.0045  0.0003  0.0004  0.0006  0.0001 </r>
        <r>  0.0026  0.0011  0.0001  0.0002  0.0015  0.0030  0.0000  0.0021  0.0000 </r>
        <r>  0.0036  0.0102  0.0019  0.0053  0.0005  0.0000  0.0002  0.0040  0.0055 </r>
        <r>  0.0161  0.0013  0.0198  0.0081  0.0078  0.0000  0.0015  0.0013  0.0001 </r>
        <r>  0.0014  0.0007  0.0224  0.0093  0.0000  0.0000  0.0000  0.0000  0.0000 </r>
        <r>  0.0010  0.0281  0.0030  0.0001  0.0000  0.0000  0.0000  0.0000  0.0000 </r>
        <r>  0.0030  0.0164  0.0030  0.0198  0.0000  0.0000  0.0000  0.0000  0.0000 </r>
        <r>  0.0017  0.0014  0.0000  0.0062  0.0000  0.0000  0.0000  0.0000  0.0000 </r>
        <r>  0.0057  0.0012  0.0049  0.0043  0.0000  0.0000  0.0000  0.0000  0.0000 </r>
        <r>  0.0001  0.0096  0.0142  0.0024  0.0000  0.0000  0.0000  0.0000  0.0000 </r>
        <r>  0.0016  0.0027  0.0069  0.0228  0.0000  0.0000  0.0000  0.0000  0.0000 </r>
       </set>
       <set comment="band 40">
        <r>  0.0001  0.0004  0.0015  0.0008  0.0027  0.0010  0.0019  0.0001  0.0002 </r>
        <r>  0.0001  0.0022  0.0010  0.0032  0.0000  0.0001  0.0000  0.0054  0.0004 </r>
        <r>  0.0000  0.0044  0.0000  0.0037  0.0008  0.0010  0.0000  0.0013  0.0005 </r>
        <r>  0.0058  0.0040  0.0014  0.0032  0.0008  0.0036  0.0001  0.0000  0.0009 </r>
        <r>  0.0065  0.0047  0.0088  0.0063  0.0014  0.0012  0.0045  0.0018  0.0001 </r>
        <r>  0.0002  0.0084  0.0012  0.0081  0.0042  0.0033  0.0000  0.0000  0.0000 </r>
        <r>  0.0002  0.0009  0.0128  0.0068  0.0012  0.0003  0.0021  0.0064  0.0007 </r>
        <r>  0.0221  0.0001  0.0113  0.0066  0.0121  0.0033  0.0010  0.0000  0.0002 </r>
        <r>  0.0018  0.0041  0.0000  0.0219  0.0027  0.0071  0.0001  0.0072  0.0002 </r>
        <r>  0.0018  0.0000  0.0000  0.0003  0.0000  0.0000  0.0000  0.0000  0.0000 </r>
        <r>  0.0007  0.0041  0.0031  0.0203  0.0000  0.0000  0.0000  0.0000  0.0000 </r>
        <r>  0.0033  0.0018  0.0115  0.0089  0.0000  0.0000  0.0000  0.0000  0.0000 </r>
        <r>  0.0056  0.0127  0.0120  0.0140  0.0000  0.0000  0.0000  0.0000  0.0000 </r>
        <r>  0.0009  0.0059  0.0121  0.0026  0.0000  0.0000  0.0000  0.0000  0.0000 </r>
        <r>  0.0002  0.0082  0.0048  0.0088  0.0000  0.0000  0.0000  0.0000  0.0000 </r>
        <r>  0.0047  0.0102  0.0294  0.0017  0.0000  0.0000  0.0000  0.0000  0.0000 </r>
       </set>
       <set comment="band 41">
        <r>  0.0318  0.0065  0.0066  0.0183  0.0004  0.0001  0.0013  0.0000  0.0004 </r>
        <r>  0.0009  0.0001  0.0116  0.0054  0.0002  0.0021  0.0000  0.0093  0.0001 </r>
        <r>  0.0038  0.0000  0.0014  0.0000  0.0009  0.0000  0.0002  0.0010  0.0000 </r>
        <r>  0.0016  0.0025  0.0011  0.0162  0.0018  0.0003  0.0082  0.0005  0.0012 </r>
        <r>  0.0024  0.0004  0.0058  0.0022  0.0005  0.0013  0.0003  0.0033  0.0003 </r>
        <r>  0.0075  0.0003  0.0016  0.0028  0.0008  0.0005  0.0006  0.0003  0.0036 </r>
        <r>  0.0108  0.0061  0.0003  0.0179  0.0026  0.0016  0.0000  0.0030  0.0001 </r>
        <r>  0.0001  0.0062  0.0007  0.0002  0.0001  0.0000  0.0000  0.0000  0.0039 </r>
        <r>  0.0091  0.0004  0.0027  0.0005  0.0003  0.0000  0.0000  0.0066  0.0001 </r>
        <r>  0.0001  0.0203  0.0136  0.0109  0.0000  0.0000  0.0000  0.0000  0.0000 </r>
        <r>  0.0002  0.0024  0.0215  0.0097  0.0000  0.0000  0.0000  0.0000  0.0000 </r>
        <r>  0.0019  0.0038  0.0225  0.0019  0.0000  0.0000  0.0000  0.0000  0.0000 </r>
        <r>  0.0012  0.0000  0.0056  0.0047  0.0000  0.0000  0.0000  0.0000  0.0000 </r>
        <r>  0.0013  0.0108  0.0000  0.0041  0.0000  0.0000  0.0000  0.0000  0.0000 </r>
        <r>  0.0175  0.0054  0.0130  0.0147  0.0000  0.0000  0.0000  0.0000  0.0000 </r>
        <r>  0.0071  0.0045  0.0026  0.0252  0.0000  0.0000  0.0000  0.0000  0.0000 </r>
       </set>
       <set comment="band 42">
        <r>  0.0137  0.0158  0.0289  0.0013  0.0032  0.0013  0.0070  0.0033  0.0011 </r>
        <r>  0.0010  0.0002  0.0062  0.0002  0.0009  0.0030  0.0020  0.0001  0.0000 </r>
        <r>  0.0000  0.0183  0.0027  0.0010  0.0000  0.0042  0.0003  0.0002  0.0001 </r>
        <r>  0.0103  0.0111  0.0004  0.0110  0.0001  0.0039  0.0020  0.0001  0.0008 </r>
        <r>  0.0046  0.0034  0.0039  0.0000  0.0009  0.0074  0.0004  0.0013  0.0013 </r>
        <r>  0.0085  0.0002  0.0000  0.0022  0.0000  0.0002  0.0002  0.0002  0.0015 </r>
        <r>  0.0046  0.0023  0.0009  0.0000  0.0004  0.0011  0.0003  0.0000  0.0001 </r>
        <r>  0.0018  0.0379  0.0001  0.0027  0.0036  0.0083  0.0002  0.0009  0.0080 </r>
        <r>  0.0004  0.0463  0.0000  0.0034  0.0010  0.0006  0.0001  0.0005  0.0022 </r>
        <r>  0.0017  0.0031  0.0016  0.0001  0.0000  0.0000  0.0000  0.0000  0.0000 </r>
        <r>  0.0000  0.0388  0.0184  0.0101  0.0000  0.0000  0.0000  0.0000  0.0000 </r>
        <r>  0.0024  0.0002  0.0007  0.0018  0.0000  0.0000  0.0000  0.0000  0.0000 </r>
        <r>  0.0021  0.0029  0.0030  0.0000  0.0000  0.0000  0.0000  0.0000  0.0000 </r>
        <r>  0.0000  0.0035  0.0000  0.0084  0.0000  0.0000  0.0000  0.0000  0.0000 </r>
        <r>  0.0000  0.0000  0.0105  0.0000  0.0000  0.0000  0.0000  0.0000  0.0000 </r>
        <r>  0.0004  0.0017  0.0007  0.0016  0.0000  0.0000  0.0000  0.0000  0.0000 </r>
       </set>
       <set comment="band 43">
        <r>  0.0024  0.0001  0.0019  0.0257  0.0014  0.0005  0.0011  0.0075  0.0000 </r>
        <r>  0.0432  0.0003  0.0014  0.0175  0.0001  0.0009  0.0001  0.0001  0.0003 </r>
        <r>  0.0084  0.0001  0.0001  0.0004  0.0000  0.0019  0.0016  0.0018  0.0001 </r>
        <r>  0.0002  0.0036  0.0023  0.0010  0.0113  0.0001  0.0010  0.0020  0.0063 </r>
        <r>  0.0127  0.0139  0.0208  0.0000  0.0043  0.0011  0.0044  0.0003  0.0000 </r>
        <r>  0.0034  0.0007  0.0000  0.0002  0.0002  0.0057  0.0000  0.0019  0.0011 </r>
        <r>  0.0050  0.0010  0.0000  0.0038  0.0026  0.0002  0.0002  0.0006  0.0007 </r>
        <r>  0.0122  0.0015  0.0027  0.0003  0.0033  0.0012  0.0000  0.0029  0.0000 </r>
        <r>  0.0004  0.0031  0.0023  0.0146  0.0080  0.0078  0.0021  0.0031  0.0006 </r>
        <r>  0.0040  0.0165  0.0023  0.0004  0.0000  0.0000  0.0000  0.0000  0.0000 </r>
        <r>  0.0003  0.0010  0.0151  0.0174  0.0000  0.0000  0.0000  0.0000  0.0000 </r>
        <r>  0.0025  0.0086  0.0014  0.0069  0.0000  0.0000  0.0000  0.0000  0.0000 </r>
        <r>  0.0000  0.0001  0.0063  0.0210  0.0000  0.0000  0.0000  0.0000  0.0000 </r>
        <r>  0.0003  0.0042  0.0003  0.0032  0.0000  0.0000  0.0000  0.0000  0.0000 </r>
        <r>  0.0001  0.0000  0.0102  0.0040  0.0000  0.0000  0.0000  0.0000  0.0000 </r>
        <r>  0.0011  0.0004  0.0032  0.0128  0.0000  0.0000  0.0000  0.0000  0.0000 </r>
       </set>
       <set comment="band 44">
        <r>  0.0034  0.0097  0.0091  0.0284  0.0000  0.0047  0.0029  0.0010  0.0027 </r>
        <r>  0.0362  0.0019  0.0073  0.0000  0.0015  0.0011  0.0002  0.0027  0.0001 </r>
        <r>  0.0003  0.0043  0.0009  0.0064  0.0002  0.0004  0.0005  0.0004  0.0014 </r>
        <r>  0.0034  0.0189  0.0022  0.0047  0.0021  0.0010  0.0023  0.0016  0.0001 </r>
        <r>  0.0100  0.0079  0.0009  0.0035  0.0008  0.0012  0.0000  0.0129  0.0045 </r>
        <r>  0.0698  0.0011  0.0021  0.0022  0.0005  0.0004  0.0030  0.0015  0.0002 </r>
        <r>  0.0071  0.0029  0.0063  0.0007  0.0001  0.0072  0.0000  0.0028  0.0008 </r>
        <r>  0.0053  0.0002  0.0056  0.0000  0.0027  0.0126  0.0076  0.0012  0.0002 </r>
        <r>  0.0271  0.0021  0.0000  0.0031  0.0002  0.0003  0.0019  0.0023  0.0000 </r>
        <r>  0.0007  0.0024  0.0000  0.0008  0.0000  0.0000  0.0000  0.0000  0.0000 </r>
        <r>  0.0005  0.0011  0.0125  0.0001  0.0000  0.0000  0.0000  0.0000  0.0000 </r>
        <r>  0.0022  0.0045  0.0058  0.0034  0.0000  0.0000  0.0000  0.0000  0.0000 </r>
        <r>  0.0000  0.0010  0.0023  0.0006  0.0000  0.0000  0.0000  0.0000  0.0000 </r>
        <r>  0.0007  0.0015  0.0032  0.0007  0.0000  0.0000  0.0000  0.0000  0.0000 </r>
        <r>  0.0025  0.0000  0.0007  0.0020  0.0000  0.0000  0.0000  0.0000  0.0000 </r>
        <r>  0.0080  0.0086  0.0001  0.0010  0.0000  0.0000  0.0000  0.0000  0.0000 </r>
       </set>
       <set comment="band 45">
        <r>  0.0002  0.0406  0.0026  0.0005  0.0005  0.0001  0.0054  0.0000  0.0034 </r>
        <r>  0.0005  0.0203  0.0012  0.0043  0.0035  0.0100  0.0005  0.0011  0.0023 </r>
        <r>  0.0035  0.0008  0.0080  0.0013  0.0030  0.0010  0.0001  0.0047  0.0001 </r>
        <r>  0.0077  0.0000  0.0009  0.0102  0.0010  0.0001  0.0008  0.0006  0.0013 </r>
        <r>  0.0002  0.0023  0.0059  0.0000  0.0000  0.0007  0.0047  0.0005  0.0041 </r>
        <r>  0.0064  0.0107  0.0098  0.0027  0.0001  0.0113  0.0002  0.0039  0.0026 </r>
        <r>  0.0119  0.0008  0.0008  0.0027  0.0006  0.0001  0.0009  0.0021  0.0004 </r>
        <r>  0.0061  0.0029  0.0003  0.0036  0.0000  0.0045  0.0070  0.0013  0.0004 </r>
        <r>  0.0068  0.0005  0.0011  0.0040  0.0035  0.0031  0.0002  0.0001  0.0002 </r>
        <r>  0.0002  0.0002  0.0015  0.0006  0.0000  0.0000  0.0000  0.0000  0.0000 </r>
        <r>  0.0010  0.0046  0.0000  0.0010  0.0000  0.0000  0.0000  0.0000  0.0000 </r>
        <r>  0.0025  0.0052  0.0044  0.0013  0.0000  0.0000  0.0000  0.0000  0.0000 </r>
        <r>  0.0014  0.0012  0.0140  0.0157  0.0000  0.0000  0.0000  0.0000  0.0000 </r>
        <r>  0.0033  0.0040  0.0208  0.0017  0.0000  0.0000  0.0000  0.0000  0.0000 </r>
        <r>  0.0000  0.0046  0.0009  0.0000  0.0000  0.0000  0.0000  0.0000  0.0000 </r>
        <r>  0.0006  0.0028  0.0006  0.0001  0.0000  0.0000  0.0000  0.0000  0.0000 </r>
       </set>
       <set comment="band 46">
        <r>  0.0005  0.0094  0.0031  0.0135  0.0003  0.0013  0.0055  0.0000  0.0000 </r>
        <r>  0.0027  0.0009  0.0049  0.0016  0.0144  0.0024  0.0006  0.0000  0.0009 </r>
        <r>  0.0150  0.0000  0.0050  0.0004  0.0008  0.0019  0.0008  0.0002  0.0000 </r>
        <r>  0.0001  0.0006  0.0025  0.0004  0.0000  0.0154  0.0000  0.0005  0.0024 </r>
        <r>  0.0008  0.0007  0.0033  0.0017  0.0107  0.0000  0.0006  0.0044  0.0004 </r>
        <r>  0.0015  0.0001  0.0114  0.0001  0.0001  0.0049  0.0000  0.0029  0.0010 </r>
        <r>  0.0195  0.0000  0.0032  0.0034  0.0072  0.0021  0.0005  0.0040  0.0001 </r>
        <r>  0.0028  0.0009  0.0145  0.0083  0.0004  0.0001  0.0015  0.0040  0.0001 </r>
        <r>  0.0085  0.0000  0.0191  0.0120  0.0005  0.0046  0.0006  0.0000  0.0000 </r>
        <r>  0.0016  0.0032  0.0004  0.0007  0.0000  0.0000  0.0000  0.0000  0.0000 </r>
        <r>  0.0000  0.0003  0.0174  0.0093  0.0000  0.0000  0.0000  0.0000  0.0000 </r>
        <r>  0.0006  0.0005  0.0055  0.0149  0.0000  0.0000  0.0000  0.0000  0.0000 </r>
        <r>  0.0010  0.0150  0.0000  0.0002  0.0000  0.0000  0.0000  0.0000  0.0000 </r>
        <r>  0.0000  0.0186  0.0017  0.0012  0.0000  0.0000  0.0000  0.0000  0.0000 </r>
        <r>  0.0001  0.0001  0.0292  0.0035  0.0000  0.0000  0.0000  0.0000  0.0000 </r>
        <r>  0.0001  0.0007  0.0377  0.0014  0.0000  0.0000  0.0000  0.0000  0.0000 </r>
       </set>
       <set comment="band 47">
        <r>  0.0072  0.0067  0.0403  0.0085  0.0083  0.0019  0.0003  0.0033  0.0004 </r>
        <r>  0.0391  0.0000  0.0133  0.0189  0.0148  0.0115  0.0005  0.0000  0.0003 </r>
        <r>  0.0025  0.0052  0.0010  0.0059  0.0005  0.0021  0.0000  0.0001  0.0015 </r>
        <r>  0.0012  0.0003  0.0124  0.0026  0.0011  0.0004  0.0006  0.0029  0.0003 </r>
        <r>  0.0003  0.0014  0.0023  0.0041  0.0012  0.0006  0.0006  0.0079  0.0029 </r>
        <r>  0.0127  0.0009  0.0052  0.0040  0.0000  0.0005  0.0015  0.0006  0.0007 </r>
        <r>  0.0098  0.0022  0.0000  0.0020  0.0030  0.0003  0.0012  0.0002  0.0004 </r>
        <r>  0.0017  0.0047  0.0056  0.0001  0.0019  0.0001  0.0015  0.0008  0.0002 </r>
        <r>  0.0006  0.0026  0.0227  0.0008  0.0008  0.0005  0.0005  0.0000  0.0001 </r>
        <r>  0.0003  0.0011  0.0024  0.0019  0.0000  0.0000  0.0000  0.0000  0.0000 </r>
        <r>  0.0011  0.0032  0.0119  0.0132  0.0000  0.0000  0.0000  0.0000  0.0000 </r>
        <r>  0.0002  0.0033  0.0002  0.0238  0.0000  0.0000  0.0000  0.0000  0.0000 </r>
        <r>  0.0019  0.0001  0.0040  0.0054  0.0000  0.0000  0.0000  0.0000  0.0000 </r>
        <r>  0.0003  0.0073  0.0002  0.0000  0.0000  0.0000  0.0000  0.0000  0.0000 </r>
        <r>  0.0006  0.0004  0.0024  0.0070  0.0000  0.0000  0.0000  0.0000  0.0000 </r>
        <r>  0.0012  0.0191  0.0110  0.0183  0.0000  0.0000  0.0000  0.0000  0.0000 </r>
       </set>
       <set comment="band 48">
        <r>  0.0005  0.0007  0.0001  0.0152  0.0002  0.0036  0.0000  0.0000  0.0005 </r>
        <r>  0.0003  0.0186  0.0025  0.0028  0.0015  0.0001  0.0015  0.0000  0.0000 </r>
        <r>  0.0001  0.0063  0.0003  0.0005  0.0096  0.0035  0.0000  0.0037  0.0007 </r>
        <r>  0.0000  0.0003  0.0000  0.0015  0.0031  0.0085  0.0036  0.0003  0.0000 </r>
        <r>  0.0006  0.0001  0.0072  0.0018  0.0057  0.0014  0.0003  0.0030  0.0014 </r>
        <r>  0.0258  0.0022  0.0019  0.0055  0.0022  0.0020  0.0000  0.0057  0.0044 </r>
        <r>  0.0205  0.0126  0.0010  0.0047  0.0026  0.0011  0.0009  0.0000  0.0045 </r>
        <r>  0.0091  0.0001  0.0000  0.0031  0.0020  0.0010  0.0000  0.0028  0.0002 </r>
        <r>  0.0001  0.0013  0.0205  0.0009  0.0192  0.0012  0.0001  0.0000  0.0055 </r>
        <r>  0.0007  0.0266  0.0075  0.0155  0.0000  0.0000  0.0000  0.0000  0.0000 </r>
        <r>  0.0000  0.0084  0.0025  0.0070  0.0000  0.0000  0.0000  0.0000  0.0000 </r>
        <r>  0.0035  0.0011  0.0084  0.0001  0.0000  0.0000  0.0000  0.0000  0.0000 </r>
        <r>  0.0003  0.0033  0.0034  0.0082  0.0000  0.0000  0.0000  0.0000  0.0000 </r>
        <r>  0.0003  0.0013  0.0005  0.0011  0.0000  0.0000  0.0000  0.0000  0.0000 </r>
        <r>  0.0003  0.0017  0.0066  0.0048  0.0000  0.0000  0.0000  0.0000  0.0000 </r>
        <r>  0.0003  0.0009  0.0020  0.0001  0.0000  0.0000  0.0000  0.0000  0.0000 </r>
       </set>
      </set>
     </set>
    </set>
   </array>
  </projected>
 </calculation>
 <structure name="finalpos" >
  <crystal>
   <varray name="basis" >
    <v>       0.00000000       4.24689300       4.24689300 </v>
    <v>       4.24689300       0.00000000       4.24689300 </v>
    <v>       4.24689300       4.24689300       0.00000000 </v>
   </varray>
   <i name="volume">    153.19477498 </i>
   <varray name="rec_basis" >
    <v>      -0.11773313       0.11773313       0.11773313 </v>
    <v>       0.11773313      -0.11773313       0.11773313 </v>
    <v>       0.11773313       0.11773313      -0.11773313 </v>
   </varray>
  </crystal>
  <varray name="positions" >
   <v>       0.16901583       0.49395704       0.17014389 </v>
   <v>       0.00382598       0.98892588       0.00505300 </v>
   <v>       0.01712519       0.93743948       0.48764211 </v>
   <v>       0.07247863       0.46970930       0.85915234 </v>
   <v>       0.85807955       0.46977029       0.60204516 </v>
   <v>       0.55968020       0.93705811       0.01802140 </v>
   <v>       0.48668025       0.93725065       0.56052650 </v>
   <v>       0.60089734       0.46986175       0.07293565 </v>
   <v>       0.50341846       0.49154009       0.50398845 </v>
   <v>       0.23035563       0.27907313       0.60286129 </v>
   <v>       0.28449406       0.74585878       0.21419301 </v>
   <v>       0.21296170       0.74667198       0.75775274 </v>
   <v>       0.88937841       0.27981415       0.23152164 </v>
   <v>       0.60084879       0.27940939       0.89087640 </v>
   <v>       0.75683309       0.74607642       0.28571678 </v>
   <v>       0.75234189       0.74409456       0.75311465 </v>
  </varray>
 </structure>
</modeling>
