    2    2    1    1
  0.9574674E+01  0.3003007E-09  0.3003007E-09  0.3003007E-09  0.5000000E-15
  1.000000000000000E-004
  CAR 
 unknown system                          
      8     16      8
 
  0.0000000E+00  0.0000000E+00  0.0000000E+00  0.4629630E-02
    1      -14.131069   1.000000
    2        3.005113   1.000000
    3        3.005376   1.000000
    4        3.005376   1.000000
    5        7.495508   0.000000
    6       18.669263   0.000000
    7       18.669263   0.000000
    8       18.669264   0.000000
 
  0.1666667E+00  0.0000000E+00  0.0000000E+00  0.3703704E-01
    1      -13.863307   1.000000
    2        1.509550   1.000000
    3        2.834342   1.000000
    4        2.834590   1.000000
    5        8.921574   0.000000
    6       16.345608   0.000000
    7       19.214107   0.000000
    8       19.214115   0.000000
 
  0.3333333E+00  0.0000000E+00  0.0000000E+00  0.3703704E-01
    1      -13.257153   1.000000
    2       -0.592234   1.000000
    3        2.523001   1.000000
    4        2.523237   1.000000
    5       10.478222   0.000000
    6       15.130416   0.000000
    7       19.349133   0.000000
    8       19.349141   0.000000
 
  0.5000000E+00  0.0000000E+00  0.0000000E+00  0.1851852E-01
    1      -12.912166   1.000000
    2       -1.508437   1.000000
    3        2.375811   1.000000
    4        2.376047   1.000000
    5       10.747644   0.000000
    6       15.340575   0.000000
    7       19.064789   0.000000
    8       19.064804   0.000000
 
  0.1666667E+00  0.1666667E+00  0.0000000E+00  0.2777778E-01
    1      -13.779317   1.000000
    2        1.433887   1.000000
    3        2.627062   1.000000
    4        2.627224   1.000000
    5        9.398235   0.000000
    6       15.632246   0.000000
    7       19.477632   0.000000
    8       19.477674   0.000000
 
  0.3333333E+00  0.1666667E+00  0.0000000E+00  0.1111111E+00
    1      -13.299829   1.000000
    2       -0.023461   1.000000
    3        2.161978   1.000000
    4        2.305645   1.000000
    5       11.068720   0.000000
    6       14.432005   0.000000
    7       18.038309   0.000000
    8       19.945293   0.000000
 
  0.5000000E+00  0.1666667E+00  0.0000000E+00  0.1111111E+00
    1      -12.858208   1.000000
    2       -1.070435   1.000000
    3        1.603710   1.000000
    4        2.187809   1.000000
    5       11.826012   0.000000
    6       14.967145   0.000000
    7       16.999503   0.000000
    8       19.714651   0.000000
 
 -0.3333333E+00  0.1666667E+00  0.0000000E+00  0.1111111E+00
    1      -12.963143   1.000000
    2       -0.804797   1.000000
    3        1.494164   1.000000
    4        2.374063   1.000000
    5       11.788198   0.000000
    6       14.912971   0.000000
    7       17.209077   0.000000
    8       19.816165   0.000000
 
 -0.1666667E+00  0.1666667E+00  0.0000000E+00  0.5555556E-01
    1      -13.485080   1.000000
    2        0.419957   1.000000
    3        2.090963   1.000000
    4        2.698711   1.000000
    5       10.452600   0.000000
    6       15.099800   0.000000
    7       18.486638   0.000000
    8       20.498267   0.000000
 
  0.3333333E+00  0.3333333E+00  0.0000000E+00  0.2777778E-01
    1      -13.045500   1.000000
    2       -0.362066   1.000000
    3        1.972531   1.000000
    4        1.972697   1.000000
    5       12.031073   0.000000
    6       12.996735   0.000000
    7       16.619194   0.000000
    8       20.922281   0.000000
 
  0.5000000E+00  0.3333333E+00  0.0000000E+00  0.1111111E+00
    1      -12.733227   1.000000
    2       -0.688449   1.000000
    3        1.152722   1.000000
    4        1.846049   1.000000
    5       12.672092   0.000000
    6       13.576754   0.000000
    7       15.717534   0.000000
    8       20.986415   0.000000
 
 -0.3333333E+00  0.3333333E+00  0.0000000E+00  0.5555556E-01
    1      -12.693726   1.000000
    2       -0.144697   1.000000
    3        0.015731   1.000000
    4        2.032440   1.000000
    5       13.152596   0.000000
    6       15.021043   0.000000
    7       15.211232   0.000000
    8       20.456301   0.000000
 
  0.5000000E+00  0.5000000E+00  0.0000000E+00  0.1388889E-01
    1      -12.665114   1.000000
    2       -0.983038   1.000000
    3        1.684273   1.000000
    4        1.684435   1.000000
    5       12.097880   0.000000
    6       12.708518   0.000000
    7       15.851837   0.000000
    8       21.617885   0.000000
 
  0.5000000E+00  0.3333333E+00  0.1666667E+00  0.1111111E+00
    1      -12.904468   1.000000
    2       -0.458686   1.000000
    3        1.201403   1.000000
    4        2.015520   1.000000
    5       12.763652   0.000000
    6       13.970232   0.000000
    7       16.294891   0.000000
    8       19.886589   0.000000
 
 -0.3333333E+00  0.3333333E+00  0.1666667E+00  0.1111111E+00
    1      -12.693766   1.000000
    2       -0.498420   1.000000
    3        0.598722   1.000000
    4        1.770060   1.000000
    5       13.400105   0.000000
    6       14.752377   0.000000
    7       15.466389   0.000000
    8       19.189920   0.000000
 
 -0.3333333E+00  0.5000000E+00  0.1666667E+00  0.5555556E-01
    1      -12.626951   1.000000
    2       -0.467373   1.000000
    3        0.820857   1.000000
    4        1.373119   1.000000
    5       13.459382   0.000000
    6       14.135144   0.000000
    7       15.272932   0.000000
    8       19.165038   0.000000
