 vasp.5.4.1 05Feb16 (build Mar 31 2016 13:39:20) complex                        
  
 executed on           IFC91_ompi date 2016.08.31  16:02:23
 running on    4 total cores
 distrk:  each k-point on    4 cores,    1 groups
 distr:  one band on NCORES_PER_BAND=   1 cores,    4 groups


--------------------------------------------------------------------------------------------------------


 INCAR:
 POTCAR:    PAW_PBE Mg 13Apr2007                  
 POTCAR:    PAW_PBE O 08Apr2002                   
 POTCAR:    PAW_PBE Mg 13Apr2007                  
   VRHFIN =Mg: s2p0                                                             
   LEXCH  = PE                                                                  
   EATOM  =    23.0369 eV,    1.6932 Ry                                         
                                                                                
   TITEL  = PAW_PBE Mg 13Apr2007                                                
   LULTRA =        F    use ultrasoft PP ?                                      
   IUNSCR =        1    unscreen: 0-lin 1-nonlin 2-no                           
   RPACOR =    1.500    partial core radius                                     
   POMASS =   24.305; ZVAL   =    2.000    mass and valenz                      
   RCORE  =    2.000    outmost cutoff radius                                   
   RWIGS  =    2.880; RWIGS  =    1.524    wigner-seitz radius (au A)           
   ENMAX  =  126.143; ENMIN  =   94.607 eV                                      
   RCLOC  =    1.506    cutoff for local pot                                    
   LCOR   =        T    correct aug charges                                     
   LPAW   =        T    paw PP                                                  
   EAUG   =  454.734                                                            
   DEXC   =    0.000                                                            
   RMAX   =    2.045    core radius for proj-oper                               
   RAUG   =    1.300    factor for augmentation sphere                          
   RDEP   =    2.025    radius for radial grids                                 
   RDEPT  =    1.942    core radius for aug-charge                              
                                                                                
   Atomic configuration                                                         
    6 entries                                                                   
     n  l   j            E        occ.                                          
     1  0  0.50     -1259.6230   2.0000                                         
     2  0  0.50       -79.8442   2.0000                                         
     2  1  1.50       -46.6121   6.0000                                         
     3  0  0.50        -4.7055   2.0000                                         
     3  1  0.50        -1.3660   0.0000                                         
     3  2  1.50        -1.3606   0.0000                                         
   Description                                                                  
     l       E           TYP  RCUT    TYP  RCUT                                 
     0     -4.7054661     23  2.000                                             
     0     27.2116520     23  2.000                                             
     1      1.3605826     23  2.000                                             
     1     27.2116520     23  2.000                                             
     2     -1.3605826     23  2.000                                             
  local pseudopotential read in
  partial core-charges read in
  partial kinetic energy density read in
  atomic valenz-charges read in
  non local Contribution for L=           0  read in
    real space projection operators read in
  non local Contribution for L=           0  read in
    real space projection operators read in
  non local Contribution for L=           1  read in
    real space projection operators read in
  non local Contribution for L=           1  read in
    real space projection operators read in
  non local Contribution for L=           2  read in
    real space projection operators read in
    PAW grid and wavefunctions read in
 
   number of l-projection  operators is LMAX  =           5
   number of lm-projection operators is LMMAX =          13
 
 POTCAR:    PAW_PBE O 08Apr2002                   
   VRHFIN =O: s2p4                                                              
   LEXCH  = PE                                                                  
   EATOM  =   432.3788 eV,   31.7789 Ry                                         
                                                                                
   TITEL  = PAW_PBE O 08Apr2002                                                 
   LULTRA =        F    use ultrasoft PP ?                                      
   IUNSCR =        1    unscreen: 0-lin 1-nonlin 2-no                           
   RPACOR =    1.200    partial core radius                                     
   POMASS =   16.000; ZVAL   =    6.000    mass and valenz                      
   RCORE  =    1.520    outmost cutoff radius                                   
   RWIGS  =    1.550; RWIGS  =    0.820    wigner-seitz radius (au A)           
   ENMAX  =  400.000; ENMIN  =  300.000 eV                                      
   ICORE  =        2    local potential                                         
   LCOR   =        T    correct aug charges                                     
   LPAW   =        T    paw PP                                                  
   EAUG   =  605.392                                                            
   DEXC   =    0.000                                                            
   RMAX   =    1.553    core radius for proj-oper                               
   RAUG   =    1.300    factor for augmentation sphere                          
   RDEP   =    1.550    radius for radial grids                                 
   RDEPT  =    1.329    core radius for aug-charge                              
                                                                                
   Atomic configuration                                                         
    4 entries                                                                   
     n  l   j            E        occ.                                          
     1  0  0.50      -514.6923   2.0000                                         
     2  0  0.50       -23.9615   2.0000                                         
     2  1  0.50        -9.0305   4.0000                                         
     3  2  1.50        -9.5241   0.0000                                         
   Description                                                                  
     l       E           TYP  RCUT    TYP  RCUT                                 
     0    -23.9615318     23  1.200                                             
     0     -9.5240782     23  1.200                                             
     1     -9.0304911     23  1.520                                             
     1      8.1634956     23  1.520                                             
     2     -9.5240782      7  1.500                                             
  local pseudopotential read in
  partial core-charges read in
  partial kinetic energy density read in
  kinetic energy density of atom read in
  atomic valenz-charges read in
  non local Contribution for L=           0  read in
    real space projection operators read in
  non local Contribution for L=           0  read in
    real space projection operators read in
  non local Contribution for L=           1  read in
    real space projection operators read in
  non local Contribution for L=           1  read in
    real space projection operators read in
    PAW grid and wavefunctions read in
 
   number of l-projection  operators is LMAX  =           4
   number of lm-projection operators is LMMAX =           8
 

 ----------------------------------------------------------------------------- 
|                                                                             |
|  ADVICE TO THIS USER RUNNING 'VASP/VAMP'   (HEAR YOUR MASTER'S VOICE ...):  |
|                                                                             |
|      You have a (more or less) 'small supercell' and for smaller cells      |
|      it is recommended  to use the reciprocal-space projection scheme!      |
|      The real space optimization is not  efficient for small cells and it   |
|      is also less accurate ...                                              |
|      Therefore set LREAL=.FALSE. in the  INCAR file                         |
|                                                                             |
 ----------------------------------------------------------------------------- 

 Optimization of the real space projectors (new method)

 maximal supplied QI-value         = 18.90
 optimisation between [QCUT,QGAM] = [ 10.39, 20.98] = [ 30.25,123.21] Ry 
 Optimized for a Real-space Cutoff    1.27 Angstroem

   l    n(q)    QCUT    max X(q) W(low)/X(q) W(high)/X(q)  e(spline) 
   0      8    10.393    28.265    0.26E-03    0.29E-03    0.38E-07
   0      8    10.393    10.429    0.21E-03    0.23E-03    0.31E-07
   1      7    10.393    13.073    0.29E-03    0.30E-03    0.82E-07
   1      7    10.393     9.625    0.25E-03    0.24E-03    0.66E-07
   2      7    10.393     4.652    0.18E-03    0.37E-03    0.48E-07
 Optimization of the real space projectors (new method)

 maximal supplied QI-value         = 24.76
 optimisation between [QCUT,QGAM] = [ 10.40, 20.79] = [ 30.27,121.09] Ry 
 Optimized for a Real-space Cutoff    1.27 Angstroem

   l    n(q)    QCUT    max X(q) W(low)/X(q) W(high)/X(q)  e(spline) 
   0      8    10.397    20.381    0.43E-03    0.66E-03    0.18E-06
   0      8    10.397    15.268    0.46E-03    0.71E-03    0.19E-06
   1      7    10.397     5.964    0.48E-03    0.65E-03    0.12E-06
   1      7    10.397     5.382    0.40E-03    0.55E-03    0.11E-06
  PAW_PBE Mg 13Apr2007                  :
 energy of atom  1       EATOM=  -23.0369
 kinetic energy error for atom=    0.0001 (will be added to EATOM!!)
  PAW_PBE O 08Apr2002                   :
 energy of atom  2       EATOM= -432.3788
 kinetic energy error for atom=    0.0724 (will be added to EATOM!!)
 
 
 POSCAR: Mg O                                    
  positions in direct lattice
  velocities in cartesian coordinates
 exchange correlation table for  LEXCH =        8
   RHO(1)=    0.500       N(1)  =     2000
   RHO(2)=  100.500       N(2)  =     4000
 


--------------------------------------------------------------------------------------------------------


 ion  position               nearest neighbor table
   1  0.000  0.000  0.000-   2 2.12   2 2.12   2 2.12   2 2.12   2 2.12   2 2.12
   2  0.500  0.500  0.500-   1 2.12   1 2.12   1 2.12   1 2.12   1 2.12   1 2.12
 
  LATTYP: Found a face centered cubic cell.
 ALAT       =     4.2468930196
  
  Lattice vectors:
  
 A1 = (   0.0000000000,   2.1234465098,   2.1234465098)
 A2 = (   2.1234465098,   0.0000000000,   2.1234465098)
 A3 = (   2.1234465098,   2.1234465098,   0.0000000000)


Analysis of symmetry for initial positions (statically):
=====================================================================
 Subroutine PRICEL returns:
 Original cell was already a primitive cell.
 

 Routine SETGRP: Setting up the symmetry group for a 
 face centered cubic supercell.


 Subroutine GETGRP returns: Found 48 space group operations
 (whereof 48 operations were pure point group operations)
 out of a pool of 48 trial point group operations.


The static configuration has the point symmetry O_h .


Analysis of symmetry for dynamics (positions and initial velocities):
=====================================================================
 Subroutine PRICEL returns:
 Original cell was already a primitive cell.
 

 Routine SETGRP: Setting up the symmetry group for a 
 face centered cubic supercell.


 Subroutine GETGRP returns: Found 48 space group operations
 (whereof 48 operations were pure point group operations)
 out of a pool of 48 trial point group operations.


The dynamic configuration has the point symmetry O_h .


 Subroutine INISYM returns: Found 48 space group operations
 (whereof 48 operations are pure point group operations),
 and found     1 'primitive' translations

 
 

Automatic generation of k-mesh.
 generate k-points for:    6    6    6
Space group operators:
 irot       det(A)        alpha          n_x          n_y          n_z        tau_x        tau_y        tau_z
    1     1.000000     0.000000     1.000000     0.000000     0.000000     0.000000     0.000000     0.000000
    2    -1.000000     0.000000     1.000000     0.000000     0.000000     0.000000     0.000000     0.000000
    3     1.000000   120.000000    -0.577350    -0.577350    -0.577350     0.000000     0.000000     0.000000
    4    -1.000000   120.000000    -0.577350    -0.577350    -0.577350     0.000000     0.000000     0.000000
    5     1.000000   120.000000     0.577350     0.577350     0.577350     0.000000     0.000000     0.000000
    6    -1.000000   120.000000     0.577350     0.577350     0.577350     0.000000     0.000000     0.000000
    7     1.000000    90.000000     0.000000     0.000000    -1.000000     0.000000     0.000000     0.000000
    8    -1.000000    90.000000     0.000000     0.000000    -1.000000     0.000000     0.000000     0.000000
    9     1.000000   180.000000     0.000000     0.707107     0.707107     0.000000     0.000000     0.000000
   10    -1.000000   180.000000     0.000000     0.707107     0.707107     0.000000     0.000000     0.000000
   11     1.000000    90.000000     0.000000     1.000000     0.000000     0.000000     0.000000     0.000000
   12    -1.000000    90.000000     0.000000     1.000000     0.000000     0.000000     0.000000     0.000000
   13     1.000000   180.000000     0.000000     0.000000     1.000000     0.000000     0.000000     0.000000
   14    -1.000000   180.000000     0.000000     0.000000     1.000000     0.000000     0.000000     0.000000
   15     1.000000   120.000000    -0.577350     0.577350     0.577350     0.000000     0.000000     0.000000
   16    -1.000000   120.000000    -0.577350     0.577350     0.577350     0.000000     0.000000     0.000000
   17     1.000000   120.000000    -0.577350     0.577350    -0.577350     0.000000     0.000000     0.000000
   18    -1.000000   120.000000    -0.577350     0.577350    -0.577350     0.000000     0.000000     0.000000
   19     1.000000    90.000000     0.000000     0.000000     1.000000     0.000000     0.000000     0.000000
   20    -1.000000    90.000000     0.000000     0.000000     1.000000     0.000000     0.000000     0.000000
   21     1.000000    90.000000    -1.000000     0.000000     0.000000     0.000000     0.000000     0.000000
   22    -1.000000    90.000000    -1.000000     0.000000     0.000000     0.000000     0.000000     0.000000
   23     1.000000   180.000000     0.707107     0.000000     0.707107     0.000000     0.000000     0.000000
   24    -1.000000   180.000000     0.707107     0.000000     0.707107     0.000000     0.000000     0.000000
   25     1.000000   120.000000     0.577350    -0.577350     0.577350     0.000000     0.000000     0.000000
   26    -1.000000   120.000000     0.577350    -0.577350     0.577350     0.000000     0.000000     0.000000
   27     1.000000   120.000000    -0.577350    -0.577350     0.577350     0.000000     0.000000     0.000000
   28    -1.000000   120.000000    -0.577350    -0.577350     0.577350     0.000000     0.000000     0.000000
   29     1.000000   180.000000     1.000000     0.000000     0.000000     0.000000     0.000000     0.000000
   30    -1.000000   180.000000     1.000000     0.000000     0.000000     0.000000     0.000000     0.000000
   31     1.000000    90.000000     0.000000    -1.000000     0.000000     0.000000     0.000000     0.000000
   32    -1.000000    90.000000     0.000000    -1.000000     0.000000     0.000000     0.000000     0.000000
   33     1.000000   180.000000     0.707107     0.707107     0.000000     0.000000     0.000000     0.000000
   34    -1.000000   180.000000     0.707107     0.707107     0.000000     0.000000     0.000000     0.000000
   35     1.000000    90.000000     1.000000     0.000000     0.000000     0.000000     0.000000     0.000000
   36    -1.000000    90.000000     1.000000     0.000000     0.000000     0.000000     0.000000     0.000000
   37     1.000000   120.000000     0.577350    -0.577350    -0.577350     0.000000     0.000000     0.000000
   38    -1.000000   120.000000     0.577350    -0.577350    -0.577350     0.000000     0.000000     0.000000
   39     1.000000   180.000000     0.000000     1.000000     0.000000     0.000000     0.000000     0.000000
   40    -1.000000   180.000000     0.000000     1.000000     0.000000     0.000000     0.000000     0.000000
   41     1.000000   120.000000     0.577350     0.577350    -0.577350     0.000000     0.000000     0.000000
   42    -1.000000   120.000000     0.577350     0.577350    -0.577350     0.000000     0.000000     0.000000
   43     1.000000   180.000000     0.000000    -0.707107     0.707107     0.000000     0.000000     0.000000
   44    -1.000000   180.000000     0.000000    -0.707107     0.707107     0.000000     0.000000     0.000000
   45     1.000000   180.000000     0.707107    -0.707107     0.000000     0.000000     0.000000     0.000000
   46    -1.000000   180.000000     0.707107    -0.707107     0.000000     0.000000     0.000000     0.000000
   47     1.000000   180.000000     0.707107     0.000000    -0.707107     0.000000     0.000000     0.000000
   48    -1.000000   180.000000     0.707107     0.000000    -0.707107     0.000000     0.000000     0.000000
 
 Subroutine IBZKPT returns following result:
 ===========================================
 
 Found     16 irreducible k-points:
 
 Following reciprocal coordinates:
            Coordinates               Weight
  0.000000  0.000000  0.000000      1.000000
  0.166667  0.000000  0.000000      8.000000
  0.333333  0.000000  0.000000      8.000000
  0.500000  0.000000  0.000000      4.000000
  0.166667  0.166667  0.000000      6.000000
  0.333333  0.166667  0.000000     24.000000
  0.500000  0.166667  0.000000     24.000000
 -0.333333  0.166667  0.000000     24.000000
 -0.166667  0.166667  0.000000     12.000000
  0.333333  0.333333  0.000000      6.000000
  0.500000  0.333333  0.000000     24.000000
 -0.333333  0.333333  0.000000     12.000000
  0.500000  0.500000  0.000000      3.000000
  0.500000  0.333333  0.166667     24.000000
 -0.333333  0.333333  0.166667     24.000000
 -0.333333  0.500000  0.166667     12.000000
 
 Following cartesian coordinates:
            Coordinates               Weight
  0.000000  0.000000  0.000000      1.000000
 -0.039244  0.039244  0.039244      8.000000
 -0.078489  0.078489  0.078489      8.000000
 -0.117733  0.117733  0.117733      4.000000
  0.000000  0.000000  0.078489      6.000000
 -0.039244  0.039244  0.117733     24.000000
 -0.078489  0.078489  0.156978     24.000000
  0.117733 -0.117733 -0.039244     24.000000
  0.078489 -0.078489  0.000000     12.000000
  0.000000  0.000000  0.156978      6.000000
 -0.039244  0.039244  0.196222     24.000000
  0.156978 -0.156978  0.000000     12.000000
  0.000000  0.000000  0.235466      3.000000
  0.000000  0.078489  0.156978     24.000000
  0.196222 -0.117733 -0.039244     24.000000
  0.235466 -0.156978  0.000000     12.000000
 


--------------------------------------------------------------------------------------------------------




 Dimension of arrays:
   k-points           NKPTS =     16   k-points in BZ     NKDIM =     16   number of bands    NBANDS=      8
   number of dos      NEDOS =    301   number of ions     NIONS =      2
   non local maximal  LDIM  =      5   non local SUM 2l+1 LMDIM =     13
   total plane-waves  NPLWV =   4096
   max r-space proj   IRMAX =   1884   max aug-charges    IRDMAX=   9285
   dimension x,y,z NGX =    16 NGY =   16 NGZ =   16
   dimension x,y,z NGXF=    32 NGYF=   32 NGZF=   32
   support grid    NGXF=    32 NGYF=   32 NGZF=   32
   ions per type =               1   1
 NGX,Y,Z   is equivalent  to a cutoff of   8.86,  8.86,  8.86 a.u.
 NGXF,Y,Z  is equivalent  to a cutoff of  17.72, 17.72, 17.72 a.u.


 I would recommend the setting:
   dimension x,y,z NGX =    15 NGY =   15 NGZ =   15
 SYSTEM =  unknown system                          
 POSCAR =  Mg O                                    

 Startparameter for this run:
   NWRITE =      2    write-flag & timer
   PREC   = n         normal or accurate (medium, high low for compatibility)
   ISTART =      0    job   : 0-new  1-cont  2-samecut
   ICHARG =      2    charge: 1-file 2-atom 10-const
   ISPIN  =      1    spin polarized calculation?
   LNONCOLLINEAR =      F non collinear calculations
   LSORBIT =      F    spin-orbit coupling
   INIWAV =      1    electr: 0-lowe 1-rand  2-diag
   LASPH  =      T    aspherical Exc in radial PAW
   METAGGA=      F    non-selfconsistent MetaGGA calc.

 Electronic Relaxation 1
   ENCUT  =  420.0 eV  30.87 Ry    5.56 a.u.   5.02  5.02  5.02*2*pi/ulx,y,z
   ENINI  =  420.0     initial cutoff
   ENAUG  =  605.4 eV  augmentation charge cutoff
   NELM   =    100;   NELMIN=  4; NELMDL= -5     # of ELM steps 
   EDIFF  = 0.1E-05   stopping-criterion for ELM
   LREAL  =      T    real-space projection
   NLSPLINE    = F    spline interpolate recip. space projectors
   LCOMPAT=      F    compatible to vasp.4.4
   GGA_COMPAT  = T    GGA compatible to vasp.4.4-vasp.4.6
   LMAXPAW     = -100 max onsite density
   LMAXMIX     =    2 max onsite mixed and CHGCAR
   VOSKOWN=      0    Vosko Wilk Nusair interpolation
   ROPT   =   -0.00050  -0.00050
 Ionic relaxation
   EDIFFG = -.5E-01   stopping-criterion for IOM
   NSW    =      1    number of steps for IOM
   NBLOCK =      1;   KBLOCK =      1    inner block; outer block 
   IBRION =      2    ionic relax: 0-MD 1-quasi-New 2-CG
   NFREE  =      1    steps in history (QN), initial steepest desc. (CG)
   ISIF   =      0    stress and relaxation
   IWAVPR =     11    prediction:  0-non 1-charg 2-wave 3-comb
   ISYM   =      2    0-nonsym 1-usesym 2-fastsym
   LCORR  =      T    Harris-Foulkes like correction to forces

   POTIM  = 0.5000    time-step for ionic-motion
   TEIN   =    0.0    initial temperature
   TEBEG  =    0.0;   TEEND  =   0.0 temperature during run
   SMASS  =  -3.00    Nose mass-parameter (am)
   estimated Nose-frequenzy (Omega)   =  0.10E-29 period in steps =****** mass=  -0.206E-27a.u.
   SCALEE = 1.0000    scale energy and forces
   NPACO  =    256;   APACO  = 16.0  distance and # of slots for P.C.
   PSTRESS=    0.0 pullay stress

  Mass of Ions in am
   POMASS =  24.30 16.00
  Ionic Valenz
   ZVAL   =   2.00  6.00
  Atomic Wigner-Seitz radii
   RWIGS  =  -1.00 -1.00
  virtual crystal weights 
   VCA    =   1.00  1.00
   NELECT =       8.0000    total number of electrons
   NUPDOWN=      -1.0000    fix difference up-down

 DOS related values:
   EMIN   =  10.00;   EMAX   =-10.00  energy-range for DOS
   EFERMI =   0.00
   ISMEAR =     0;   SIGMA  =   0.05  broadening in eV -4-tet -1-fermi 0-gaus

 Electronic relaxation 2 (details)
   IALGO  =     38    algorithm
   LDIAG  =      T    sub-space diagonalisation (order eigenvalues)
   LSUBROT=      F    optimize rotation matrix (better conditioning)
   TURBO    =      0    0=normal 1=particle mesh
   IRESTART =      0    0=no restart 2=restart with 2 vectors
   NREBOOT  =      0    no. of reboots
   NMIN     =      0    reboot dimension
   EREF     =   0.00    reference energy to select bands
   IMIX   =      4    mixing-type and parameters
     AMIX     =   0.40;   BMIX     =  1.00
     AMIX_MAG =   1.60;   BMIX_MAG =  1.00
     AMIN     =   0.10
     WC   =   100.;   INIMIX=   1;  MIXPRE=   1;  MAXMIX= -45

 Intra band minimization:
   WEIMIN = 0.0010     energy-eigenvalue tresh-hold
   EBREAK =  0.31E-07  absolut break condition
   DEPER  =   0.30     relativ break condition  

   TIME   =   0.40     timestep for ELM

  volume/ion in A,a.u.               =       9.57        64.61
  Fermi-wavevector in a.u.,A,eV,Ry     =   1.223827  2.312698 20.378173  1.497753
  Thomas-Fermi vector in A             =   2.358924
 
 Write flags
   LWAVE  =      F    write WAVECAR
   LCHARG =      F    write CHGCAR
   LVTOT  =      F    write LOCPOT, total local potential
   LVHAR  =      F    write LOCPOT, Hartree potential only
   LELF   =      F    write electronic localiz. function (ELF)
   LORBIT =      0    0 simple, 1 ext, 2 COOP (PROOUT)


 Dipole corrections
   LMONO  =      F    monopole corrections only (constant potential shift)
   LDIPOL =      F    correct potential (dipole corrections)
   IDIPOL =      0    1-x, 2-y, 3-z, 4-all directions 
   EPSILON=  1.0000000 bulk dielectric constant

 Exchange correlation treatment:
   GGA     =    --    GGA type
   LEXCH   =     8    internal setting for exchange type
   VOSKOWN=      0    Vosko Wilk Nusair interpolation
   LHFCALC =     F    Hartree Fock is set to
   LHFONE  =     F    Hartree Fock one center treatment
   AEXX    =    0.0000 exact exchange contribution

 Linear response parameters
   LEPSILON=     F    determine dielectric tensor
   LRPA    =     F    only Hartree local field effects (RPA)
   LNABLA  =     F    use nabla operator in PAW spheres
   LVEL    =     F    velocity operator in full k-point grid
   LINTERFAST=   F  fast interpolation
   KINTER  =     0    interpolate to denser k-point grid
   CSHIFT  =0.1000    complex shift for real part using Kramers Kronig
   OMEGAMAX=  -1.0    maximum frequency
   DEG_THRESHOLD= 0.2000000E-02 threshold for treating states as degnerate
   RTIME   =    0.100 relaxation time in fs

 Orbital magnetization related:
   ORBITALMAG=     F  switch on orbital magnetization
   LCHIMAG   =     F  perturbation theory with respect to B field
   DQ        =  0.001000  dq finite difference perturbation B field



--------------------------------------------------------------------------------------------------------


 conjugate gradient relaxation of ions
 charge density and potential will be updated during run
 non-spin polarized calculation
 Variant of blocked Davidson
 Davidson routine will perform the subspace rotation
 perform sub-space diagonalisation
    after iterative eigenvector-optimisation
 modified Broyden-mixing scheme, WC =      100.0
 initial mixing is a Kerker type mixing with AMIX =  0.4000 and BMIX =      1.0000
 Hartree-type preconditioning will be used
 using additional bands            4
 real space projection scheme for non local part
 use partial core corrections
 calculate Harris-corrections to forces 
   (improved forces if not selfconsistent)
 use gradient corrections 
 use of overlap-Matrix (Vanderbilt PP)
 Gauss-broadening in eV      SIGMA  =   0.05


--------------------------------------------------------------------------------------------------------


  energy-cutoff  :      420.00
  volume of cell :       19.15
      direct lattice vectors                 reciprocal lattice vectors
     0.000000000  2.123446510  2.123446510    -0.235466256  0.235466256  0.235466256
     2.123446510  0.000000000  2.123446510     0.235466256 -0.235466256  0.235466256
     2.123446510  2.123446510  0.000000000     0.235466256  0.235466256 -0.235466256

  length of vectors
     3.003006853  3.003006853  3.003006853     0.407839519  0.407839519  0.407839519


 
 k-points in units of 2pi/SCALE and weight: read from INCAR                         
   0.00000000  0.00000000  0.00000000       0.005
  -0.03924438  0.03924438  0.03924438       0.037
  -0.07848875  0.07848875  0.07848875       0.037
  -0.11773313  0.11773313  0.11773313       0.019
   0.00000000  0.00000000  0.07848875       0.028
  -0.03924438  0.03924438  0.11773313       0.111
  -0.07848875  0.07848875  0.15697750       0.111
   0.11773313 -0.11773313 -0.03924438       0.111
   0.07848875 -0.07848875  0.00000000       0.056
   0.00000000  0.00000000  0.15697750       0.028
  -0.03924438  0.03924438  0.19622188       0.111
   0.15697750 -0.15697750  0.00000000       0.056
   0.00000000  0.00000000  0.23546626       0.014
   0.00000000  0.07848875  0.15697750       0.111
   0.19622188 -0.11773313 -0.03924438       0.111
   0.23546626 -0.15697750  0.00000000       0.056
 
 k-points in reciprocal lattice and weights: read from INCAR                         
   0.00000000  0.00000000  0.00000000       0.005
   0.16666667  0.00000000  0.00000000       0.037
   0.33333333  0.00000000  0.00000000       0.037
   0.50000000  0.00000000  0.00000000       0.019
   0.16666667  0.16666667  0.00000000       0.028
   0.33333333  0.16666667  0.00000000       0.111
   0.50000000  0.16666667  0.00000000       0.111
  -0.33333333  0.16666667  0.00000000       0.111
  -0.16666667  0.16666667  0.00000000       0.056
   0.33333333  0.33333333  0.00000000       0.028
   0.50000000  0.33333333  0.00000000       0.111
  -0.33333333  0.33333333  0.00000000       0.056
   0.50000000  0.50000000  0.00000000       0.014
   0.50000000  0.33333333  0.16666667       0.111
  -0.33333333  0.33333333  0.16666667       0.111
  -0.33333333  0.50000000  0.16666667       0.056
 
 position of ions in fractional coordinates (direct lattice) 
   0.00000000  0.00000000  0.00000000
   0.50000000  0.50000000  0.50000000
 
 position of ions in cartesian coordinates  (Angst):
   0.00000000  0.00000000  0.00000000
   2.12344651  2.12344651  2.12344651
 


--------------------------------------------------------------------------------------------------------


 k-point  1 :   0.0000 0.0000 0.0000  plane waves:     339
 k-point  2 :   0.1667 0.0000 0.0000  plane waves:     362
 k-point  3 :   0.3333 0.0000 0.0000  plane waves:     359
 k-point  4 :   0.5000 0.0000 0.0000  plane waves:     368
 k-point  5 :   0.1667 0.1667 0.0000  plane waves:     355
 k-point  6 :   0.3333 0.1667 0.0000  plane waves:     375
 k-point  7 :   0.5000 0.1667 0.0000  plane waves:     381
 k-point  8 :  -0.3333 0.1667 0.0000  plane waves:     373
 k-point  9 :  -0.1667 0.1667 0.0000  plane waves:     371
 k-point 10 :   0.3333 0.3333 0.0000  plane waves:     379
 k-point 11 :   0.5000 0.3333 0.0000  plane waves:     376
 k-point 12 :  -0.3333 0.3333 0.0000  plane waves:     383
 k-point 13 :   0.5000 0.5000 0.0000  plane waves:     388
 k-point 14 :   0.5000 0.3333 0.1667  plane waves:     376
 k-point 15 :  -0.3333 0.3333 0.1667  plane waves:     384
 k-point 16 :  -0.3333 0.5000 0.1667  plane waves:     374

 maximum and minimum number of plane-waves per node :       388      339

 maximum number of plane-waves:       388
 maximum index in each direction: 
   IXMAX=    5   IYMAX=    4   IZMAX=    5
   IXMIN=   -5   IYMIN=   -5   IZMIN=   -5

 WARNING: aliasing errors must be expected set NGX to  22 to avoid them
 WARNING: aliasing errors must be expected set NGY to  20 to avoid them
 WARNING: aliasing errors must be expected set NGZ to  22 to avoid them
 aliasing errors are usually negligible using standard VASP settings
 and one can safely disregard these warnings

 serial   3D FFT for wavefunctions
 parallel 3D FFT for charge:
    minimum data exchange during FFTs selected (reduces bandwidth)


 total amount of memory used by VASP on root node    31558. kBytes
========================================================================

   base      :      30000. kBytes
   nonlr-proj:        383. kBytes
   fftplans  :        302. kBytes
   grid      :        647. kBytes
   one-center:         16. kBytes
   wavefun   :        210. kBytes
 
     INWAV:  cpu time    0.0000: real time    0.0000
 Broyden mixing: mesh for mixing (old mesh)
   NGX =  9   NGY =  9   NGZ =  9
  (NGX  = 32   NGY  = 32   NGZ  = 32)
  gives a total of    729 points

 initial charge density was supplied:
 charge density of overlapping atoms calculated
 number of electron       8.0000000 magnetization 
 keeping initial charge density in first step


--------------------------------------------------------------------------------------------------------


 Maximum index for non-local projection operator         1745
 Maximum index for augmentation-charges         2211 (set IRDMAX)


--------------------------------------------------------------------------------------------------------


 First call to EWALD:  gamma=   0.663
 Maximum number of real-space cells 3x 3x 3
 Maximum number of reciprocal cells 3x 3x 3

 FEWALD executed in parallel
    FEWALD:  cpu time    0.0040: real time    0.0009


----------------------------------------- Iteration    1(   1)  ---------------------------------------


    POTLOK:  cpu time    0.0040: real time    0.0028
    SETDIJ:  cpu time    0.0920: real time    0.0923
     EDDAV:  cpu time    0.0200: real time    0.0234
       DOS:  cpu time    0.0000: real time    0.0001
    --------------------------------------------
      LOOP:  cpu time    0.1160: real time    0.1392

 eigenvalue-minimisations  :   336
 total energy-change (2. order) : 0.4291283E+01  (-0.4371282E+03)
 number of electron       8.0000000 magnetization 
 augmentation part        8.0000000 magnetization 

 Free energy of the ion-electron system (eV)
  ---------------------------------------------------
  alpha Z        PSCENC =        19.07613066
  Ewald energy   TEWEN  =      -355.25355161
  -Hartree energ DENC   =      -122.45499000
  -exchange      EXHF   =         0.00000000
  -V(xc)+E(xc)   XCENC  =       -20.50734237
  PAW double counting   =       411.85617216     -361.79210629
  entropy T*S    EENTRO =        -0.00311728
  eigenvalues    EBANDS =       -21.97312108
  atomic energy  EATOM  =       455.34320881
  Solvation  Ediel_sol  =         0.00000000
  ---------------------------------------------------
  free energy    TOTEN  =         4.29128300 eV

  energy without entropy =        4.29440027  energy(sigma->0) =        4.29284163


--------------------------------------------------------------------------------------------------------




----------------------------------------- Iteration    1(   2)  ---------------------------------------


     EDDAV:  cpu time    0.0240: real time    0.0228
       DOS:  cpu time    0.0000: real time    0.0000
    --------------------------------------------
      LOOP:  cpu time    0.0240: real time    0.0494

 eigenvalue-minimisations  :   336
 total energy-change (2. order) :-0.1756261E+02  (-0.1646263E+02)
 number of electron       8.0000000 magnetization 
 augmentation part        8.0000000 magnetization 

 Free energy of the ion-electron system (eV)
  ---------------------------------------------------
  alpha Z        PSCENC =        19.07613066
  Ewald energy   TEWEN  =      -355.25355161
  -Hartree energ DENC   =      -122.45499000
  -exchange      EXHF   =         0.00000000
  -V(xc)+E(xc)   XCENC  =       -20.50734237
  PAW double counting   =       411.85617216     -361.79210629
  entropy T*S    EENTRO =        -0.00000000
  eigenvalues    EBANDS =       -39.53885238
  atomic energy  EATOM  =       455.34320881
  Solvation  Ediel_sol  =         0.00000000
  ---------------------------------------------------
  free energy    TOTEN  =       -13.27133103 eV

  energy without entropy =      -13.27133103  energy(sigma->0) =      -13.27133103


--------------------------------------------------------------------------------------------------------




----------------------------------------- Iteration    1(   3)  ---------------------------------------


     EDDAV:  cpu time    0.0240: real time    0.0219
       DOS:  cpu time    0.0000: real time    0.0000
    --------------------------------------------
      LOOP:  cpu time    0.0240: real time    0.0502

 eigenvalue-minimisations  :   320
 total energy-change (2. order) :-0.1915009E+00  (-0.1915009E+00)
 number of electron       8.0000000 magnetization 
 augmentation part        8.0000000 magnetization 

 Free energy of the ion-electron system (eV)
  ---------------------------------------------------
  alpha Z        PSCENC =        19.07613066
  Ewald energy   TEWEN  =      -355.25355161
  -Hartree energ DENC   =      -122.45499000
  -exchange      EXHF   =         0.00000000
  -V(xc)+E(xc)   XCENC  =       -20.50734237
  PAW double counting   =       411.85617216     -361.79210629
  entropy T*S    EENTRO =        -0.00000000
  eigenvalues    EBANDS =       -39.73035331
  atomic energy  EATOM  =       455.34320881
  Solvation  Ediel_sol  =         0.00000000
  ---------------------------------------------------
  free energy    TOTEN  =       -13.46283196 eV

  energy without entropy =      -13.46283196  energy(sigma->0) =      -13.46283196


--------------------------------------------------------------------------------------------------------




----------------------------------------- Iteration    1(   4)  ---------------------------------------


     EDDAV:  cpu time    0.0240: real time    0.0231
       DOS:  cpu time    0.0000: real time    0.0000
    --------------------------------------------
      LOOP:  cpu time    0.0240: real time    0.0504

 eigenvalue-minimisations  :   344
 total energy-change (2. order) :-0.2327911E-03  (-0.2327911E-03)
 number of electron       8.0000000 magnetization 
 augmentation part        8.0000000 magnetization 

 Free energy of the ion-electron system (eV)
  ---------------------------------------------------
  alpha Z        PSCENC =        19.07613066
  Ewald energy   TEWEN  =      -355.25355161
  -Hartree energ DENC   =      -122.45499000
  -exchange      EXHF   =         0.00000000
  -V(xc)+E(xc)   XCENC  =       -20.50734237
  PAW double counting   =       411.85617216     -361.79210629
  entropy T*S    EENTRO =        -0.00000000
  eigenvalues    EBANDS =       -39.73058610
  atomic energy  EATOM  =       455.34320881
  Solvation  Ediel_sol  =         0.00000000
  ---------------------------------------------------
  free energy    TOTEN  =       -13.46306475 eV

  energy without entropy =      -13.46306475  energy(sigma->0) =      -13.46306475


--------------------------------------------------------------------------------------------------------




----------------------------------------- Iteration    1(   5)  ---------------------------------------


     EDDAV:  cpu time    0.0200: real time    0.0221
       DOS:  cpu time    0.0000: real time    0.0000
    CHARGE:  cpu time    0.0040: real time    0.0014
    MIXING:  cpu time    0.0000: real time    0.0001
    --------------------------------------------
      LOOP:  cpu time    0.0240: real time    0.0506

 eigenvalue-minimisations  :   328
 total energy-change (2. order) :-0.9348241E-07  (-0.9348259E-07)
 number of electron       8.0000011 magnetization 
 augmentation part        0.7988616 magnetization 

 Broyden mixing:
  rms(total) = 0.71181E+00    rms(broyden)= 0.71146E+00
  rms(prec ) = 0.27753E+01
  weight for this iteration     100.00

 Free energy of the ion-electron system (eV)
  ---------------------------------------------------
  alpha Z        PSCENC =        19.07613066
  Ewald energy   TEWEN  =      -355.25355161
  -Hartree energ DENC   =      -122.45499000
  -exchange      EXHF   =         0.00000000
  -V(xc)+E(xc)   XCENC  =       -20.50734237
  PAW double counting   =       411.85617216     -361.79210629
  entropy T*S    EENTRO =        -0.00000000
  eigenvalues    EBANDS =       -39.73058619
  atomic energy  EATOM  =       455.34320881
  Solvation  Ediel_sol  =         0.00000000
  ---------------------------------------------------
  free energy    TOTEN  =       -13.46306484 eV

  energy without entropy =      -13.46306484  energy(sigma->0) =      -13.46306484


--------------------------------------------------------------------------------------------------------




----------------------------------------- Iteration    1(   6)  ---------------------------------------


    POTLOK:  cpu time    0.0000: real time    0.0024
    SETDIJ:  cpu time    0.0920: real time    0.0917
     EDDAV:  cpu time    0.0200: real time    0.0178
       DOS:  cpu time    0.0000: real time    0.0001
    CHARGE:  cpu time    0.0000: real time    0.0014
    MIXING:  cpu time    0.0000: real time    0.0002
    --------------------------------------------
      LOOP:  cpu time    0.1120: real time    0.1405

 eigenvalue-minimisations  :   256
 total energy-change (2. order) : 0.1516394E+01  (-0.9960030E+00)
 number of electron       8.0000009 magnetization 
 augmentation part        0.6581767 magnetization 

 Broyden mixing:
  rms(total) = 0.23042E+00    rms(broyden)= 0.22975E+00
  rms(prec ) = 0.56886E+00
  weight for this iteration     100.00

 eigenvalues of (default mixing * dielectric matrix)
  average eigenvalue GAMMA=   0.8508
  0.8508

 Free energy of the ion-electron system (eV)
  ---------------------------------------------------
  alpha Z        PSCENC =        19.07613066
  Ewald energy   TEWEN  =      -355.25355161
  -Hartree energ DENC   =      -140.91377824
  -exchange      EXHF   =         0.00000000
  -V(xc)+E(xc)   XCENC  =       -19.20626093
  PAW double counting   =       486.41903150     -436.68957892
  entropy T*S    EENTRO =        -0.00000000
  eigenvalues    EBANDS =       -20.72187260
  atomic energy  EATOM  =       455.34320881
  Solvation  Ediel_sol  =         0.00000000
  ---------------------------------------------------
  free energy    TOTEN  =       -11.94667133 eV

  energy without entropy =      -11.94667133  energy(sigma->0) =      -11.94667133


--------------------------------------------------------------------------------------------------------




----------------------------------------- Iteration    1(   7)  ---------------------------------------


    POTLOK:  cpu time    0.0040: real time    0.0024
    SETDIJ:  cpu time    0.0920: real time    0.0920
     EDDAV:  cpu time    0.0160: real time    0.0183
       DOS:  cpu time    0.0000: real time    0.0000
    CHARGE:  cpu time    0.0040: real time    0.0014
    MIXING:  cpu time    0.0000: real time    0.0002
    --------------------------------------------
      LOOP:  cpu time    0.1160: real time    0.1415

 eigenvalue-minimisations  :   264
 total energy-change (2. order) : 0.1590338E-01  (-0.4487761E-02)
 number of electron       8.0000009 magnetization 
 augmentation part        0.6630418 magnetization 

 Broyden mixing:
  rms(total) = 0.13286E+00    rms(broyden)= 0.13284E+00
  rms(prec ) = 0.35258E+00
  weight for this iteration     100.00

 eigenvalues of (default mixing * dielectric matrix)
  average eigenvalue GAMMA=   1.7935
  0.9605  2.6266

 Free energy of the ion-electron system (eV)
  ---------------------------------------------------
  alpha Z        PSCENC =        19.07613066
  Ewald energy   TEWEN  =      -355.25355161
  -Hartree energ DENC   =      -140.92408106
  -exchange      EXHF   =         0.00000000
  -V(xc)+E(xc)   XCENC  =       -19.16359507
  PAW double counting   =       512.24137018     -462.47269707
  entropy T*S    EENTRO =        -0.00000000
  eigenvalues    EBANDS =       -20.77755279
  atomic energy  EATOM  =       455.34320881
  Solvation  Ediel_sol  =         0.00000000
  ---------------------------------------------------
  free energy    TOTEN  =       -11.93076795 eV

  energy without entropy =      -11.93076795  energy(sigma->0) =      -11.93076795


--------------------------------------------------------------------------------------------------------




----------------------------------------- Iteration    1(   8)  ---------------------------------------


    POTLOK:  cpu time    0.0000: real time    0.0024
    SETDIJ:  cpu time    0.0920: real time    0.0921
     EDDAV:  cpu time    0.0200: real time    0.0177
       DOS:  cpu time    0.0000: real time    0.0000
    CHARGE:  cpu time    0.0000: real time    0.0014
    MIXING:  cpu time    0.0000: real time    0.0002
    --------------------------------------------
      LOOP:  cpu time    0.1120: real time    0.1443

 eigenvalue-minimisations  :   256
 total energy-change (2. order) : 0.6178343E-02  (-0.2519151E-02)
 number of electron       8.0000009 magnetization 
 augmentation part        0.6640517 magnetization 

 Broyden mixing:
  rms(total) = 0.15630E-01    rms(broyden)= 0.15627E-01
  rms(prec ) = 0.29969E-01
  weight for this iteration     100.00

 eigenvalues of (default mixing * dielectric matrix)
  average eigenvalue GAMMA=   1.4172
  2.5459  0.9492  0.7565

 Free energy of the ion-electron system (eV)
  ---------------------------------------------------
  alpha Z        PSCENC =        19.07613066
  Ewald energy   TEWEN  =      -355.25355161
  -Hartree energ DENC   =      -142.36619104
  -exchange      EXHF   =         0.00000000
  -V(xc)+E(xc)   XCENC  =       -18.97188192
  PAW double counting   =       559.89025944     -510.08928602
  entropy T*S    EENTRO =        -0.00000000
  eigenvalues    EBANDS =       -19.55327794
  atomic energy  EATOM  =       455.34320881
  Solvation  Ediel_sol  =         0.00000000
  ---------------------------------------------------
  free energy    TOTEN  =       -11.92458961 eV

  energy without entropy =      -11.92458961  energy(sigma->0) =      -11.92458961


--------------------------------------------------------------------------------------------------------




----------------------------------------- Iteration    1(   9)  ---------------------------------------


    POTLOK:  cpu time    0.0040: real time    0.0024
    SETDIJ:  cpu time    0.0920: real time    0.0919
     EDDAV:  cpu time    0.0200: real time    0.0232
       DOS:  cpu time    0.0000: real time    0.0000
    CHARGE:  cpu time    0.0040: real time    0.0014
    MIXING:  cpu time    0.0000: real time    0.0002
    --------------------------------------------
      LOOP:  cpu time    0.1200: real time    0.1456

 eigenvalue-minimisations  :   344
 total energy-change (2. order) : 0.8557559E-04  (-0.3283436E-04)
 number of electron       8.0000009 magnetization 
 augmentation part        0.6632966 magnetization 

 Broyden mixing:
  rms(total) = 0.80194E-02    rms(broyden)= 0.80185E-02
  rms(prec ) = 0.14090E-01
  weight for this iteration     100.00

 eigenvalues of (default mixing * dielectric matrix)
  average eigenvalue GAMMA=   1.8054
  0.9747  0.9747  2.7419  2.5301

 Free energy of the ion-electron system (eV)
  ---------------------------------------------------
  alpha Z        PSCENC =        19.07613066
  Ewald energy   TEWEN  =      -355.25355161
  -Hartree energ DENC   =      -142.41679172
  -exchange      EXHF   =         0.00000000
  -V(xc)+E(xc)   XCENC  =       -18.96990760
  PAW double counting   =       556.65411789     -506.85795520
  entropy T*S    EENTRO =        -0.00000000
  eigenvalues    EBANDS =       -19.49975526
  atomic energy  EATOM  =       455.34320881
  Solvation  Ediel_sol  =         0.00000000
  ---------------------------------------------------
  free energy    TOTEN  =       -11.92450404 eV

  energy without entropy =      -11.92450404  energy(sigma->0) =      -11.92450404


--------------------------------------------------------------------------------------------------------




----------------------------------------- Iteration    1(  10)  ---------------------------------------


    POTLOK:  cpu time    0.0040: real time    0.0024
    SETDIJ:  cpu time    0.0880: real time    0.0919
     EDDAV:  cpu time    0.0200: real time    0.0182
       DOS:  cpu time    0.0000: real time    0.0001
    CHARGE:  cpu time    0.0000: real time    0.0014
    MIXING:  cpu time    0.0000: real time    0.0002
    --------------------------------------------
      LOOP:  cpu time    0.1120: real time    0.1414

 eigenvalue-minimisations  :   264
 total energy-change (2. order) :-0.1216927E-03  (-0.1598277E-04)
 number of electron       8.0000009 magnetization 
 augmentation part        0.6630785 magnetization 

 Broyden mixing:
  rms(total) = 0.57068E-03    rms(broyden)= 0.56957E-03
  rms(prec ) = 0.11953E-02
  weight for this iteration     100.00

 eigenvalues of (default mixing * dielectric matrix)
  average eigenvalue GAMMA=   1.6512
  2.8036  2.4870  0.9870  0.9870  0.9916

 Free energy of the ion-electron system (eV)
  ---------------------------------------------------
  alpha Z        PSCENC =        19.07613066
  Ewald energy   TEWEN  =      -355.25355161
  -Hartree energ DENC   =      -142.42359187
  -exchange      EXHF   =         0.00000000
  -V(xc)+E(xc)   XCENC  =       -18.96653384
  PAW double counting   =       551.01759269     -501.22761351
  entropy T*S    EENTRO =        -0.00000000
  eigenvalues    EBANDS =       -19.49026706
  atomic energy  EATOM  =       455.34320881
  Solvation  Ediel_sol  =         0.00000000
  ---------------------------------------------------
  free energy    TOTEN  =       -11.92462573 eV

  energy without entropy =      -11.92462573  energy(sigma->0) =      -11.92462573


--------------------------------------------------------------------------------------------------------




----------------------------------------- Iteration    1(  11)  ---------------------------------------


    POTLOK:  cpu time    0.0000: real time    0.0025
    SETDIJ:  cpu time    0.0920: real time    0.0920
     EDDAV:  cpu time    0.0240: real time    0.0219
       DOS:  cpu time    0.0000: real time    0.0000
    --------------------------------------------
      LOOP:  cpu time    0.1200: real time    0.1494

 eigenvalue-minimisations  :   320
 total energy-change (2. order) :-0.3472119E-06  (-0.8284649E-07)
 number of electron       8.0000009 magnetization 
 augmentation part        0.6630785 magnetization 

 Free energy of the ion-electron system (eV)
  ---------------------------------------------------
  alpha Z        PSCENC =        19.07613066
  Ewald energy   TEWEN  =      -355.25355161
  -Hartree energ DENC   =      -142.43046088
  -exchange      EXHF   =         0.00000000
  -V(xc)+E(xc)   XCENC  =       -18.96587915
  PAW double counting   =       551.22644938     -501.43638530
  entropy T*S    EENTRO =        -0.00000000
  eigenvalues    EBANDS =       -19.48413798
  atomic energy  EATOM  =       455.34320881
  Solvation  Ediel_sol  =         0.00000000
  ---------------------------------------------------
  free energy    TOTEN  =       -11.92462608 eV

  energy without entropy =      -11.92462608  energy(sigma->0) =      -11.92462608


--------------------------------------------------------------------------------------------------------




 average (electrostatic) potential at core
  the test charge radii are     1.0714  0.7215
  (the norm of the test charge is              1.0000)
       1 -35.2924       2 -69.7820
 
 
 
 E-fermi :   3.2355     XC(G=0): -10.9602     alpha+bet :-12.8395


 k-point     1 :       0.0000    0.0000    0.0000
  band No.  band energies     occupation 
      1     -14.1311      2.00000
      2       3.0051      2.00000
      3       3.0054      2.00000
      4       3.0054      2.00000
      5       7.4955      0.00000
      6      18.6693      0.00000
      7      18.6693      0.00000
      8      18.6693      0.00000

 k-point     2 :       0.1667    0.0000    0.0000
  band No.  band energies     occupation 
      1     -13.8633      2.00000
      2       1.5096      2.00000
      3       2.8343      2.00000
      4       2.8346      2.00000
      5       8.9216      0.00000
      6      16.3456      0.00000
      7      19.2141      0.00000
      8      19.2141      0.00000

 k-point     3 :       0.3333    0.0000    0.0000
  band No.  band energies     occupation 
      1     -13.2572      2.00000
      2      -0.5922      2.00000
      3       2.5230      2.00000
      4       2.5232      2.00000
      5      10.4782      0.00000
      6      15.1304      0.00000
      7      19.3491      0.00000
      8      19.3491      0.00000

 k-point     4 :       0.5000    0.0000    0.0000
  band No.  band energies     occupation 
      1     -12.9122      2.00000
      2      -1.5084      2.00000
      3       2.3758      2.00000
      4       2.3760      2.00000
      5      10.7476      0.00000
      6      15.3406      0.00000
      7      19.0648      0.00000
      8      19.0648      0.00000

 k-point     5 :       0.1667    0.1667    0.0000
  band No.  band energies     occupation 
      1     -13.7793      2.00000
      2       1.4339      2.00000
      3       2.6271      2.00000
      4       2.6272      2.00000
      5       9.3982      0.00000
      6      15.6322      0.00000
      7      19.4776      0.00000
      8      19.4777      0.00000

 k-point     6 :       0.3333    0.1667    0.0000
  band No.  band energies     occupation 
      1     -13.2998      2.00000
      2      -0.0235      2.00000
      3       2.1620      2.00000
      4       2.3056      2.00000
      5      11.0687      0.00000
      6      14.4320      0.00000
      7      18.0383      0.00000
      8      19.9453      0.00000

 k-point     7 :       0.5000    0.1667    0.0000
  band No.  band energies     occupation 
      1     -12.8582      2.00000
      2      -1.0704      2.00000
      3       1.6037      2.00000
      4       2.1878      2.00000
      5      11.8260      0.00000
      6      14.9671      0.00000
      7      16.9995      0.00000
      8      19.7147      0.00000

 k-point     8 :      -0.3333    0.1667    0.0000
  band No.  band energies     occupation 
      1     -12.9631      2.00000
      2      -0.8048      2.00000
      3       1.4942      2.00000
      4       2.3741      2.00000
      5      11.7882      0.00000
      6      14.9130      0.00000
      7      17.2091      0.00000
      8      19.8162      0.00000

 k-point     9 :      -0.1667    0.1667    0.0000
  band No.  band energies     occupation 
      1     -13.4851      2.00000
      2       0.4200      2.00000
      3       2.0910      2.00000
      4       2.6987      2.00000
      5      10.4526      0.00000
      6      15.0998      0.00000
      7      18.4866      0.00000
      8      20.4983      0.00000

 k-point    10 :       0.3333    0.3333    0.0000
  band No.  band energies     occupation 
      1     -13.0455      2.00000
      2      -0.3621      2.00000
      3       1.9725      2.00000
      4       1.9727      2.00000
      5      12.0311      0.00000
      6      12.9967      0.00000
      7      16.6192      0.00000
      8      20.9223      0.00000

 k-point    11 :       0.5000    0.3333    0.0000
  band No.  band energies     occupation 
      1     -12.7332      2.00000
      2      -0.6884      2.00000
      3       1.1527      2.00000
      4       1.8460      2.00000
      5      12.6721      0.00000
      6      13.5768      0.00000
      7      15.7175      0.00000
      8      20.9864      0.00000

 k-point    12 :      -0.3333    0.3333    0.0000
  band No.  band energies     occupation 
      1     -12.6937      2.00000
      2      -0.1447      2.00000
      3       0.0157      2.00000
      4       2.0324      2.00000
      5      13.1526      0.00000
      6      15.0210      0.00000
      7      15.2112      0.00000
      8      20.4563      0.00000

 k-point    13 :       0.5000    0.5000    0.0000
  band No.  band energies     occupation 
      1     -12.6651      2.00000
      2      -0.9830      2.00000
      3       1.6843      2.00000
      4       1.6844      2.00000
      5      12.0979      0.00000
      6      12.7085      0.00000
      7      15.8518      0.00000
      8      21.6179      0.00000

 k-point    14 :       0.5000    0.3333    0.1667
  band No.  band energies     occupation 
      1     -12.9045      2.00000
      2      -0.4587      2.00000
      3       1.2014      2.00000
      4       2.0155      2.00000
      5      12.7637      0.00000
      6      13.9702      0.00000
      7      16.2949      0.00000
      8      19.8866      0.00000

 k-point    15 :      -0.3333    0.3333    0.1667
  band No.  band energies     occupation 
      1     -12.6938      2.00000
      2      -0.4984      2.00000
      3       0.5987      2.00000
      4       1.7701      2.00000
      5      13.4001      0.00000
      6      14.7524      0.00000
      7      15.4664      0.00000
      8      19.1899      0.00000

 k-point    16 :      -0.3333    0.5000    0.1667
  band No.  band energies     occupation 
      1     -12.6270      2.00000
      2      -0.4674      2.00000
      3       0.8209      2.00000
      4       1.3731      2.00000
      5      13.4594      0.00000
      6      14.1351      0.00000
      7      15.2729      0.00000
      8      19.1650      0.00000


--------------------------------------------------------------------------------------------------------


 soft charge-density along one line, spin component           1
         0         1         2         3         4         5         6         7         8         9
 total charge-density along one line
 
 pseudopotential strength for first ion, spin component:           1
  2.973   9.448   0.000   0.000  -0.000   0.000   0.000  -0.000
  9.448  29.868   0.000   0.000  -0.000   0.000   0.000  -0.000
  0.000   0.000   7.292   0.000   0.000  10.570   0.000   0.000
  0.000   0.000   0.000   7.292   0.000   0.000  10.570   0.000
 -0.000  -0.000   0.000   0.000   7.292   0.000   0.000  10.570
  0.000   0.000  10.570   0.000   0.000  14.536   0.000   0.000
  0.000   0.000   0.000  10.570   0.000   0.000  14.536   0.000
 -0.000  -0.000   0.000   0.000  10.570   0.000   0.000  14.536
  0.000   0.000  -0.000  -0.000   0.000  -0.000  -0.000   0.000
  0.000   0.000   0.000   0.000  -0.000   0.000   0.000  -0.000
 -0.000  -0.000  -0.000   0.000   0.000  -0.000   0.000   0.000
  0.000   0.000  -0.000  -0.000   0.000  -0.000  -0.000   0.000
  0.000   0.000  -0.000  -0.000  -0.000  -0.000  -0.000  -0.000
 total augmentation occupancy for first ion, spin component:           1
  0.993  -0.045   0.000   0.000   0.000   0.000   0.000   0.000   0.000  -0.000   0.000   0.000   0.000
 -0.045   0.002   0.000   0.000   0.000   0.000   0.000   0.000   0.000  -0.000   0.000   0.000   0.000
  0.000   0.000   0.115  -0.000   0.000  -0.012  -0.000   0.000   0.000   0.000   0.000   0.000   0.000
  0.000   0.000   0.000   0.115   0.000  -0.000  -0.012  -0.000   0.000   0.000   0.000   0.000   0.000
  0.000   0.000   0.000  -0.000   0.115  -0.000  -0.000  -0.012   0.000   0.000   0.000   0.000   0.000
  0.000   0.000  -0.012   0.000   0.000   0.001  -0.000  -0.000   0.000   0.000   0.000   0.000   0.000
  0.000   0.000   0.000  -0.012  -0.000   0.000   0.001   0.000   0.000   0.000   0.000   0.000   0.000
  0.000   0.000  -0.000   0.000  -0.012   0.000   0.000   0.001   0.000   0.000   0.000   0.000   0.000
  0.000   0.000   0.000   0.000   0.000   0.000   0.000   0.000   0.012   0.000  -0.000   0.000   0.000
 -0.000  -0.000   0.000   0.000   0.000   0.000   0.000   0.000   0.000   0.012  -0.000   0.000  -0.000
 -0.000   0.000   0.000   0.000   0.000   0.000   0.000   0.000  -0.000   0.000   0.049  -0.000   0.000
  0.000  -0.000   0.000   0.000   0.000   0.000   0.000   0.000   0.000   0.000  -0.000   0.012   0.000
  0.000   0.000   0.000   0.000   0.000   0.000   0.000   0.000   0.000   0.000   0.000   0.000   0.049


------------------------ aborting loop because EDIFF is reached ----------------------------------------


    CHARGE:  cpu time    0.0000: real time    0.0013
    FORLOC:  cpu time    0.0000: real time    0.0002
    FORNL :  cpu time    0.0120: real time    0.0123
    FORCOR:  cpu time    0.0960: real time    0.0935
    FORHAR:  cpu time    0.0000: real time    0.0007
    MIXING:  cpu time    0.0000: real time    0.0002
    OFIELD:  cpu time    0.0000: real time    0.0000

 ---------------------------------------------------------------------------------------------

         DFTD3 V3.0 Rev 1        
 IVDW         = 12
 DF pbe       
 parameters
 VDW_S6       =    1.0000
 VDW_S8       =    0.7875
 VDW_A1       =    0.4289
 VDW_A2       =    4.4407
 k1-k3        =   16.0000    1.3333   -4.0000
 VDW_RADIUS   =   50.2022 A
 VDW_CNRADIUS =   21.1671 A
 Edisp (eV)   -0.57150

 E6    (eV) :    -0.3477
 E8    (eV) :    -0.2238
 % E8        : 39.15
    FORVDW:  cpu time    0.0120: real time    0.0136

 VOLUME and BASIS-vectors are now :
 -----------------------------------------------------------------------------
  energy-cutoff  :      420.00
  volume of cell :       19.15
      direct lattice vectors                 reciprocal lattice vectors
     0.000000000  2.123446510  2.123446510    -0.235466256  0.235466256  0.235466256
     2.123446510  0.000000000  2.123446510     0.235466256 -0.235466256  0.235466256
     2.123446510  2.123446510  0.000000000     0.235466256  0.235466256 -0.235466256

  length of vectors
     3.003006853  3.003006853  3.003006853     0.407839519  0.407839519  0.407839519


 FORCES acting on ions
    electron-ion (+dipol)            ewald-force                    non-local-force                 convergence-correction
 -----------------------------------------------------------------------------------------------
   0.463E-15 0.124E-14 -.743E-16   -.806E-16 -.229E-15 -.490E-15   0.207E-24 -.207E-24 -.207E-24   0.607E-17 -.209E-17 -.284E-16
   0.785E-12 0.395E-12 0.551E-12   -.105E-15 -.254E-16 0.485E-15   0.827E-24 -.620E-24 -.207E-24   0.618E-14 0.414E-14 0.387E-14
 -----------------------------------------------------------------------------------------------
   0.786E-12 0.396E-12 0.551E-12   -.186E-15 -.255E-15 -.484E-17   0.103E-23 -.827E-24 -.414E-24   0.618E-14 0.414E-14 0.384E-14
 
 
 POSITION                                       TOTAL-FORCE (eV/Angst)
 -----------------------------------------------------------------------------------
      0.00000      0.00000      0.00000         0.000000      0.000000     -0.000000
      2.12345      2.12345      2.12345        -0.000000     -0.000000      0.000000
 -----------------------------------------------------------------------------------
    total drift:                                0.000000      0.000000      0.000000


--------------------------------------------------------------------------------------------------------



  FREE ENERGIE OF THE ION-ELECTRON SYSTEM (eV)
  ---------------------------------------------------
  free  energy   TOTEN  =       -12.49612431 eV

  energy  without entropy=      -12.49612431  energy(sigma->0) =      -12.49612431
 


--------------------------------------------------------------------------------------------------------


    POTLOK:  cpu time    0.0960: real time    0.0944


--------------------------------------------------------------------------------------------------------




--------------------------------------------------------------------------------------------------------


  
 reached required accuracy - stopping structural energy minimisation
     LOOP+:  cpu time    1.1200: real time    1.4951
    4ORBIT:  cpu time    0.0000: real time    0.0000

 total amount of memory used by VASP on root node    31558. kBytes
========================================================================

   base      :      30000. kBytes
   nonlr-proj:        383. kBytes
   fftplans  :        302. kBytes
   grid      :        647. kBytes
   one-center:         16. kBytes
   wavefun   :        210. kBytes
 
  
  
 General timing and accounting informations for this job:
 ========================================================
  
                  Total CPU time used (sec):        1.424
                            User time (sec):        1.328
                          System time (sec):        0.096
                         Elapsed time (sec):        2.064
  
                   Maximum memory used (kb):       63732.
                   Average memory used (kb):           0.
  
                          Minor page faults:         4644
                          Major page faults:            6
                 Voluntary context switches:          945
