  15  15   1   0
  0.1021299E+02  0.6006014E-09  0.6006014E-09  0.6006014E-09  0.5000000E-15
  1.000000000000000E-004
  CAR 
 unknown system                          
     14.18713142    -15.63623468  301      2.86046550      1.00000000
    -15.636  0.0000E+00  0.0000E+00
    -15.537  0.0000E+00  0.0000E+00
    -15.437  0.0000E+00  0.0000E+00
    -15.338  0.0000E+00  0.0000E+00
    -15.239  0.0000E+00  0.0000E+00
    -15.139  0.0000E+00  0.0000E+00
    -15.040  0.0000E+00  0.0000E+00
    -14.940  0.0000E+00  0.0000E+00
    -14.841  0.0000E+00  0.0000E+00
    -14.742  0.0000E+00  0.0000E+00
    -14.642  0.0000E+00  0.0000E+00
    -14.543  0.1554E-13  0.1545E-14
    -14.443  0.5285E-06  0.5254E-07
    -14.344  0.9250E-02  0.9196E-03
    -14.244  0.2054E+00  0.2134E-01
    -14.145  0.4085E+00  0.6195E-01
    -14.046  0.3807E+00  0.9980E-01
    -13.946  0.1966E-02  0.1000E+00
    -13.847  0.7840E-08  0.1000E+00
    -13.747  0.4886E-15  0.1000E+00
    -13.648  0.5678E-07  0.1000E+00
    -13.549  0.3341E-02  0.1003E+00
    -13.449  0.3485E+00  0.1350E+00
    -13.350  0.6399E+00  0.1986E+00
    -13.250  0.2925E+00  0.2277E+00
    -13.151  0.4975E+00  0.2771E+00
    -13.052  0.2397E+00  0.3009E+00
    -12.952  0.1245E+01  0.4247E+00
    -12.853  0.1224E+01  0.5464E+00
    -12.753  0.8356E+00  0.6294E+00
    -12.654  0.7001E+00  0.6990E+00
    -12.554  0.9652E-02  0.7000E+00
    -12.455  0.1612E-06  0.7000E+00
    -12.356  0.1340E-14  0.7000E+00
    -12.256  0.0000E+00  0.7000E+00
    -12.157  0.0000E+00  0.7000E+00
    -12.057  0.0000E+00  0.7000E+00
    -11.958  0.0000E+00  0.7000E+00
    -11.859  0.0000E+00  0.7000E+00
    -11.759  0.0000E+00  0.7000E+00
    -11.660  0.0000E+00  0.7000E+00
    -11.560  0.0000E+00  0.7000E+00
    -11.461  0.0000E+00  0.7000E+00
    -11.362  0.0000E+00  0.7000E+00
    -11.262  0.0000E+00  0.7000E+00
    -11.163  0.0000E+00  0.7000E+00
    -11.063  0.0000E+00  0.7000E+00
    -10.964  0.0000E+00  0.7000E+00
    -10.864  0.0000E+00  0.7000E+00
    -10.765  0.0000E+00  0.7000E+00
    -10.666  0.0000E+00  0.7000E+00
    -10.566  0.0000E+00  0.7000E+00
    -10.467  0.0000E+00  0.7000E+00
    -10.367  0.0000E+00  0.7000E+00
    -10.268  0.0000E+00  0.7000E+00
    -10.169  0.0000E+00  0.7000E+00
    -10.069  0.0000E+00  0.7000E+00
     -9.970  0.0000E+00  0.7000E+00
     -9.870  0.0000E+00  0.7000E+00
     -9.771  0.0000E+00  0.7000E+00
     -9.672  0.0000E+00  0.7000E+00
     -9.572  0.0000E+00  0.7000E+00
     -9.473  0.0000E+00  0.7000E+00
     -9.373  0.0000E+00  0.7000E+00
     -9.274  0.0000E+00  0.7000E+00
     -9.175  0.0000E+00  0.7000E+00
     -9.075  0.0000E+00  0.7000E+00
     -8.976  0.0000E+00  0.7000E+00
     -8.876  0.0000E+00  0.7000E+00
     -8.777  0.0000E+00  0.7000E+00
     -8.677  0.0000E+00  0.7000E+00
     -8.578  0.0000E+00  0.7000E+00
     -8.479  0.0000E+00  0.7000E+00
     -8.379  0.0000E+00  0.7000E+00
     -8.280  0.0000E+00  0.7000E+00
     -8.180  0.0000E+00  0.7000E+00
     -8.081  0.0000E+00  0.7000E+00
     -7.982  0.0000E+00  0.7000E+00
     -7.882  0.0000E+00  0.7000E+00
     -7.783  0.0000E+00  0.7000E+00
     -7.683  0.0000E+00  0.7000E+00
     -7.584  0.0000E+00  0.7000E+00
     -7.485  0.0000E+00  0.7000E+00
     -7.385  0.0000E+00  0.7000E+00
     -7.286  0.0000E+00  0.7000E+00
     -7.186  0.0000E+00  0.7000E+00
     -7.087  0.0000E+00  0.7000E+00
     -6.987  0.0000E+00  0.7000E+00
     -6.888  0.0000E+00  0.7000E+00
     -6.789  0.0000E+00  0.7000E+00
     -6.689  0.0000E+00  0.7000E+00
     -6.590  0.0000E+00  0.7000E+00
     -6.490  0.0000E+00  0.7000E+00
     -6.391  0.0000E+00  0.7000E+00
     -6.292  0.0000E+00  0.7000E+00
     -6.192  0.0000E+00  0.7000E+00
     -6.093  0.0000E+00  0.7000E+00
     -5.993  0.0000E+00  0.7000E+00
     -5.894  0.0000E+00  0.7000E+00
     -5.795  0.0000E+00  0.7000E+00
     -5.695  0.0000E+00  0.7000E+00
     -5.596  0.0000E+00  0.7000E+00
     -5.496  0.0000E+00  0.7000E+00
     -5.397  0.0000E+00  0.7000E+00
     -5.297  0.0000E+00  0.7000E+00
     -5.198  0.0000E+00  0.7000E+00
     -5.099  0.0000E+00  0.7000E+00
     -4.999  0.0000E+00  0.7000E+00
     -4.900  0.0000E+00  0.7000E+00
     -4.800  0.0000E+00  0.7000E+00
     -4.701  0.0000E+00  0.7000E+00
     -4.602  0.0000E+00  0.7000E+00
     -4.502  0.0000E+00  0.7000E+00
     -4.403  0.0000E+00  0.7000E+00
     -4.303  0.0000E+00  0.7000E+00
     -4.204  0.0000E+00  0.7000E+00
     -4.105  0.0000E+00  0.7000E+00
     -4.005  0.0000E+00  0.7000E+00
     -3.906  0.0000E+00  0.7000E+00
     -3.806  0.0000E+00  0.7000E+00
     -3.707  0.0000E+00  0.7000E+00
     -3.607  0.0000E+00  0.7000E+00
     -3.508  0.0000E+00  0.7000E+00
     -3.409  0.0000E+00  0.7000E+00
     -3.309  0.0000E+00  0.7000E+00
     -3.210  0.0000E+00  0.7000E+00
     -3.110  0.0000E+00  0.7000E+00
     -3.011  0.0000E+00  0.7000E+00
     -2.912  0.0000E+00  0.7000E+00
     -2.812  0.0000E+00  0.7000E+00
     -2.713  0.0000E+00  0.7000E+00
     -2.613  0.0000E+00  0.7000E+00
     -2.514  0.0000E+00  0.7000E+00
     -2.415  0.0000E+00  0.7000E+00
     -2.315  0.0000E+00  0.7000E+00
     -2.216  0.0000E+00  0.7000E+00
     -2.116  0.0000E+00  0.7000E+00
     -2.017  0.0000E+00  0.7000E+00
     -1.917  0.0000E+00  0.7000E+00
     -1.818  0.0000E+00  0.7000E+00
     -1.719  0.1396E-15  0.7000E+00
     -1.619  0.3067E-07  0.7000E+00
     -1.520  0.3315E-02  0.7003E+00
     -1.420  0.3138E+00  0.7315E+00
     -1.321  0.2458E+00  0.7560E+00
     -1.222  0.1871E+00  0.7746E+00
     -1.122  0.4497E-02  0.7750E+00
     -1.023  0.2266E+00  0.7975E+00
     -0.923  0.1457E+01  0.9424E+00
     -0.824  0.5783E+00  0.9999E+00
     -0.725  0.2650E+00  0.1026E+01
     -0.625  0.2094E+00  0.1047E+01
     -0.526  0.2268E+00  0.1070E+01
     -0.426  0.5483E+00  0.1124E+01
     -0.327  0.5915E+00  0.1183E+01
     -0.227  0.6804E+00  0.1251E+01
     -0.128  0.5382E+00  0.1304E+01
     -0.029  0.2103E+00  0.1325E+01
      0.071  0.6606E-02  0.1326E+01
      0.170  0.4940E+00  0.1375E+01
      0.270  0.2536E+00  0.1400E+01
      0.369  0.1023E+00  0.1410E+01
      0.468  0.6196E+00  0.1472E+01
      0.568  0.1193E+00  0.1484E+01
      0.667  0.1121E+01  0.1595E+01
      0.767  0.3011E+00  0.1625E+01
      0.866  0.3640E-02  0.1625E+01
      0.965  0.2172E+00  0.1647E+01
      1.065  0.6985E+00  0.1716E+01
      1.164  0.1361E+00  0.1730E+01
      1.264  0.1204E+01  0.1850E+01
      1.363  0.7469E+00  0.1924E+01
      1.462  0.2268E+00  0.1946E+01
      1.562  0.1352E+01  0.2081E+01
      1.661  0.5840E+00  0.2139E+01
      1.761  0.8546E+00  0.2224E+01
      1.860  0.4492E+00  0.2268E+01
      1.960  0.9675E+00  0.2365E+01
      2.059  0.3261E+00  0.2397E+01
      2.158  0.6530E+00  0.2462E+01
      2.258  0.4706E+00  0.2509E+01
      2.357  0.1231E+01  0.2631E+01
      2.457  0.1026E+01  0.2733E+01
      2.556  0.3620E+00  0.2769E+01
      2.655  0.3084E+00  0.2800E+01
      2.755  0.3044E-02  0.2800E+01
      2.854  0.2597E-07  0.2800E+01
      2.954  0.1117E-15  0.2800E+01
      3.053  0.0000E+00  0.2800E+01
      3.152  0.0000E+00  0.2800E+01
      3.252  0.0000E+00  0.2800E+01
      3.351  0.0000E+00  0.2800E+01
      3.451  0.0000E+00  0.2800E+01
      3.550  0.0000E+00  0.2800E+01
      3.650  0.0000E+00  0.2800E+01
      3.749  0.0000E+00  0.2800E+01
      3.848  0.0000E+00  0.2800E+01
      3.948  0.0000E+00  0.2800E+01
      4.047  0.3066E-13  0.2800E+01
      4.147  0.8132E-06  0.2800E+01
      4.246  0.1124E-01  0.2801E+01
      4.345  0.2068E+00  0.2822E+01
      4.445  0.3340E-01  0.2825E+01
      4.544  0.1091E-04  0.2825E+01
      4.644  0.2039E-11  0.2825E+01
      4.743  0.0000E+00  0.2825E+01
      4.842  0.0000E+00  0.2825E+01
      4.942  0.0000E+00  0.2825E+01
      5.041  0.0000E+00  0.2825E+01
      5.141  0.8987E-13  0.2825E+01
      5.240  0.2404E-05  0.2825E+01
      5.340  0.3349E-01  0.2828E+01
      5.439  0.6202E+00  0.2890E+01
      5.538  0.1007E+00  0.2900E+01
      5.638  0.3317E-04  0.2900E+01
      5.737  0.6248E-11  0.2900E+01
      5.837  0.0000E+00  0.2900E+01
      5.936  0.0000E+00  0.2900E+01
      6.035  0.0000E+00  0.2900E+01
      6.135  0.0000E+00  0.2900E+01
      6.234  0.0000E+00  0.2900E+01
      6.334  0.0000E+00  0.2900E+01
      6.433  0.0000E+00  0.2900E+01
      6.532  0.0000E+00  0.2900E+01
      6.632  0.0000E+00  0.2900E+01
      6.731  0.0000E+00  0.2900E+01
      6.831  0.0000E+00  0.2900E+01
      6.930  0.0000E+00  0.2900E+01
      7.030  0.0000E+00  0.2900E+01
      7.129  0.0000E+00  0.2900E+01
      7.228  0.0000E+00  0.2900E+01
      7.328  0.0000E+00  0.2900E+01
      7.427  0.0000E+00  0.2900E+01
      7.527  0.0000E+00  0.2900E+01
      7.626  0.0000E+00  0.2900E+01
      7.725  0.0000E+00  0.2900E+01
      7.825  0.0000E+00  0.2900E+01
      7.924  0.0000E+00  0.2900E+01
      8.024  0.0000E+00  0.2900E+01
      8.123  0.0000E+00  0.2900E+01
      8.222  0.0000E+00  0.2900E+01
      8.322  0.3759E-10  0.2900E+01
      8.421  0.9675E-04  0.2900E+01
      8.521  0.1503E+00  0.2915E+01
      8.620  0.5855E+00  0.2973E+01
      8.720  0.1852E-01  0.2975E+01
      8.819  0.7046E-05  0.2975E+01
      8.918  0.2701E-01  0.2978E+01
      9.018  0.2099E+00  0.2999E+01
      9.117  0.1459E-01  0.3000E+01
      9.217  0.1470E-05  0.3000E+01
      9.316  0.6048E-06  0.3000E+01
      9.415  0.1774E-01  0.3002E+01
      9.515  0.5824E+00  0.3060E+01
      9.614  0.1542E+00  0.3075E+01
      9.714  0.1039E-03  0.3075E+01
      9.813  0.6792E-04  0.3075E+01
      9.912  0.1333E+00  0.3088E+01
     10.012  0.7441E+00  0.3162E+01
     10.111  0.1282E+00  0.3175E+01
     10.211  0.3272E-03  0.3175E+01
     10.310  0.7226E-09  0.3175E+01
     10.410  0.1278E-06  0.3175E+01
     10.509  0.6791E-02  0.3176E+01
     10.608  0.3583E+00  0.3211E+01
     10.708  0.1377E+00  0.3225E+01
     10.807  0.1621E-03  0.3225E+01
     10.907  0.2116E-04  0.3225E+01
     11.006  0.8435E-01  0.3233E+01
     11.105  0.6283E+00  0.3296E+01
     11.205  0.4177E-01  0.3300E+01
     11.304  0.6077E-02  0.3301E+01
     11.404  0.1948E+00  0.3320E+01
     11.503  0.5149E-01  0.3325E+01
     11.602  0.2305E+00  0.3348E+01
     11.702  0.2699E+00  0.3375E+01
     11.801  0.2133E-02  0.3375E+01
     11.901  0.2510E+00  0.3400E+01
     12.000  0.4965E+00  0.3449E+01
     12.099  0.6513E-02  0.3450E+01
     12.199  0.7816E-07  0.3450E+01
     12.298  0.3614E-13  0.3450E+01
     12.398  0.1336E-05  0.3450E+01
     12.497  0.2566E-01  0.3453E+01
     12.597  0.6067E+00  0.3513E+01
     12.696  0.1221E+00  0.3525E+01
     12.795  0.1156E+00  0.3536E+01
     12.895  0.6111E+00  0.3597E+01
     12.994  0.2775E-01  0.3600E+01
     13.094  0.1585E-05  0.3600E+01
     13.193  0.4657E-13  0.3600E+01
     13.292  0.0000E+00  0.3600E+01
     13.392  0.0000E+00  0.3600E+01
     13.491  0.0000E+00  0.3600E+01
     13.591  0.0000E+00  0.3600E+01
     13.690  0.0000E+00  0.3600E+01
     13.789  0.0000E+00  0.3600E+01
     13.889  0.0000E+00  0.3600E+01
     13.988  0.0000E+00  0.3600E+01
     14.088  0.0000E+00  0.3600E+01
     14.187  0.0000E+00  0.3600E+01
     14.18713142    -15.63623468  301      2.86046550      1.00000000
    -15.636  0.0000E+00  0.0000E+00  0.0000E+00  0.0000E+00  0.0000E+00  0.0000E+00  0.0000E+00  0.0000E+00  0.0000E+00
    -15.537  0.0000E+00  0.0000E+00  0.0000E+00  0.0000E+00  0.0000E+00  0.0000E+00  0.0000E+00  0.0000E+00  0.0000E+00
    -15.437  0.0000E+00  0.0000E+00  0.0000E+00  0.0000E+00  0.0000E+00  0.0000E+00  0.0000E+00  0.0000E+00  0.0000E+00
    -15.338  0.0000E+00  0.0000E+00  0.0000E+00  0.0000E+00  0.0000E+00  0.0000E+00  0.0000E+00  0.0000E+00  0.0000E+00
    -15.239  0.0000E+00  0.0000E+00  0.0000E+00  0.0000E+00  0.0000E+00  0.0000E+00  0.0000E+00  0.0000E+00  0.0000E+00
    -15.139  0.0000E+00  0.0000E+00  0.0000E+00  0.0000E+00  0.0000E+00  0.0000E+00  0.0000E+00  0.0000E+00  0.0000E+00
    -15.040  0.0000E+00  0.0000E+00  0.0000E+00  0.0000E+00  0.0000E+00  0.0000E+00  0.0000E+00  0.0000E+00  0.0000E+00
    -14.940  0.0000E+00  0.0000E+00  0.0000E+00  0.0000E+00  0.0000E+00  0.0000E+00  0.0000E+00  0.0000E+00  0.0000E+00
    -14.841  0.0000E+00  0.0000E+00  0.0000E+00  0.0000E+00  0.0000E+00  0.0000E+00  0.0000E+00  0.0000E+00  0.0000E+00
    -14.742  0.0000E+00  0.0000E+00  0.0000E+00  0.0000E+00  0.0000E+00  0.0000E+00  0.0000E+00  0.0000E+00  0.0000E+00
    -14.642  0.0000E+00  0.0000E+00  0.0000E+00  0.0000E+00  0.0000E+00  0.0000E+00  0.0000E+00  0.0000E+00  0.0000E+00
    -14.543  0.5375E-15  0.1291E-16  0.1291E-16  0.1291E-16  0.6351E-19  0.6351E-19  0.5541E-31  0.6351E-19  0.3888E-33
    -14.443  0.1828E-07  0.4390E-09  0.4390E-09  0.4390E-09  0.2160E-11  0.2160E-11  0.1885E-23  0.2160E-11  0.1323E-25
    -14.344  0.3199E-03  0.7684E-05  0.7684E-05  0.7684E-05  0.3781E-07  0.3781E-07  0.5263E-13  0.3781E-07  0.1579E-12
    -14.244  0.7058E-02  0.1703E-03  0.1703E-03  0.1745E-03  0.8424E-06  0.8778E-06  0.1455E-07  0.8424E-06  0.4366E-07
    -14.145  0.3991E-02  0.2635E-03  0.2635E-03  0.1141E-02  0.2228E-05  0.9678E-05  0.3066E-05  0.2227E-05  0.9199E-05
    -14.046  0.2736E-02  0.2382E-03  0.2382E-03  0.1141E-02  0.2130E-05  0.9797E-05  0.3155E-05  0.2129E-05  0.9466E-05
    -13.946  0.1413E-04  0.1230E-05  0.1230E-05  0.5892E-05  0.1100E-07  0.5060E-07  0.1630E-07  0.1100E-07  0.4889E-07
    -13.847  0.5633E-10  0.4905E-11  0.4905E-11  0.2349E-10  0.4386E-13  0.2017E-12  0.6497E-13  0.4384E-13  0.1949E-12
    -13.747  0.3946E-16  0.8566E-18  0.8566E-18  0.8566E-18  0.1098E-20  0.1098E-20  0.6010E-32  0.1098E-20  0.3349E-34
    -13.648  0.4586E-08  0.9969E-10  0.9969E-10  0.9971E-10  0.1275E-12  0.1277E-12  0.5845E-13  0.1275E-12  0.1753E-12
    -13.549  0.2700E-03  0.6141E-05  0.6141E-05  0.6184E-05  0.7222E-08  0.7596E-08  0.1163E-06  0.7222E-08  0.3488E-06
    -13.449  0.2840E-01  0.9581E-03  0.9581E-03  0.1011E-02  0.4301E-06  0.8878E-06  0.1426E-03  0.4301E-06  0.4279E-03
    -13.350  0.5253E-01  0.2282E-02  0.2282E-02  0.2454E-02  0.2634E-06  0.1785E-05  0.4745E-03  0.2633E-06  0.1423E-02
    -13.250  0.1618E-01  0.3292E-02  0.3292E-02  0.9995E-03  0.5812E-07  0.1106E-06  0.2260E-03  0.5812E-07  0.6780E-03
    -13.151  0.2603E-01  0.5900E-02  0.5900E-02  0.2002E-02  0.1032E-06  0.1253E-06  0.3627E-03  0.1032E-06  0.1088E-02
    -13.052  0.5388E-02  0.3832E-02  0.3832E-02  0.3458E-02  0.8386E-07  0.8066E-07  0.7025E-04  0.8386E-07  0.5147E-04
    -12.952  0.1080E-02  0.1840E-01  0.1840E-01  0.2234E-01  0.2727E-06  0.4188E-06  0.2835E-02  0.2727E-06  0.3134E-02
    -12.853  0.3239E-02  0.1433E-01  0.1433E-01  0.2027E-01  0.1449E-06  0.3578E-06  0.3152E-02  0.1449E-06  0.6962E-02
    -12.753  0.1735E-02  0.5375E-02  0.5375E-02  0.2629E-02  0.2503E-07  0.3496E-07  0.9043E-02  0.2503E-07  0.8342E-02
    -12.654  0.4221E-05  0.2991E-02  0.2991E-02  0.5319E-03  0.3801E-07  0.4249E-08  0.1194E-01  0.3801E-07  0.5382E-02
    -12.554  0.7137E-11  0.4425E-04  0.4425E-04  0.9697E-06  0.6040E-09  0.7686E-11  0.1774E-03  0.6040E-09  0.6170E-04
    -12.455  0.9728E-22  0.7462E-09  0.7462E-09  0.1194E-11  0.1027E-13  0.9467E-17  0.2992E-08  0.1027E-13  0.1001E-08
    -12.356  0.8108E-30  0.6210E-17  0.6210E-17  0.8785E-31  0.8555E-22  0.3284E-31  0.2490E-16  0.8555E-22  0.8300E-17
    -12.256  0.0000E+00  0.0000E+00  0.0000E+00  0.0000E+00  0.0000E+00  0.0000E+00  0.0000E+00  0.0000E+00  0.0000E+00
    -12.157  0.0000E+00  0.0000E+00  0.0000E+00  0.0000E+00  0.0000E+00  0.0000E+00  0.0000E+00  0.0000E+00  0.0000E+00
    -12.057  0.0000E+00  0.0000E+00  0.0000E+00  0.0000E+00  0.0000E+00  0.0000E+00  0.0000E+00  0.0000E+00  0.0000E+00
    -11.958  0.0000E+00  0.0000E+00  0.0000E+00  0.0000E+00  0.0000E+00  0.0000E+00  0.0000E+00  0.0000E+00  0.0000E+00
    -11.859  0.0000E+00  0.0000E+00  0.0000E+00  0.0000E+00  0.0000E+00  0.0000E+00  0.0000E+00  0.0000E+00  0.0000E+00
    -11.759  0.0000E+00  0.0000E+00  0.0000E+00  0.0000E+00  0.0000E+00  0.0000E+00  0.0000E+00  0.0000E+00  0.0000E+00
    -11.660  0.0000E+00  0.0000E+00  0.0000E+00  0.0000E+00  0.0000E+00  0.0000E+00  0.0000E+00  0.0000E+00  0.0000E+00
    -11.560  0.0000E+00  0.0000E+00  0.0000E+00  0.0000E+00  0.0000E+00  0.0000E+00  0.0000E+00  0.0000E+00  0.0000E+00
    -11.461  0.0000E+00  0.0000E+00  0.0000E+00  0.0000E+00  0.0000E+00  0.0000E+00  0.0000E+00  0.0000E+00  0.0000E+00
    -11.362  0.0000E+00  0.0000E+00  0.0000E+00  0.0000E+00  0.0000E+00  0.0000E+00  0.0000E+00  0.0000E+00  0.0000E+00
    -11.262  0.0000E+00  0.0000E+00  0.0000E+00  0.0000E+00  0.0000E+00  0.0000E+00  0.0000E+00  0.0000E+00  0.0000E+00
    -11.163  0.0000E+00  0.0000E+00  0.0000E+00  0.0000E+00  0.0000E+00  0.0000E+00  0.0000E+00  0.0000E+00  0.0000E+00
    -11.063  0.0000E+00  0.0000E+00  0.0000E+00  0.0000E+00  0.0000E+00  0.0000E+00  0.0000E+00  0.0000E+00  0.0000E+00
    -10.964  0.0000E+00  0.0000E+00  0.0000E+00  0.0000E+00  0.0000E+00  0.0000E+00  0.0000E+00  0.0000E+00  0.0000E+00
    -10.864  0.0000E+00  0.0000E+00  0.0000E+00  0.0000E+00  0.0000E+00  0.0000E+00  0.0000E+00  0.0000E+00  0.0000E+00
    -10.765  0.0000E+00  0.0000E+00  0.0000E+00  0.0000E+00  0.0000E+00  0.0000E+00  0.0000E+00  0.0000E+00  0.0000E+00
    -10.666  0.0000E+00  0.0000E+00  0.0000E+00  0.0000E+00  0.0000E+00  0.0000E+00  0.0000E+00  0.0000E+00  0.0000E+00
    -10.566  0.0000E+00  0.0000E+00  0.0000E+00  0.0000E+00  0.0000E+00  0.0000E+00  0.0000E+00  0.0000E+00  0.0000E+00
    -10.467  0.0000E+00  0.0000E+00  0.0000E+00  0.0000E+00  0.0000E+00  0.0000E+00  0.0000E+00  0.0000E+00  0.0000E+00
    -10.367  0.0000E+00  0.0000E+00  0.0000E+00  0.0000E+00  0.0000E+00  0.0000E+00  0.0000E+00  0.0000E+00  0.0000E+00
    -10.268  0.0000E+00  0.0000E+00  0.0000E+00  0.0000E+00  0.0000E+00  0.0000E+00  0.0000E+00  0.0000E+00  0.0000E+00
    -10.169  0.0000E+00  0.0000E+00  0.0000E+00  0.0000E+00  0.0000E+00  0.0000E+00  0.0000E+00  0.0000E+00  0.0000E+00
    -10.069  0.0000E+00  0.0000E+00  0.0000E+00  0.0000E+00  0.0000E+00  0.0000E+00  0.0000E+00  0.0000E+00  0.0000E+00
     -9.970  0.0000E+00  0.0000E+00  0.0000E+00  0.0000E+00  0.0000E+00  0.0000E+00  0.0000E+00  0.0000E+00  0.0000E+00
     -9.870  0.0000E+00  0.0000E+00  0.0000E+00  0.0000E+00  0.0000E+00  0.0000E+00  0.0000E+00  0.0000E+00  0.0000E+00
     -9.771  0.0000E+00  0.0000E+00  0.0000E+00  0.0000E+00  0.0000E+00  0.0000E+00  0.0000E+00  0.0000E+00  0.0000E+00
     -9.672  0.0000E+00  0.0000E+00  0.0000E+00  0.0000E+00  0.0000E+00  0.0000E+00  0.0000E+00  0.0000E+00  0.0000E+00
     -9.572  0.0000E+00  0.0000E+00  0.0000E+00  0.0000E+00  0.0000E+00  0.0000E+00  0.0000E+00  0.0000E+00  0.0000E+00
     -9.473  0.0000E+00  0.0000E+00  0.0000E+00  0.0000E+00  0.0000E+00  0.0000E+00  0.0000E+00  0.0000E+00  0.0000E+00
     -9.373  0.0000E+00  0.0000E+00  0.0000E+00  0.0000E+00  0.0000E+00  0.0000E+00  0.0000E+00  0.0000E+00  0.0000E+00
     -9.274  0.0000E+00  0.0000E+00  0.0000E+00  0.0000E+00  0.0000E+00  0.0000E+00  0.0000E+00  0.0000E+00  0.0000E+00
     -9.175  0.0000E+00  0.0000E+00  0.0000E+00  0.0000E+00  0.0000E+00  0.0000E+00  0.0000E+00  0.0000E+00  0.0000E+00
     -9.075  0.0000E+00  0.0000E+00  0.0000E+00  0.0000E+00  0.0000E+00  0.0000E+00  0.0000E+00  0.0000E+00  0.0000E+00
     -8.976  0.0000E+00  0.0000E+00  0.0000E+00  0.0000E+00  0.0000E+00  0.0000E+00  0.0000E+00  0.0000E+00  0.0000E+00
     -8.876  0.0000E+00  0.0000E+00  0.0000E+00  0.0000E+00  0.0000E+00  0.0000E+00  0.0000E+00  0.0000E+00  0.0000E+00
     -8.777  0.0000E+00  0.0000E+00  0.0000E+00  0.0000E+00  0.0000E+00  0.0000E+00  0.0000E+00  0.0000E+00  0.0000E+00
     -8.677  0.0000E+00  0.0000E+00  0.0000E+00  0.0000E+00  0.0000E+00  0.0000E+00  0.0000E+00  0.0000E+00  0.0000E+00
     -8.578  0.0000E+00  0.0000E+00  0.0000E+00  0.0000E+00  0.0000E+00  0.0000E+00  0.0000E+00  0.0000E+00  0.0000E+00
     -8.479  0.0000E+00  0.0000E+00  0.0000E+00  0.0000E+00  0.0000E+00  0.0000E+00  0.0000E+00  0.0000E+00  0.0000E+00
     -8.379  0.0000E+00  0.0000E+00  0.0000E+00  0.0000E+00  0.0000E+00  0.0000E+00  0.0000E+00  0.0000E+00  0.0000E+00
     -8.280  0.0000E+00  0.0000E+00  0.0000E+00  0.0000E+00  0.0000E+00  0.0000E+00  0.0000E+00  0.0000E+00  0.0000E+00
     -8.180  0.0000E+00  0.0000E+00  0.0000E+00  0.0000E+00  0.0000E+00  0.0000E+00  0.0000E+00  0.0000E+00  0.0000E+00
     -8.081  0.0000E+00  0.0000E+00  0.0000E+00  0.0000E+00  0.0000E+00  0.0000E+00  0.0000E+00  0.0000E+00  0.0000E+00
     -7.982  0.0000E+00  0.0000E+00  0.0000E+00  0.0000E+00  0.0000E+00  0.0000E+00  0.0000E+00  0.0000E+00  0.0000E+00
     -7.882  0.0000E+00  0.0000E+00  0.0000E+00  0.0000E+00  0.0000E+00  0.0000E+00  0.0000E+00  0.0000E+00  0.0000E+00
     -7.783  0.0000E+00  0.0000E+00  0.0000E+00  0.0000E+00  0.0000E+00  0.0000E+00  0.0000E+00  0.0000E+00  0.0000E+00
     -7.683  0.0000E+00  0.0000E+00  0.0000E+00  0.0000E+00  0.0000E+00  0.0000E+00  0.0000E+00  0.0000E+00  0.0000E+00
     -7.584  0.0000E+00  0.0000E+00  0.0000E+00  0.0000E+00  0.0000E+00  0.0000E+00  0.0000E+00  0.0000E+00  0.0000E+00
     -7.485  0.0000E+00  0.0000E+00  0.0000E+00  0.0000E+00  0.0000E+00  0.0000E+00  0.0000E+00  0.0000E+00  0.0000E+00
     -7.385  0.0000E+00  0.0000E+00  0.0000E+00  0.0000E+00  0.0000E+00  0.0000E+00  0.0000E+00  0.0000E+00  0.0000E+00
     -7.286  0.0000E+00  0.0000E+00  0.0000E+00  0.0000E+00  0.0000E+00  0.0000E+00  0.0000E+00  0.0000E+00  0.0000E+00
     -7.186  0.0000E+00  0.0000E+00  0.0000E+00  0.0000E+00  0.0000E+00  0.0000E+00  0.0000E+00  0.0000E+00  0.0000E+00
     -7.087  0.0000E+00  0.0000E+00  0.0000E+00  0.0000E+00  0.0000E+00  0.0000E+00  0.0000E+00  0.0000E+00  0.0000E+00
     -6.987  0.0000E+00  0.0000E+00  0.0000E+00  0.0000E+00  0.0000E+00  0.0000E+00  0.0000E+00  0.0000E+00  0.0000E+00
     -6.888  0.0000E+00  0.0000E+00  0.0000E+00  0.0000E+00  0.0000E+00  0.0000E+00  0.0000E+00  0.0000E+00  0.0000E+00
     -6.789  0.0000E+00  0.0000E+00  0.0000E+00  0.0000E+00  0.0000E+00  0.0000E+00  0.0000E+00  0.0000E+00  0.0000E+00
     -6.689  0.0000E+00  0.0000E+00  0.0000E+00  0.0000E+00  0.0000E+00  0.0000E+00  0.0000E+00  0.0000E+00  0.0000E+00
     -6.590  0.0000E+00  0.0000E+00  0.0000E+00  0.0000E+00  0.0000E+00  0.0000E+00  0.0000E+00  0.0000E+00  0.0000E+00
     -6.490  0.0000E+00  0.0000E+00  0.0000E+00  0.0000E+00  0.0000E+00  0.0000E+00  0.0000E+00  0.0000E+00  0.0000E+00
     -6.391  0.0000E+00  0.0000E+00  0.0000E+00  0.0000E+00  0.0000E+00  0.0000E+00  0.0000E+00  0.0000E+00  0.0000E+00
     -6.292  0.0000E+00  0.0000E+00  0.0000E+00  0.0000E+00  0.0000E+00  0.0000E+00  0.0000E+00  0.0000E+00  0.0000E+00
     -6.192  0.0000E+00  0.0000E+00  0.0000E+00  0.0000E+00  0.0000E+00  0.0000E+00  0.0000E+00  0.0000E+00  0.0000E+00
     -6.093  0.0000E+00  0.0000E+00  0.0000E+00  0.0000E+00  0.0000E+00  0.0000E+00  0.0000E+00  0.0000E+00  0.0000E+00
     -5.993  0.0000E+00  0.0000E+00  0.0000E+00  0.0000E+00  0.0000E+00  0.0000E+00  0.0000E+00  0.0000E+00  0.0000E+00
     -5.894  0.0000E+00  0.0000E+00  0.0000E+00  0.0000E+00  0.0000E+00  0.0000E+00  0.0000E+00  0.0000E+00  0.0000E+00
     -5.795  0.0000E+00  0.0000E+00  0.0000E+00  0.0000E+00  0.0000E+00  0.0000E+00  0.0000E+00  0.0000E+00  0.0000E+00
     -5.695  0.0000E+00  0.0000E+00  0.0000E+00  0.0000E+00  0.0000E+00  0.0000E+00  0.0000E+00  0.0000E+00  0.0000E+00
     -5.596  0.0000E+00  0.0000E+00  0.0000E+00  0.0000E+00  0.0000E+00  0.0000E+00  0.0000E+00  0.0000E+00  0.0000E+00
     -5.496  0.0000E+00  0.0000E+00  0.0000E+00  0.0000E+00  0.0000E+00  0.0000E+00  0.0000E+00  0.0000E+00  0.0000E+00
     -5.397  0.0000E+00  0.0000E+00  0.0000E+00  0.0000E+00  0.0000E+00  0.0000E+00  0.0000E+00  0.0000E+00  0.0000E+00
     -5.297  0.0000E+00  0.0000E+00  0.0000E+00  0.0000E+00  0.0000E+00  0.0000E+00  0.0000E+00  0.0000E+00  0.0000E+00
     -5.198  0.0000E+00  0.0000E+00  0.0000E+00  0.0000E+00  0.0000E+00  0.0000E+00  0.0000E+00  0.0000E+00  0.0000E+00
     -5.099  0.0000E+00  0.0000E+00  0.0000E+00  0.0000E+00  0.0000E+00  0.0000E+00  0.0000E+00  0.0000E+00  0.0000E+00
     -4.999  0.0000E+00  0.0000E+00  0.0000E+00  0.0000E+00  0.0000E+00  0.0000E+00  0.0000E+00  0.0000E+00  0.0000E+00
     -4.900  0.0000E+00  0.0000E+00  0.0000E+00  0.0000E+00  0.0000E+00  0.0000E+00  0.0000E+00  0.0000E+00  0.0000E+00
     -4.800  0.0000E+00  0.0000E+00  0.0000E+00  0.0000E+00  0.0000E+00  0.0000E+00  0.0000E+00  0.0000E+00  0.0000E+00
     -4.701  0.0000E+00  0.0000E+00  0.0000E+00  0.0000E+00  0.0000E+00  0.0000E+00  0.0000E+00  0.0000E+00  0.0000E+00
     -4.602  0.0000E+00  0.0000E+00  0.0000E+00  0.0000E+00  0.0000E+00  0.0000E+00  0.0000E+00  0.0000E+00  0.0000E+00
     -4.502  0.0000E+00  0.0000E+00  0.0000E+00  0.0000E+00  0.0000E+00  0.0000E+00  0.0000E+00  0.0000E+00  0.0000E+00
     -4.403  0.0000E+00  0.0000E+00  0.0000E+00  0.0000E+00  0.0000E+00  0.0000E+00  0.0000E+00  0.0000E+00  0.0000E+00
     -4.303  0.0000E+00  0.0000E+00  0.0000E+00  0.0000E+00  0.0000E+00  0.0000E+00  0.0000E+00  0.0000E+00  0.0000E+00
     -4.204  0.0000E+00  0.0000E+00  0.0000E+00  0.0000E+00  0.0000E+00  0.0000E+00  0.0000E+00  0.0000E+00  0.0000E+00
     -4.105  0.0000E+00  0.0000E+00  0.0000E+00  0.0000E+00  0.0000E+00  0.0000E+00  0.0000E+00  0.0000E+00  0.0000E+00
     -4.005  0.0000E+00  0.0000E+00  0.0000E+00  0.0000E+00  0.0000E+00  0.0000E+00  0.0000E+00  0.0000E+00  0.0000E+00
     -3.906  0.0000E+00  0.0000E+00  0.0000E+00  0.0000E+00  0.0000E+00  0.0000E+00  0.0000E+00  0.0000E+00  0.0000E+00
     -3.806  0.0000E+00  0.0000E+00  0.0000E+00  0.0000E+00  0.0000E+00  0.0000E+00  0.0000E+00  0.0000E+00  0.0000E+00
     -3.707  0.0000E+00  0.0000E+00  0.0000E+00  0.0000E+00  0.0000E+00  0.0000E+00  0.0000E+00  0.0000E+00  0.0000E+00
     -3.607  0.0000E+00  0.0000E+00  0.0000E+00  0.0000E+00  0.0000E+00  0.0000E+00  0.0000E+00  0.0000E+00  0.0000E+00
     -3.508  0.0000E+00  0.0000E+00  0.0000E+00  0.0000E+00  0.0000E+00  0.0000E+00  0.0000E+00  0.0000E+00  0.0000E+00
     -3.409  0.0000E+00  0.0000E+00  0.0000E+00  0.0000E+00  0.0000E+00  0.0000E+00  0.0000E+00  0.0000E+00  0.0000E+00
     -3.309  0.0000E+00  0.0000E+00  0.0000E+00  0.0000E+00  0.0000E+00  0.0000E+00  0.0000E+00  0.0000E+00  0.0000E+00
     -3.210  0.0000E+00  0.0000E+00  0.0000E+00  0.0000E+00  0.0000E+00  0.0000E+00  0.0000E+00  0.0000E+00  0.0000E+00
     -3.110  0.0000E+00  0.0000E+00  0.0000E+00  0.0000E+00  0.0000E+00  0.0000E+00  0.0000E+00  0.0000E+00  0.0000E+00
     -3.011  0.0000E+00  0.0000E+00  0.0000E+00  0.0000E+00  0.0000E+00  0.0000E+00  0.0000E+00  0.0000E+00  0.0000E+00
     -2.912  0.0000E+00  0.0000E+00  0.0000E+00  0.0000E+00  0.0000E+00  0.0000E+00  0.0000E+00  0.0000E+00  0.0000E+00
     -2.812  0.0000E+00  0.0000E+00  0.0000E+00  0.0000E+00  0.0000E+00  0.0000E+00  0.0000E+00  0.0000E+00  0.0000E+00
     -2.713  0.0000E+00  0.0000E+00  0.0000E+00  0.0000E+00  0.0000E+00  0.0000E+00  0.0000E+00  0.0000E+00  0.0000E+00
     -2.613  0.0000E+00  0.0000E+00  0.0000E+00  0.0000E+00  0.0000E+00  0.0000E+00  0.0000E+00  0.0000E+00  0.0000E+00
     -2.514  0.0000E+00  0.0000E+00  0.0000E+00  0.0000E+00  0.0000E+00  0.0000E+00  0.0000E+00  0.0000E+00  0.0000E+00
     -2.415  0.0000E+00  0.0000E+00  0.0000E+00  0.0000E+00  0.0000E+00  0.0000E+00  0.0000E+00  0.0000E+00  0.0000E+00
     -2.315  0.0000E+00  0.0000E+00  0.0000E+00  0.0000E+00  0.0000E+00  0.0000E+00  0.0000E+00  0.0000E+00  0.0000E+00
     -2.216  0.0000E+00  0.0000E+00  0.0000E+00  0.0000E+00  0.0000E+00  0.0000E+00  0.0000E+00  0.0000E+00  0.0000E+00
     -2.116  0.0000E+00  0.0000E+00  0.0000E+00  0.0000E+00  0.0000E+00  0.0000E+00  0.0000E+00  0.0000E+00  0.0000E+00
     -2.017  0.0000E+00  0.0000E+00  0.0000E+00  0.0000E+00  0.0000E+00  0.0000E+00  0.0000E+00  0.0000E+00  0.0000E+00
     -1.917  0.0000E+00  0.0000E+00  0.0000E+00  0.0000E+00  0.0000E+00  0.0000E+00  0.0000E+00  0.0000E+00  0.0000E+00
     -1.818  0.0000E+00  0.0000E+00  0.0000E+00  0.0000E+00  0.0000E+00  0.0000E+00  0.0000E+00  0.0000E+00  0.0000E+00
     -1.719  0.1696E-31  0.1140E-17  0.1140E-17  0.1140E-17  0.8700E-18  0.8700E-18  0.6358E-19  0.8700E-18  0.6358E-19
     -1.619  0.3726E-23  0.2505E-09  0.2505E-09  0.2505E-09  0.1911E-09  0.1911E-09  0.1397E-10  0.1911E-09  0.1397E-10
     -1.520  0.2741E-11  0.2708E-04  0.2708E-04  0.2708E-04  0.2066E-04  0.2066E-04  0.1510E-05  0.2066E-04  0.1510E-05
     -1.420  0.4846E-05  0.2563E-02  0.2563E-02  0.2563E-02  0.1956E-02  0.1956E-02  0.1429E-03  0.1956E-02  0.1429E-03
     -1.321  0.5336E-02  0.2154E-02  0.2154E-02  0.2154E-02  0.1555E-02  0.1555E-02  0.8447E-04  0.1555E-02  0.8447E-04
     -1.222  0.1650E-01  0.1982E-02  0.1982E-02  0.1982E-02  0.1238E-02  0.1238E-02  0.1904E-06  0.1238E-02  0.1904E-06
     -1.122  0.4047E-03  0.4767E-04  0.4767E-04  0.4723E-04  0.2943E-04  0.2995E-04  0.3185E-07  0.2943E-04  0.2573E-07
     -1.023  0.3069E-01  0.2305E-02  0.2305E-02  0.7635E-03  0.5135E-03  0.2217E-02  0.1118E-03  0.5135E-03  0.8722E-04
     -0.923  0.1556E+00  0.1432E-01  0.1432E-01  0.4035E-02  0.3498E-02  0.1450E-01  0.7667E-03  0.3498E-02  0.5946E-03
     -0.824  0.3825E-01  0.5639E-02  0.5639E-02  0.1066E-01  0.1646E-02  0.2942E-02  0.4070E-03  0.1646E-02  0.1117E-02
     -0.725  0.1712E-01  0.3128E-02  0.3128E-02  0.5994E-02  0.7823E-03  0.1124E-02  0.1835E-03  0.7823E-03  0.5506E-03
     -0.625  0.1736E-01  0.1062E-01  0.1062E-01  0.1062E-01  0.8334E-03  0.8332E-03  0.7522E-06  0.8334E-03  0.2257E-05
     -0.526  0.2900E-01  0.6507E-02  0.6507E-02  0.8220E-02  0.9749E-03  0.2322E-03  0.3946E-03  0.9749E-03  0.1184E-02
     -0.426  0.7439E-01  0.1390E-01  0.1390E-01  0.1869E-01  0.2376E-02  0.3215E-03  0.1102E-02  0.2376E-02  0.3302E-02
     -0.327  0.1922E+00  0.1712E-01  0.1712E-01  0.2595E-01  0.1153E-02  0.1682E-02  0.2101E-02  0.1153E-02  0.5055E-02
     -0.227  0.2031E+00  0.2112E-01  0.2112E-01  0.2984E-01  0.1443E-02  0.2130E-02  0.2364E-02  0.1443E-02  0.5454E-02
     -0.128  0.2791E-01  0.3047E-01  0.3047E-01  0.3286E-03  0.1343E-03  0.4517E-02  0.2096E-04  0.1343E-03  0.5079E-04