PROCAR lm decomposed + phase
# of k-points:    2         # of bands:  36         # of ions:  15

 k-point    1 :    0.25000000 0.25000000 0.25000000     weight = 0.25000000

band   1 # energy  -14.28062713 # occ.  2.00000000
 
ion      s     py     pz     px    dxy    dyz    dz2    dxz    dx2    tot
  1  0.002  0.000  0.000  0.000  0.000  0.000  0.000  0.000  0.000  0.002
  2  0.005  0.000  0.002  0.000  0.000  0.000  0.000  0.000  0.000  0.007
  3  0.005  0.002  0.000  0.000  0.000  0.000  0.000  0.000  0.000  0.007
  4  0.005  0.000  0.000  0.002  0.000  0.000  0.000  0.000  0.000  0.007
  5  0.005  0.000  0.000  0.002  0.000  0.000  0.000  0.000  0.000  0.007
  6  0.005  0.002  0.000  0.000  0.000  0.000  0.000  0.000  0.000  0.007
  7  0.005  0.000  0.002  0.000  0.000  0.000  0.000  0.000  0.000  0.007
  8  0.002  0.000  0.000  0.000  0.000  0.000  0.000  0.000  0.000  0.002
  9  0.041  0.000  0.000  0.000  0.000  0.000  0.000  0.000  0.000  0.041
 10  0.041  0.000  0.000  0.000  0.000  0.000  0.000  0.000  0.000  0.041
 11  0.029  0.000  0.000  0.000  0.000  0.000  0.000  0.000  0.000  0.029
 12  0.041  0.000  0.000  0.000  0.000  0.000  0.000  0.000  0.000  0.041
 13  0.029  0.000  0.000  0.000  0.000  0.000  0.000  0.000  0.000  0.029
 14  0.029  0.000  0.000  0.000  0.000  0.000  0.000  0.000  0.000  0.029
 15  0.518  0.000  0.000  0.000  0.000  0.000  0.000  0.000  0.000  0.518
tot  0.759  0.004  0.004  0.004  0.000  0.000  0.001  0.000  0.001  0.771
ion      s     py     pz     px    dxy    dyz    dz2    dxz    dx2
  1  0.006 -0.008 -0.008 -0.008  0.001  0.001 -0.000  0.001 -0.000
  1  0.112  0.003  0.003  0.003 -0.000 -0.000  0.000 -0.000 -0.000
  2  0.055 -0.008 -0.024 -0.008 -0.000 -0.001  0.013 -0.001 -0.000
  2  0.172 -0.001 -0.046 -0.001 -0.000 -0.000  0.019 -0.000 -0.000
  3  0.055 -0.024 -0.008 -0.008 -0.001 -0.001 -0.007 -0.000 -0.011
  3  0.172 -0.046 -0.001 -0.001 -0.000 -0.000 -0.010 -0.000 -0.017
  4 -0.024 -0.007 -0.007 -0.016  0.000  0.000  0.005  0.000 -0.008
  4  0.179  0.002  0.002  0.050 -0.000 -0.000 -0.011 -0.000  0.019
  5  0.055 -0.008 -0.008 -0.024 -0.001 -0.000 -0.007 -0.001  0.011
  5  0.172 -0.001 -0.001 -0.046 -0.000 -0.000 -0.010 -0.000  0.017
  6 -0.024 -0.016 -0.007 -0.007  0.000  0.000  0.005  0.000  0.008
  6  0.179  0.050  0.002  0.002 -0.000 -0.000 -0.011 -0.000 -0.019
  7 -0.024 -0.007 -0.016 -0.007  0.000  0.000 -0.010  0.000  0.000
  7  0.179  0.002  0.050  0.002 -0.000 -0.000  0.022 -0.000 -0.000
  8  0.014 -0.008 -0.008 -0.008 -0.001 -0.001  0.000 -0.001 -0.000
  8  0.111 -0.001 -0.001 -0.001 -0.000 -0.000  0.000 -0.000 -0.000
  9  0.031 -0.003 -0.005 -0.003  0.000  0.000  0.000  0.000  0.000
  9  0.345  0.000  0.000  0.000  0.000  0.000  0.000  0.000  0.000
 10  0.031 -0.005 -0.003 -0.003  0.000  0.000  0.000  0.000  0.000
 10  0.345  0.000  0.000  0.000  0.000  0.000  0.000  0.000  0.000
 11  0.026 -0.015 -0.015 -0.006  0.000  0.000  0.000  0.000  0.000
 11  0.292  0.001  0.001  0.001  0.000  0.000  0.000  0.000  0.000
 12  0.031 -0.003 -0.003 -0.005  0.000  0.000  0.000  0.000  0.000
 12  0.345  0.000  0.000  0.000  0.000  0.000  0.000  0.000  0.000
 13  0.026 -0.006 -0.015 -0.015  0.000  0.000  0.000  0.000  0.000
 13  0.292  0.001  0.001  0.001  0.000  0.000  0.000  0.000  0.000
 14  0.026 -0.015 -0.006 -0.015  0.000  0.000  0.000  0.000  0.000
 14  0.292  0.001  0.001  0.001  0.000  0.000  0.000  0.000  0.000
 15  0.106 -0.004 -0.004 -0.004  0.000  0.000  0.000  0.000  0.000
 15  1.193  0.000  0.000  0.000  0.000  0.000  0.000  0.000  0.000
 
band   2 # energy  -13.46960514 # occ.  2.00000000
 
ion      s     py     pz     px    dxy    dyz    dz2    dxz    dx2    tot
  1  0.004  0.000  0.000  0.000  0.000  0.000  0.000  0.000  0.000  0.004
  2  0.001  0.000  0.001  0.000  0.000  0.000  0.001  0.000  0.000  0.003
  3  0.001  0.001  0.000  0.000  0.000  0.000  0.000  0.000  0.001  0.003
  4  0.001  0.000  0.000  0.001  0.000  0.000  0.000  0.000  0.001  0.003
  5  0.001  0.000  0.000  0.001  0.000  0.000  0.000  0.000  0.001  0.003
  6  0.001  0.001  0.000  0.000  0.000  0.000  0.000  0.000  0.001  0.003
  7  0.001  0.000  0.001  0.000  0.000  0.000  0.001  0.000  0.000  0.003
  8  0.004  0.000  0.000  0.000  0.000  0.000  0.000  0.000  0.000  0.004
  9  0.062  0.000  0.000  0.000  0.000  0.000  0.000  0.000  0.000  0.062
 10  0.062  0.000  0.000  0.000  0.000  0.000  0.000  0.000  0.000  0.062
 11  0.110  0.000  0.000  0.000  0.000  0.000  0.000  0.000  0.000  0.110
 12  0.062  0.000  0.000  0.000  0.000  0.000  0.000  0.000  0.000  0.062
 13  0.110  0.000  0.000  0.000  0.000  0.000  0.000  0.000  0.000  0.110
 14  0.110  0.000  0.000  0.000  0.000  0.000  0.000  0.000  0.000  0.110
 15  0.244  0.000  0.000  0.000  0.000  0.000  0.000  0.000  0.000  0.244
tot  0.772  0.003  0.003  0.003  0.000  0.000  0.003  0.000  0.003  0.786
ion      s     py     pz     px    dxy    dyz    dz2    dxz    dx2
  1  0.026 -0.012 -0.012 -0.012 -0.000 -0.000 -0.000 -0.000 -0.000
  1  0.169 -0.003 -0.003 -0.003  0.000  0.000  0.000  0.000 -0.000
  2 -0.034 -0.013  0.017 -0.013  0.000 -0.000 -0.011 -0.000  0.000
  2  0.057  0.005  0.039  0.005 -0.000  0.000 -0.038  0.000 -0.000
  3 -0.034  0.017 -0.013 -0.013 -0.000 -0.000  0.005  0.000  0.009
  3  0.057  0.039  0.005  0.005  0.000  0.000  0.019 -0.000  0.033
  4  0.043 -0.014 -0.014  0.009  0.000 -0.000 -0.002  0.000  0.003
  4  0.050 -0.003 -0.003 -0.041 -0.000 -0.000  0.020 -0.000 -0.034
  5 -0.034 -0.013 -0.013  0.017 -0.000  0.000  0.005 -0.000 -0.009
  5  0.057  0.005  0.005  0.039  0.000 -0.000  0.019  0.000 -0.033
  6  0.043  0.009 -0.014 -0.014  0.000  0.000 -0.002 -0.000 -0.003
  6  0.050 -0.041 -0.003 -0.003 -0.000 -0.000  0.020 -0.000  0.034
  7  0.043 -0.014  0.009 -0.014 -0.000  0.000  0.004  0.000 -0.000
  7  0.050 -0.003 -0.041 -0.003 -0.000 -0.000 -0.040 -0.000 -0.000
  8  0.004 -0.011 -0.011 -0.011  0.000  0.000  0.000  0.000 -0.000
  8  0.171  0.005  0.005  0.005  0.000  0.000  0.000  0.000 -0.000
  9  0.036 -0.007 -0.012 -0.007  0.000  0.000  0.000  0.000  0.000
  9  0.402  0.001  0.001  0.001  0.000  0.000  0.000  0.000  0.000
 10  0.036 -0.012 -0.007 -0.007  0.000  0.000  0.000  0.000  0.000
 10  0.402  0.001  0.001  0.001  0.000  0.000  0.000  0.000  0.000
 11  0.048  0.004  0.004 -0.009  0.000  0.000  0.000  0.000  0.000
 11  0.533 -0.000 -0.000  0.001  0.000  0.000  0.000  0.000  0.000
 12  0.036 -0.007 -0.007 -0.012  0.000  0.000  0.000  0.000  0.000
 12  0.402  0.001  0.001  0.001  0.000  0.000  0.000  0.000  0.000
 13  0.048 -0.009  0.004  0.004  0.000  0.000  0.000  0.000  0.000
 13  0.533  0.001 -0.000 -0.000  0.000  0.000  0.000  0.000  0.000
 14  0.048  0.004 -0.009  0.004  0.000  0.000  0.000  0.000  0.000
 14  0.533 -0.000  0.001 -0.000  0.000  0.000  0.000  0.000  0.000
 15 -0.069 -0.013 -0.013 -0.013  0.000  0.000  0.000  0.000  0.000
 15 -0.772  0.001  0.001  0.001  0.000  0.000  0.000  0.000  0.000
 
band   3 # energy  -13.10656892 # occ.  2.00000000
 
ion      s     py     pz     px    dxy    dyz    dz2    dxz    dx2    tot
  1  0.001  0.001  0.001  0.001  0.000  0.000  0.000  0.000  0.000  0.004
  2  0.000  0.001  0.000  0.001  0.000  0.000  0.000  0.000  0.000  0.002
  3  0.000  0.000  0.001  0.001  0.000  0.000  0.000  0.000  0.000  0.002
  4  0.000  0.001  0.001  0.000  0.000  0.000  0.000  0.000  0.000  0.002
  5  0.000  0.001  0.001  0.000  0.000  0.000  0.000  0.000  0.000  0.002
  6  0.000  0.000  0.001  0.001  0.000  0.000  0.000  0.000  0.000  0.002
  7  0.000  0.001  0.000  0.001  0.000  0.000  0.000  0.000  0.000  0.002
  8  0.001  0.001  0.001  0.001  0.000  0.000  0.000  0.000  0.000  0.004
  9  0.144  0.000  0.000  0.000  0.000  0.000  0.000  0.000  0.000  0.144
 10  0.144  0.000  0.000  0.000  0.000  0.000  0.000  0.000  0.000  0.144
 11  0.107  0.000  0.000  0.000  0.000  0.000  0.000  0.000  0.000  0.107
 12  0.144  0.000  0.000  0.000  0.000  0.000  0.000  0.000  0.000  0.144
 13  0.107  0.000  0.000  0.000  0.000  0.000  0.000  0.000  0.000  0.107
 14  0.107  0.000  0.000  0.000  0.000  0.000  0.000  0.000  0.000  0.107
 15  0.009  0.000  0.000  0.000  0.000  0.000  0.000  0.000  0.000  0.010
tot  0.769  0.005  0.005  0.005  0.000  0.000  0.000  0.000  0.000  0.785
ion      s     py     pz     px    dxy    dyz    dz2    dxz    dx2
  1  0.091 -0.002 -0.002 -0.002 -0.000 -0.000  0.000 -0.000 -0.000
  1 -0.023 -0.036 -0.036 -0.036  0.000  0.000 -0.000  0.000  0.000
  2 -0.057  0.003 -0.005  0.003  0.001  0.001  0.011  0.001  0.000
  2  0.007  0.037 -0.007  0.037  0.000  0.002  0.005  0.002 -0.000
  3 -0.057 -0.005  0.003  0.003  0.001  0.001 -0.005  0.001 -0.009
  3  0.007 -0.007  0.037  0.037  0.002  0.002 -0.003  0.000 -0.005
  4  0.058 -0.003 -0.003 -0.004 -0.001 -0.001  0.005 -0.001 -0.008
  4 -0.004 -0.037 -0.037  0.008  0.002  0.000 -0.004  0.002  0.006
  5 -0.057  0.003  0.003 -0.005  0.001  0.001 -0.005  0.001  0.009
  5  0.007  0.037  0.037 -0.007  0.002  0.000 -0.003  0.002  0.005
  6  0.058 -0.004 -0.003 -0.003 -0.001 -0.001  0.005 -0.001  0.008
  6 -0.004  0.008 -0.037 -0.037  0.002  0.002 -0.004  0.000 -0.006
  7  0.058 -0.003 -0.004 -0.003 -0.001 -0.001 -0.010 -0.001 -0.000
  7 -0.004 -0.037  0.008 -0.037  0.000  0.002  0.007  0.002  0.000
  8 -0.093  0.004  0.004  0.004  0.000  0.000 -0.000  0.000  0.000
  8 -0.007  0.035  0.035  0.035 -0.000 -0.000 -0.000 -0.000  0.000
  9 -0.053 -0.008 -0.014 -0.008  0.000  0.000  0.000  0.000  0.000
  9 -0.592  0.001  0.001  0.001  0.000  0.000  0.000  0.000  0.000
 10 -0.053 -0.014 -0.008 -0.008  0.000  0.000  0.000  0.000  0.000
 10 -0.592  0.001  0.001  0.001  0.000  0.000  0.000  0.000  0.000
 11  0.045  0.007  0.007  0.016  0.000  0.000  0.000  0.000  0.000
 11  0.511 -0.001 -0.001 -0.001  0.000  0.000  0.000  0.000  0.000
 12 -0.053 -0.008 -0.008 -0.014  0.000  0.000  0.000  0.000  0.000
 12 -0.592  0.001  0.001  0.001  0.000  0.000  0.000  0.000  0.000
 13  0.045  0.016  0.007  0.007  0.000  0.000  0.000  0.000  0.000
 13  0.511 -0.001 -0.001 -0.001  0.000  0.000  0.000  0.000  0.000
 14  0.045  0.007  0.016  0.007  0.000  0.000  0.000  0.000  0.000
 14  0.511 -0.001 -0.001 -0.001  0.000  0.000  0.000  0.000  0.000
 15  0.013 -0.013 -0.013 -0.013  0.000  0.000  0.000  0.000  0.000
 15  0.149  0.001  0.001  0.001  0.000  0.000  0.000  0.000  0.000
 
band   4 # energy  -12.93984463 # occ.  2.00000000
 
ion      s     py     pz     px    dxy    dyz    dz2    dxz    dx2    tot
  1  0.000  0.000  0.002  0.000  0.000  0.000  0.000  0.000  0.000  0.003
  2  0.000  0.000  0.000  0.000  0.000  0.000  0.000  0.000  0.000  0.001
  3  0.000  0.000  0.000  0.002  0.000  0.000  0.000  0.000  0.000  0.002
  4  0.000  0.002  0.000  0.000  0.000  0.000  0.000  0.000  0.000  0.002
  5  0.000  0.002  0.000  0.000  0.000  0.000  0.000  0.000  0.000  0.002
  6  0.000  0.000  0.000  0.002  0.000  0.000  0.000  0.000  0.000  0.002
  7  0.000  0.000  0.000  0.000  0.000  0.000  0.000  0.000  0.000  0.001
  8  0.000  0.000  0.002  0.000  0.000  0.000  0.000  0.000  0.000  0.003
  9  0.258  0.000  0.000  0.000  0.000  0.000  0.000  0.000  0.000  0.258
 10  0.064  0.000  0.000  0.000  0.000  0.000  0.000  0.000  0.000  0.064
 11  0.065  0.000  0.000  0.000  0.000  0.000  0.000  0.000  0.000  0.065
 12  0.065  0.000  0.000  0.000  0.000  0.000  0.000  0.000  0.000  0.065
 13  0.065  0.000  0.000  0.000  0.000  0.000  0.000  0.000  0.000  0.065
 14  0.261  0.000  0.000  0.000  0.000  0.000  0.000  0.000  0.000  0.261
 15  0.000  0.000  0.000  0.000  0.000  0.000  0.000  0.000  0.000  0.000
tot  0.779  0.005  0.005  0.005  0.000  0.000  0.001  0.000  0.000  0.795
ion      s     py     pz     px    dxy    dyz    dz2    dxz    dx2
  1  0.000 -0.002  0.005 -0.002 -0.000  0.000 -0.019  0.000  0.000
  1 -0.000 -0.026  0.052 -0.026 -0.000  0.000  0.002  0.000 -0.000
  2 -0.045  0.002 -0.001  0.002 -0.001 -0.001  0.006 -0.001  0.000
  2  0.004  0.026 -0.001  0.026 -0.000  0.002 -0.000  0.002 -0.000
  3  0.023  0.001  0.001 -0.003  0.000  0.001 -0.013  0.000  0.011
  3 -0.002  0.000  0.027 -0.053 -0.004  0.002  0.001  0.000 -0.001
  4 -0.023  0.006 -0.003  0.001 -0.001 -0.000  0.013 -0.000  0.011
  4  0.002  0.053 -0.027 -0.000 -0.003  0.000 -0.001  0.002 -0.001
  5  0.023 -0.003  0.001  0.001  0.000  0.000 -0.013  0.001 -0.011
  5 -0.002 -0.053  0.027  0.000 -0.004  0.000  0.001  0.002  0.001
  6 -0.023  0.001 -0.003  0.006 -0.001 -0.000  0.013 -0.000 -0.011
  6  0.002 -0.000 -0.027  0.053 -0.003  0.002 -0.001  0.000  0.001
  7  0.045 -0.003 -0.001 -0.003  0.001  0.001 -0.006  0.001 -0.000
  7 -0.004 -0.026  0.001 -0.026 -0.000  0.002  0.001  0.002  0.000
  8 -0.000  0.002 -0.005  0.002  0.000 -0.000  0.019 -0.000 -0.000
  8 -0.000  0.026 -0.052  0.026 -0.000  0.000 -0.002  0.000  0.000
  9  0.070 -0.002 -0.007 -0.002  0.000  0.000  0.000  0.000  0.000
  9  0.784  0.000  0.001  0.000  0.000  0.000  0.000  0.000  0.000
 10 -0.035  0.003  0.009 -0.006  0.000  0.000  0.000  0.000  0.000
 10 -0.391 -0.000 -0.001  0.001  0.000  0.000  0.000  0.000  0.000
 11  0.035  0.006 -0.008 -0.003  0.000  0.000  0.000  0.000  0.000
 11  0.395 -0.001  0.001  0.000  0.000  0.000  0.000  0.000  0.000
 12 -0.035 -0.006  0.009  0.003  0.000  0.000  0.000  0.000  0.000
 12 -0.393  0.001 -0.001 -0.000  0.000  0.000  0.000  0.000  0.000
 13  0.035 -0.003 -0.008  0.006  0.000  0.000  0.000  0.000  0.000
 13  0.393  0.000  0.001 -0.001  0.000  0.000  0.000  0.000  0.000
 14 -0.070  0.002  0.007  0.002  0.000  0.000  0.000  0.000  0.000
 14 -0.788 -0.000 -0.001 -0.000  0.000  0.000  0.000  0.000  0.000
 15  0.000  0.005 -0.011  0.005  0.000  0.000  0.000  0.000  0.000
 15  0.000 -0.000  0.001 -0.000  0.000  0.000  0.000  0.000  0.000
 
band   5 # energy  -12.93984461 # occ.  2.00000000
 
ion      s     py     pz     px    dxy    dyz    dz2    dxz    dx2    tot
  1  0.000  0.001  0.000  0.001  0.000  0.000  0.000  0.000  0.000  0.003
  2  0.000  0.001  0.000  0.001  0.000  0.000  0.000  0.000  0.000  0.003
  3  0.000  0.000  0.001  0.000  0.000  0.000  0.000  0.000  0.000  0.002
  4  0.000  0.000  0.001  0.000  0.000  0.000  0.000  0.000  0.000  0.002
  5  0.000  0.000  0.001  0.000  0.000  0.000  0.000  0.000  0.000  0.002
  6  0.000  0.000  0.001  0.000  0.000  0.000  0.000  0.000  0.000  0.002
  7  0.000  0.001  0.000  0.001  0.000  0.000  0.000  0.000  0.000  0.003
  8  0.000  0.001  0.000  0.001  0.000  0.000  0.000  0.000  0.000  0.003
  9  0.000  0.000  0.000  0.000  0.000  0.000  0.000  0.000  0.000  0.000
 10  0.194  0.000  0.000  0.000  0.000  0.000  0.000  0.000  0.000  0.194
 11  0.195  0.000  0.000  0.000  0.000  0.000  0.000  0.000  0.000  0.195
 12  0.193  0.000  0.000  0.000  0.000  0.000  0.000  0.000  0.000  0.193
 13  0.196  0.000  0.000  0.000  0.000  0.000  0.000  0.000  0.000  0.196
 14  0.000  0.000  0.000  0.000  0.000  0.000  0.000  0.000  0.000  0.000
 15  0.000  0.000  0.000  0.000  0.000  0.000  0.000  0.000  0.000  0.000
tot  0.779  0.005  0.005  0.005  0.000  0.000  0.000  0.000  0.001  0.795
ion      s     py     pz     px    dxy    dyz    dz2    dxz    dx2
  1  0.000 -0.004  0.000  0.004 -0.000 -0.000 -0.000  0.000 -0.019
  1 -0.000 -0.045  0.000  0.045 -0.000 -0.000  0.000  0.000  0.002
  2 -0.000 -0.003 -0.000  0.003 -0.000 -0.000  0.000  0.000 -0.019
  2  0.000 -0.046 -0.000  0.046 -0.000 -0.003 -0.000  0.003  0.001
  3  0.039  0.001 -0.003 -0.000  0.001  0.000  0.011  0.001 -0.000
  3 -0.003  0.001 -0.045  0.001 -0.000 -0.003 -0.001  0.000  0.000
  4  0.039  0.000 -0.005 -0.001  0.001  0.001  0.011  0.001  0.000
  4 -0.004  0.001 -0.045  0.001 -0.000 -0.000 -0.001  0.003  0.000
  5 -0.039  0.000  0.003 -0.001 -0.001 -0.001 -0.011 -0.000 -0.000
  5  0.003 -0.001  0.046 -0.001  0.000 -0.000  0.001  0.003  0.000
  6 -0.039  0.001  0.005 -0.000 -0.001 -0.001 -0.011 -0.001  0.000
  6  0.004 -0.001  0.045 -0.001  0.000 -0.003  0.001  0.000  0.000
  7  0.000  0.005 -0.000 -0.005  0.000 -0.000 -0.000  0.000  0.019
  7 -0.000  0.046  0.000 -0.046 -0.000 -0.003  0.000  0.003 -0.002
  8 -0.000  0.004 -0.000 -0.004  0.000  0.000  0.000 -0.000  0.019
  8  0.000  0.045 -0.000 -0.045 -0.000 -0.000 -0.000  0.000 -0.002
  9  0.000 -0.009 -0.000  0.009  0.000  0.000  0.000  0.000  0.000
  9  0.001  0.001  0.000 -0.001  0.000  0.000  0.000  0.000  0.000
 10 -0.060  0.006 -0.002  0.006  0.000  0.000  0.000  0.000  0.000
 10 -0.680 -0.001  0.000 -0.001  0.000  0.000  0.000  0.000  0.000
 11 -0.060  0.006 -0.003  0.006  0.000  0.000  0.000  0.000  0.000
 11 -0.682 -0.001  0.000 -0.001  0.000  0.000  0.000  0.000  0.000
 12  0.060 -0.006  0.002 -0.006  0.000  0.000  0.000  0.000  0.000
 12  0.679  0.001 -0.000  0.001  0.000  0.000  0.000  0.000  0.000
 13  0.061 -0.006  0.003 -0.006  0.000  0.000  0.000  0.000  0.000
 13  0.683  0.001 -0.000  0.001  0.000  0.000  0.000  0.000  0.000
 14 -0.000  0.008  0.000 -0.008  0.000  0.000  0.000  0.000  0.000
 14 -0.001 -0.001 -0.000  0.001  0.000  0.000  0.000  0.000  0.000
 15  0.000  0.009 -0.000 -0.009  0.000  0.000  0.000  0.000  0.000
 15  0.000 -0.001  0.000  0.001  0.000  0.000  0.000  0.000  0.000
 
band   6 # energy  -12.76809121 # occ.  2.00000000
 
ion      s     py     pz     px    dxy    dyz    dz2    dxz    dx2    tot
  1  0.000  0.000  0.000  0.000  0.000  0.000  0.001  0.000  0.000  0.002
  2  0.001  0.000  0.000  0.000  0.000  0.000  0.000  0.000  0.000  0.002
  3  0.000  0.000  0.000  0.000  0.000  0.000  0.001  0.000  0.000  0.002
  4  0.000  0.000  0.000  0.000  0.000  0.000  0.001  0.000  0.000  0.002
  5  0.000  0.000  0.000  0.000  0.000  0.000  0.001  0.000  0.000  0.002
  6  0.000  0.000  0.000  0.000  0.000  0.000  0.001  0.000  0.000  0.002
  7  0.001  0.000  0.000  0.000  0.000  0.000  0.000  0.000  0.000  0.002
  8  0.000  0.000  0.000  0.000  0.000  0.000  0.001  0.000  0.000  0.002
  9  0.266  0.000  0.000  0.000  0.000  0.000  0.000  0.000  0.000  0.266
 10  0.066  0.000  0.000  0.000  0.000  0.000  0.000  0.000  0.000  0.066
 11  0.066  0.000  0.000  0.000  0.000  0.000  0.000  0.000  0.000  0.066
 12  0.067  0.000  0.000  0.000  0.000  0.000  0.000  0.000  0.000  0.067
 13  0.065  0.000  0.000  0.000  0.000  0.000  0.000  0.000  0.000  0.065
 14  0.263  0.000  0.000  0.000  0.000  0.000  0.000  0.000  0.000  0.263
 15  0.000  0.000  0.000  0.000  0.000  0.000  0.000  0.000  0.000  0.000
tot  0.798  0.001  0.001  0.001  0.000  0.000  0.005  0.000  0.002  0.807
ion      s     py     pz     px    dxy    dyz    dz2    dxz    dx2
  1 -0.000 -0.011  0.023 -0.011 -0.000  0.000 -0.004  0.000  0.000
  1  0.000  0.001 -0.002  0.001 -0.000  0.000 -0.047  0.000  0.000
  2  0.005 -0.010  0.002 -0.010  0.000 -0.001 -0.001 -0.001 -0.000
  2  0.101  0.000  0.004  0.000  0.000  0.000 -0.016  0.000 -0.000
  3 -0.003 -0.001 -0.012  0.022  0.001 -0.001  0.002 -0.000 -0.002
  3 -0.050 -0.002  0.001 -0.001 -0.000 -0.000  0.032 -0.000 -0.028
  4 -0.006  0.022 -0.012 -0.001 -0.002 -0.000  0.004  0.001  0.003
  4 -0.050 -0.003  0.001  0.002  0.000 -0.000  0.032 -0.000  0.028
  5 -0.003  0.022 -0.012 -0.001  0.001 -0.000  0.002 -0.001  0.002
  5 -0.051 -0.001  0.001 -0.002 -0.000 -0.000  0.032 -0.000  0.028
  6 -0.006 -0.001 -0.012  0.022 -0.002  0.001  0.004 -0.000 -0.003
  6 -0.050  0.002  0.001 -0.003  0.000 -0.000  0.032 -0.000 -0.028
  7  0.013 -0.010  0.001 -0.010  0.000  0.001 -0.002  0.001 -0.000
  7  0.100  0.001 -0.004  0.001  0.000  0.000 -0.016  0.000 -0.000
  8  0.000 -0.011  0.023 -0.011  0.000 -0.000 -0.004 -0.000  0.000
  8  0.000  0.001 -0.002  0.001 -0.000  0.000 -0.047  0.000  0.000
  9 -0.070 -0.003 -0.008 -0.004  0.000  0.000  0.000  0.000  0.000
  9 -0.787  0.000  0.001  0.000  0.000  0.000  0.000  0.000  0.000
 10  0.035  0.004  0.009 -0.006  0.000  0.000  0.000  0.000  0.000
 10  0.392 -0.000 -0.001  0.001  0.000  0.000  0.000  0.000  0.000
 11  0.035 -0.006  0.009  0.004  0.000  0.000  0.000  0.000  0.000
 11  0.393  0.000 -0.001 -0.000  0.000  0.000  0.000  0.000  0.000
 12  0.035 -0.006  0.009  0.004  0.000  0.000  0.000  0.000  0.000
 12  0.395  0.001 -0.001 -0.000  0.000  0.000  0.000  0.000  0.000
 13  0.035  0.004  0.009 -0.006  0.000  0.000  0.000  0.000  0.000
 13  0.390 -0.000 -0.001  0.000  0.000  0.000  0.000  0.000  0.000
 14 -0.069 -0.003 -0.008 -0.003  0.000  0.000  0.000  0.000  0.000
 14 -0.783  0.000  0.001  0.000  0.000  0.000  0.000  0.000  0.000
 15 -0.000  0.005 -0.011  0.005  0.000  0.000  0.000  0.000  0.000
 15 -0.000 -0.000  0.001 -0.000  0.000  0.000  0.000  0.000  0.000
 
band   7 # energy  -12.76809119 # occ.  2.00000000
 
ion      s     py     pz     px    dxy    dyz    dz2    dxz    dx2    tot
  1  0.000  0.000  0.000  0.000  0.000  0.000  0.000  0.000  0.001  0.002
  2  0.000  0.000  0.000  0.000  0.000  0.000  0.000  0.000  0.001  0.002
  3  0.001  0.000  0.000  0.000  0.000  0.000  0.000  0.000  0.000  0.002
  4  0.001  0.000  0.000  0.000  0.000  0.000  0.000  0.000  0.000  0.002
  5  0.001  0.000  0.000  0.000  0.000  0.000  0.000  0.000  0.000  0.002
  6  0.001  0.000  0.000  0.000  0.000  0.000  0.000  0.000  0.000  0.002
  7  0.000  0.000  0.000  0.000  0.000  0.000  0.000  0.000  0.001  0.002
  8  0.000  0.000  0.000  0.000  0.000  0.000  0.000  0.000  0.001  0.002
  9  0.000  0.000  0.000  0.000  0.000  0.000  0.000  0.000  0.000  0.000
 10  0.200  0.000  0.000  0.000  0.000  0.000  0.000  0.000  0.000  0.200
 11  0.197  0.000  0.000  0.000  0.000  0.000  0.000  0.000  0.000  0.197
 12  0.199  0.000  0.000  0.000  0.000  0.000  0.000  0.000  0.000  0.199
 13  0.198  0.000  0.000  0.000  0.000  0.000  0.000  0.000  0.000  0.198
 14  0.000  0.000  0.000  0.000  0.000  0.000  0.000  0.000  0.000  0.000
 15  0.000  0.000  0.000  0.000  0.000  0.000  0.000  0.000  0.000  0.000
tot  0.798  0.001  0.001  0.001  0.000  0.000  0.002  0.000  0.005  0.807
ion      s     py     pz     px    dxy    dyz    dz2    dxz    dx2
  1 -0.000  0.020 -0.000 -0.019  0.000  0.000  0.000 -0.000  0.004
  1 -0.000 -0.002  0.000  0.002  0.000  0.000  0.000 -0.000  0.047
  2 -0.000 -0.020 -0.000  0.020 -0.000 -0.001  0.000  0.001 -0.003
  2 -0.000  0.001 -0.000 -0.001 -0.000  0.000  0.000 -0.000 -0.048
  3  0.004  0.002 -0.018  0.001 -0.000 -0.001  0.002  0.000  0.000
  3  0.087  0.003  0.001 -0.000  0.000  0.000  0.028  0.000 -0.000
  4 -0.011 -0.002  0.018 -0.001 -0.000 -0.000 -0.003 -0.001 -0.000
  4 -0.087  0.000 -0.002  0.003 -0.000 -0.000 -0.028 -0.000 -0.000
  5 -0.004 -0.002  0.018 -0.002  0.000 -0.000 -0.002  0.001  0.000
  5 -0.087  0.000 -0.001 -0.003 -0.000 -0.000 -0.028 -0.000 -0.000
  6  0.011  0.001 -0.018  0.002  0.000  0.001  0.003  0.000 -0.000
  6  0.087 -0.003  0.002 -0.000  0.000  0.000  0.028  0.000 -0.000
  7 -0.000 -0.020 -0.000  0.020 -0.000  0.001  0.000 -0.001 -0.005
  7 -0.000  0.002  0.000 -0.002 -0.000 -0.000  0.000  0.000 -0.048
  8 -0.000  0.020 -0.000 -0.019 -0.000 -0.000  0.000  0.000  0.004
  8 -0.000 -0.002  0.000  0.002  0.000  0.000  0.000 -0.000  0.047
  9  0.000  0.009  0.000 -0.009  0.000  0.000  0.000  0.000  0.000
  9  0.002 -0.001 -0.000  0.001  0.000  0.000  0.000  0.000  0.000
 10 -0.061 -0.007  0.001 -0.007  0.000  0.000  0.000  0.000  0.000
 10 -0.683  0.001 -0.000  0.001  0.000  0.000  0.000  0.000  0.000
 11  0.060  0.007 -0.001  0.007  0.000  0.000  0.000  0.000  0.000
 11  0.677 -0.001  0.000 -0.001  0.000  0.000  0.000  0.000  0.000
 12  0.060  0.007 -0.001  0.007  0.000  0.000  0.000  0.000  0.000
 12  0.681 -0.001  0.000 -0.001  0.000  0.000  0.000  0.000  0.000
 13 -0.060 -0.007  0.001 -0.007  0.000  0.000  0.000  0.000  0.000
 13 -0.679  0.001 -0.000  0.001  0.000  0.000  0.000  0.000  0.000
 14  0.000  0.008  0.000 -0.008  0.000  0.000  0.000  0.000  0.000
 14  0.002 -0.001 -0.000  0.001  0.000  0.000  0.000  0.000  0.000
 15 -0.000 -0.009  0.000  0.009  0.000  0.000  0.000  0.000  0.000
 15 -0.000  0.001 -0.000 -0.001  0.000  0.000  0.000  0.000  0.000
 
band   8 # energy   -1.43220326 # occ.  2.00000000
 
ion      s     py     pz     px    dxy    dyz    dz2    dxz    dx2    tot
  1  0.000  0.000  0.000  0.001  0.000  0.001  0.000  0.000  0.000  0.002
  2  0.001  0.001  0.000  0.002  0.000  0.001  0.000  0.001  0.000  0.005
  3  0.015  0.002  0.000  0.002  0.001  0.000  0.000  0.000  0.000  0.021
  4  0.023  0.002  0.000  0.004  0.001  0.000  0.000  0.000  0.000  0.029
  5  0.023  0.002  0.000  0.004  0.001  0.000  0.000  0.000  0.000  0.029
  6  0.015  0.002  0.000  0.002  0.001  0.000  0.000  0.000  0.000  0.021
  7  0.001  0.001  0.000  0.002  0.000  0.001  0.000  0.001  0.000  0.005
  8  0.000  0.000  0.000  0.001  0.000  0.001  0.000  0.000  0.000  0.002
  9  0.000  0.059  0.000  0.052  0.000  0.000  0.000  0.000  0.000  0.111
 10  0.000  0.003  0.036  0.013  0.000  0.000  0.000  0.000  0.000  0.052
 11  0.001  0.006  0.017  0.003  0.000  0.000  0.000  0.000  0.000  0.027
 12  0.000  0.001  0.017  0.005  0.000  0.000  0.000  0.000  0.000  0.023
 13  0.001  0.002  0.017  0.002  0.000  0.000  0.000  0.000  0.000  0.021
 14  0.000  0.008  0.000  0.003  0.000  0.000  0.000  0.000  0.000  0.011
 15  0.000  0.086  0.004  0.127  0.000  0.000  0.000  0.000  0.000  0.218
tot  0.080  0.178  0.092  0.221  0.003  0.002  0.000  0.002  0.000  0.580
ion      s     py     pz     px    dxy    dyz    dz2    dxz    dx2
  1  0.000 -0.028 -0.006  0.034  0.006 -0.032 -0.001  0.026  0.004
  1  0.000 -0.003 -0.001  0.004  0.000 -0.002 -0.001  0.002  0.008
  2  0.063  0.042 -0.011 -0.053 -0.000 -0.030  0.002  0.036  0.003
  2 -0.020 -0.007  0.007  0.018 -0.000  0.010 -0.002 -0.012 -0.012
  3  0.296 -0.054  0.007 -0.055  0.036 -0.007 -0.006 -0.000 -0.006
  3 -0.092  0.032  0.016  0.032 -0.013  0.001  0.012 -0.002  0.004
  4  0.373  0.051  0.017  0.071  0.031  0.000 -0.007  0.006  0.009
  4  0.047  0.025  0.022  0.026  0.006  0.002 -0.008  0.002  0.006
  5 -0.359  0.046  0.012  0.065 -0.030  0.000  0.006 -0.006 -0.008
  5  0.112 -0.033 -0.025 -0.039  0.011  0.002 -0.010  0.003  0.008
  6 -0.308 -0.059  0.004 -0.060 -0.038  0.007  0.008 -0.000  0.007
  6 -0.038 -0.022 -0.017 -0.022 -0.006  0.000  0.010 -0.002  0.003
  7 -0.066  0.043 -0.012 -0.055 -0.000  0.031 -0.002 -0.038 -0.005
  7 -0.008 -0.000 -0.005 -0.008 -0.000  0.004 -0.002 -0.006 -0.011
  8 -0.000 -0.027 -0.006  0.033 -0.005  0.031  0.000 -0.025 -0.002
  8  0.000  0.008  0.002 -0.010  0.001 -0.008 -0.001  0.006  0.009
  9 -0.000 -0.425  0.021  0.398  0.000  0.000  0.000  0.000  0.000
  9 -0.000  0.038 -0.002 -0.035  0.000  0.000  0.000  0.000  0.000
 10 -0.000  0.100 -0.330  0.200  0.000  0.000  0.000  0.000  0.000
 10 -0.001 -0.009  0.029 -0.018  0.000  0.000  0.000  0.000  0.000
 11  0.000 -0.136 -0.225 -0.089  0.000  0.000  0.000  0.000  0.000
 11  0.003  0.012  0.020  0.008  0.000  0.000  0.000  0.000  0.000
 12  0.000 -0.068  0.225 -0.121  0.000  0.000  0.000  0.000  0.000
 12  0.001  0.006 -0.020  0.011  0.000  0.000  0.000  0.000  0.000
 13 -0.000  0.074  0.229  0.068  0.000  0.000  0.000  0.000  0.000
 13 -0.003 -0.007 -0.020 -0.006  0.000  0.000  0.000  0.000  0.000
 14 -0.000  0.157  0.016 -0.093  0.000  0.000  0.000  0.000  0.000
 14 -0.001 -0.014 -0.001  0.008  0.000  0.000  0.000  0.000  0.000
 15  0.000  0.503  0.107 -0.610  0.000  0.000  0.000  0.000  0.000
 15  0.000 -0.045 -0.009  0.054  0.000  0.000  0.000  0.000  0.000
 
band   9 # energy   -1.43220325 # occ.  2.00000000
 
ion      s     py     pz     px    dxy    dyz    dz2    dxz    dx2    tot
  1  0.000  0.000  0.001  0.000  0.001  0.000  0.000  0.000  0.000  0.002
  2  0.025  0.002  0.004  0.001  0.000  0.000  0.000  0.000  0.000  0.032
  3  0.010  0.002  0.003  0.000  0.000  0.001  0.000  0.000  0.000  0.016
  4  0.003  0.001  0.002  0.000  0.000  0.000  0.000  0.001  0.000  0.008
  5  0.003  0.001  0.002  0.000  0.000  0.000  0.000  0.001  0.000  0.008
  6  0.010  0.002  0.003  0.000  0.000  0.001  0.000  0.000  0.000  0.016
  7  0.025  0.002  0.004  0.001  0.000  0.000  0.000  0.000  0.000  0.032
  8  0.000  0.000  0.001  0.000  0.001  0.000  0.000  0.000  0.000  0.002
  9  0.000  0.000  0.005  0.008  0.000  0.000  0.000  0.000  0.000  0.013
 10  0.000  0.002  0.024  0.046  0.000  0.000  0.000  0.000  0.000  0.072
 11  0.000  0.011  0.001  0.000  0.000  0.000  0.000  0.000  0.000  0.013
 12  0.000  0.058  0.043  0.001  0.000  0.000  0.000  0.000  0.000  0.101
 13  0.001  0.001  0.000  0.016  0.000  0.000  0.000  0.000  0.000  0.018
 14  0.002  0.009  0.003  0.015  0.000  0.000  0.000  0.000  0.000  0.028
 15  0.000  0.059  0.141  0.018  0.000  0.000  0.000  0.000  0.000  0.218
tot  0.080  0.149  0.236  0.106  0.002  0.003  0.000  0.003  0.000  0.580
ion      s     py     pz     px    dxy    dyz    dz2    dxz    dx2
  1  0.000  0.023 -0.036  0.013  0.033 -0.012 -0.004 -0.021 -0.001
  1  0.000  0.003 -0.004  0.001  0.002 -0.001 -0.008 -0.001 -0.001
  2  0.378 -0.039 -0.069 -0.023 -0.000  0.024  0.010  0.013 -0.001
  2 -0.117  0.033  0.041  0.028 -0.003 -0.009 -0.012 -0.005  0.002
  3 -0.244  0.044  0.057 -0.017  0.014 -0.038  0.001  0.000  0.007
  3  0.076 -0.026 -0.030 -0.010 -0.004  0.013  0.004  0.002 -0.012
  4  0.140 -0.034  0.059  0.027 -0.026  0.000  0.002  0.040  0.006
  4  0.017  0.005  0.013  0.010 -0.003  0.001  0.008  0.006  0.009
  5 -0.134 -0.034  0.056  0.024  0.025  0.000 -0.001 -0.038 -0.005
  5  0.042  0.001 -0.023 -0.014 -0.008  0.001  0.008  0.013  0.010
  6  0.253  0.048  0.061 -0.015 -0.014  0.040 -0.000  0.000 -0.009
  6  0.032  0.018  0.019  0.013 -0.001  0.007  0.004  0.002 -0.010
  7 -0.393 -0.044 -0.075 -0.028 -0.000 -0.025 -0.012 -0.014  0.001
  7 -0.049 -0.025 -0.028 -0.024 -0.003 -0.005 -0.010 -0.003  0.002
  8 -0.000  0.022 -0.034  0.012 -0.032  0.011  0.002  0.021  0.000
  8  0.000 -0.007  0.010 -0.004  0.008 -0.003 -0.009 -0.005 -0.001
  9 -0.000 -0.014  0.128 -0.152  0.000  0.000  0.000  0.000  0.000
  9 -0.001  0.001 -0.011  0.013  0.000  0.000  0.000  0.000  0.000
 10  0.000 -0.082 -0.269  0.376  0.000  0.000  0.000  0.000  0.000