 running on   16 total cores
 distrk:  each k-point on   16 cores,    1 groups
 distr:  one band on    4 cores,    4 groups
 using from now: INCAR     
 vasp.5.4.1 05Feb16 (build Mar 31 2016 13:39:20) complex                        
  
 POSCAR found type information on POSCAR  Mg O 
 POSCAR found :  2 types and      15 ions
 scaLAPACK will be used
 LDA part: xc-table for Pade appr. of Perdew
 POSCAR, INCAR and KPOINTS ok, starting setup
 WARNING: small aliasing (wrap around) errors must be expected
 FFT: planning ...
 WAVECAR not read
 entering main loop
       N       E                     dE             d eps       ncg     rms          rms(c)
DAV:   1     0.270881952534E+03    0.27088E+03   -0.24034E+04   144   0.113E+03
DAV:   2    -0.800405202649E+02   -0.35092E+03   -0.34227E+03   192   0.260E+02
DAV:   3    -0.104355027422E+03   -0.24315E+02   -0.24247E+02   160   0.790E+01
DAV:   4    -0.104577539422E+03   -0.22251E+00   -0.22233E+00   176   0.808E+00
DAV:   5    -0.104579677158E+03   -0.21377E-02   -0.21375E-02   172   0.766E-01BRMIX: very serious problems
 the old and the new charge density differ
 old charge density:    58.00000 new   55.99998
    0.186E+01
DAV:   6    -0.932088125159E+02    0.11371E+02   -0.49269E+01   148   0.325E+01    0.657E+00
DAV:   7    -0.926652101959E+02    0.54360E+00   -0.80334E-01   176   0.577E+00    0.382E+00
DAV:   8    -0.924184314351E+02    0.24678E+00   -0.10922E+00   176   0.504E+00    0.173E+00
DAV:   9    -0.923991225449E+02    0.19309E-01   -0.23653E-02   168   0.745E-01    0.137E+00
DAV:  10    -0.923811899607E+02    0.17933E-01   -0.12902E-01   160   0.109E+00    0.441E-01
DAV:  11    -0.923822795537E+02   -0.10896E-02   -0.20733E-02   176   0.751E-01    0.475E-01
DAV:  12    -0.923803431760E+02    0.19364E-02   -0.29673E-03   168   0.293E-01    0.163E-01
DAV:  13    -0.923801353643E+02    0.20781E-03   -0.22986E-03   176   0.234E-01    0.946E-02
DAV:  14    -0.923800430771E+02    0.92287E-04   -0.24509E-04   164   0.797E-02    0.349E-02
DAV:  15    -0.923800339407E+02    0.91365E-05   -0.57537E-05   156   0.338E-02    0.710E-03
DAV:  16    -0.923800346591E+02   -0.71846E-06   -0.11432E-06   124   0.491E-03
   1 F= -.92380035E+02 E0= -.92375886E+02  d E =-.923800E+02
 curvature:   0.00 expect dE= 0.000E+00 dE for cont linesearch  0.000E+00
 trial: gam= 0.00000 g(F)=  0.271E+01 g(S)=  0.000E+00 ort = 0.000E+00 (trialstep = 0.100E+01)
 search vector abs. value=  0.271E+01
 bond charge predicted
       N       E                     dE             d eps       ncg     rms          rms(c)
DAV:   1    -0.937625327997E+02   -0.13825E+01   -0.77642E+00   160   0.147E+01    0.118E+00
DAV:   2    -0.937734765286E+02   -0.10944E-01   -0.54953E-01   184   0.371E+00    0.937E-01
DAV:   3    -0.937609412974E+02    0.12535E-01   -0.27914E-02   184   0.104E+00    0.452E-01
DAV:   4    -0.937576993681E+02    0.32419E-02   -0.20308E-02   168   0.752E-01    0.200E-01
DAV:   5    -0.937566137686E+02    0.10856E-02   -0.77532E-03   240   0.732E-01    0.658E-02
DAV:   6    -0.937566348181E+02   -0.21050E-04   -0.17519E-03   168   0.232E-01    0.322E-02
DAV:   7    -0.937566593966E+02   -0.24578E-04   -0.47053E-04   172   0.113E-01    0.421E-02
DAV:   8    -0.937566258280E+02    0.33569E-04   -0.22266E-04   168   0.100E-01    0.609E-03
DAV:   9    -0.937566267720E+02   -0.94394E-06   -0.26987E-05   156   0.290E-02    0.127E-03
DAV:  10    -0.937566269121E+02   -0.14017E-06   -0.16125E-06   116   0.744E-03
   2 F= -.93756627E+02 E0= -.93756627E+02  d E =-.137659E+01
 trial-energy change:   -1.376592  1 .order   -1.204493   -2.710298    0.301312
 step:   0.9240(harm=  0.8999)  dis= 0.13641  next Energy=   -93.767998 (dE=-0.139E+01)
 bond charge predicted
       N       E                     dE             d eps       ncg     rms          rms(c)
DAV:   1    -0.937690183533E+02   -0.12392E-01   -0.41505E-02   160   0.122E+00    0.890E-02
DAV:   2    -0.937693154189E+02   -0.29707E-03   -0.63417E-03   176   0.388E-01    0.108E-01
DAV:   3    -0.937691570809E+02    0.15834E-03   -0.24667E-04   176   0.991E-02    0.670E-02
DAV:   4    -0.937691189190E+02    0.38162E-04   -0.13027E-03   176   0.186E-01    0.594E-02
DAV:   5    -0.937690427607E+02    0.76158E-04   -0.38635E-04   176   0.136E-01    0.461E-03
DAV:   6    -0.937690474037E+02   -0.46430E-05   -0.45538E-05   160   0.322E-02    0.321E-03
DAV:   7    -0.937690471975E+02    0.20624E-06   -0.96609E-07   128   0.865E-03
   3 F= -.93769047E+02 E0= -.93769047E+02  d E =-.138901E+01
 curvature:  -0.42 expect dE=-0.107E-03 dE for cont linesearch -0.107E-03
 trial: gam= 0.00000 g(F)=  0.252E-03 g(S)=  0.000E+00 ort =-0.261E-01 (trialstep = 0.985E+00)
 search vector abs. value=  0.252E-03
 reached required accuracy - stopping structural energy minimisation
