unknown system                          
           1
     0.000000    4.246893    4.246893
     4.246893    0.000000    4.246893
     4.246893    4.246893    0.000000
   Mg   O 
   8   7
Direct configuration=     1
   0.00000000  0.00000000  0.00000000
   0.00000000  0.00000000  0.50000000
   0.00000000  0.50000000  0.00000000
   0.00000000  0.50000000  0.50000000
   0.50000000  0.00000000  0.00000000
   0.50000000  0.00000000  0.50000000
   0.50000000  0.50000000  0.00000000
   0.50000000  0.50000000  0.50000000
   0.25000000  0.25000000  0.75000000
   0.25000000  0.75000000  0.25000000
   0.25000000  0.75000000  0.75000000
   0.75000000  0.25000000  0.25000000
   0.75000000  0.25000000  0.75000000
   0.75000000  0.75000000  0.25000000
   0.75000000  0.75000000  0.75000000
Direct configuration=     2
   0.00000000  0.00000000  0.00000000
  -0.01737990 -0.01737990  0.51737990
  -0.01737990  0.51737990 -0.01737990
  -0.01737990  0.51737990  0.51737990
   0.51737990 -0.01737990 -0.01737990
   0.51737990 -0.01737990  0.51737990
   0.51737990  0.51737990 -0.01737990
   0.50000000  0.50000000  0.50000000
   0.25000000  0.25000000  0.75000000
   0.25000000  0.75000000  0.25000000
   0.25000000  0.75000000  0.75000000
   0.75000000  0.25000000  0.25000000
   0.75000000  0.25000000  0.75000000
   0.75000000  0.75000000  0.25000000
   0.75000000  0.75000000  0.75000000
Direct configuration=     3
   0.00000000  0.00000000  0.00000000
  -0.01605940 -0.01605940  0.51605940
  -0.01605940  0.51605940 -0.01605940
  -0.01605940  0.51605940  0.51605940
   0.51605940 -0.01605940 -0.01605940
   0.51605940 -0.01605940  0.51605940
   0.51605940  0.51605940 -0.01605940
   0.50000000  0.50000000  0.50000000
   0.25000000  0.25000000  0.75000000
   0.25000000  0.75000000  0.25000000
   0.25000000  0.75000000  0.75000000
   0.75000000  0.25000000  0.25000000
   0.75000000  0.25000000  0.75000000
   0.75000000  0.75000000  0.25000000
   0.75000000  0.75000000  0.75000000
