 vasp.5.4.1 05Feb16 (build Mar 31 2016 13:39:20) complex                        
  
 executed on           IFC91_ompi date 2019.06.24  11:59:55
 running on   36 total cores
 distrk:  each k-point on   36 cores,    1 groups
 distr:  one band on NCORES_PER_BAND=   9 cores,    4 groups


--------------------------------------------------------------------------------------------------------


 INCAR:
 POTCAR:    PAW_PBE Mg 13Apr2007                  
 POTCAR:    PAW_PBE O 08Apr2002                   
 POTCAR:    PAW_PBE Mg 13Apr2007                  
   VRHFIN =Mg: s2p0                                                             
   LEXCH  = PE                                                                  
   EATOM  =    23.0369 eV,    1.6932 Ry                                         
                                                                                
   TITEL  = PAW_PBE Mg 13Apr2007                                                
   LULTRA =        F    use ultrasoft PP ?                                      
   IUNSCR =        1    unscreen: 0-lin 1-nonlin 2-no                           
   RPACOR =    1.500    partial core radius                                     
   POMASS =   24.305; ZVAL   =    2.000    mass and valenz                      
   RCORE  =    2.000    outmost cutoff radius                                   
   RWIGS  =    2.880; RWIGS  =    1.524    wigner-seitz radius (au A)           
   ENMAX  =  126.143; ENMIN  =   94.607 eV                                      
   RCLOC  =    1.506    cutoff for local pot                                    
   LCOR   =        T    correct aug charges                                     
   LPAW   =        T    paw PP                                                  
   EAUG   =  454.734                                                            
   DEXC   =    0.000                                                            
   RMAX   =    2.045    core radius for proj-oper                               
   RAUG   =    1.300    factor for augmentation sphere                          
   RDEP   =    2.025    radius for radial grids                                 
   RDEPT  =    1.942    core radius for aug-charge                              
                                                                                
   Atomic configuration                                                         
    6 entries                                                                   
     n  l   j            E        occ.                                          
     1  0  0.50     -1259.6230   2.0000                                         
     2  0  0.50       -79.8442   2.0000                                         
     2  1  1.50       -46.6121   6.0000                                         
     3  0  0.50        -4.7055   2.0000                                         
     3  1  0.50        -1.3660   0.0000                                         
     3  2  1.50        -1.3606   0.0000                                         
   Description                                                                  
     l       E           TYP  RCUT    TYP  RCUT                                 
     0     -4.7054661     23  2.000                                             
     0     27.2116520     23  2.000                                             
     1      1.3605826     23  2.000                                             
     1     27.2116520     23  2.000                                             
     2     -1.3605826     23  2.000                                             
  local pseudopotential read in
  partial core-charges read in
  partial kinetic energy density read in
  atomic valenz-charges read in
  non local Contribution for L=           0  read in
    real space projection operators read in
  non local Contribution for L=           0  read in
    real space projection operators read in
  non local Contribution for L=           1  read in
    real space projection operators read in
  non local Contribution for L=           1  read in
    real space projection operators read in
  non local Contribution for L=           2  read in
    real space projection operators read in
    PAW grid and wavefunctions read in
 
   number of l-projection  operators is LMAX  =           5
   number of lm-projection operators is LMMAX =          13
 
 POTCAR:    PAW_PBE O 08Apr2002                   
   VRHFIN =O: s2p4                                                              
   LEXCH  = PE                                                                  
   EATOM  =   432.3788 eV,   31.7789 Ry                                         
                                                                                
   TITEL  = PAW_PBE O 08Apr2002                                                 
   LULTRA =        F    use ultrasoft PP ?                                      
   IUNSCR =        1    unscreen: 0-lin 1-nonlin 2-no                           
   RPACOR =    1.200    partial core radius                                     
   POMASS =   16.000; ZVAL   =    6.000    mass and valenz                      
   RCORE  =    1.520    outmost cutoff radius                                   
   RWIGS  =    1.550; RWIGS  =    0.820    wigner-seitz radius (au A)           
   ENMAX  =  400.000; ENMIN  =  300.000 eV                                      
   ICORE  =        2    local potential                                         
   LCOR   =        T    correct aug charges                                     
   LPAW   =        T    paw PP                                                  
   EAUG   =  605.392                                                            
   DEXC   =    0.000                                                            
   RMAX   =    1.553    core radius for proj-oper                               
   RAUG   =    1.300    factor for augmentation sphere                          
   RDEP   =    1.550    radius for radial grids                                 
   RDEPT  =    1.329    core radius for aug-charge                              
                                                                                
   Atomic configuration                                                         
    4 entries                                                                   
     n  l   j            E        occ.                                          
     1  0  0.50      -514.6923   2.0000                                         
     2  0  0.50       -23.9615   2.0000                                         
     2  1  0.50        -9.0305   4.0000                                         
     3  2  1.50        -9.5241   0.0000                                         
   Description                                                                  
     l       E           TYP  RCUT    TYP  RCUT                                 
     0    -23.9615318     23  1.200                                             
     0     -9.5240782     23  1.200                                             
     1     -9.0304911     23  1.520                                             
     1      8.1634956     23  1.520                                             
     2     -9.5240782      7  1.500                                             
  local pseudopotential read in
  partial core-charges read in
  partial kinetic energy density read in
  kinetic energy density of atom read in
  atomic valenz-charges read in
  non local Contribution for L=           0  read in
    real space projection operators read in
  non local Contribution for L=           0  read in
    real space projection operators read in
  non local Contribution for L=           1  read in
    real space projection operators read in
  non local Contribution for L=           1  read in
    real space projection operators read in
    PAW grid and wavefunctions read in
 
   number of l-projection  operators is LMAX  =           4
   number of lm-projection operators is LMMAX =           8
 
 Optimization of the real space projectors (new method)

 maximal supplied QI-value         = 18.90
 optimisation between [QCUT,QGAM] = [ 10.20, 20.41] = [ 29.16,116.64] Ry 
 Optimized for a Real-space Cutoff    1.30 Angstroem

   l    n(q)    QCUT    max X(q) W(low)/X(q) W(high)/X(q)  e(spline) 
   0      8    10.205    28.265    0.22E-03    0.17E-03    0.53E-07
   0      8    10.205    10.429    0.17E-03    0.15E-03    0.43E-07
   1      7    10.205    13.073    0.71E-04    0.41E-03    0.76E-07
   1      7    10.205     9.625    0.71E-04    0.33E-03    0.63E-07
   2      7    10.205     4.652    0.24E-03    0.41E-03    0.55E-07
 Optimization of the real space projectors (new method)

 maximal supplied QI-value         = 24.76
 optimisation between [QCUT,QGAM] = [ 10.15, 20.30] = [ 28.85,115.39] Ry 
 Optimized for a Real-space Cutoff    1.38 Angstroem

   l    n(q)    QCUT    max X(q) W(low)/X(q) W(high)/X(q)  e(spline) 
   0      8    10.150    20.381    0.22E-03    0.32E-03    0.29E-06
   0      8    10.150    15.268    0.23E-03    0.35E-03    0.30E-06
   1      8    10.150     5.964    0.46E-03    0.53E-03    0.21E-06
   1      8    10.150     5.382    0.38E-03    0.45E-03    0.19E-06
  PAW_PBE Mg 13Apr2007                  :
 energy of atom  1       EATOM=  -23.0369
 kinetic energy error for atom=    0.0001 (will be added to EATOM!!)
  PAW_PBE O 08Apr2002                   :
 energy of atom  2       EATOM= -432.3788
 kinetic energy error for atom=    0.1156 (will be added to EATOM!!)
 
 
 POSCAR: Mg8 O7                                  
  positions in direct lattice
  No initial velocities read in
 exchange correlation table for  LEXCH =        8
   RHO(1)=    0.500       N(1)  =     2000
   RHO(2)=  100.500       N(2)  =     4000
 


--------------------------------------------------------------------------------------------------------


 ion  position               nearest neighbor table
   1  0.000  0.000  0.000-   9 2.12  10 2.12  11 2.12  12 2.12  13 2.12  14 2.12   3 2.92   4 2.92
                             5 2.92   2 2.93   6 2.99   7 2.99   7 3.01   6 3.02   2 3.08   4 3.09
   2  0.991  0.007  0.514-  13 2.04  11 2.10  15 2.12  12 2.15  10 2.21   3 2.91   4 2.92   1 2.93
                             8 2.96   6 3.00   5 3.00   5 3.01   6 3.01   8 3.05   1 3.08   4 3.09
   3  0.991  0.481  0.018-  12 2.00   9 2.13  14 2.13  15 2.17  11 2.24   2 2.91   1 2.92   8 2.92
                             7 2.95   5 2.95   4 2.98   4 3.03   7 3.06   5 3.06   8 3.09   1 3.09
   4  0.006  0.485  0.513-   9 2.04  13 2.09  15 2.13  10 2.16  14 2.21   2 2.92   1 2.92   6 2.94
                             8 2.97   7 2.98   3 2.98   7 3.03   3 3.03   8 3.04   6 3.06   1 3.09
   5  0.499  0.008  0.021-  14 2.04  13 2.10  10 2.16   9 2.22  15 2.25   6 2.84   7 2.89   1 2.92
                             3 2.95   8 2.97   2 3.00   2 3.01   8 3.05   3 3.06   1 3.09   7 3.12
   6  0.502  0.000  0.497-  14 2.11  12 2.12  11 2.13  15 2.13   9 2.14   5 2.84   4 2.94   1 2.99
                             7 2.99   2 3.00   8 3.00   8 3.01   7 3.01   2 3.01   1 3.02   4 3.06
   7  0.501  0.499  0.999-  13 2.11  12 2.12  15 2.12  11 2.13  10 2.13   5 2.89   3 2.95   4 2.98
                             6 2.99   1 2.99   8 3.00   8 3.01   1 3.01   6 3.01   4 3.03   3 3.06
   8  0.500  0.500  0.500-   9 2.12  10 2.12  11 2.12  12 2.12  13 2.12  14 2.12   3 2.92   2 2.96
                             5 2.97   4 2.97   7 3.00   6 3.00   6 3.01   7 3.01   4 3.04   5 3.05
   9  0.250  0.250  0.750-   4 2.04   1 2.12   8 2.12   3 2.13   6 2.14   5 2.22
  10  0.250  0.750  0.250-   1 2.12   8 2.12   7 2.13   5 2.16   4 2.16   2 2.21
  11  0.250  0.750  0.750-   2 2.10   1 2.12   8 2.12   7 2.13   6 2.13   3 2.24
  12  0.750  0.250  0.250-   3 2.00   6 2.12   7 2.12   1 2.12   8 2.12   2 2.15
  13  0.750  0.250  0.750-   2 2.04   4 2.09   5 2.10   7 2.11   1 2.12   8 2.12
  14  0.750  0.750  0.250-   5 2.04   6 2.11   1 2.12   8 2.12   3 2.13   4 2.21
  15  0.750  0.750  0.750-   2 2.12   7 2.12   6 2.13   4 2.13   3 2.17   5 2.25
 
  LATTYP: Found a face centered cubic cell.
 ALAT       =     8.4937860000
  
  Lattice vectors:
  
 A1 = (   0.0000000000,   4.2468930000,   4.2468930000)
 A2 = (   4.2468930000,   0.0000000000,   4.2468930000)
 A3 = (   4.2468930000,   4.2468930000,   0.0000000000)


Analysis of symmetry for initial positions (statically):
=====================================================================
 Subroutine PRICEL returns:
 Original cell was already a primitive cell.
 

 Routine SETGRP: Setting up the symmetry group for a 
 face centered cubic supercell.


 Subroutine GETGRP returns: Found  1 space group operations
 (whereof  1 operations were pure point group operations)
 out of a pool of 48 trial point group operations.


The static configuration has the point symmetry C_1 .


Analysis of symmetry for dynamics (positions and initial velocities):
=====================================================================
 Subroutine PRICEL returns:
 Original cell was already a primitive cell.
 

 Routine SETGRP: Setting up the symmetry group for a 
 face centered cubic supercell.


 Subroutine GETGRP returns: Found  1 space group operations
 (whereof  1 operations were pure point group operations)
 out of a pool of 48 trial point group operations.


The dynamic configuration has the point symmetry C_1 .


Analysis of structural, dynamic, and magnetic symmetry:
=====================================================================
 Subroutine PRICEL returns:
 Original cell was already a primitive cell.
 

 Routine SETGRP: Setting up the symmetry group for a 
 face centered cubic supercell.


 Subroutine GETGRP returns: Found  1 space group operations
 (whereof  1 operations were pure point group operations)
 out of a pool of 48 trial point group operations.


The magnetic configuration has the point symmetry C_1 .


 Subroutine INISYM returns: Found  1 space group operations
 (whereof  1 operations are pure point group operations),
 and found     1 'primitive' translations

 
 
 KPOINTS: k-point mesh                            

Automatic generation of k-mesh.
Space group operators:
 irot       det(A)        alpha          n_x          n_y          n_z        tau_x        tau_y        tau_z
    1     1.000000     0.000000     1.000000     0.000000     0.000000     0.000000     0.000000     0.000000
 
 Subroutine IBZKPT returns following result:
 ===========================================
 
 Found      8 irreducible k-points:
 
 Following reciprocal coordinates:
            Coordinates               Weight
  0.000000  0.000000  0.000000      1.000000
  0.500000  0.000000  0.000000      1.000000
  0.000000  0.500000  0.000000      1.000000
  0.500000  0.500000  0.000000      1.000000
  0.000000  0.000000  0.500000      1.000000
  0.500000  0.000000  0.500000      1.000000
  0.000000  0.500000  0.500000      1.000000
  0.500000  0.500000  0.500000      1.000000
 
 Following cartesian coordinates:
            Coordinates               Weight
  0.000000  0.000000  0.000000      1.000000
 -0.058867  0.058867  0.058867      1.000000
  0.058867 -0.058867  0.058867      1.000000
  0.000000  0.000000  0.117733      1.000000
  0.058867  0.058867 -0.058867      1.000000
  0.000000  0.117733  0.000000      1.000000
  0.117733  0.000000  0.000000      1.000000
  0.058867  0.058867  0.058867      1.000000
 


--------------------------------------------------------------------------------------------------------




 Dimension of arrays:
   k-points           NKPTS =      8   k-points in BZ     NKDIM =      8   number of bands    NBANDS=     44
   number of dos      NEDOS =    301   number of ions     NIONS =     15
   non local maximal  LDIM  =      5   non local SUM 2l+1 LMDIM =     13
   total plane-waves  NPLWV =  27000
   max r-space proj   IRMAX =   1992   max aug-charges    IRDMAX=   7686
   dimension x,y,z NGX =    30 NGY =   30 NGZ =   30
   dimension x,y,z NGXF=    60 NGYF=   60 NGZF=   60
   support grid    NGXF=    60 NGYF=   60 NGZF=   60
   ions per type =               8   7
 NGX,Y,Z   is equivalent  to a cutoff of   8.30,  8.30,  8.30 a.u.
 NGXF,Y,Z  is equivalent  to a cutoff of  16.61, 16.61, 16.61 a.u.


 I would recommend the setting:
   dimension x,y,z NGX =    29 NGY =   29 NGZ =   29
 SYSTEM =  unknown system                          
 POSCAR =  Mg8 O7                                  

 Startparameter for this run:
   NWRITE =      2    write-flag & timer
   PREC   = n         normal or accurate (medium, high low for compatibility)
   ISTART =      0    job   : 0-new  1-cont  2-samecut
   ICHARG =      2    charge: 1-file 2-atom 10-const
   ISPIN  =      2    spin polarized calculation?
   LNONCOLLINEAR =      F non collinear calculations
   LSORBIT =      F    spin-orbit coupling
   INIWAV =      1    electr: 0-lowe 1-rand  2-diag
   LASPH  =      T    aspherical Exc in radial PAW
   METAGGA=      F    non-selfconsistent MetaGGA calc.

 Electronic Relaxation 1
   ENCUT  =  400.0 eV  29.40 Ry    5.42 a.u.   9.79  9.79  9.79*2*pi/ulx,y,z
   ENINI  =  400.0     initial cutoff
   ENAUG  =  605.4 eV  augmentation charge cutoff
   NELM   =    100;   NELMIN=  4; NELMDL= -5     # of ELM steps 
   EDIFF  = 0.1E-05   stopping-criterion for ELM
   LREAL  =      T    real-space projection
   NLSPLINE    = F    spline interpolate recip. space projectors
   LCOMPAT=      F    compatible to vasp.4.4
   GGA_COMPAT  = T    GGA compatible to vasp.4.4-vasp.4.6
   LMAXPAW     = -100 max onsite density
   LMAXMIX     =    2 max onsite mixed and CHGCAR
   VOSKOWN=      0    Vosko Wilk Nusair interpolation
   ROPT   =   -0.00050  -0.00050
 Ionic relaxation
   EDIFFG = -.5E-01   stopping-criterion for IOM
   NSW    =      1    number of steps for IOM
   NBLOCK =      1;   KBLOCK =      1    inner block; outer block 
   IBRION =      2    ionic relax: 0-MD 1-quasi-New 2-CG
   NFREE  =      1    steps in history (QN), initial steepest desc. (CG)
   ISIF   =      2    stress and relaxation
   IWAVPR =     11    prediction:  0-non 1-charg 2-wave 3-comb
   ISYM   =      2    0-nonsym 1-usesym 2-fastsym
   LCORR  =      T    Harris-Foulkes like correction to forces

   POTIM  = 0.5000    time-step for ionic-motion
   TEIN   =    0.0    initial temperature
   TEBEG  =    0.0;   TEEND  =   0.0 temperature during run
   SMASS  =  -3.00    Nose mass-parameter (am)
   estimated Nose-frequenzy (Omega)   =  0.10E-29 period in steps =****** mass=  -0.824E-27a.u.
   SCALEE = 1.0000    scale energy and forces
   NPACO  =    256;   APACO  = 16.0  distance and # of slots for P.C.
   PSTRESS=    0.0 pullay stress

  Mass of Ions in am
   POMASS =  24.30 16.00
  Ionic Valenz
   ZVAL   =   2.00  6.00
  Atomic Wigner-Seitz radii
   RWIGS  =  -1.00 -1.00
  virtual crystal weights 
   VCA    =   1.00  1.00
   NELECT =      56.0000    total number of electrons
   NUPDOWN=      -1.0000    fix difference up-down

 DOS related values:
   EMIN   =  10.00;   EMAX   =-10.00  energy-range for DOS
   EFERMI =   0.00
   ISMEAR =     0;   SIGMA  =   0.05  broadening in eV -4-tet -1-fermi 0-gaus

 Electronic relaxation 2 (details)
   IALGO  =     38    algorithm
   LDIAG  =      T    sub-space diagonalisation (order eigenvalues)
   LSUBROT=      F    optimize rotation matrix (better conditioning)
   TURBO    =      0    0=normal 1=particle mesh
   IRESTART =      0    0=no restart 2=restart with 2 vectors
   NREBOOT  =      0    no. of reboots
   NMIN     =      0    reboot dimension
   EREF     =   0.00    reference energy to select bands
   IMIX   =      4    mixing-type and parameters
     AMIX     =   0.40;   BMIX     =  1.00
     AMIX_MAG =   1.60;   BMIX_MAG =  1.00
     AMIN     =   0.10
     WC   =   100.;   INIMIX=   1;  MIXPRE=   1;  MAXMIX= -45

 Intra band minimization:
   WEIMIN = 0.0010     energy-eigenvalue tresh-hold
   EBREAK =  0.57E-08  absolut break condition
   DEPER  =   0.30     relativ break condition  

   TIME   =   0.40     timestep for ELM

  volume/ion in A,a.u.               =      10.21        68.92
  Fermi-wavevector in a.u.,A,eV,Ry     =   1.170549  2.212016 18.642492  1.370184
  Thomas-Fermi vector in A             =   2.307006
 
 Write flags
   LWAVE  =      F    write WAVECAR
   LCHARG =      F    write CHGCAR
   LVTOT  =      F    write LOCPOT, total local potential
   LVHAR  =      F    write LOCPOT, Hartree potential only
   LELF   =      F    write electronic localiz. function (ELF)
   LORBIT =     12    0 simple, 1 ext, 2 COOP (PROOUT)


 Dipole corrections
   LMONO  =      F    monopole corrections only (constant potential shift)
   LDIPOL =      F    correct potential (dipole corrections)
   IDIPOL =      0    1-x, 2-y, 3-z, 4-all directions 
   EPSILON=  1.0000000 bulk dielectric constant

 Exchange correlation treatment:
   GGA     =    --    GGA type
   LEXCH   =     8    internal setting for exchange type
   VOSKOWN=      0    Vosko Wilk Nusair interpolation
   LHFCALC =     F    Hartree Fock is set to
   LHFONE  =     F    Hartree Fock one center treatment
   AEXX    =    0.0000 exact exchange contribution

 Linear response parameters
   LEPSILON=     F    determine dielectric tensor
   LRPA    =     F    only Hartree local field effects (RPA)
   LNABLA  =     F    use nabla operator in PAW spheres
   LVEL    =     F    velocity operator in full k-point grid
   LINTERFAST=   F  fast interpolation
   KINTER  =     0    interpolate to denser k-point grid
   CSHIFT  =0.1000    complex shift for real part using Kramers Kronig
   OMEGAMAX=  -1.0    maximum frequency
   DEG_THRESHOLD= 0.2000000E-02 threshold for treating states as degnerate
   RTIME   =    0.100 relaxation time in fs

 Orbital magnetization related:
   ORBITALMAG=     F  switch on orbital magnetization
   LCHIMAG   =     F  perturbation theory with respect to B field
   DQ        =  0.001000  dq finite difference perturbation B field



--------------------------------------------------------------------------------------------------------


 conjugate gradient relaxation of ions
 charge density and potential will be updated during run
 spin polarized calculation
 Variant of blocked Davidson
 Davidson routine will perform the subspace rotation
 perform sub-space diagonalisation
    after iterative eigenvector-optimisation
 modified Broyden-mixing scheme, WC =      100.0
 initial mixing is a Kerker type mixing with AMIX =  0.4000 and BMIX =      1.0000
 Hartree-type preconditioning will be used
 using additional bands           16
 real space projection scheme for non local part
 use partial core corrections
 calculate Harris-corrections to forces 
   (improved forces if not selfconsistent)
 use gradient corrections 
 use of overlap-Matrix (Vanderbilt PP)
 Gauss-broadening in eV      SIGMA  =   0.05


--------------------------------------------------------------------------------------------------------


  energy-cutoff  :      400.00
  volume of cell :      153.19
      direct lattice vectors                 reciprocal lattice vectors
     0.000000000  4.246893000  4.246893000    -0.117733129  0.117733129  0.117733129
     4.246893000  0.000000000  4.246893000     0.117733129 -0.117733129  0.117733129
     4.246893000  4.246893000  0.000000000     0.117733129  0.117733129 -0.117733129

  length of vectors
     6.006013679  6.006013679  6.006013679     0.203919761  0.203919761  0.203919761


 
 k-points in units of 2pi/SCALE and weight: k-point mesh                            
   0.00000000  0.00000000  0.00000000       0.125
  -0.05886656  0.05886656  0.05886656       0.125
   0.05886656 -0.05886656  0.05886656       0.125
   0.00000000  0.00000000  0.11773313       0.125
   0.05886656  0.05886656 -0.05886656       0.125
   0.00000000  0.11773313  0.00000000       0.125
   0.11773313  0.00000000  0.00000000       0.125
   0.05886656  0.05886656  0.05886656       0.125
 
 k-points in reciprocal lattice and weights: k-point mesh                            
   0.00000000  0.00000000  0.00000000       0.125
   0.50000000  0.00000000  0.00000000       0.125
   0.00000000  0.50000000  0.00000000       0.125
   0.50000000  0.50000000  0.00000000       0.125
   0.00000000  0.00000000  0.50000000       0.125
   0.50000000  0.00000000  0.50000000       0.125
   0.00000000  0.50000000  0.50000000       0.125
   0.50000000  0.50000000  0.50000000       0.125
 
 position of ions in fractional coordinates (direct lattice) 
   0.00000000  0.00000000  0.00000000
   0.99124200  0.00683100  0.51372500
   0.99069300  0.48123200  0.01841300
   0.00643800  0.48509400  0.51309900
   0.49935100  0.00811500  0.02132300
   0.50151100  0.00001900  0.49689000
   0.50134800  0.49855300  0.99908400
   0.50000000  0.50000000  0.50000000
   0.25000000  0.25000000  0.75000000
   0.25000000  0.75000000  0.25000000
   0.25000000  0.75000000  0.75000000
   0.75000000  0.25000000  0.25000000
   0.75000000  0.25000000  0.75000000
   0.75000000  0.75000000  0.25000000
   0.75000000  0.75000000  0.75000000
 
 position of ions in cartesian coordinates  (Angst):
   0.00000000  0.00000000  0.00000000
   2.21074563  6.39143382  4.23870924
   2.12193885  4.28556521  6.25110798
   4.23921886  2.20641805  2.08748381
   0.12502004  2.21124677  2.15515380
   2.11031935  4.24010222  2.12994425
   6.36030409  6.37217416  4.24647256
   4.24689300  4.24689300  4.24689300
   4.24689300  4.24689300  2.12344650
   4.24689300  2.12344650  4.24689300
   6.37033950  4.24689300  4.24689300
   2.12344650  4.24689300  4.24689300
   4.24689300  6.37033950  4.24689300
   4.24689300  4.24689300  6.37033950
   6.37033950  6.37033950  6.37033950
 


--------------------------------------------------------------------------------------------------------


 k-point  1 :   0.0000 0.0000 0.0000  plane waves:    2733
 k-point  2 :   0.5000 0.0000 0.0000  plane waves:    2788
 k-point  3 :   0.0000 0.5000 0.0000  plane waves:    2788
 k-point  4 :   0.5000 0.5000 0.0000  plane waves:    2778
 k-point  5 :   0.0000 0.0000 0.5000  plane waves:    2788
 k-point  6 :   0.5000 0.0000 0.5000  plane waves:    2778
 k-point  7 :   0.0000 0.5000 0.5000  plane waves:    2778
 k-point  8 :   0.5000 0.5000 0.5000  plane waves:    2788

 maximum and minimum number of plane-waves per node :       329      292

 maximum number of plane-waves:      2788
 maximum index in each direction: 
   IXMAX=    9   IYMAX=    9   IZMAX=    9
   IXMIN=  -10   IYMIN=  -10   IZMIN=  -10

 WARNING: aliasing errors must be expected set NGX to  40 to avoid them
 WARNING: aliasing errors must be expected set NGY to  40 to avoid them
 WARNING: aliasing errors must be expected set NGZ to  40 to avoid them
 aliasing errors are usually negligible using standard VASP settings
 and one can safely disregard these warnings

 real space projection operators:
  total allocation   :       2113.98 KBytes
  max/ min on nodes  :        302.20        193.75


 parallel 3D FFT for wavefunctions:
    minimum data exchange during FFTs selected (reduces bandwidth)
 parallel 3D FFT for charge:
    minimum data exchange during FFTs selected (reduces bandwidth)


 total amount of memory used by VASP on root node    33083. kBytes
========================================================================

   base      :      30000. kBytes
   nonlr-proj:        870. kBytes
   fftplans  :        352. kBytes
   grid      :        883. kBytes
   one-center:         32. kBytes
   wavefun   :        946. kBytes
 
     INWAV:  cpu time    0.0000: real time    0.0003
 Broyden mixing: mesh for mixing (old mesh)
   NGX = 19   NGY = 19   NGZ = 19
  (NGX  = 60   NGY  = 60   NGZ  = 60)
  gives a total of   6859 points

 initial charge density was supplied:
 charge density of overlapping atoms calculated
 number of electron      58.0000000 magnetization      15.0000000
 keeping initial charge density in first step


--------------------------------------------------------------------------------------------------------


 Maximum index for non-local projection operator          282
 Maximum index for augmentation-charges          421 (set IRDMAX)


--------------------------------------------------------------------------------------------------------


 First call to EWALD:  gamma=   0.331
 Maximum number of real-space cells 3x 3x 3
 Maximum number of reciprocal cells 3x 3x 3

 FEWALD executed in parallel
    FEWALD:  cpu time    0.0040: real time    0.0014


----------------------------------------- Iteration    1(   1)  ---------------------------------------


    POTLOK:  cpu time    0.0080: real time    0.0104
    SETDIJ:  cpu time    0.3600: real time    0.3602
     EDDAV:  cpu time    0.4960: real time    0.5021
       DOS:  cpu time    0.0040: real time    0.0013
    --------------------------------------------
      LOOP:  cpu time    0.8680: real time    0.8770

 eigenvalue-minimisations  :  1496
 total energy-change (2. order) : 0.2136995E+03  (-0.2343122E+04)
 number of electron      58.0000000 magnetization      15.0000000
 augmentation part       58.0000000 magnetization      15.0000000

 Free energy of the ion-electron system (eV)
  ---------------------------------------------------
  alpha Z        PSCENC =       129.53385374
  Ewald energy   TEWEN  =     -2381.71383353
  -Hartree energ DENC   =      -967.29652360
  -exchange      EXHF   =         0.00000000
  -V(xc)+E(xc)   XCENC  =      -189.76102045
  PAW double counting   =      2946.27252624    -2543.92834819
  entropy T*S    EENTRO =        -0.00005010
  eigenvalues    EBANDS =        10.45634612
  atomic energy  EATOM  =      3210.13655998
  Solvation  Ediel_sol  =         0.00000000
  ---------------------------------------------------
  free energy    TOTEN  =       213.69951021 eV

  energy without entropy =      213.69956031  energy(sigma->0) =      213.69953526


--------------------------------------------------------------------------------------------------------




----------------------------------------- Iteration    1(   2)  ---------------------------------------


     EDDAV:  cpu time    0.5520: real time    0.5566
       DOS:  cpu time    0.0000: real time    0.0003
    --------------------------------------------
      LOOP:  cpu time    0.5520: real time    0.5616

 eigenvalue-minimisations  :  1780
 total energy-change (2. order) :-0.2947012E+03  (-0.2850281E+03)
 number of electron      58.0000000 magnetization      15.0000000
 augmentation part       58.0000000 magnetization      15.0000000

 Free energy of the ion-electron system (eV)
  ---------------------------------------------------
  alpha Z        PSCENC =       129.53385374
  Ewald energy   TEWEN  =     -2381.71383353
  -Hartree energ DENC   =      -967.29652360
  -exchange      EXHF   =         0.00000000
  -V(xc)+E(xc)   XCENC  =      -189.76102045
  PAW double counting   =      2946.27252624    -2543.92834819
  entropy T*S    EENTRO =        -0.00000000
  eigenvalues    EBANDS =      -284.24494520
  atomic energy  EATOM  =      3210.13655998
  Solvation  Ediel_sol  =         0.00000000
  ---------------------------------------------------
  free energy    TOTEN  =       -81.00173102 eV

  energy without entropy =      -81.00173102  energy(sigma->0) =      -81.00173102


--------------------------------------------------------------------------------------------------------




----------------------------------------- Iteration    1(   3)  ---------------------------------------


     EDDAV:  cpu time    0.5640: real time    0.5641
       DOS:  cpu time    0.0000: real time    0.0002
    --------------------------------------------
      LOOP:  cpu time    0.5640: real time    0.5668

 eigenvalue-minimisations  :  1712
 total energy-change (2. order) :-0.1717882E+02  (-0.1709631E+02)
 number of electron      58.0000000 magnetization      15.0000000
 augmentation part       58.0000000 magnetization      15.0000000

 Free energy of the ion-electron system (eV)
  ---------------------------------------------------
  alpha Z        PSCENC =       129.53385374
  Ewald energy   TEWEN  =     -2381.71383353
  -Hartree energ DENC   =      -967.29652360
  -exchange      EXHF   =         0.00000000
  -V(xc)+E(xc)   XCENC  =      -189.76102045
  PAW double counting   =      2946.27252624    -2543.92834819
  entropy T*S    EENTRO =        -0.00000000
  eigenvalues    EBANDS =      -301.42376817
  atomic energy  EATOM  =      3210.13655998
  Solvation  Ediel_sol  =         0.00000000
  ---------------------------------------------------
  free energy    TOTEN  =       -98.18055398 eV

  energy without entropy =      -98.18055398  energy(sigma->0) =      -98.18055398


--------------------------------------------------------------------------------------------------------




----------------------------------------- Iteration    1(   4)  ---------------------------------------


     EDDAV:  cpu time    0.6800: real time    0.7116
       DOS:  cpu time    0.0000: real time    0.0003
    --------------------------------------------
      LOOP:  cpu time    0.6800: real time    0.7148

 eigenvalue-minimisations  :  1736
 total energy-change (2. order) :-0.1089054E+00  (-0.1088121E+00)
 number of electron      58.0000000 magnetization      15.0000000
 augmentation part       58.0000000 magnetization      15.0000000

 Free energy of the ion-electron system (eV)
  ---------------------------------------------------
  alpha Z        PSCENC =       129.53385374
  Ewald energy   TEWEN  =     -2381.71383353
  -Hartree energ DENC   =      -967.29652360
  -exchange      EXHF   =         0.00000000
  -V(xc)+E(xc)   XCENC  =      -189.76102045
  PAW double counting   =      2946.27252624    -2543.92834819
  entropy T*S    EENTRO =        -0.00000000
  eigenvalues    EBANDS =      -301.53267355
  atomic energy  EATOM  =      3210.13655998
  Solvation  Ediel_sol  =         0.00000000
  ---------------------------------------------------
  free energy    TOTEN  =       -98.28945936 eV

  energy without entropy =      -98.28945936  energy(sigma->0) =      -98.28945936


--------------------------------------------------------------------------------------------------------




----------------------------------------- Iteration    1(   5)  ---------------------------------------


     EDDAV:  cpu time    0.5240: real time    0.5235
       DOS:  cpu time    0.0000: real time    0.0004
    CHARGE:  cpu time    0.0080: real time    0.0142
    MIXING:  cpu time    0.0040: real time    0.0017
    --------------------------------------------
      LOOP:  cpu time    0.5360: real time    0.5427

 eigenvalue-minimisations  :  1692
 total energy-change (2. order) :-0.6684514E-03  (-0.6683457E-03)
 number of electron      55.9999822 magnetization       0.0852594
 augmentation part        5.5306219 magnetization       0.1395453

 Broyden mixing:
  rms(total) = 0.27022E+01    rms(broyden)= 0.26967E+01
  rms(prec ) = 0.47397E+01
  weight for this iteration     100.00

 Free energy of the ion-electron system (eV)
  ---------------------------------------------------
  alpha Z        PSCENC =       129.53385374
  Ewald energy   TEWEN  =     -2381.71383353
  -Hartree energ DENC   =      -967.29652360
  -exchange      EXHF   =         0.00000000
  -V(xc)+E(xc)   XCENC  =      -189.76102045
  PAW double counting   =      2946.27252624    -2543.92834819
  entropy T*S    EENTRO =        -0.00000000
  eigenvalues    EBANDS =      -301.53334200
  atomic energy  EATOM  =      3210.13655998
  Solvation  Ediel_sol  =         0.00000000
  ---------------------------------------------------
  free energy    TOTEN  =       -98.29012781 eV

  energy without entropy =      -98.29012781  energy(sigma->0) =      -98.29012781


--------------------------------------------------------------------------------------------------------




----------------------------------------- Iteration    1(   6)  ---------------------------------------


    POTLOK:  cpu time    0.0120: real time    0.0129
    SETDIJ:  cpu time    0.3560: real time    0.3603
     EDDAV:  cpu time    0.6240: real time    0.6317
       DOS:  cpu time    0.0040: real time    0.0013
    CHARGE:  cpu time    0.0080: real time    0.0098
    MIXING:  cpu time    0.0000: real time    0.0011
    --------------------------------------------
      LOOP:  cpu time    1.0040: real time    1.0196

 eigenvalue-minimisations  :  1624
 total energy-change (2. order) : 0.6264666E+01  (-0.3859177E+01)
 number of electron      55.9999857 magnetization      -0.2277616
 augmentation part        4.4917777 magnetization      -0.1334266

 Broyden mixing:
  rms(total) = 0.76515E+00    rms(broyden)= 0.76350E+00
  rms(prec ) = 0.11500E+01
  weight for this iteration     100.00

 eigenvalues of (default mixing * dielectric matrix)
  average eigenvalue GAMMA=   0.8408
  0.8408

 Free energy of the ion-electron system (eV)
  ---------------------------------------------------
  alpha Z        PSCENC =       129.53385374
  Ewald energy   TEWEN  =     -2381.71383353
  -Hartree energ DENC   =     -1109.46982675
  -exchange      EXHF   =         0.00000000
  -V(xc)+E(xc)   XCENC  =      -188.82471958
  PAW double counting   =      3463.97313018    -3063.83600576
  entropy T*S    EENTRO =        -0.00392183
  eigenvalues    EBANDS =      -151.82069869
  atomic energy  EATOM  =      3210.13655998
  Solvation  Ediel_sol  =         0.00000000
  ---------------------------------------------------
  free energy    TOTEN  =       -92.02546223 eV

  energy without entropy =      -92.02154040  energy(sigma->0) =      -92.02350132


--------------------------------------------------------------------------------------------------------




----------------------------------------- Iteration    1(   7)  ---------------------------------------


    POTLOK:  cpu time    0.0160: real time    0.0151
    SETDIJ:  cpu time    0.3600: real time    0.3577
     EDDAV:  cpu time    0.5320: real time    0.5344
       DOS:  cpu time    0.0000: real time    0.0005
    CHARGE:  cpu time    0.0080: real time    0.0087
    MIXING:  cpu time    0.0000: real time    0.0003
    --------------------------------------------
      LOOP:  cpu time    0.9160: real time    0.9194

 eigenvalue-minimisations  :  1632
 total energy-change (2. order) : 0.9111093E-01  (-0.1486120E+00)
 number of electron      55.9999856 magnetization      -0.2662338
 augmentation part        4.5101958 magnetization      -0.0873856

 Broyden mixing:
  rms(total) = 0.39467E+00    rms(broyden)= 0.39456E+00
  rms(prec ) = 0.68050E+00
  weight for this iteration     100.00

 eigenvalues of (default mixing * dielectric matrix)
  average eigenvalue GAMMA=   0.9959
  0.9959  0.9959

 Free energy of the ion-electron system (eV)
  ---------------------------------------------------
  alpha Z        PSCENC =       129.53385374
  Ewald energy   TEWEN  =     -2381.71383353
  -Hartree energ DENC   =     -1108.71777149
  -exchange      EXHF   =         0.00000000
  -V(xc)+E(xc)   XCENC  =      -188.97655278
  PAW double counting   =      3613.15114257    -3212.63133657
  entropy T*S    EENTRO =        -0.00473318
  eigenvalues    EBANDS =      -152.71168005
  atomic energy  EATOM  =      3210.13655998
  Solvation  Ediel_sol  =         0.00000000
  ---------------------------------------------------
  free energy    TOTEN  =       -91.93435131 eV

  energy without entropy =      -91.92961813  energy(sigma->0) =      -91.93198472


--------------------------------------------------------------------------------------------------------




----------------------------------------- Iteration    1(   8)  ---------------------------------------


    POTLOK:  cpu time    0.0120: real time    0.0087
    SETDIJ:  cpu time    0.3600: real time    0.3607
     EDDAV:  cpu time    0.5080: real time    0.5079
       DOS:  cpu time    0.0000: real time    0.0005
    CHARGE:  cpu time    0.0080: real time    0.0088
    MIXING:  cpu time    0.0000: real time    0.0003
    --------------------------------------------
      LOOP:  cpu time    0.8880: real time    0.8900

 eigenvalue-minimisations  :  1644
 total energy-change (2. order) : 0.2190915E+00  (-0.4004359E-01)
 number of electron      55.9999855 magnetization      -0.2545588
 augmentation part        4.5375721 magnetization      -0.0669176

 Broyden mixing:
  rms(total) = 0.13884E+00    rms(broyden)= 0.13869E+00
  rms(prec ) = 0.21881E+00
  weight for this iteration     100.00

 eigenvalues of (default mixing * dielectric matrix)
  average eigenvalue GAMMA=   1.2421
  2.0118  0.9212  0.7933

 Free energy of the ion-electron system (eV)
  ---------------------------------------------------
  alpha Z        PSCENC =       129.53385374
  Ewald energy   TEWEN  =     -2381.71383353
  -Hartree energ DENC   =     -1113.72273368
  -exchange      EXHF   =         0.00000000
  -V(xc)+E(xc)   XCENC  =      -188.50178088
  PAW double counting   =      3806.98804319    -3406.14480952
  entropy T*S    EENTRO =        -0.00486369
  eigenvalues    EBANDS =      -148.28569537
  atomic energy  EATOM  =      3210.13655998
  Solvation  Ediel_sol  =         0.00000000
  ---------------------------------------------------
  free energy    TOTEN  =       -91.71525977 eV

  energy without entropy =      -91.71039608  energy(sigma->0) =      -91.71282793


--------------------------------------------------------------------------------------------------------




----------------------------------------- Iteration    1(   9)  ---------------------------------------


    POTLOK:  cpu time    0.0080: real time    0.0086
    SETDIJ:  cpu time    0.3600: real time    0.3601
     EDDAV:  cpu time    0.5440: real time    0.5452
       DOS:  cpu time    0.0000: real time    0.0005
    CHARGE:  cpu time    0.0120: real time    0.0087
    MIXING:  cpu time    0.0000: real time    0.0003
    --------------------------------------------
      LOOP:  cpu time    0.9240: real time    0.9265

 eigenvalue-minimisations  :  1780
 total energy-change (2. order) : 0.9517044E-02  (-0.4672369E-02)
 number of electron      55.9999855 magnetization      -0.2504427
 augmentation part        4.5275018 magnetization      -0.0580534

 Broyden mixing:
  rms(total) = 0.44343E-01    rms(broyden)= 0.44242E-01
  rms(prec ) = 0.58553E-01
  weight for this iteration     100.00

 eigenvalues of (default mixing * dielectric matrix)
  average eigenvalue GAMMA=   1.2277
  2.3424  0.9557  0.9557  0.6570

 Free energy of the ion-electron system (eV)
  ---------------------------------------------------
  alpha Z        PSCENC =       129.53385374
  Ewald energy   TEWEN  =     -2381.71383353
  -Hartree energ DENC   =     -1117.88384085
  -exchange      EXHF   =         0.00000000
  -V(xc)+E(xc)   XCENC  =      -188.15137992
  PAW double counting   =      3861.05482658    -3460.17558535
  entropy T*S    EENTRO =        -0.00448837
  eigenvalues    EBANDS =      -144.50185501
  atomic energy  EATOM  =      3210.13655998
  Solvation  Ediel_sol  =         0.00000000
  ---------------------------------------------------
  free energy    TOTEN  =       -91.70574273 eV

  energy without entropy =      -91.70125435  energy(sigma->0) =      -91.70349854


--------------------------------------------------------------------------------------------------------




----------------------------------------- Iteration    1(  10)  ---------------------------------------


    POTLOK:  cpu time    0.0080: real time    0.0087
    SETDIJ:  cpu time    0.3600: real time    0.3597
     EDDAV:  cpu time    0.5120: real time    0.5114
       DOS:  cpu time    0.0000: real time    0.0005
    CHARGE:  cpu time    0.0080: real time    0.0087
    MIXING:  cpu time    0.0000: real time    0.0004
    --------------------------------------------
      LOOP:  cpu time    0.8880: real time    0.8925

 eigenvalue-minimisations  :  1652
 total energy-change (2. order) :-0.4742123E-03  (-0.1024642E-02)
 number of electron      55.9999856 magnetization      -0.2493739
 augmentation part        4.5203995 magnetization      -0.0573148

 Broyden mixing:
  rms(total) = 0.23526E-01    rms(broyden)= 0.23493E-01
  rms(prec ) = 0.33054E-01
  weight for this iteration     100.00

 eigenvalues of (default mixing * dielectric matrix)
  average eigenvalue GAMMA=   1.1933
  2.4442  1.0064  1.0064  0.8593  0.6500

 Free energy of the ion-electron system (eV)
  ---------------------------------------------------
  alpha Z        PSCENC =       129.53385374
  Ewald energy   TEWEN  =     -2381.71383353
  -Hartree energ DENC   =     -1118.78025281
  -exchange      EXHF   =         0.00000000
  -V(xc)+E(xc)   XCENC  =      -188.06772724
  PAW double counting   =      3853.92056700    -3453.06596192
  entropy T*S    EENTRO =        -0.00437009
  eigenvalues    EBANDS =      -143.66505207
  atomic energy  EATOM  =      3210.13655998
  Solvation  Ediel_sol  =         0.00000000
  ---------------------------------------------------
  free energy    TOTEN  =       -91.70621694 eV

  energy without entropy =      -91.70184685  energy(sigma->0) =      -91.70403190


--------------------------------------------------------------------------------------------------------




----------------------------------------- Iteration    1(  11)  ---------------------------------------


    POTLOK:  cpu time    0.0120: real time    0.0100
    SETDIJ:  cpu time    0.3600: real time    0.3602
     EDDAV:  cpu time    0.5560: real time    0.5732
       DOS:  cpu time    0.0000: real time    0.0005
    CHARGE:  cpu time    0.0080: real time    0.0089
    MIXING:  cpu time    0.0000: real time    0.0004
    --------------------------------------------
      LOOP:  cpu time    0.9360: real time    0.9563

 eigenvalue-minimisations  :  1676
 total energy-change (2. order) :-0.6019526E-04  (-0.6526222E-04)
 number of electron      55.9999856 magnetization      -0.2493461
 augmentation part        4.5209599 magnetization      -0.0581799

 Broyden mixing:
  rms(total) = 0.12577E-01    rms(broyden)= 0.12575E-01
  rms(prec ) = 0.18220E-01
  weight for this iteration     100.00

 eigenvalues of (default mixing * dielectric matrix)
  average eigenvalue GAMMA=   1.2434
  2.5010  1.6496  0.9484  0.9484  0.7745  0.6388

 Free energy of the ion-electron system (eV)
  ---------------------------------------------------
  alpha Z        PSCENC =       129.53385374
  Ewald energy   TEWEN  =     -2381.71383353
  -Hartree energ DENC   =     -1118.74794903
  -exchange      EXHF   =         0.00000000
  -V(xc)+E(xc)   XCENC  =      -188.05572237
  PAW double counting   =      3848.82715809    -3447.97708443
  entropy T*S    EENTRO =        -0.00436396
  eigenvalues    EBANDS =      -143.70489562
  atomic energy  EATOM  =      3210.13655998
  Solvation  Ediel_sol  =         0.00000000
  ---------------------------------------------------
  free energy    TOTEN  =       -91.70627714 eV

  energy without entropy =      -91.70191317  energy(sigma->0) =      -91.70409515


--------------------------------------------------------------------------------------------------------




----------------------------------------- Iteration    1(  12)  ---------------------------------------


    POTLOK:  cpu time    0.0080: real time    0.0091
    SETDIJ:  cpu time    0.3600: real time    0.3604
     EDDAV:  cpu time    0.5160: real time    0.5153
       DOS:  cpu time    0.0000: real time    0.0006
    CHARGE:  cpu time    0.0080: real time    0.0100
    MIXING:  cpu time    0.0000: real time    0.0005
    --------------------------------------------
      LOOP:  cpu time    0.8960: real time    0.8982

 eigenvalue-minimisations  :  1632
 total energy-change (2. order) :-0.2540938E-03  (-0.3959422E-04)
 number of electron      55.9999856 magnetization      -0.2496965
 augmentation part        4.5215580 magnetization      -0.0588078

 Broyden mixing:
  rms(total) = 0.35923E-02    rms(broyden)= 0.35748E-02
  rms(prec ) = 0.57336E-02
  weight for this iteration     100.00

 eigenvalues of (default mixing * dielectric matrix)
  average eigenvalue GAMMA=   1.2604
  2.5258  2.0711  0.9807  0.9807  0.8158  0.8158  0.6326

 Free energy of the ion-electron system (eV)
  ---------------------------------------------------
  alpha Z        PSCENC =       129.53385374
  Ewald energy   TEWEN  =     -2381.71383353
  -Hartree energ DENC   =     -1118.70965383
  -exchange      EXHF   =         0.00000000
  -V(xc)+E(xc)   XCENC  =      -188.03503894
  PAW double counting   =      3839.72127381    -3438.88131121
  entropy T*S    EENTRO =        -0.00444530
  eigenvalues    EBANDS =      -143.75393595
  atomic energy  EATOM  =      3210.13655998
  Solvation  Ediel_sol  =         0.00000000
  ---------------------------------------------------
  free energy    TOTEN  =       -91.70653123 eV

  energy without entropy =      -91.70208593  energy(sigma->0) =      -91.70430858


--------------------------------------------------------------------------------------------------------




----------------------------------------- Iteration    1(  13)  ---------------------------------------


    POTLOK:  cpu time    0.0120: real time    0.0097
    SETDIJ:  cpu time    0.3600: real time    0.3596
     EDDAV:  cpu time    0.5360: real time    0.5378
       DOS:  cpu time    0.0000: real time    0.0005
    CHARGE:  cpu time    0.0080: real time    0.0087
    MIXING:  cpu time    0.0040: real time    0.0005
    --------------------------------------------
      LOOP:  cpu time    0.9200: real time    0.9198

 eigenvalue-minimisations  :  1756
 total energy-change (2. order) :-0.1293901E-04  (-0.4980233E-05)
 number of electron      55.9999856 magnetization      -0.2497035
 augmentation part        4.5213657 magnetization      -0.0586095

 Broyden mixing:
  rms(total) = 0.25133E-02    rms(broyden)= 0.24885E-02
  rms(prec ) = 0.35835E-02
  weight for this iteration     100.00

 eigenvalues of (default mixing * dielectric matrix)
  average eigenvalue GAMMA=   1.2221
  2.5362  2.0635  1.1007  0.8497  0.8497  0.9360  0.8100  0.6306

 Free energy of the ion-electron system (eV)
  ---------------------------------------------------
  alpha Z        PSCENC =       129.53385374
  Ewald energy   TEWEN  =     -2381.71383353
  -Hartree energ DENC   =     -1118.75786699
  -exchange      EXHF   =         0.00000000
  -V(xc)+E(xc)   XCENC  =      -188.02895831
  PAW double counting   =      3838.91570084    -3438.07737607
  entropy T*S    EENTRO =        -0.00451408
  eigenvalues    EBANDS =      -143.71010975
  atomic energy  EATOM  =      3210.13655998
  Solvation  Ediel_sol  =         0.00000000
  ---------------------------------------------------
  free energy    TOTEN  =       -91.70654417 eV

  energy without entropy =      -91.70203009  energy(sigma->0) =      -91.70428713


--------------------------------------------------------------------------------------------------------




----------------------------------------- Iteration    1(  14)  ---------------------------------------


    POTLOK:  cpu time    0.0080: real time    0.0091
    SETDIJ:  cpu time    0.3600: real time    0.3598
     EDDAV:  cpu time    0.5040: real time    0.5048
       DOS:  cpu time    0.0000: real time    0.0005
    --------------------------------------------
      LOOP:  cpu time    0.8720: real time    0.8769

 eigenvalue-minimisations  :  1628
 total energy-change (2. order) : 0.2203760E-06  (-0.7446717E-06)
 number of electron      55.9999856 magnetization      -0.2497035
 augmentation part        4.5213657 magnetization      -0.0586095

 Free energy of the ion-electron system (eV)
  ---------------------------------------------------
  alpha Z        PSCENC =       129.53385374
  Ewald energy   TEWEN  =     -2381.71383353
  -Hartree energ DENC   =     -1118.76567482
  -exchange      EXHF   =         0.00000000
  -V(xc)+E(xc)   XCENC  =      -188.02820056
  PAW double counting   =      3838.86998142    -3438.03181800
  entropy T*S    EENTRO =        -0.00452030
  eigenvalues    EBANDS =      -143.70289188
  atomic energy  EATOM  =      3210.13655998
  Solvation  Ediel_sol  =         0.00000000
  ---------------------------------------------------
  free energy    TOTEN  =       -91.70654395 eV

  energy without entropy =      -91.70202365  energy(sigma->0) =      -91.70428380


--------------------------------------------------------------------------------------------------------




 average (electrostatic) potential at core
  the test charge radii are     1.0714  0.7215
  (the norm of the test charge is              1.0000)
       1 -34.7827       2 -35.5522       3 -35.6464       4 -35.5906       5 -35.8543
       6 -35.5794       7 -35.5906       8 -34.7759       9 -70.2231      10 -70.1645
      11 -70.1635      12 -70.3673      13 -70.4238      14 -70.2783      15 -69.3895
 
 
 
 E-fermi :   3.1115     XC(G=0): -10.4915     alpha+bet :-12.2710


 spin component 1

 k-point     1 :       0.0000    0.0000    0.0000
  band No.  band energies     occupation 
      1     -14.1203      1.00000
      2     -13.2718      1.00000
      3     -13.1625      1.00000
      4     -13.1154      1.00000
      5     -12.8350      1.00000
      6     -12.7603      1.00000
      7     -12.0481      1.00000
      8      -1.5094      1.00000
      9      -1.3162      1.00000
     10      -1.2354      1.00000
     11      -1.2238      1.00000
     12      -0.7859      1.00000
     13      -0.7676      1.00000
     14      -0.7023      1.00000
     15       1.2787      1.00000
     16       1.3737      1.00000
     17       1.4479      1.00000
     18       1.7702      1.00000
     19       1.9802      1.00000
     20       2.0301      1.00000
     21       2.0613      1.00000
     22       2.1376      1.00000
     23       2.2278      1.00000
     24       2.2805      1.00000
     25       2.3049      1.00000
     26       2.3534      1.00000
     27       3.0125      0.99743
     28       3.1149      0.46194
     29       3.2191      0.00117
     30       8.9601      0.00000
     31       9.9592      0.00000
     32      10.1426      0.00000
     33      10.2479      0.00000
     34      10.4278      0.00000
     35      10.5696      0.00000
     36      10.6568      0.00000
     37      12.2461      0.00000
     38      12.3317      0.00000
     39      12.4480      0.00000
     40      12.5607      0.00000
     41      12.5866      0.00000
     42      12.6485      0.00000
     43      15.2959      0.00000
     44      15.8789      0.00000

 k-point     2 :       0.5000    0.0000    0.0000
  band No.  band energies     occupation 
      1     -13.8168      1.00000
      2     -13.4554      1.00000
      3     -13.2453      1.00000
      4     -13.0945      1.00000
      5     -12.9122      1.00000
      6     -12.8022      1.00000
      7     -12.1035      1.00000
      8      -1.6449      1.00000
      9      -0.5936      1.00000
     10      -0.4960      1.00000
     11      -0.4714      1.00000
     12      -0.3560      1.00000
     13      -0.2716      1.00000
     14      -0.2260      1.00000
     15       0.5864      1.00000
     16       0.6683      1.00000
     17       0.7404      1.00000
     18       1.2014      1.00000
     19       1.3362      1.00000
     20       1.7285      1.00000
     21       1.7943      1.00000
     22       1.8705      1.00000
     23       1.9192      1.00000
     24       1.9522      1.00000
     25       2.4023      1.00000
     26       2.4638      1.00000
     27       2.8027      1.00000
     28       2.9370      1.00000
     29       3.6298      0.00000
     30       6.9895      0.00000
     31       9.3479      0.00000
     32       9.4352      0.00000
     33      11.0585      0.00000
     34      11.3114      0.00000
     35      12.0745      0.00000
     36      12.1918      0.00000
     37      13.1299      0.00000
     38      13.2510      0.00000
     39      13.6033      0.00000
     40      14.0606      0.00000
     41      14.3699      0.00000
     42      14.4103      0.00000
     43      14.5253      0.00000
     44      15.3867      0.00000

 k-point     3 :       0.0000    0.5000    0.0000
  band No.  band energies     occupation 
      1     -13.7614      1.00000
      2     -13.5432      1.00000
      3     -13.2431      1.00000
      4     -13.0371      1.00000
      5     -12.9505      1.00000
      6     -12.8040      1.00000
      7     -12.0907      1.00000
      8      -1.3515      1.00000
      9      -0.8477      1.00000
     10      -0.6514      1.00000
     11      -0.4957      1.00000
     12      -0.3550      1.00000
     13      -0.2443      1.00000
     14      -0.0679      1.00000
     15       0.4301      1.00000
     16       0.7991      1.00000
     17       0.9311      1.00000
     18       0.9848      1.00000
     19       1.1760      1.00000
     20       1.4096      1.00000
     21       1.7604      1.00000
     22       2.0461      1.00000
     23       2.1215      1.00000
     24       2.1429      1.00000
     25       2.1765      1.00000
     26       2.2444      1.00000
     27       2.9958      0.99946
     28       3.0897      0.73093
     29       3.6923      0.00000
     30       7.2471      0.00000
     31       9.1611      0.00000
     32       9.3521      0.00000
     33      11.1119      0.00000
     34      11.2087      0.00000
     35      11.8892      0.00000
     36      12.0791      0.00000
     37      13.2825      0.00000
     38      13.4405      0.00000
     39      13.7733      0.00000
     40      14.0290      0.00000
     41      14.4109      0.00000
     42      14.4561      0.00000
     43      14.5099      0.00000
     44      15.4358      0.00000

 k-point     4 :       0.5000    0.5000    0.0000
  band No.  band energies     occupation 
      1     -13.7182      1.00000
      2     -13.3106      1.00000
      3     -13.3008      1.00000
      4     -13.1718      1.00000
      5     -13.1103      1.00000
      6     -12.7446      1.00000
      7     -12.1090      1.00000
      8      -1.6230      1.00000
      9      -0.4905      1.00000
     10      -0.0644      1.00000
     11      -0.0019      1.00000
     12       0.0114      1.00000
     13       0.0375      1.00000
     14       0.1118      1.00000
     15       0.4947      1.00000
     16       0.5166      1.00000
     17       0.6871      1.00000
     18       0.7056      1.00000
     19       0.9213      1.00000
     20       1.0242      1.00000
     21       1.1729      1.00000
     22       1.8176      1.00000
     23       1.9107      1.00000
     24       2.0847      1.00000
     25       2.2471      1.00000
     26       2.3876      1.00000
     27       2.7702      1.00000
     28       2.8383      1.00000
     29       4.1247      0.00000
     30       7.2118      0.00000
     31       8.6122      0.00000
     32       8.6707      0.00000
     33      11.6918      0.00000
     34      12.0110      0.00000
     35      12.3585      0.00000
     36      13.6077      0.00000
     37      13.6403      0.00000
     38      13.8734      0.00000
     39      13.9899      0.00000
     40      14.0623      0.00000
     41      14.2379      0.00000
     42      14.7233      0.00000
     43      14.8811      0.00000
     44      15.0427      0.00000

 k-point     5 :       0.0000    0.0000    0.5000
  band No.  band energies     occupation 
      1     -13.7216      1.00000
      2     -13.6336      1.00000
      3     -13.1223      1.00000
      4     -13.1118      1.00000
      5     -12.8947      1.00000
      6     -12.8493      1.00000
      7     -12.0968      1.00000
      8      -1.5073      1.00000
      9      -0.7063      1.00000
     10      -0.5341      1.00000
     11      -0.5084      1.00000
     12      -0.3360      1.00000
     13      -0.3182      1.00000
     14      -0.1667      1.00000
     15       0.5195      1.00000
     16       0.6495      1.00000
     17       0.9238      1.00000
     18       1.0429      1.00000
     19       1.3182      1.00000
     20       1.5611      1.00000
     21       1.8436      1.00000
     22       1.9312      1.00000
     23       1.9646      1.00000
     24       2.1545      1.00000
     25       2.1863      1.00000
     26       2.3859      1.00000
     27       2.8962      1.00000
     28       3.0147      0.99690
     29       3.6637      0.00000
     30       7.1156      0.00000
     31       9.1872      0.00000
     32       9.4614      0.00000
     33      11.1225      0.00000
     34      11.2216      0.00000
     35      11.9660      0.00000
     36      12.1543      0.00000
     37      13.1701      0.00000
     38      13.3658      0.00000
     39      13.6909      0.00000
     40      14.0824      0.00000
     41      14.3791      0.00000
     42      14.4362      0.00000
     43      14.4882      0.00000
     44      15.4296      0.00000

 k-point     6 :       0.5000    0.0000    0.5000
  band No.  band energies     occupation 
      1     -13.6483      1.00000
      2     -13.5221      1.00000
      3     -13.2079      1.00000
      4     -13.1731      1.00000
      5     -13.0087      1.00000
      6     -12.7983      1.00000
      7     -12.1068      1.00000
      8      -1.6024      1.00000
      9      -0.4507      1.00000
     10      -0.1079      1.00000
     11      -0.0579      1.00000
     12      -0.0469      1.00000
     13      -0.0071      1.00000
     14       0.1518      1.00000
     15       0.5397      1.00000
     16       0.5573      1.00000
     17       0.6092      1.00000
     18       0.8191      1.00000
     19       0.9103      1.00000
     20       1.0608      1.00000
     21       1.0980      1.00000
     22       1.8496      1.00000
     23       1.9938      1.00000
     24       2.0818      1.00000
     25       2.2754      1.00000
     26       2.3208      1.00000
     27       2.6293      1.00000
     28       2.9344      1.00000
     29       4.1217      0.00000
     30       7.2608      0.00000
     31       8.4880      0.00000
     32       8.7425      0.00000
     33      11.6923      0.00000
     34      12.0255      0.00000
     35      12.3746      0.00000
     36      13.5469      0.00000
     37      13.7067      0.00000
     38      13.8307      0.00000
     39      13.9482      0.00000
     40      14.1298      0.00000
     41      14.2176      0.00000
     42      14.7017      0.00000
     43      14.8691      0.00000
     44      14.9700      0.00000

 k-point     7 :       0.0000    0.5000    0.5000
  band No.  band energies     occupation 
      1     -13.6902      1.00000
      2     -13.4405      1.00000
      3     -13.2188      1.00000
      4     -13.1711      1.00000
      5     -13.0727      1.00000
      6     -12.7639      1.00000
      7     -12.1079      1.00000
      8      -1.6128      1.00000
      9      -0.4697      1.00000
     10      -0.0526      1.00000
     11      -0.0443      1.00000
     12      -0.0306      1.00000
     13       0.0038      1.00000
     14       0.1260      1.00000
     15       0.4959      1.00000
     16       0.5744      1.00000
     17       0.6208      1.00000
     18       0.7638      1.00000
     19       0.8951      1.00000
     20       1.0629      1.00000
     21       1.1302      1.00000
     22       1.9032      1.00000
     23       1.9906      1.00000
     24       2.0536      1.00000
     25       2.2936      1.00000
     26       2.3391      1.00000
     27       2.6561      1.00000
     28       2.8476      1.00000
     29       4.1152      0.00000
     30       7.3295      0.00000
     31       8.4982      0.00000
     32       8.6622      0.00000
     33      11.7226      0.00000
     34      12.0360      0.00000
     35      12.3760      0.00000
     36      13.5753      0.00000
     37      13.6862      0.00000
     38      13.8639      0.00000
     39      13.9132      0.00000
     40      14.1188      0.00000
     41      14.2101      0.00000
     42      14.7099      0.00000
     43      14.8426      0.00000
     44      15.0422      0.00000

 k-point     8 :       0.5000    0.5000    0.5000
  band No.  band energies     occupation 
      1     -13.6952      1.00000
      2     -13.6596      1.00000
      3     -13.1508      1.00000
      4     -13.0792      1.00000
      5     -12.9089      1.00000
      6     -12.8419      1.00000
      7     -12.0945      1.00000
      8      -1.4496      1.00000
      9      -0.7503      1.00000
     10      -0.6079      1.00000
     11      -0.4890      1.00000
     12      -0.3544      1.00000
     13      -0.2771      1.00000
     14      -0.1351      1.00000
     15       0.4776      1.00000
     16       0.6984      1.00000
     17       0.9495      1.00000
     18       1.0155      1.00000
     19       1.2669      1.00000
     20       1.5110      1.00000
     21       1.8142      1.00000
     22       1.9619      1.00000
     23       2.0677      1.00000
     24       2.1223      1.00000
     25       2.1783      1.00000
     26       2.3279      1.00000
     27       2.9011      1.00000
     28       3.0800      0.81332
     29       3.6729      0.00000
     30       7.1623      0.00000
     31       9.2037      0.00000
     32       9.3967      0.00000
     33      11.1472      0.00000
     34      11.1885      0.00000
     35      11.9560      0.00000
     36      12.1013      0.00000
     37      13.2024      0.00000
     38      13.3889      0.00000
     39      13.7608      0.00000
     40      14.0306      0.00000
     41      14.3878      0.00000
     42      14.4381      0.00000
     43      14.5124      0.00000
     44      15.4419      0.00000

 spin component 2

 k-point     1 :       0.0000    0.0000    0.0000
  band No.  band energies     occupation 
      1     -14.1464      1.00000
      2     -13.2827      1.00000
      3     -13.1846      1.00000
      4     -13.1398      1.00000
      5     -12.8665      1.00000
      6     -12.8161      1.00000
      7     -12.2546      1.00000
      8      -1.5180      1.00000
      9      -1.3379      1.00000
     10      -1.2527      1.00000
     11      -1.2474      1.00000
     12      -0.8140      1.00000
     13      -0.7852      1.00000
     14      -0.7582      1.00000
     15       1.2632      1.00000
     16       1.3556      1.00000
     17       1.4297      1.00000
     18       1.7730      1.00000
     19       1.9494      1.00000
     20       1.9994      1.00000
     21       2.0053      1.00000
     22       2.1087      1.00000
     23       2.1814      1.00000
     24       2.2141      1.00000
     25       2.2777      1.00000
     26       2.3078      1.00000
     27       2.9510      1.00000
     28       2.9931      0.99959
     29       2.9992      0.99926
     30       8.9474      0.00000
     31       9.9572      0.00000
     32      10.1402      0.00000
     33      10.2445      0.00000
     34      10.4257      0.00000
     35      10.5681      0.00000
     36      10.6576      0.00000
     37      12.2510      0.00000
     38      12.3362      0.00000
     39      12.4490      0.00000
     40      12.5573      0.00000
     41      12.5843      0.00000
     42      12.6388      0.00000
     43      15.2858      0.00000
     44      15.8596      0.00000

 k-point     2 :       0.5000    0.0000    0.0000
  band No.  band energies     occupation 
      1     -13.8332      1.00000
      2     -13.4907      1.00000
      3     -13.2521      1.00000
      4     -13.1160      1.00000
      5     -12.9444      1.00000
      6     -12.8594      1.00000
      7     -12.3101      1.00000
      8      -1.6479      1.00000
      9      -0.6112      1.00000
     10      -0.5203      1.00000
     11      -0.5112      1.00000
     12      -0.3673      1.00000
     13      -0.2851      1.00000
     14      -0.2419      1.00000
     15       0.5799      1.00000
     16       0.6228      1.00000
     17       0.7281      1.00000
     18       1.1611      1.00000
     19       1.2651      1.00000
     20       1.6586      1.00000
     21       1.7074      1.00000
     22       1.7782      1.00000
     23       1.8477      1.00000
     24       1.9322      1.00000
     25       2.3797      1.00000
     26       2.4152      1.00000
     27       2.7421      1.00000
     28       2.7954      1.00000
     29       3.6302      0.00000
     30       6.9861      0.00000
     31       9.3454      0.00000
     32       9.4306      0.00000
     33      11.0371      0.00000
     34      11.2827      0.00000
     35      12.0692      0.00000
     36      12.1895      0.00000
     37      13.1284      0.00000
     38      13.2450      0.00000
     39      13.5911      0.00000
     40      14.0413      0.00000
     41      14.3585      0.00000
     42      14.3839      0.00000
     43      14.5151      0.00000
     44      15.3859      0.00000

 k-point     3 :       0.0000    0.5000    0.0000
  band No.  band energies     occupation 
      1     -13.7697      1.00000
      2     -13.5876      1.00000
      3     -13.2496      1.00000
      4     -13.0561      1.00000
      5     -12.9870      1.00000
      6     -12.8603      1.00000
      7     -12.2955      1.00000
      8      -1.3623      1.00000
      9      -0.8582      1.00000
     10      -0.6561      1.00000
     11      -0.5022      1.00000
     12      -0.4134      1.00000
     13      -0.3402      1.00000
     14      -0.0864      1.00000
     15       0.4225      1.00000
     16       0.7844      1.00000
     17       0.9284      1.00000
     18       0.9626      1.00000
     19       1.1619      1.00000
     20       1.4034      1.00000
     21       1.6750      1.00000
     22       2.0353      1.00000
     23       2.0515      1.00000
     24       2.0756      1.00000
     25       2.1525      1.00000
     26       2.1846      1.00000
     27       2.8653      1.00000
     28       2.8775      1.00000
     29       3.6868      0.00000
     30       7.2470      0.00000
     31       9.1608      0.00000
     32       9.3508      0.00000
     33      11.1008      0.00000
     34      11.1969      0.00000
     35      11.8830      0.00000
     36      12.0743      0.00000
     37      13.2843      0.00000
     38      13.4391      0.00000
     39      13.7629      0.00000
     40      14.0185      0.00000
     41      14.3769      0.00000
     42      14.4032      0.00000
     43      14.5066      0.00000
     44      15.4348      0.00000

 k-point     4 :       0.5000    0.5000    0.0000
  band No.  band energies     occupation 
      1     -13.7297      1.00000
      2     -13.3441      1.00000
      3     -13.3135      1.00000
      4     -13.1954      1.00000
      5     -13.1517      1.00000
      6     -12.7945      1.00000
      7     -12.3115      1.00000
      8      -1.6285      1.00000
      9      -0.5003      1.00000
     10      -0.0786      1.00000
     11      -0.0272      1.00000
     12      -0.0156      1.00000
     13      -0.0086      1.00000
     14       0.0831      1.00000
     15       0.4492      1.00000
     16       0.4847      1.00000
     17       0.6639      1.00000
     18       0.6994      1.00000
     19       0.8867      1.00000
     20       1.0114      1.00000
     21       1.1306      1.00000
     22       1.6826      1.00000
     23       1.9008      1.00000
     24       2.0617      1.00000
     25       2.2000      1.00000
     26       2.3459      1.00000
     27       2.6433      1.00000
     28       2.6600      1.00000
     29       4.1215      0.00000
     30       7.2100      0.00000
     31       8.6093      0.00000
     32       8.6677      0.00000
     33      11.6619      0.00000
     34      12.0052      0.00000
     35      12.3426      0.00000
     36      13.5816      0.00000
     37      13.6033      0.00000
     38      13.8704      0.00000
     39      13.9864      0.00000
     40      14.0605      0.00000
     41      14.2402      0.00000
     42      14.7155      0.00000
     43      14.8766      0.00000
     44      15.0394      0.00000

 k-point     5 :       0.0000    0.0000    0.5000
  band No.  band energies     occupation 
      1     -13.7414      1.00000
      2     -13.6541      1.00000
      3     -13.1413      1.00000
      4     -13.1310      1.00000
      5     -12.9265      1.00000
      6     -12.9099      1.00000
      7     -12.3017      1.00000
      8      -1.5121      1.00000
      9      -0.7187      1.00000
     10      -0.5588      1.00000
     11      -0.5249      1.00000
     12      -0.3940      1.00000
     13      -0.3357      1.00000
     14      -0.1835      1.00000
     15       0.4945      1.00000
     16       0.6409      1.00000
     17       0.9076      1.00000
     18       1.0182      1.00000
     19       1.2523      1.00000
     20       1.5427      1.00000
     21       1.6645      1.00000
     22       1.8998      1.00000
     23       1.9228      1.00000
     24       2.1181      1.00000
     25       2.1706      1.00000
     26       2.3332      1.00000
     27       2.8172      1.00000
     28       2.8391      1.00000
     29       3.6625      0.00000
     30       7.1130      0.00000
     31       9.1858      0.00000
     32       9.4571      0.00000
     33      11.1039      0.00000
     34      11.2000      0.00000
     35      11.9600      0.00000
     36      12.1511      0.00000
     37      13.1705      0.00000
     38      13.3584      0.00000
     39      13.6791      0.00000
     40      14.0684      0.00000
     41      14.3592      0.00000
     42      14.4023      0.00000
     43      14.4800      0.00000
     44      15.4290      0.00000

 k-point     6 :       0.5000    0.0000    0.5000
  band No.  band energies     occupation 
      1     -13.6642      1.00000
      2     -13.5329      1.00000
      3     -13.2293      1.00000
      4     -13.1961      1.00000
      5     -13.0806      1.00000
      6     -12.8271      1.00000
      7     -12.3102      1.00000
      8      -1.6077      1.00000
      9      -0.4618      1.00000
     10      -0.1358      1.00000
     11      -0.0847      1.00000
     12      -0.0566      1.00000
     13      -0.0245      1.00000
     14       0.1266      1.00000
     15       0.4225      1.00000
     16       0.5445      1.00000
     17       0.5841      1.00000
     18       0.8047      1.00000
     19       0.8909      1.00000
     20       1.0388      1.00000
     21       1.0668      1.00000
     22       1.7173      1.00000
     23       1.9790      1.00000
     24       2.0592      1.00000
     25       2.2379      1.00000
     26       2.3027      1.00000
     27       2.5520      1.00000
     28       2.6862      1.00000
     29       4.1204      0.00000
     30       7.2585      0.00000
     31       8.4851      0.00000
     32       8.7371      0.00000
     33      11.6659      0.00000
     34      12.0194      0.00000
     35      12.3570      0.00000
     36      13.5312      0.00000
     37      13.6561      0.00000
     38      13.8273      0.00000
     39      13.9451      0.00000
     40      14.1286      0.00000
     41      14.2208      0.00000
     42      14.6956      0.00000
     43      14.8646      0.00000
     44      14.9653      0.00000

 k-point     7 :       0.0000    0.5000    0.5000
  band No.  band energies     occupation 
      1     -13.7049      1.00000
      2     -13.4545      1.00000
      3     -13.2487      1.00000
      4     -13.1970      1.00000
      5     -13.1117      1.00000
      6     -12.8138      1.00000
      7     -12.3101      1.00000
      8      -1.6182      1.00000
      9      -0.4798      1.00000
     10      -0.0704      1.00000
     11      -0.0657      1.00000
     12      -0.0572      1.00000
     13      -0.0124      1.00000
     14       0.0945      1.00000
     15       0.4369      1.00000
     16       0.5568      1.00000
     17       0.6002      1.00000
     18       0.7428      1.00000
     19       0.8703      1.00000
     20       1.0389      1.00000
     21       1.0799      1.00000
     22       1.7030      1.00000
     23       1.9753      1.00000
     24       2.0340      1.00000
     25       2.2384      1.00000
     26       2.3127      1.00000
     27       2.5676      1.00000
     28       2.6893      1.00000
     29       4.1113      0.00000
     30       7.3260      0.00000
     31       8.4966      0.00000
     32       8.6593      0.00000
     33      11.6909      0.00000
     34      12.0309      0.00000
     35      12.3496      0.00000
     36      13.5606      0.00000
     37      13.6536      0.00000
     38      13.8608      0.00000
     39      13.9101      0.00000
     40      14.1169      0.00000
     41      14.2133      0.00000
     42      14.7021      0.00000
     43      14.8361      0.00000
     44      15.0259      0.00000

 k-point     8 :       0.5000    0.5000    0.5000
  band No.  band energies     occupation 
      1     -13.7089      1.00000
      2     -13.6870      1.00000
      3     -13.1696      1.00000
      4     -13.0993      1.00000
      5     -12.9419      1.00000
      6     -12.8995      1.00000
      7     -12.2997      1.00000
      8      -1.4569      1.00000
      9      -0.7624      1.00000
     10      -0.6148      1.00000
     11      -0.5181      1.00000
     12      -0.3721      1.00000
     13      -0.3670      1.00000
     14      -0.1505      1.00000
     15       0.4613      1.00000
     16       0.6897      1.00000
     17       0.9263      1.00000
     18       0.9967      1.00000
     19       1.2355      1.00000
     20       1.4999      1.00000
     21       1.6850      1.00000
     22       1.9176      1.00000
     23       2.0053      1.00000
     24       2.1090      1.00000
     25       2.1366      1.00000
     26       2.2907      1.00000
     27       2.8184      1.00000
     28       2.8509      1.00000
     29       3.6693      0.00000
     30       7.1611      0.00000
     31       9.2025      0.00000
     32       9.3942      0.00000
     33      11.1324      0.00000
     34      11.1731      0.00000
     35      11.9499      0.00000
     36      12.0976      0.00000
     37      13.2026      0.00000
     38      13.3859      0.00000
     39      13.7497      0.00000
     40      14.0197      0.00000
     41      14.3715      0.00000
     42      14.3804      0.00000
     43      14.5061      0.00000
     44      15.4414      0.00000


--------------------------------------------------------------------------------------------------------


 soft charge-density along one line, spin component           1
         0         1         2         3         4         5         6         7         8         9
 total charge-density along one line
 
 soft charge-density along one line, spin component           2
         0         1         2         3         4         5         6         7         8         9
 total charge-density along one line
 
 pseudopotential strength for first ion, spin component:           1
  2.967   9.418  -0.002   0.000   0.001  -0.004   0.000   0.002
  9.418  29.745  -0.008   0.001   0.003  -0.014   0.001   0.006
 -0.002  -0.008   7.308  -0.000   0.000  10.568  -0.000   0.000
  0.000   0.001  -0.000   7.308   0.000  -0.000  10.568   0.000
  0.001   0.003   0.000   0.000   7.308   0.000   0.000  10.568
 -0.004  -0.014  10.568  -0.000   0.000  14.507  -0.000   0.000
  0.000   0.001  -0.000  10.568   0.000  -0.000  14.506   0.000
  0.002   0.006   0.000   0.000  10.568   0.000   0.000  14.506
  0.000   0.000   0.001   0.000  -0.003   0.002   0.000  -0.004
 -0.000  -0.000   0.000  -0.004   0.000   0.000  -0.004   0.000
 -0.000  -0.000   0.002   0.000  -0.001   0.002   0.000  -0.001
  0.000   0.000   0.000   0.002   0.000   0.000   0.002   0.000
 -0.000  -0.000   0.003   0.000   0.002   0.004   0.000   0.002
 pseudopotential strength for first ion, spin component:           2
  2.967   9.418  -0.002   0.000   0.001  -0.004   0.000   0.002
  9.418  29.744  -0.008   0.001   0.003  -0.014   0.001   0.006
 -0.002  -0.008   7.308  -0.000   0.000  10.568  -0.000   0.000
  0.000   0.001  -0.000   7.308   0.000  -0.000  10.568   0.000
  0.001   0.003   0.000   0.000   7.308   0.000   0.000  10.568
 -0.004  -0.014  10.568  -0.000   0.000  14.506  -0.000   0.000
  0.000   0.001  -0.000  10.568   0.000  -0.000  14.506   0.000
  0.002   0.006   0.000   0.000  10.568   0.000   0.000  14.506
  0.000   0.000   0.001   0.000  -0.003   0.002   0.000  -0.004
 -0.000  -0.000   0.000  -0.004   0.000   0.000  -0.004   0.000
 -0.000  -0.000   0.002   0.000  -0.001   0.002   0.000  -0.001
  0.000   0.000   0.000   0.002   0.000   0.000   0.002   0.000
 -0.000  -0.000   0.003   0.000   0.002   0.004   0.000   0.002
 total augmentation occupancy for first ion, spin component:           1
  0.931  -0.045  -0.004   0.002  -0.000   0.000  -0.000   0.000   0.000  -0.000   0.000   0.000   0.000
 -0.045   0.002   0.000  -0.000  -0.000  -0.000   0.000   0.000   0.000   0.000   0.000   0.000   0.000
 -0.004   0.000   0.108  -0.000   0.000  -0.012   0.000  -0.000  -0.000   0.000  -0.000  -0.000   0.000
  0.002  -0.000  -0.000   0.108   0.000   0.000  -0.012   0.000   0.000  -0.001   0.000   0.000   0.000
 -0.000  -0.000   0.000   0.000   0.108  -0.000   0.000  -0.012  -0.001  -0.000   0.000   0.000  -0.000
  0.000  -0.000  -0.012   0.000  -0.000   0.001  -0.000   0.000   0.000  -0.000   0.000  -0.000   0.000
 -0.000   0.000   0.000  -0.012   0.000  -0.000   0.001  -0.000  -0.000   0.000  -0.000  -0.000  -0.000
  0.000   0.000  -0.000   0.000  -0.012   0.000  -0.000   0.001   0.000  -0.000  -0.000  -0.000   0.000
  0.000   0.000  -0.000   0.000  -0.001   0.000  -0.000   0.000   0.011   0.000  -0.000  -0.000   0.000
 -0.000   0.000   0.000  -0.001  -0.000  -0.000   0.000  -0.000   0.000   0.011  -0.000  -0.000   0.000
  0.000   0.000  -0.000   0.000   0.000   0.000  -0.000  -0.000  -0.000  -0.000   0.047  -0.000  -0.000
  0.000   0.000  -0.000   0.000   0.000  -0.000  -0.000  -0.000  -0.000  -0.000  -0.000   0.011   0.000
  0.000   0.000   0.000   0.000  -0.000   0.000  -0.000   0.000   0.000   0.000  -0.000   0.000   0.047
 total augmentation occupancy for first ion, spin component:           2
  0.001  -0.000   0.000  -0.000  -0.000  -0.000   0.000   0.000  -0.000  -0.000  -0.000   0.000  -0.000
 -0.000   0.000  -0.000   0.000   0.000   0.000   0.000  -0.000   0.000   0.000  -0.000  -0.000   0.000
  0.000  -0.000   0.000  -0.000  -0.000  -0.000   0.000   0.000  -0.000  -0.000  -0.000  -0.000  -0.000
 -0.000   0.000  -0.000   0.000   0.000   0.000  -0.000  -0.000  -0.000   0.000   0.000  -0.000   0.000
 -0.000   0.000  -0.000   0.000   0.000   0.000  -0.000  -0.000   0.000  -0.000   0.000  -0.000  -0.000
 -0.000   0.000  -0.000   0.000   0.000   0.000  -0.000  -0.000   0.000   0.000   0.000   0.000   0.000
  0.000   0.000   0.000  -0.000  -0.000  -0.000   0.000   0.000   0.000  -0.000  -0.000   0.000  -0.000
  0.000  -0.000   0.000  -0.000  -0.000  -0.000   0.000   0.000  -0.000   0.000  -0.000   0.000   0.000
 -0.000   0.000  -0.000  -0.000   0.000   0.000   0.000  -0.000  -0.000   0.000   0.000  -0.000  -0.000
 -0.000   0.000  -0.000   0.000  -0.000   0.000  -0.000   0.000   0.000  -0.000  -0.000   0.000   0.000
 -0.000  -0.000  -0.000   0.000   0.000   0.000  -0.000  -0.000   0.000  -0.000   0.000   0.000   0.000
  0.000  -0.000  -0.000  -0.000  -0.000   0.000   0.000   0.000  -0.000   0.000   0.000  -0.000   0.000
 -0.000   0.000  -0.000   0.000  -0.000   0.000  -0.000   0.000  -0.000   0.000   0.000   0.000   0.000


------------------------ aborting loop because EDIFF is reached ----------------------------------------


 


 total charge     
 
# of ion     s       p       d       tot
----------------------------------------
  1        0.134   0.160   0.069   0.363
  2        0.146   0.154   0.061   0.360
  3        0.145   0.152   0.060   0.357
  4        0.145   0.153   0.060   0.358
  5        0.145   0.147   0.056   0.348
  6        0.145   0.152   0.059   0.356
  7        0.144   0.152   0.059   0.355
  8        0.134   0.159   0.069   0.362
  9        1.571   3.494   0.000   5.065
 10        1.573   3.468   0.000   5.041
 11        1.572   3.480   0.000   5.052
 12        1.571   3.512   0.000   5.083
 13        1.571   3.518   0.000   5.089
 14        1.571   3.498   0.000   5.069
 15        1.569   3.481   0.000   5.050
------------------------------------------------
tot       12.136  25.681   0.492  38.309
 


 magnetization (x)
 
# of ion     s       p       d       tot
----------------------------------------
  1        0.000   0.000   0.000   0.000
  2        0.000   0.000  -0.000   0.000
  3        0.000   0.000  -0.000   0.000
  4        0.001  -0.000  -0.000   0.000
  5        0.000   0.000  -0.000   0.000
  6        0.000   0.000  -0.000   0.000
  7        0.000   0.000  -0.000   0.000
  8        0.000   0.000   0.000   0.000
  9       -0.000  -0.013   0.000  -0.013
 10       -0.001  -0.039   0.000  -0.040
 11       -0.000  -0.020   0.000  -0.020
 12        0.000  -0.004   0.000  -0.004
 13        0.000  -0.003   0.000  -0.003
 14       -0.000  -0.015   0.000  -0.015
 15       -0.002  -0.119   0.000  -0.121
------------------------------------------------
tot        0.000  -0.211  -0.001  -0.212
 
    CHARGE:  cpu time    0.0120: real time    0.0110
    FORLOC:  cpu time    0.0000: real time    0.0006
    FORNL :  cpu time    0.1080: real time    0.1088
    STRESS:  cpu time    0.3200: real time    0.3217
    FORCOR:  cpu time    0.0120: real time    0.0097
    FORHAR:  cpu time    0.0000: real time    0.0013
    MIXING:  cpu time    0.0000: real time    0.0005
    OFIELD:  cpu time    0.0000: real time    0.0000

  FORCE on cell =-STRESS in cart. coord.  units (eV):
  Direction    XX          YY          ZZ          XY          YZ          ZX
  --------------------------------------------------------------------------------------
  Alpha Z   129.53385   129.53385   129.53385
  Ewald    -797.40010  -793.55201  -790.76658    -0.11746    -3.62756     5.90605
  Hartree   372.62264   373.03402   373.13059     0.17514    -1.49464     2.64374
  E(xc)    -251.68797  -251.73315  -251.76593     0.00769    -0.01024     0.01308
  Local    -370.18390  -375.73957  -378.16446    -0.04300     5.56477    -9.66780
  n-local  -126.22663  -126.28832  -125.97175    -0.05144     0.11271    -0.28205
  augment    46.76210    46.93165    46.87891     0.00793    -0.05229     0.15001
  Kinetic   978.70472   980.33465   979.82874     0.04558    -0.25903     1.15300
  Fock        0.00000     0.00000     0.00000     0.00000     0.00000     0.00000
  -------------------------------------------------------------------------------------
  Total     -17.87528   -17.47888   -17.29663     0.02443     0.23373    -0.08397
  in kB    -186.94745  -182.80169  -180.89568     0.25550     2.44440    -0.87823
  external pressure =     -183.55 kB  Pullay stress =        0.00 kB


 VOLUME and BASIS-vectors are now :
 -----------------------------------------------------------------------------
  energy-cutoff  :      400.00
  volume of cell :      153.19
      direct lattice vectors                 reciprocal lattice vectors
     0.000000000  4.246893000  4.246893000    -0.117733129  0.117733129  0.117733129
     4.246893000  0.000000000  4.246893000     0.117733129 -0.117733129  0.117733129
     4.246893000  4.246893000  0.000000000     0.117733129  0.117733129 -0.117733129

  length of vectors
     6.006013679  6.006013679  6.006013679     0.203919761  0.203919761  0.203919761


 FORCES acting on ions
    electron-ion (+dipol)            ewald-force                    non-local-force                 convergence-correction
 -----------------------------------------------------------------------------------------------
   0.343E+00 -.991E+00 0.253E+00   -.577E+00 0.146E+01 -.273E+00   0.585E-02 0.145E+00 -.748E-01   0.567E-03 0.129E-02 0.869E-03
   0.566E+01 0.116E+01 -.325E+02   -.532E+01 -.771E+00 0.283E+02   -.115E+01 -.295E+00 0.952E+00   -.133E-02 -.620E-03 -.120E-02
   -.289E+00 -.332E+02 -.797E+01   0.287E+00 0.291E+02 0.736E+01   0.107E+00 0.931E+00 0.174E+01   -.951E-03 -.999E-03 -.598E-03
   0.330E+02 0.543E+01 -.285E+01   -.289E+02 -.483E+01 0.293E+01   -.104E+01 -.125E+01 0.508E+00   0.121E-02 0.873E-03 0.136E-02
   -.329E+02 0.604E+01 0.233E+01   0.287E+02 -.548E+01 -.242E+01   0.422E+00 -.134E+01 -.403E+00   -.124E-02 -.105E-02 -.130E-02
   -.106E+01 0.325E+02 0.378E+00   0.108E+01 -.283E+02 -.504E+00   0.261E+00 -.840E+00 0.143E-01   0.956E-03 0.108E-02 0.616E-03
   -.124E+01 0.701E+00 0.332E+02   0.152E+01 -.949E+00 -.291E+02   0.174E+00 -.774E-01 -.109E+01   0.133E-02 0.554E-03 0.118E-02
   -.314E+00 0.839E-01 0.327E+00   0.583E+00 -.332E+00 -.446E+00   0.312E-01 0.929E-01 -.736E-01   -.535E-03 -.123E-02 -.924E-03
   0.594E+00 -.431E+01 -.104E+01   -.113E+01 0.648E+01 0.156E+01   0.562E+00 -.190E+01 -.592E+00   -.373E-03 0.335E-02 0.616E-03
   -.838E+00 0.131E+01 0.344E+00   0.136E+01 -.201E+01 -.396E+00   -.383E+00 0.810E+00 0.608E-01   0.126E-02 -.322E-03 0.132E-03
   0.110E+00 -.107E+01 0.272E+01   -.324E+00 0.128E+01 -.405E+01   0.240E+00 -.223E+00 0.130E+01   -.119E-03 0.170E-03 -.143E-02
   -.663E-01 -.994E+00 0.294E+01   -.938E-01 0.129E+01 -.454E+01   0.182E+00 -.258E+00 0.126E+01   -.491E-04 0.716E-03 -.231E-02
   -.106E+01 0.160E+01 0.683E+00   0.165E+01 -.242E+01 -.804E+00   -.311E+00 0.929E+00 0.126E+00   0.993E-03 -.801E-03 -.998E-03
   0.146E+01 -.405E+01 -.795E+00   -.216E+01 0.613E+01 0.120E+01   0.789E+00 -.183E+01 -.472E+00   -.446E-03 0.180E-02 0.359E-03
   -.216E+01 0.496E+00 -.741E+00   0.335E+01 -.719E+00 0.116E+01   -.111E+01 0.391E+00 -.514E+00   0.202E-02 -.486E-04 -.339E-03
 -----------------------------------------------------------------------------------------------
   0.121E+01 0.471E+01 -.274E+01   -.888E-15 -.511E-14 0.444E-15   -.123E+01 -.471E+01 0.274E+01   0.330E-02 0.475E-02 -.396E-02
 
 
 POSITION                                       TOTAL-FORCE (eV/Angst)
 -----------------------------------------------------------------------------------
      0.00000      0.00000      0.00000        -0.226991      0.616999     -0.093483
      2.21075      6.39143      4.23871        -0.814490      0.088688     -3.252957
      2.12194      4.28557      6.25111         0.105192     -3.152057      1.125537
      4.23922      2.20642      2.08748         3.046773     -0.659061      0.586408
      0.12502      2.21125      2.15515        -3.806524     -0.773744     -0.491858
      2.11032      4.24010      2.12994         0.279704      3.412715     -0.111793
      6.36030      6.37217      4.24647         0.448448     -0.325158      3.020329
      4.24689      4.24689      4.24689         0.300558     -0.156030     -0.193853
      4.24689      4.24689      2.12345         0.028237      0.275844     -0.073956
      4.24689      2.12345      4.24689         0.141181      0.108208      0.009201
      6.37034      4.24689      4.24689         0.026040     -0.006331     -0.033007
      2.12345      4.24689      4.24689         0.022820      0.040391     -0.339871
      4.24689      6.37034      4.24689         0.280158      0.112580      0.003578
      4.24689      4.24689      6.37034         0.086066      0.248980     -0.064078
      6.37034      6.37034      6.37034         0.082826      0.167975     -0.090194
 -----------------------------------------------------------------------------------
    total drift:                               -0.008324      0.000931     -0.000464


--------------------------------------------------------------------------------------------------------



  FREE ENERGIE OF THE ION-ELECTRON SYSTEM (eV)
  ---------------------------------------------------
  free  energy   TOTEN  =       -91.70654395 eV

  energy  without entropy=      -91.70202365  energy(sigma->0) =      -91.70428380
 


--------------------------------------------------------------------------------------------------------


    POTLOK:  cpu time    0.3720: real time    0.3723


--------------------------------------------------------------------------------------------------------




--------------------------------------------------------------------------------------------------------


     LOOP+:  cpu time   12.6320: real time   12.7579
    4ORBIT:  cpu time    0.0000: real time    0.0000
 


 total charge     
 
# of ion     s       p       d       tot
----------------------------------------
  1        0.134   0.160   0.069   0.363
  2        0.146   0.154   0.061   0.360
  3        0.145   0.152   0.060   0.357
  4        0.145   0.153   0.060   0.358
  5        0.145   0.147   0.056   0.348
  6        0.145   0.152   0.059   0.356
  7        0.144   0.152   0.059   0.355
  8        0.134   0.159   0.069   0.362
  9        1.571   3.494   0.000   5.065
 10        1.573   3.468   0.000   5.041
 11        1.572   3.480   0.000   5.052
 12        1.571   3.512   0.000   5.083
 13        1.571   3.518   0.000   5.089
 14        1.571   3.498   0.000   5.069
 15        1.569   3.481   0.000   5.050
------------------------------------------------
tot       12.136  25.681   0.492  38.309
 


 magnetization (x)
 
# of ion     s       p       d       tot
----------------------------------------
  1        0.000   0.000   0.000   0.000
  2        0.000   0.000  -0.000   0.000
  3        0.000   0.000  -0.000   0.000
  4        0.001  -0.000  -0.000   0.000
  5        0.000   0.000  -0.000   0.000
  6        0.000   0.000  -0.000   0.000
  7        0.000   0.000  -0.000   0.000
  8        0.000   0.000   0.000   0.000
  9       -0.000  -0.013   0.000  -0.013
 10       -0.001  -0.039   0.000  -0.040
 11       -0.000  -0.020   0.000  -0.020
 12        0.000  -0.004   0.000  -0.004
 13        0.000  -0.003   0.000  -0.003
 14       -0.000  -0.015   0.000  -0.015
 15       -0.002  -0.119   0.000  -0.121
------------------------------------------------
tot        0.000  -0.211  -0.001  -0.212
 

 total amount of memory used by VASP on root node    33083. kBytes
========================================================================

   base      :      30000. kBytes
   nonlr-proj:        870. kBytes
   fftplans  :        352. kBytes
   grid      :        883. kBytes
   one-center:         32. kBytes
   wavefun   :        946. kBytes
 
  
  
 General timing and accounting informations for this job:
 ========================================================
  
                  Total CPU time used (sec):       13.564
                            User time (sec):       11.000
                          System time (sec):        2.564
                         Elapsed time (sec):       14.053
  
                   Maximum memory used (kb):       60268.
                   Average memory used (kb):           0.
  
                          Minor page faults:       711001
                          Major page faults:            8
                 Voluntary context switches:         2946
