   17   17   20    2
  0.9011457E+01  0.6006014E-09  0.6006014E-09  0.6006014E-09  0.5000000E-15
  1.000000000000000E-004
  CAR 
 unknown system                          
     66     16     52
 
  0.2500000E+00  0.2500000E+00  0.2500000E+00  0.6250000E-01
    1      -13.629110    -13.609006   1.000000   1.000000
    2      -12.768028    -12.751826   1.000000   1.000000
    3      -12.551395    -12.554384   1.000000   1.000000
    4      -12.527004    -12.515659   1.000000   1.000000
    5      -12.507034    -12.503886   1.000000   1.000000
    6      -12.282403    -12.220904   1.000000   1.000000
    7      -12.274698    -12.215136   1.000000   1.000000
    8      -12.271664    -12.211349   1.000000   1.000000
    9       -1.159746     -1.078939   1.000000   1.000000
   10       -0.878547     -0.872174   1.000000   1.000000
   11       -0.853364     -0.856280   1.000000   1.000000
   12       -0.737654     -0.678098   1.000000   1.000000
   13       -0.579260     -0.432501   1.000000   1.000000
   14       -0.339253     -0.341357   1.000000   1.000000
   15       -0.331625     -0.335721   1.000000   1.000000
   16        1.466766      1.505042   1.000000   1.000000
   17        1.671184      1.689871   1.000000   1.000000
   18        1.679755      1.698475   1.000000   1.000000
   19        2.018756      2.067983   1.000000   1.000000
   20        2.094374      2.105012   1.000000   1.000000
   21        2.095650      2.114144   1.000000   1.000000
   22        2.300599      2.306735   1.000000   1.000000
   23        2.324765      2.358321   1.000000   1.000000
   24        2.333381      2.362250   1.000000   1.000000
   25        2.426511      2.496796   1.000000   1.000000
   26        2.533706      2.576660   1.000000   1.000000
   27        2.547243      2.586745   1.000000   1.000000
   28        2.814736      2.829126   1.000000   1.000000
   29        2.901827      2.919549   1.000000   1.000000
   30        2.926708      2.943744   1.000000   1.000000
   31        3.258673      3.293983   1.000000   1.000000
   32        3.288409      3.324911   1.000000   1.000000
   33        8.271195      8.451614   1.000000   1.000000
   34        9.718667     10.483465   0.999998   0.000000
   35       10.854874     11.077046   0.000000   0.000000
   36       11.218827     11.207901   0.000000   0.000000
   37       11.376949     11.343410   0.000000   0.000000
   38       12.058839     12.064945   0.000000   0.000000
   39       12.151758     12.199414   0.000000   0.000000
   40       12.239084     12.276390   0.000000   0.000000
   41       12.829135     12.819099   0.000000   0.000000
   42       12.855888     12.844632   0.000000   0.000000
   43       13.496048     13.553955   0.000000   0.000000
   44       15.261332     15.235558   0.000000   0.000000
   45       15.271554     15.252544   0.000000   0.000000
   46       15.355381     15.339587   0.000000   0.000000
   47       15.702696     15.714000   0.000000   0.000000
   48       15.957967     15.955807   0.000000   0.000000
   49       16.240778     16.239942   0.000000   0.000000
   50       16.821746     17.132526   0.000000   0.000000
   51       17.177518     17.212509   0.000000   0.000000
   52       17.204859     17.218169   0.000000   0.000000
 
  0.2500000E+00  0.0000000E+00  0.0000000E+00  0.6250000E-01
    1      -13.629920    -13.609863   1.000000   1.000000
    2      -12.760270    -12.742580   1.000000   1.000000
    3      -12.550132    -12.554885   1.000000   1.000000
    4      -12.526629    -12.528649   1.000000   1.000000
    5      -12.515981    -12.498147   1.000000   1.000000
    6      -12.288320    -12.232439   1.000000   1.000000
    7      -12.275201    -12.213320   1.000000   1.000000
    8      -12.265050    -12.202481   1.000000   1.000000
    9       -1.167113     -1.084473   1.000000   1.000000
   10       -0.873330     -0.869464   1.000000   1.000000
   11       -0.849011     -0.851232   1.000000   1.000000
   12       -0.730581     -0.675973   1.000000   1.000000
   13       -0.591107     -0.437355   1.000000   1.000000
   14       -0.337659     -0.340944   1.000000   1.000000
   15       -0.330932     -0.334301   1.000000   1.000000
   16        1.476120      1.518213   1.000000   1.000000
   17        1.665541      1.681591   1.000000   1.000000
   18        1.676894      1.694718   1.000000   1.000000
   19        2.028101      2.074384   1.000000   1.000000
   20        2.081933      2.092001   1.000000   1.000000
   21        2.087940      2.103506   1.000000   1.000000
   22        2.307636      2.313117   1.000000   1.000000
   23        2.322167      2.353271   1.000000   1.000000
   24        2.332047      2.362618   1.000000   1.000000
   25        2.410738      2.478222   1.000000   1.000000
   26        2.540376      2.586766   1.000000   1.000000
   27        2.546578      2.589722   1.000000   1.000000
   28        2.822219      2.836427   1.000000   1.000000
   29        2.902157      2.918901   1.000000   1.000000
   30        2.921328      2.937479   1.000000   1.000000
   31        3.270620      3.307158   1.000000   1.000000
   32        3.294955      3.332289   1.000000   1.000000
   33        8.271874      8.456727   1.000000   1.000000
   34        9.729327     10.545082   0.999991   0.000000
   35       10.871270     11.062235   0.000000   0.000000
   36       11.223346     11.191639   0.000000   0.000000
   37       11.342188     11.307199   0.000000   0.000000
   38       12.050240     12.056420   0.000000   0.000000
   39       12.183416     12.209904   0.000000   0.000000
   40       12.295068     12.349668   0.000000   0.000000
   41       12.792416     12.777541   0.000000   0.000000
   42       12.820945     12.809076   0.000000   0.000000
   43       13.468821     13.533464   0.000000   0.000000
   44       15.247531     15.221850   0.000000   0.000000
   45       15.281570     15.259961   0.000000   0.000000
   46       15.345031     15.329829   0.000000   0.000000
   47       15.550139     15.564508   0.000000   0.000000
   48       16.061444     16.061004   0.000000   0.000000
   49       16.267471     16.265499   0.000000   0.000000
   50       16.803064     17.120508   0.000000   0.000000
   51       17.209197     17.229622   0.000000   0.000000
   52       17.221285     17.241188   0.000000   0.000000
 
  0.0000000E+00  0.0000000E+00 -0.2500000E+00  0.6250000E-01
    1      -13.629742    -13.609675   1.000000   1.000000
    2      -12.761907    -12.744585   1.000000   1.000000
    3      -12.551099    -12.555442   1.000000   1.000000
    4      -12.528184    -12.526983   1.000000   1.000000
    5      -12.511718    -12.497342   1.000000   1.000000
    6      -12.287931    -12.230756   1.000000   1.000000
    7      -12.275439    -12.214665   1.000000   1.000000
    8      -12.265436    -12.202857   1.000000   1.000000
    9       -1.166245     -1.084486   1.000000   1.000000
   10       -0.873719     -0.869180   1.000000   1.000000
   11       -0.849470     -0.851425   1.000000   1.000000
   12       -0.732763     -0.677728   1.000000   1.000000
   13       -0.589402     -0.436565   1.000000   1.000000
   14       -0.337524     -0.340580   1.000000   1.000000
   15       -0.330893     -0.334461   1.000000   1.000000
   16        1.470992      1.510829   1.000000   1.000000
   17        1.665908      1.682289   1.000000   1.000000
   18        1.679881      1.700127   1.000000   1.000000
   19        2.030557      2.080375   1.000000   1.000000
   20        2.081965      2.092122   1.000000   1.000000
   21        2.089287      2.102254   1.000000   1.000000
   22        2.309705      2.313510   1.000000   1.000000
   23        2.318484      2.352302   1.000000   1.000000
   24        2.333806      2.363266   1.000000   1.000000
   25        2.413693      2.481648   1.000000   1.000000
   26        2.539804      2.582144   1.000000   1.000000
   27        2.545121      2.591196   1.000000   1.000000
   28        2.820951      2.835218   1.000000   1.000000
   29        2.902523      2.919927   1.000000   1.000000
   30        2.922621      2.938479   1.000000   1.000000
   31        3.267386      3.303390   1.000000   1.000000
   32        3.295149      3.332640   1.000000   1.000000
   33        8.271466      8.455178   1.000000   1.000000
   34        9.727545     10.533020   0.999993   0.000000
   35       10.861360     11.055016   0.000000   0.000000
   36       11.212556     11.184133   0.000000   0.000000
   37       11.358484     11.327862   0.000000   0.000000
   38       12.053295     12.059132   0.000000   0.000000
   39       12.197092     12.225865   0.000000   0.000000
   40       12.275779     12.330278   0.000000   0.000000
   41       12.789171     12.774749   0.000000   0.000000
   42       12.829730     12.818433   0.000000   0.000000
   43       13.475639     13.538340   0.000000   0.000000
   44       15.244747     15.218706   0.000000   0.000000
   45       15.279510     15.257317   0.000000   0.000000
   46       15.343573     15.330962   0.000000   0.000000
   47       15.573614     15.586287   0.000000   0.000000
   48       16.050289     16.049942   0.000000   0.000000
   49       16.267986     16.265850   0.000000   0.000000
   50       16.804488     17.120337   0.000000   0.000000
   51       17.205080     17.228707   0.000000   0.000000
   52       17.222293     17.240577   0.000000   0.000000
 
  0.0000000E+00  0.2500000E+00  0.0000000E+00  0.6250000E-01
    1      -13.628830    -13.608707   1.000000   1.000000
    2      -12.771600    -12.757929   1.000000   1.000000
    3      -12.552794    -12.535952   1.000000   1.000000
    4      -12.521850    -12.517313   1.000000   1.000000
    5      -12.507405    -12.515024   1.000000   1.000000
    6      -12.290135    -12.229780   1.000000   1.000000
    7      -12.274287    -12.214808   1.000000   1.000000
    8      -12.264302    -12.202482   1.000000   1.000000
    9       -1.148554     -1.071507   1.000000   1.000000
   10       -0.879868     -0.873686   1.000000   1.000000
   11       -0.872499     -0.869228   1.000000   1.000000
   12       -0.739242     -0.675429   1.000000   1.000000
   13       -0.564797     -0.425772   1.000000   1.000000
   14       -0.339071     -0.341327   1.000000   1.000000
   15       -0.336382     -0.339793   1.000000   1.000000
   16        1.457625      1.495842   1.000000   1.000000
   17        1.675244      1.695535   1.000000   1.000000
   18        1.681823      1.701734   1.000000   1.000000
   19        2.017430      2.085808   1.000000   1.000000
   20        2.092869      2.098275   1.000000   1.000000
   21        2.095279      2.105096   1.000000   1.000000
   22        2.306824      2.311443   1.000000   1.000000
   23        2.330012      2.363711   1.000000   1.000000
   24        2.334664      2.366700   1.000000   1.000000
   25        2.442663      2.510575   1.000000   1.000000
   26        2.539464      2.573926   1.000000   1.000000
   27        2.549697      2.587235   1.000000   1.000000
   28        2.818548      2.833432   1.000000   1.000000
   29        2.899316      2.919152   1.000000   1.000000
   30        2.910512      2.928845   1.000000   1.000000
   31        3.256385      3.291567   1.000000   1.000000
   32        3.271916      3.309251   1.000000   1.000000
   33        8.271642      8.449927   1.000000   1.000000
   34        9.713560     10.445023   0.999999   0.000000
   35       10.857663     11.139958   0.000000   0.000000
   36       11.249010     11.219880   0.000000   0.000000
   37       11.353800     11.318190   0.000000   0.000000
   38       11.997611     12.019516   0.000000   0.000000
   39       12.150797     12.177381   0.000000   0.000000
   40       12.229489     12.263742   0.000000   0.000000
   41       12.859907     12.855898   0.000000   0.000000
   42       12.894963     12.885623   0.000000   0.000000
   43       13.500889     13.555681   0.000000   0.000000
   44       15.273342     15.253118   0.000000   0.000000
   45       15.284268     15.262733   0.000000   0.000000
   46       15.360165     15.340957   0.000000   0.000000
   47       15.875268     15.884439   0.000000   0.000000
   48       15.955922     15.953050   0.000000   0.000000
   49       16.086877     16.085203   0.000000   0.000000
   50       16.840096     17.150681   0.000000   0.000000
   51       17.152947     17.180107   0.000000   0.000000
   52       17.157862     17.191129   0.000000   0.000000
 
 -0.2500000E+00  0.2500000E+00  0.2500000E+00  0.6250000E-01
    1      -13.272522    -13.259316   1.000000   1.000000
    2      -12.957389    -12.938383   1.000000   1.000000
    3      -12.733458    -12.724202   1.000000   1.000000
    4      -12.568612    -12.569387   1.000000   1.000000
    5      -12.524857    -12.486995   1.000000   1.000000
    6      -12.374114    -12.341352   1.000000   1.000000
    7      -12.252181    -12.194429   1.000000   1.000000
    8      -12.233149    -12.172342   1.000000   1.000000
    9       -0.552045     -0.511473   1.000000   1.000000
   10       -0.332359     -0.291859   1.000000   1.000000
   11       -0.255016     -0.211180   1.000000   1.000000
   12       -0.204574     -0.100836   1.000000   1.000000
   13        0.019331      0.020121   1.000000   1.000000
   14        0.083976      0.090586   1.000000   1.000000
   15        0.207139      0.229621   1.000000   1.000000
   16        0.731880      0.789400   1.000000   1.000000
   17        0.991116      1.016409   1.000000   1.000000
   18        1.037541      1.062004   1.000000   1.000000
   19        1.152906      1.202159   1.000000   1.000000
   20        1.613284      1.633587   1.000000   1.000000
   21        1.695947      1.735082   1.000000   1.000000
   22        1.877834      1.891233   1.000000   1.000000
   23        2.015713      2.059244   1.000000   1.000000
   24        2.200281      2.231370   1.000000   1.000000
   25        2.353687      2.398803   1.000000   1.000000
   26        2.404544      2.420689   1.000000   1.000000
   27        2.543402      2.578364   1.000000   1.000000
   28        2.579495      2.608457   1.000000   1.000000
   29        2.676212      2.700353   1.000000   1.000000
   30        2.924358      2.944519   1.000000   1.000000
   31        2.939177      2.978925   1.000000   1.000000
   32        3.073523      3.113274   1.000000   1.000000
   33        9.472172      9.864707   1.000000   0.677221
   34       10.277158     10.691105   0.000000   0.000000
   35       11.174679     11.272930   0.000000   0.000000
   36       11.685136     11.801887   0.000000   0.000000
   37       11.925557     12.064613   0.000000   0.000000
   38       12.876660     12.949159   0.000000   0.000000
   39       13.122832     13.120119   0.000000   0.000000
   40       13.276770     13.277542   0.000000   0.000000
   41       13.492644     13.503891   0.000000   0.000000
   42       13.729964     13.719924   0.000000   0.000000
   43       13.890826     13.962263   0.000000   0.000000
   44       14.424345     14.416561   0.000000   0.000000
   45       14.836027     14.827125   0.000000   0.000000
   46       14.914245     14.927248   0.000000   0.000000
   47       15.185842     15.197772   0.000000   0.000000
   48       15.457709     15.456602   0.000000   0.000000
   49       15.806143     15.807922   0.000000   0.000000
   50       16.271924     16.403408   0.000000   0.000000
   51       16.510451     16.595675   0.000000   0.000000
   52       16.942633     16.911549   0.000000   0.000000
 
  0.2500000E+00 -0.2500000E+00  0.2500000E+00  0.6250000E-01
    1      -13.265644    -13.252104   1.000000   1.000000
    2      -12.972228    -12.955433   1.000000   1.000000
    3      -12.746008    -12.734773   1.000000   1.000000
    4      -12.544492    -12.546746   1.000000   1.000000
    5      -12.513543    -12.476536   1.000000   1.000000
    6      -12.393408    -12.356452   1.000000   1.000000
    7      -12.246895    -12.193376   1.000000   1.000000
    8      -12.233646    -12.170492   1.000000   1.000000
    9       -0.525772     -0.492810   1.000000   1.000000
   10       -0.331724     -0.300863   1.000000   1.000000
   11       -0.256404     -0.234772   1.000000   1.000000
   12       -0.236052     -0.099869   1.000000   1.000000
   13        0.008006      0.011898   1.000000   1.000000
   14        0.086058      0.093300   1.000000   1.000000
   15        0.211830      0.230867   1.000000   1.000000
   16        0.703674      0.764762   1.000000   1.000000
   17        1.020258      1.046242   1.000000   1.000000
   18        1.044824      1.082166   1.000000   1.000000
   19        1.159246      1.202064   1.000000   1.000000
   20        1.663444      1.675593   1.000000   1.000000
   21        1.680916      1.730634   1.000000   1.000000
   22        1.863948      1.875029   1.000000   1.000000
   23        2.003472      2.048415   1.000000   1.000000
   24        2.199638      2.233246   1.000000   1.000000
   25        2.364709      2.417643   1.000000   1.000000
   26        2.430696      2.428652   1.000000   1.000000
   27        2.509092      2.544499   1.000000   1.000000
   28        2.574413      2.606283   1.000000   1.000000
   29        2.693374      2.715764   1.000000   1.000000
   30        2.922882      2.947023   1.000000   1.000000
   31        2.943899      2.984748   1.000000   1.000000
   32        3.036339      3.074069   1.000000   1.000000
   33        9.485669      9.863935   1.000000   0.685017
   34       10.204079     10.557860   0.000000   0.000000
   35       11.168390     11.281447   0.000000   0.000000
   36       11.709959     11.970665   0.000000   0.000000
   37       11.987956     12.080341   0.000000   0.000000
   38       12.797761     12.811725   0.000000   0.000000
   39       13.097379     13.123785   0.000000   0.000000
   40       13.313397     13.327378   0.000000   0.000000
   41       13.482029     13.491321   0.000000   0.000000
   42       13.742695     13.743743   0.000000   0.000000
   43       13.962677     13.992845   0.000000   0.000000
   44       14.392579     14.395388   0.000000   0.000000
   45       14.880522     14.860519   0.000000   0.000000
   46       14.949833     14.984538   0.000000   0.000000
   47       15.347090     15.348053   0.000000   0.000000
   48       15.423947     15.427439   0.000000   0.000000
   49       15.761256     15.755285   0.000000   0.000000
   50       16.295636     16.408124   0.000000   0.000000
   51       16.489216     16.583863   0.000000   0.000000
   52       16.890396     16.841935   0.000000   0.000000
 
  0.2500000E+00  0.2500000E+00 -0.2500000E+00  0.6250000E-01
    1      -13.271294    -13.258059   1.000000   1.000000
    2      -12.959572    -12.940704   1.000000   1.000000
    3      -12.735236    -12.726035   1.000000   1.000000
    4      -12.568747    -12.567955   1.000000   1.000000
    5      -12.520217    -12.484122   1.000000   1.000000
    6      -12.375868    -12.342496   1.000000   1.000000
    7      -12.253359    -12.195963   1.000000   1.000000
    8      -12.231943    -12.171013   1.000000   1.000000
    9       -0.552239     -0.512713   1.000000   1.000000
   10       -0.330303     -0.291760   1.000000   1.000000
   11       -0.259930     -0.209911   1.000000   1.000000
   12       -0.200957     -0.101385   1.000000   1.000000
   13        0.017868      0.018402   1.000000   1.000000
   14        0.084982      0.091854   1.000000   1.000000
   15        0.206630      0.229055   1.000000   1.000000
   16        0.729886      0.785910   1.000000   1.000000
   17        0.983962      1.016885   1.000000   1.000000
   18        1.044758      1.064905   1.000000   1.000000
   19        1.154354      1.203200   1.000000   1.000000
   20        1.606856      1.629900   1.000000   1.000000
   21        1.706779      1.743754   1.000000   1.000000
   22        1.877691      1.890980   1.000000   1.000000
   23        2.015019      2.058003   1.000000   1.000000
   24        2.198657      2.230157   1.000000   1.000000
   25        2.353160      2.396376   1.000000   1.000000
   26        2.405671      2.422994   1.000000   1.000000
   27        2.540808      2.575728   1.000000   1.000000
   28        2.579693      2.609236   1.000000   1.000000
   29        2.677150      2.701409   1.000000   1.000000
   30        2.926561      2.946420   1.000000   1.000000
   31        2.938748      2.978863   1.000000   1.000000
   32        3.072055      3.111435   1.000000   1.000000
   33        9.473778      9.863895   1.000000   0.685418
   34       10.267712     10.673565   0.000000   0.000000
   35       11.164607     11.262249   0.000000   0.000000
   36       11.673602     11.820039   0.000000   0.000000
   37       11.966275     12.088914   0.000000   0.000000
   38       12.867078     12.938779   0.000000   0.000000
   39       13.111381     13.109947   0.000000   0.000000
   40       13.270179     13.269919   0.000000   0.000000
   41       13.501142     13.514140   0.000000   0.000000
   42       13.731657     13.723202   0.000000   0.000000
   43       13.886987     13.951258   0.000000   0.000000
   44       14.431279     14.424501   0.000000   0.000000
   45       14.837871     14.832031   0.000000   0.000000
   46       14.914756     14.925782   0.000000   0.000000
   47       15.200121     15.212474   0.000000   0.000000
   48       15.466273     15.464883   0.000000   0.000000
   49       15.805505     15.806618   0.000000   0.000000
   50       16.268809     16.398508   0.000000   0.000000
   51       16.505090     16.592288   0.000000   0.000000
   52       16.933961     16.949302   0.000000   0.000000
 
  0.2500000E+00  0.0000000E+00  0.5000000E+00  0.6250000E-01
    1      -13.271210    -13.257936   1.000000   1.000000
    2      -12.965724    -12.947483   1.000000   1.000000
    3      -12.716456    -12.707084   1.000000   1.000000
    4      -12.577448    -12.578158   1.000000   1.000000
    5      -12.532390    -12.492792   1.000000   1.000000
    6      -12.366700    -12.335552   1.000000   1.000000
    7      -12.246664    -12.187416   1.000000   1.000000
    8      -12.239534    -12.179810   1.000000   1.000000
    9       -0.546689     -0.510539   1.000000   1.000000
   10       -0.333482     -0.296432   1.000000   1.000000
   11       -0.270587     -0.206440   1.000000   1.000000
   12       -0.199621     -0.110628   1.000000   1.000000
   13        0.022502      0.022892   1.000000   1.000000
   14        0.079116      0.088397   1.000000   1.000000
   15        0.211248      0.232570   1.000000   1.000000
   16        0.733416      0.790721   1.000000   1.000000
   17        0.995438      1.019718   1.000000   1.000000
   18        1.028733      1.054655   1.000000   1.000000
   19        1.160594      1.210010   1.000000   1.000000
   20        1.625156      1.640126   1.000000   1.000000
   21        1.683600      1.726883   1.000000   1.000000
   22        1.878768      1.895517   1.000000   1.000000
   23        2.022054      2.068335   1.000000   1.000000
   24        2.193652      2.225804   1.000000   1.000000
   25        2.358346      2.402934   1.000000   1.000000
   26        2.409062      2.423572   1.000000   1.000000
   27        2.542639      2.575722   1.000000   1.000000
   28        2.573711      2.601024   1.000000   1.000000
   29        2.674934      2.699953   1.000000   1.000000
   30        2.923059      2.951881   1.000000   1.000000
   31        2.934722      2.963709   1.000000   1.000000
   32        3.076982      3.119168   1.000000   1.000000
   33        9.476264      9.866723   1.000000   0.656501
   34       10.258046     10.642464   0.000000   0.000000
   35       11.196104     11.398973   0.000000   0.000000
   36       11.693236     11.672856   0.000000   0.000000
   37       11.883562     12.071964   0.000000   0.000000
   38       12.837422     12.932113   0.000000   0.000000
   39       13.221522     13.226578   0.000000   0.000000
   40       13.295332     13.292218   0.000000   0.000000
   41       13.420522     13.422781   0.000000   0.000000
   42       13.731181     13.725913   0.000000   0.000000
   43       13.957282     14.022066   0.000000   0.000000
   44       14.411878     14.410362   0.000000   0.000000
   45       14.822175     14.800247   0.000000   0.000000
   46       14.881339     14.906080   0.000000   0.000000
   47       15.204995     15.215886   0.000000   0.000000
   48       15.458232     15.451158   0.000000   0.000000
   49       15.811185     15.815820   0.000000   0.000000
   50       16.289738     16.368641   0.000000   0.000000
   51       16.429142     16.558677   0.000000   0.000000
   52       17.033701     16.989542   0.000000   0.000000
 
 -0.2500000E+00  0.5000000E+00  0.5000000E+00  0.6250000E-01
    1      -13.266638    -13.253268   1.000000   1.000000
    2      -12.973889    -12.956020   1.000000   1.000000
    3      -12.725042    -12.714839   1.000000   1.000000
    4      -12.568498    -12.569067   1.000000   1.000000
    5      -12.521752    -12.484194   1.000000   1.000000
    6      -12.374739    -12.341641   1.000000   1.000000
    7      -12.251769    -12.194080   1.000000   1.000000
    8      -12.233752    -12.173049   1.000000   1.000000
    9       -0.538544     -0.501510   1.000000   1.000000
   10       -0.327654     -0.297431   1.000000   1.000000
   11       -0.274428     -0.211826   1.000000   1.000000
   12       -0.205086     -0.110388   1.000000   1.000000
   13        0.015195      0.016020   1.000000   1.000000
   14        0.079559      0.087833   1.000000   1.000000
   15        0.214346      0.234785   1.000000   1.000000
   16        0.727288      0.784493   1.000000   1.000000
   17        0.997984      1.023932   1.000000   1.000000
   18        1.031960      1.063301   1.000000   1.000000
   19        1.163779      1.210920   1.000000   1.000000
   20        1.615923      1.634914   1.000000   1.000000
   21        1.704233      1.745374   1.000000   1.000000
   22        1.876247      1.892894   1.000000   1.000000
   23        2.015355      2.060806   1.000000   1.000000
   24        2.190154      2.222232   1.000000   1.000000
   25        2.363629      2.405148   1.000000   1.000000
   26        2.412039      2.426380   1.000000   1.000000
   27        2.524903      2.557759   1.000000   1.000000
   28        2.575448      2.605153   1.000000   1.000000
   29        2.682607      2.707516   1.000000   1.000000
   30        2.925211      2.955334   1.000000   1.000000
   31        2.940345      2.969999   1.000000   1.000000
   32        3.063460      3.103046   1.000000   1.000000
   33        9.483332      9.870470   1.000000   0.616747
   34       10.215456     10.567910   0.000000   0.000000
   35       11.193392     11.386443   0.000000   0.000000
   36       11.719758     11.779686   0.000000   0.000000
   37       11.947963     12.122869   0.000000   0.000000
   38       12.778795     12.849409   0.000000   0.000000
   39       13.137740     13.145140   0.000000   0.000000
   40       13.278057     13.277387   0.000000   0.000000
   41       13.522962     13.531224   0.000000   0.000000
   42       13.726602     13.724449   0.000000   0.000000
   43       13.937285     13.985958   0.000000   0.000000
   44       14.454353     14.453195   0.000000   0.000000
   45       14.823074     14.819112   0.000000   0.000000
   46       14.889671     14.899805   0.000000   0.000000
   47       15.323339     15.332147   0.000000   0.000000
   48       15.425653     15.422254   0.000000   0.000000
   49       15.803622     15.804278   0.000000   0.000000
   50       16.283571     16.351123   0.000000   0.000000
   51       16.404782     16.544250   0.000000   0.000000
   52       16.939523     16.925204   0.000000   0.000000
 
  0.2500000E+00  0.5000000E+00  0.0000000E+00  0.6250000E-01
    1      -13.264184    -13.250616   1.000000   1.000000
    2      -12.978445    -12.962038   1.000000   1.000000
    3      -12.730688    -12.718522   1.000000   1.000000
    4      -12.556755    -12.558204   1.000000   1.000000
    5      -12.521783    -12.484533   1.000000   1.000000
    6      -12.381579    -12.347912   1.000000   1.000000
    7      -12.244144    -12.186493   1.000000   1.000000
    8      -12.238362    -12.177676   1.000000   1.000000
    9       -0.522309     -0.490619   1.000000   1.000000
   10       -0.335682     -0.304825   1.000000   1.000000
   11       -0.265603     -0.227519   1.000000   1.000000
   12       -0.222704     -0.100221   1.000000   1.000000
   13        0.008162      0.010563   1.000000   1.000000
   14        0.079343      0.087635   1.000000   1.000000
   15        0.216262      0.234909   1.000000   1.000000
   16        0.713262      0.773887   1.000000   1.000000
   17        0.996473      1.038123   1.000000   1.000000
   18        1.044988      1.065395   1.000000   1.000000
   19        1.174313      1.217822   1.000000   1.000000
   20        1.641809      1.658535   1.000000   1.000000
   21        1.692223      1.736563   1.000000   1.000000
   22        1.872434      1.887031   1.000000   1.000000
   23        2.010991      2.056480   1.000000   1.000000
   24        2.186217      2.217761   1.000000   1.000000
   25        2.370086      2.409831   1.000000   1.000000
   26        2.421738      2.434437   1.000000   1.000000
   27        2.520920      2.554737   1.000000   1.000000
   28        2.564363      2.595550   1.000000   1.000000
   29        2.692630      2.715424   1.000000   1.000000
   30        2.929240      2.955972   1.000000   1.000000
   31        2.935511      2.969433   1.000000   1.000000
   32        3.046551      3.087666   1.000000   1.000000
   33        9.488859      9.872769   1.000000   0.591695
   34       10.186966     10.518290   0.000000   0.000000
   35       11.208756     11.411066   0.000000   0.000000