   17   17   20    2
  0.9011457E+01  0.6006014E-09  0.6006014E-09  0.6006014E-09  0.5000000E-15
  1.000000000000000E-004
  CAR 
 unknown system                          
     66      8     52
 
  0.0000000E+00  0.0000000E+00  0.0000000E+00  0.1250000E+00
    1      -13.798093    -13.755257   1.000000   1.000000
    2      -12.597339    -12.577458   1.000000   1.000000
    3      -12.587240    -12.556646   1.000000   1.000000
    4      -12.558373    -12.518663   1.000000   1.000000
    5      -12.534759    -12.509715   1.000000   1.000000
    6      -12.255337    -12.176718   1.000000   1.000000
    7      -12.251862    -12.168887   1.000000   1.000000
    8      -12.247028    -12.166490   1.000000   1.000000
    9       -1.468231     -1.340800   1.000000   1.000000
   10       -1.156217     -1.131589   1.000000   1.000000
   11       -1.144751     -1.118808   1.000000   1.000000
   12       -1.129088     -1.103761   1.000000   1.000000
   13       -0.881711     -0.637973   1.000000   1.000000
   14       -0.546834     -0.529955   1.000000   1.000000
   15       -0.546084     -0.528459   1.000000   1.000000
   16        1.827574      1.873842   1.000000   1.000000
   17        1.838027      1.884865   1.000000   1.000000
   18        1.856036      1.906057   1.000000   1.000000
   19        2.198308      2.222148   1.000000   1.000000
   20        2.201922      2.224049   1.000000   1.000000
   21        2.206088      2.226835   1.000000   1.000000
   22        2.518986      2.602416   1.000000   1.000000
   23        2.522496      2.607377   1.000000   1.000000
   24        2.536726      2.612763   1.000000   1.000000
   25        2.818289      2.852674   1.000000   1.000000
   26        2.820925      2.856764   1.000000   1.000000
   27        2.916286      2.946797   1.000000   1.000000
   28        2.917915      2.951224   1.000000   1.000000
   29        2.921829      2.956488   1.000000   1.000000
   30        3.319673      3.370833   1.000000   1.000000
   31        3.337221      3.394427   1.000000   1.000000
   32        3.356418      3.416357   1.000000   1.000000
   33        7.358412      7.584239   1.000000   1.000000
   34        9.353245     10.683341   1.000000   0.000000
   35       10.718245     10.730356   0.000000   0.000000
   36       10.736923     10.738444   0.000000   0.000000
   37       10.794697     10.790096   0.000000   0.000000
   38       11.510133     11.586536   0.000000   0.000000
   39       11.653230     11.720121   0.000000   0.000000
   40       11.789736     11.847203   0.000000   0.000000
   41       12.281939     12.308902   0.000000   0.000000
   42       12.294646     12.321626   0.000000   0.000000
   43       13.048822     13.146452   0.000000   0.000000
   44       15.566981     15.592789   0.000000   0.000000
   45       15.581830     15.617406   0.000000   0.000000
   46       15.745958     15.743514   0.000000   0.000000
   47       15.844320     15.873230   0.000000   0.000000
   48       16.015939     16.043195   0.000000   0.000000
   49       16.138793     16.167316   0.000000   0.000000
   50       17.440439     17.756543   0.000000   0.000000
   51       17.821243     18.090683   0.000000   0.000000
   52       17.919239     18.202562   0.000000   0.000000
 
  0.5000000E+00  0.0000000E+00  0.0000000E+00  0.1250000E+00
    1      -13.308059    -13.285305   1.000000   1.000000
    2      -13.152277    -13.092351   1.000000   1.000000
    3      -12.546136    -12.543181   1.000000   1.000000
    4      -12.509811    -12.506509   1.000000   1.000000
    5      -12.481220    -12.441776   1.000000   1.000000
    6      -12.361413    -12.277352   1.000000   1.000000
    7      -12.319267    -12.224458   1.000000   1.000000
    8      -12.316994    -12.222439   1.000000   1.000000
    9       -0.717351     -0.694934   1.000000   1.000000
   10       -0.581542     -0.376157   1.000000   1.000000
   11       -0.378968     -0.346751   1.000000   1.000000
   12       -0.357137     -0.292808   1.000000   1.000000
   13       -0.279520     -0.241664   1.000000   1.000000
   14       -0.269080     -0.233267   1.000000   1.000000
   15        0.632692      0.668359   1.000000   1.000000
   16        0.646193      0.702253   1.000000   1.000000
   17        1.245475      1.313631   1.000000   1.000000
   18        1.407082      1.423696   1.000000   1.000000
   19        1.433448      1.460538   1.000000   1.000000
   20        1.499848      1.651035   1.000000   1.000000
   21        1.626564      1.690657   1.000000   1.000000
   22        1.630975      1.694581   1.000000   1.000000
   23        2.167711      2.181262   1.000000   1.000000
   24        2.173451      2.186783   1.000000   1.000000
   25        2.378720      2.472480   1.000000   1.000000
   26        2.393506      2.484758   1.000000   1.000000
   27        2.483543      2.494929   1.000000   1.000000
   28        2.599598      2.646963   1.000000   1.000000
   29        2.970366      3.001441   1.000000   1.000000
   30        2.986024      3.022068   1.000000   1.000000
   31        3.143565      3.209679   1.000000   1.000000
   32        3.152775      3.222048   1.000000   1.000000
   33        9.201906      9.690957   1.000000   0.985262
   34        9.820422     10.102311   0.068804   0.000000
   35       10.985493     11.621371   0.000000   0.000000
   36       11.629078     11.723709   0.000000   0.000000
   37       11.824352     11.857610   0.000000   0.000000
   38       12.778339     12.862632   0.000000   0.000000
   39       12.835467     12.914226   0.000000   0.000000
   40       12.889447     12.956701   0.000000   0.000000
   41       13.365783     13.401584   0.000000   0.000000
   42       13.403622     13.439515   0.000000   0.000000
   43       14.130532     14.268310   0.000000   0.000000
   44       14.519799     14.548597   0.000000   0.000000
   45       14.747521     14.767316   0.000000   0.000000
   46       14.794315     14.826460   0.000000   0.000000
   47       15.042796     15.142309   0.000000   0.000000
   48       16.097616     16.113634   0.000000   0.000000
   49       16.120943     16.149171   0.000000   0.000000
   50       16.300685     16.365438   0.000000   0.000000
   51       16.336685     16.470698   0.000000   0.000000
   52       16.446616     16.586052   0.000000   0.000000
 
  0.0000000E+00  0.5000000E+00  0.0000000E+00  0.1250000E+00
    1      -13.264534    -13.245145   1.000000   1.000000
    2      -13.207986    -13.148496   1.000000   1.000000
    3      -12.537056    -12.523493   1.000000   1.000000
    4      -12.513710    -12.484328   1.000000   1.000000
    5      -12.474413    -12.472151   1.000000   1.000000
    6      -12.348734    -12.259571   1.000000   1.000000
    7      -12.330684    -12.236586   1.000000   1.000000
    8      -12.317375    -12.223115   1.000000   1.000000
    9       -0.682440     -0.655133   1.000000   1.000000
   10       -0.580493     -0.370087   1.000000   1.000000
   11       -0.384343     -0.348847   1.000000   1.000000
   12       -0.369677     -0.297365   1.000000   1.000000
   13       -0.297729     -0.268762   1.000000   1.000000
   14       -0.283309     -0.253398   1.000000   1.000000
   15        0.603633      0.620838   1.000000   1.000000
   16        0.665613      0.732742   1.000000   1.000000
   17        1.216995      1.277142   1.000000   1.000000
   18        1.411614      1.449143   1.000000   1.000000
   19        1.476629      1.490355   1.000000   1.000000
   20        1.503900      1.666836   1.000000   1.000000
   21        1.631341      1.698645   1.000000   1.000000
   22        1.641191      1.705344   1.000000   1.000000
   23        2.198236      2.209071   1.000000   1.000000
   24        2.229141      2.241250   1.000000   1.000000
   25        2.335547      2.422506   1.000000   1.000000
   26        2.353451      2.446874   1.000000   1.000000
   27        2.489505      2.499641   1.000000   1.000000
   28        2.595608      2.636745   1.000000   1.000000
   29        2.998062      3.028487   1.000000   1.000000
   30        3.012448      3.046025   1.000000   1.000000
   31        3.102480      3.164526   1.000000   1.000000
   32        3.117991      3.187994   1.000000   1.000000
   33        9.223405      9.695149   1.000000   0.980229
   34        9.718226     10.008717   0.920107   0.000000
   35       11.014668     11.596280   0.000000   0.000000
   36       11.614988     11.798597   0.000000   0.000000
   37       11.871253     11.881898   0.000000   0.000000
   38       12.573622     12.740449   0.000000   0.000000
   39       12.803337     12.882886   0.000000   0.000000
   40       12.859957     12.932205   0.000000   0.000000
   41       13.478006     13.515953   0.000000   0.000000
   42       13.561364     13.606711   0.000000   0.000000
   43       14.237217     14.249551   0.000000   0.000000
   44       14.572883     14.694737   0.000000   0.000000
   45       14.749830     14.765308   0.000000   0.000000
   46       14.823947     14.841446   0.000000   0.000000
   47       15.250988     15.342496   0.000000   0.000000
   48       15.968060     15.979408   0.000000   0.000000
   49       16.004955     16.031471   0.000000   0.000000
   50       16.288847     16.309982   0.000000   0.000000
   51       16.371098     16.444404   0.000000   0.000000
   52       16.453328     16.657859   0.000000   0.000000
 
  0.5000000E+00  0.5000000E+00  0.0000000E+00  0.1250000E+00
    1      -13.118112    -13.082052   1.000000   1.000000
    2      -13.051118    -13.028973   1.000000   1.000000
    3      -12.704644    -12.650008   1.000000   1.000000
    4      -12.625000    -12.603035   1.000000   1.000000
    5      -12.602648    -12.577535   1.000000   1.000000
    6      -12.515077    -12.421801   1.000000   1.000000
    7      -12.217371    -12.143386   1.000000   1.000000
    8      -12.211833    -12.136849   1.000000   1.000000
    9       -0.367218     -0.272412   1.000000   1.000000
   10       -0.203028     -0.159800   1.000000   1.000000
   11       -0.018298      0.001732   1.000000   1.000000
   12       -0.009789      0.011063   1.000000   1.000000
   13        0.246486      0.371284   1.000000   1.000000
   14        0.256070      0.469678   1.000000   1.000000
   15        0.497812      0.516244   1.000000   1.000000
   16        0.659240      0.679883   1.000000   1.000000
   17        0.752780      0.773722   1.000000   1.000000
   18        0.792410      0.824769   1.000000   1.000000
   19        1.271754      1.289651   1.000000   1.000000
   20        1.321716      1.327750   1.000000   1.000000
   21        1.411783      1.434164   1.000000   1.000000
   22        1.513813      1.668135   1.000000   1.000000
   23        1.589578      1.686508   1.000000   1.000000
   24        1.595343      1.694237   1.000000   1.000000
   25        2.469009      2.473033   1.000000   1.000000
   26        2.478319      2.482086   1.000000   1.000000
   27        2.669373      2.728549   1.000000   1.000000
   28        2.674065      2.733707   1.000000   1.000000
   29        2.767465      2.804648   1.000000   1.000000
   30        2.815935      2.899037   1.000000   1.000000
   31        2.826801      2.908198   1.000000   1.000000
   32        2.978316      3.014853   1.000000   1.000000
   33        9.696316     10.473258   0.978592   0.000000
   34       10.462751     10.550021   0.000000   0.000000
   35       11.267341     11.842036   0.000000   0.000000
   36       11.851493     11.883777   0.000000   0.000000
   37       11.922351     11.964207   0.000000   0.000000
   38       12.994517     13.050280   0.000000   0.000000
   39       13.216352     13.457307   0.000000   0.000000
   40       13.616270     13.639908   0.000000   0.000000
   41       13.668335     13.734908   0.000000   0.000000
   42       14.003958     14.075990   0.000000   0.000000
   43       14.013055     14.090767   0.000000   0.000000
   44       14.349716     14.410804   0.000000   0.000000
   45       14.696531     14.733608   0.000000   0.000000
   46       14.923852     14.986927   0.000000   0.000000
   47       15.005949     15.042215   0.000000   0.000000
   48       15.055941     15.088672   0.000000   0.000000
   49       15.747230     15.758954   0.000000   0.000000
   50       16.172813     16.233818   0.000000   0.000000
   51       16.411513     16.607211   0.000000   0.000000
   52       17.206650     17.230366   0.000000   0.000000
 
  0.0000000E+00  0.0000000E+00  0.5000000E+00  0.1250000E+00
    1      -13.295122    -13.272763   1.000000   1.000000
    2      -13.170075    -13.110943   1.000000   1.000000
    3      -12.546570    -12.543528   1.000000   1.000000
    4      -12.506693    -12.495552   1.000000   1.000000
    5      -12.478476    -12.447799   1.000000   1.000000
    6      -12.350181    -12.263665   1.000000   1.000000
    7      -12.330932    -12.236584   1.000000   1.000000
    8      -12.316907    -12.222361   1.000000   1.000000
    9       -0.711407     -0.686531   1.000000   1.000000
   10       -0.584439     -0.370410   1.000000   1.000000
   11       -0.375379     -0.336743   1.000000   1.000000
   12       -0.350416     -0.299752   1.000000   1.000000
   13       -0.288732     -0.253005   1.000000   1.000000
   14       -0.276387     -0.240807   1.000000   1.000000
   15        0.631447      0.652147   1.000000   1.000000
   16        0.644229      0.711237   1.000000   1.000000
   17        1.236061      1.292026   1.000000   1.000000
   18        1.399886      1.420235   1.000000   1.000000
   19        1.427466      1.486402   1.000000   1.000000
   20        1.531631      1.658084   1.000000   1.000000
   21        1.625572      1.696863   1.000000   1.000000
   22        1.635899      1.699793   1.000000   1.000000
   23        2.172818      2.185928   1.000000   1.000000
   24        2.194096      2.207655   1.000000   1.000000
   25        2.366512      2.456349   1.000000   1.000000
   26        2.378721      2.472706   1.000000   1.000000
   27        2.485858      2.496370   1.000000   1.000000
   28        2.592603      2.638639   1.000000   1.000000
   29        2.978556      3.009910   1.000000   1.000000
   30        2.999556      3.035585   1.000000   1.000000
   31        3.127650      3.190853   1.000000   1.000000
   32        3.145853      3.215841   1.000000   1.000000
   33        9.208112      9.689261   1.000000   0.986961
   34        9.787787     10.069963   0.287166   0.000000
   35       10.977113     11.577383   0.000000   0.000000
   36       11.577514     11.705036   0.000000   0.000000
   37       11.911536     11.955021   0.000000   0.000000
   38       12.785160     12.877242   0.000000   0.000000
   39       12.795098     12.884769   0.000000   0.000000
   40       12.844843     12.921202   0.000000   0.000000
   41       13.392668     13.432482   0.000000   0.000000
   42       13.443517     13.482788   0.000000   0.000000
   43       14.222824     14.314855   0.000000   0.000000
   44       14.465390     14.522916   0.000000   0.000000
   45       14.725992     14.742673   0.000000   0.000000
   46       14.823525     14.859318   0.000000   0.000000
   47       15.099232     15.191898   0.000000   0.000000
   48       16.058176     16.070361   0.000000   0.000000
   49       16.114119     16.144784   0.000000   0.000000
   50       16.297130     16.335722   0.000000   0.000000
   51       16.339027     16.470921   0.000000   0.000000
   52       16.454476     16.608565   0.000000   0.000000
 
  0.5000000E+00  0.0000000E+00  0.5000000E+00  0.1250000E+00
    1      -13.126449    -13.092013   1.000000   1.000000
    2      -13.045274    -13.021109   1.000000   1.000000
    3      -12.687462    -12.635408   1.000000   1.000000
    4      -12.642170    -12.618104   1.000000   1.000000
    5      -12.595256    -12.570123   1.000000   1.000000
    6      -12.520543    -12.426786   1.000000   1.000000
    7      -12.218677    -12.141571   1.000000   1.000000
    8      -12.209812    -12.138364   1.000000   1.000000
    9       -0.361020     -0.266311   1.000000   1.000000
   10       -0.210133     -0.164297   1.000000   1.000000
   11       -0.038915     -0.020268   1.000000   1.000000
   12        0.004206      0.025339   1.000000   1.000000
   13        0.223179      0.360652   1.000000   1.000000
   14        0.272584      0.466671   1.000000   1.000000
   15        0.485146      0.502393   1.000000   1.000000
   16        0.681991      0.702689   1.000000   1.000000
   17        0.746753      0.767697   1.000000   1.000000
   18        0.802423      0.839154   1.000000   1.000000
   19        1.295454      1.300415   1.000000   1.000000
   20        1.342902      1.356696   1.000000   1.000000
   21        1.376716      1.401282   1.000000   1.000000
   22        1.501298      1.662188   1.000000   1.000000
   23        1.582776      1.681366   1.000000   1.000000
   24        1.611410      1.710388   1.000000   1.000000
   25        2.451687      2.457469   1.000000   1.000000
   26        2.516889      2.517402   1.000000   1.000000
   27        2.661491      2.718636   1.000000   1.000000
   28        2.666085      2.728359   1.000000   1.000000
   29        2.765504      2.799349   1.000000   1.000000
   30        2.791437      2.870141   1.000000   1.000000
   31        2.847545      2.933693   1.000000   1.000000
   32        2.971043      3.008074   1.000000   1.000000
   33        9.693548     10.406078   0.982302   0.000000
   34       10.475300     10.634554   0.000000   0.000000
   35       11.268015     11.751958   0.000000   0.000000
   36       11.721124     11.864982   0.000000   0.000000
   37       12.025327     12.047053   0.000000   0.000000
   38       12.961232     13.020709   0.000000   0.000000
   39       13.284000     13.539783   0.000000   0.000000
   40       13.643417     13.672897   0.000000   0.000000
   41       13.682108     13.698573   0.000000   0.000000
   42       13.980789     14.014542   0.000000   0.000000
   43       14.060156     14.202789   0.000000   0.000000
   44       14.252549     14.312187   0.000000   0.000000
   45       14.822438     14.828751   0.000000   0.000000
   46       14.906958     14.976272   0.000000   0.000000
   47       14.954190     15.006838   0.000000   0.000000
   48       14.976955     15.012885   0.000000   0.000000
   49       15.712668     15.729520   0.000000   0.000000
   50       16.232444     16.294180   0.000000   0.000000
   51       16.462544     16.643933   0.000000   0.000000
   52       17.092256     17.102992   0.000000   0.000000
 
  0.0000000E+00  0.5000000E+00  0.5000000E+00  0.1250000E+00
    1      -13.121447    -13.085636   1.000000   1.000000
    2      -13.048364    -13.026110   1.000000   1.000000
    3      -12.700999    -12.645829   1.000000   1.000000
    4      -12.628845    -12.607167   1.000000   1.000000
    5      -12.600190    -12.575026   1.000000   1.000000
    6      -12.517083    -12.423972   1.000000   1.000000
    7      -12.215778    -12.142427   1.000000   1.000000
    8      -12.213045    -12.137427   1.000000   1.000000
    9       -0.365677     -0.267938   1.000000   1.000000
   10       -0.206409     -0.164401   1.000000   1.000000
   11       -0.021202     -0.000565   1.000000   1.000000
   12       -0.008118      0.012126   1.000000   1.000000
   13        0.241665      0.369167   1.000000   1.000000
   14        0.258667      0.465538   1.000000   1.000000
   15        0.494364      0.512723   1.000000   1.000000
   16        0.666987      0.687753   1.000000   1.000000
   17        0.750202      0.771249   1.000000   1.000000
   18        0.794190      0.827819   1.000000   1.000000
   19        1.283124      1.300993   1.000000   1.000000
   20        1.313220      1.318262   1.000000   1.000000
   21        1.412639      1.435271   1.000000   1.000000
   22        1.510448      1.671253   1.000000   1.000000
   23        1.589660      1.681678   1.000000   1.000000
   24        1.602363      1.701725   1.000000   1.000000
   25        2.469358      2.473954   1.000000   1.000000
   26        2.483204      2.485762   1.000000   1.000000
   27        2.665792      2.725375   1.000000   1.000000
   28        2.671221      2.731277   1.000000   1.000000
   29        2.769137      2.805254   1.000000   1.000000
   30        2.806855      2.889178   1.000000   1.000000
   31        2.830970      2.913141   1.000000   1.000000
   32        2.976488      3.013267   1.000000   1.000000
   33        9.694229     10.458928   0.981445   0.000000
   34       10.464510     10.565343   0.000000   0.000000
   35       11.262595     11.837478   0.000000   0.000000
   36       11.822171     11.863345   0.000000   0.000000
   37       11.950685     11.985355   0.000000   0.000000
   38       12.982831     13.037568   0.000000   0.000000
   39       13.231814     13.464258   0.000000   0.000000
   40       13.644235     13.660683   0.000000   0.000000
   41       13.664623     13.738092   0.000000   0.000000
   42       13.990308     14.054426   0.000000   0.000000
   43       14.021343     14.115346   0.000000   0.000000
   44       14.328596     14.388794   0.000000   0.000000
   45       14.704523     14.741737   0.000000   0.000000
   46       14.922727     14.976146   0.000000   0.000000
   47       15.012620     15.051368   0.000000   0.000000
   48       15.026607     15.065457   0.000000   0.000000
   49       15.758731     15.770540   0.000000   0.000000
   50       16.188909     16.254119   0.000000   0.000000
   51       16.433884     16.623452   0.000000   0.000000
   52       17.193808     17.181846   0.000000   0.000000
 
  0.5000000E+00  0.5000000E+00  0.5000000E+00  0.1250000E+00
    1      -13.272680    -13.251265   1.000000   1.000000
    2      -13.198378    -13.140426   1.000000   1.000000
    3      -12.535673    -12.529385   1.000000   1.000000
    4      -12.516975    -12.482096   1.000000   1.000000
    5      -12.473417    -12.469637   1.000000   1.000000
    6      -12.349313    -12.260569   1.000000   1.000000
    7      -12.331998    -12.237541   1.000000   1.000000
    8      -12.316143    -12.222051   1.000000   1.000000
    9       -0.690682     -0.659973   1.000000   1.000000
   10       -0.580959     -0.369297   1.000000   1.000000
   11       -0.382370     -0.347374   1.000000   1.000000
   12       -0.358751     -0.291930   1.000000   1.000000
   13       -0.298660     -0.268557   1.000000   1.000000
   14       -0.284327     -0.253925   1.000000   1.000000
   15        0.610792      0.628292   1.000000   1.000000
   16        0.660593      0.727463   1.000000   1.000000
   17        1.221283      1.281880   1.000000   1.000000
   18        1.412476      1.441375   1.000000   1.000000
   19        1.463623      1.483998   1.000000   1.000000
   20        1.499654      1.653242   1.000000   1.000000
   21        1.626123      1.692164   1.000000   1.000000
   22        1.645475      1.718625   1.000000   1.000000
   23        2.202367      2.214107   1.000000   1.000000
   24        2.212460      2.226299   1.000000   1.000000
   25        2.343997      2.437960   1.000000   1.000000
   26        2.360043      2.445842   1.000000   1.000000
   27        2.490153      2.500834   1.000000   1.000000
   28        2.594085      2.635953   1.000000   1.000000
   29        2.994364      3.021995   1.000000   1.000000
   30        3.010928      3.047280   1.000000   1.000000
   31        3.108226      3.171709   1.000000   1.000000
   32        3.127068      3.195283   1.000000   1.000000
   33        9.218244      9.692762   1.000000   0.983250
   34        9.731904     10.025712   0.845882   0.000000
   35       11.007314     11.581459   0.000000   0.000000
   36       11.599535     11.785399   0.000000   0.000000
   37       11.892101     11.904252   0.000000   0.000000
   38       12.627949     12.786203   0.000000   0.000000
   39       12.767858     12.848100   0.000000   0.000000
   40       12.879286     12.947036   0.000000   0.000000
   41       13.471466     13.518575   0.000000   0.000000
   42       13.516034     13.550525   0.000000   0.000000
   43       14.262531     14.279750   0.000000   0.000000
   44       14.514007     14.631480   0.000000   0.000000
   45       14.770163     14.790403   0.000000   0.000000
   46       14.799010     14.817723   0.000000   0.000000
   47       15.208174     15.298523   0.000000   0.000000
   48       16.005577     16.032675   0.000000   0.000000
   49       16.037474     16.046811   0.000000   0.000000
   50       16.246505     16.266530   0.000000   0.000000
   51       16.365268     16.476062   0.000000   0.000000
   52       16.470880     16.645536   0.000000   0.000000
