 vasp.5.4.1 05Feb16 (build Mar 31 2016 13:39:20) complex                        
  
 executed on           IFC91_ompi date 2018.04.28  12:52:04
 running on   16 total cores
 distrk:  each k-point on   16 cores,    1 groups
 distr:  one band on NCORES_PER_BAND=   4 cores,    4 groups


--------------------------------------------------------------------------------------------------------


 INCAR:
 POTCAR:    PAW_PBE Mg 13Apr2007                  
 POTCAR:    PAW_PBE O 08Apr2002                   
 POTCAR:    PAW_PBE Mg 13Apr2007                  
   VRHFIN =Mg: s2p0                                                             
   LEXCH  = PE                                                                  
   EATOM  =    23.0369 eV,    1.6932 Ry                                         
                                                                                
   TITEL  = PAW_PBE Mg 13Apr2007                                                
   LULTRA =        F    use ultrasoft PP ?                                      
   IUNSCR =        1    unscreen: 0-lin 1-nonlin 2-no                           
   RPACOR =    1.500    partial core radius                                     
   POMASS =   24.305; ZVAL   =    2.000    mass and valenz                      
   RCORE  =    2.000    outmost cutoff radius                                   
   RWIGS  =    2.880; RWIGS  =    1.524    wigner-seitz radius (au A)           
   ENMAX  =  126.143; ENMIN  =   94.607 eV                                      
   RCLOC  =    1.506    cutoff for local pot                                    
   LCOR   =        T    correct aug charges                                     
   LPAW   =        T    paw PP                                                  
   EAUG   =  454.734                                                            
   DEXC   =    0.000                                                            
   RMAX   =    2.045    core radius for proj-oper                               
   RAUG   =    1.300    factor for augmentation sphere                          
   RDEP   =    2.025    radius for radial grids                                 
   RDEPT  =    1.942    core radius for aug-charge                              
                                                                                
   Atomic configuration                                                         
    6 entries                                                                   
     n  l   j            E        occ.                                          
     1  0  0.50     -1259.6230   2.0000                                         
     2  0  0.50       -79.8442   2.0000                                         
     2  1  1.50       -46.6121   6.0000                                         
     3  0  0.50        -4.7055   2.0000                                         
     3  1  0.50        -1.3660   0.0000                                         
     3  2  1.50        -1.3606   0.0000                                         
   Description                                                                  
     l       E           TYP  RCUT    TYP  RCUT                                 
     0     -4.7054661     23  2.000                                             
     0     27.2116520     23  2.000                                             
     1      1.3605826     23  2.000                                             
     1     27.2116520     23  2.000                                             
     2     -1.3605826     23  2.000                                             
  local pseudopotential read in
  partial core-charges read in
  partial kinetic energy density read in
  atomic valenz-charges read in
  non local Contribution for L=           0  read in
    real space projection operators read in
  non local Contribution for L=           0  read in
    real space projection operators read in
  non local Contribution for L=           1  read in
    real space projection operators read in
  non local Contribution for L=           1  read in
    real space projection operators read in
  non local Contribution for L=           2  read in
    real space projection operators read in
    PAW grid and wavefunctions read in
 
   number of l-projection  operators is LMAX  =           5
   number of lm-projection operators is LMMAX =          13
 
 POTCAR:    PAW_PBE O 08Apr2002                   
   VRHFIN =O: s2p4                                                              
   LEXCH  = PE                                                                  
   EATOM  =   432.3788 eV,   31.7789 Ry                                         
                                                                                
   TITEL  = PAW_PBE O 08Apr2002                                                 
   LULTRA =        F    use ultrasoft PP ?                                      
   IUNSCR =        1    unscreen: 0-lin 1-nonlin 2-no                           
   RPACOR =    1.200    partial core radius                                     
   POMASS =   16.000; ZVAL   =    6.000    mass and valenz                      
   RCORE  =    1.520    outmost cutoff radius                                   
   RWIGS  =    1.550; RWIGS  =    0.820    wigner-seitz radius (au A)           
   ENMAX  =  400.000; ENMIN  =  300.000 eV                                      
   ICORE  =        2    local potential                                         
   LCOR   =        T    correct aug charges                                     
   LPAW   =        T    paw PP                                                  
   EAUG   =  605.392                                                            
   DEXC   =    0.000                                                            
   RMAX   =    1.553    core radius for proj-oper                               
   RAUG   =    1.300    factor for augmentation sphere                          
   RDEP   =    1.550    radius for radial grids                                 
   RDEPT  =    1.329    core radius for aug-charge                              
                                                                                
   Atomic configuration                                                         
    4 entries                                                                   
     n  l   j            E        occ.                                          
     1  0  0.50      -514.6923   2.0000                                         
     2  0  0.50       -23.9615   2.0000                                         
     2  1  0.50        -9.0305   4.0000                                         
     3  2  1.50        -9.5241   0.0000                                         
   Description                                                                  
     l       E           TYP  RCUT    TYP  RCUT                                 
     0    -23.9615318     23  1.200                                             
     0     -9.5240782     23  1.200                                             
     1     -9.0304911     23  1.520                                             
     1      8.1634956     23  1.520                                             
     2     -9.5240782      7  1.500                                             
  local pseudopotential read in
  partial core-charges read in
  partial kinetic energy density read in
  kinetic energy density of atom read in
  atomic valenz-charges read in
  non local Contribution for L=           0  read in
    real space projection operators read in
  non local Contribution for L=           0  read in
    real space projection operators read in
  non local Contribution for L=           1  read in
    real space projection operators read in
  non local Contribution for L=           1  read in
    real space projection operators read in
    PAW grid and wavefunctions read in
 
   number of l-projection  operators is LMAX  =           4
   number of lm-projection operators is LMMAX =           8
 
 Optimization of the real space projectors (new method)

 maximal supplied QI-value         = 18.90
 optimisation between [QCUT,QGAM] = [ 10.20, 20.41] = [ 29.16,116.64] Ry 
 Optimized for a Real-space Cutoff    1.30 Angstroem

   l    n(q)    QCUT    max X(q) W(low)/X(q) W(high)/X(q)  e(spline) 
   0      8    10.205    28.265    0.22E-03    0.17E-03    0.53E-07
   0      8    10.205    10.429    0.17E-03    0.15E-03    0.43E-07
   1      7    10.205    13.073    0.71E-04    0.41E-03    0.76E-07
   1      7    10.205     9.625    0.71E-04    0.33E-03    0.63E-07
   2      7    10.205     4.652    0.24E-03    0.41E-03    0.55E-07
 Optimization of the real space projectors (new method)

 maximal supplied QI-value         = 24.76
 optimisation between [QCUT,QGAM] = [ 10.15, 20.30] = [ 28.85,115.39] Ry 
 Optimized for a Real-space Cutoff    1.38 Angstroem

   l    n(q)    QCUT    max X(q) W(low)/X(q) W(high)/X(q)  e(spline) 
   0      8    10.150    20.381    0.22E-03    0.32E-03    0.29E-06
   0      8    10.150    15.268    0.23E-03    0.35E-03    0.30E-06
   1      8    10.150     5.964    0.46E-03    0.53E-03    0.21E-06
   1      8    10.150     5.382    0.38E-03    0.45E-03    0.19E-06
  PAW_PBE Mg 13Apr2007                  :
 energy of atom  1       EATOM=  -23.0369
 kinetic energy error for atom=    0.0001 (will be added to EATOM!!)
  PAW_PBE O 08Apr2002                   :
 energy of atom  2       EATOM= -432.3788
 kinetic energy error for atom=    0.1156 (will be added to EATOM!!)
 
 
 POSCAR: Mg9 O8                                  
  positions in direct lattice
  velocities in cartesian coordinates
 exchange correlation table for  LEXCH =        8
   RHO(1)=    0.500       N(1)  =     2000
   RHO(2)=  100.500       N(2)  =     4000
 


--------------------------------------------------------------------------------------------------------


 ion  position               nearest neighbor table
   1  0.119  0.127  0.123-  14 1.87  11 1.88  10 1.88  12 1.89   4 2.16   2 2.17   3 2.17   6 2.18
                             8 3.47   5 3.48   9 3.49   7 3.50   9 3.52   5 3.52   7 3.53   8 3.54
   2  0.976  0.976  0.975-  15 2.02  16 2.04  13 2.05   1 2.17  14 2.36  11 2.37  12 2.39   4 2.43
                             3 2.46   6 2.47   8 3.00   5 3.00   7 3.02   7 3.03   5 3.05   8 3.05
   3  0.981  0.970  0.566-  17 2.04  13 2.05  15 2.06   1 2.17  12 2.31  14 2.34  10 2.35   4 2.45
                             2 2.46   6 2.49   5 3.00   9 3.01   7 3.01   7 3.03   9 3.03   5 3.04
   4  0.978  0.568  0.979-  16 2.02  13 2.03  17 2.04   1 2.16  10 2.36  14 2.40  11 2.41   2 2.43
                             3 2.45   6 2.47   5 3.01   9 3.01   8 3.02   8 3.03   9 3.03   5 3.04
   5  0.001  0.495  0.502-  15 2.05  17 2.05  16 2.05  11 2.12  10 2.13  12 2.13   9 2.98   7 2.98
                             8 2.98   2 3.00   3 3.00   4 3.01   8 3.02   7 3.02   9 3.02   3 3.04
   6  0.564  0.975  0.977-  17 2.04  15 2.05  16 2.07   1 2.18  11 2.29  12 2.31  10 2.32   4 2.47
                             2 2.47   3 2.49   7 3.00   9 3.00   8 3.01   8 3.02   9 3.03   7 3.03
   7  0.504  0.990  0.502-  16 2.03  13 2.04  17 2.04  14 2.08  11 2.08  10 2.11   9 2.97   8 2.98
                             5 2.98   6 3.00   3 3.01   2 3.02   5 3.02   3 3.03   2 3.03   8 3.03
   8  0.504  0.496  0.998-  17 2.04  13 2.05  15 2.05  14 2.10  10 2.12  12 2.13   7 2.98   9 2.98
                             5 2.98   2 3.00   6 3.01   4 3.02   5 3.02   6 3.02   9 3.03   4 3.03
   9  0.504  0.496  0.502-  15 2.03  16 2.04  13 2.05  14 2.09  11 2.10  12 2.11   7 2.97   8 2.98
                             5 2.98   6 3.00   3 3.01   4 3.01   5 3.02   3 3.03   8 3.03   6 3.03
  10  0.257  0.244  0.252-   1 1.88   7 2.11   8 2.12   5 2.13   6 2.32   3 2.35   4 2.36
  11  0.264  0.243  0.740-   1 1.88   7 2.08   9 2.10   5 2.12   6 2.29   2 2.37   4 2.41
  12  0.256  0.742  0.254-   1 1.89   9 2.11   5 2.13   8 2.13   3 2.31   6 2.31   2 2.39
  13  0.278  0.737  0.742-   4 2.03   7 2.04   8 2.05   2 2.05   9 2.05   3 2.05
  14  0.737  0.246  0.259-   1 1.87   7 2.08   9 2.09   8 2.10   3 2.34   2 2.36   4 2.40
  15  0.744  0.272  0.740-   2 2.02   9 2.03   5 2.05   8 2.05   6 2.05   3 2.06
  16  0.743  0.737  0.277-   4 2.02   7 2.03   2 2.04   9 2.04   5 2.05   6 2.07
  17  0.744  0.735  0.742-   3 2.04   8 2.04   4 2.04   7 2.04   6 2.04   5 2.05
 
  LATTYP: Found a face centered cubic cell.
 ALAT       =     8.4937860000
  
  Lattice vectors:
  
 A1 = (   0.0000000000,   4.2468930000,   4.2468930000)
 A2 = (   4.2468930000,   0.0000000000,   4.2468930000)
 A3 = (   4.2468930000,   4.2468930000,   0.0000000000)


Analysis of symmetry for initial positions (statically):
=====================================================================
 Subroutine PRICEL returns:
 Original cell was already a primitive cell.
 

 Routine SETGRP: Setting up the symmetry group for a 
 face centered cubic supercell.


 Subroutine GETGRP returns: Found  1 space group operations
 (whereof  1 operations were pure point group operations)
 out of a pool of 48 trial point group operations.


The static configuration has the point symmetry C_1 .


Analysis of symmetry for dynamics (positions and initial velocities):
=====================================================================
 Subroutine PRICEL returns:
 Original cell was already a primitive cell.
 

 Routine SETGRP: Setting up the symmetry group for a 
 face centered cubic supercell.


 Subroutine GETGRP returns: Found  1 space group operations
 (whereof  1 operations were pure point group operations)
 out of a pool of 48 trial point group operations.


The dynamic configuration has the point symmetry C_1 .


Analysis of structural, dynamic, and magnetic symmetry:
=====================================================================
 Subroutine PRICEL returns:
 Original cell was already a primitive cell.
 

 Routine SETGRP: Setting up the symmetry group for a 
 face centered cubic supercell.


 Subroutine GETGRP returns: Found  1 space group operations
 (whereof  1 operations were pure point group operations)
 out of a pool of 48 trial point group operations.


The magnetic configuration has the point symmetry C_1 .


 Subroutine INISYM returns: Found  1 space group operations
 (whereof  1 operations are pure point group operations),
 and found     1 'primitive' translations

 
 
 KPOINTS: k-point mesh                            

Automatic generation of k-mesh.
Space group operators:
 irot       det(A)        alpha          n_x          n_y          n_z        tau_x        tau_y        tau_z
    1     1.000000     0.000000     1.000000     0.000000     0.000000     0.000000     0.000000     0.000000
 
 Subroutine IBZKPT returns following result:
 ===========================================
 
 Found      8 irreducible k-points:
 
 Following reciprocal coordinates:
            Coordinates               Weight
  0.000000  0.000000  0.000000      1.000000
  0.500000  0.000000  0.000000      1.000000
  0.000000  0.500000  0.000000      1.000000
  0.500000  0.500000  0.000000      1.000000
  0.000000  0.000000  0.500000      1.000000
  0.500000  0.000000  0.500000      1.000000
  0.000000  0.500000  0.500000      1.000000
  0.500000  0.500000  0.500000      1.000000
 
 Following cartesian coordinates:
            Coordinates               Weight
  0.000000  0.000000  0.000000      1.000000
 -0.058867  0.058867  0.058867      1.000000
  0.058867 -0.058867  0.058867      1.000000
  0.000000  0.000000  0.117733      1.000000
  0.058867  0.058867 -0.058867      1.000000
  0.000000  0.117733  0.000000      1.000000
  0.117733  0.000000  0.000000      1.000000
  0.058867  0.058867  0.058867      1.000000
 


--------------------------------------------------------------------------------------------------------




 Dimension of arrays:
   k-points           NKPTS =      8   k-points in BZ     NKDIM =      8   number of bands    NBANDS=     52
   number of dos      NEDOS =    301   number of ions     NIONS =     17
   non local maximal  LDIM  =      5   non local SUM 2l+1 LMDIM =     13
   total plane-waves  NPLWV =  27000
   max r-space proj   IRMAX =   1992   max aug-charges    IRDMAX=   7686
   dimension x,y,z NGX =    30 NGY =   30 NGZ =   30
   dimension x,y,z NGXF=    60 NGYF=   60 NGZF=   60
   support grid    NGXF=    60 NGYF=   60 NGZF=   60
   ions per type =               9   8
 NGX,Y,Z   is equivalent  to a cutoff of   8.30,  8.30,  8.30 a.u.
 NGXF,Y,Z  is equivalent  to a cutoff of  16.61, 16.61, 16.61 a.u.


 I would recommend the setting:
   dimension x,y,z NGX =    29 NGY =   29 NGZ =   29
 SYSTEM =  unknown system                          
 POSCAR =  Mg9 O8                                  

 Startparameter for this run:
   NWRITE =      2    write-flag & timer
   PREC   = n         normal or accurate (medium, high low for compatibility)
   ISTART =      0    job   : 0-new  1-cont  2-samecut
   ICHARG =      2    charge: 1-file 2-atom 10-const
   ISPIN  =      2    spin polarized calculation?
   LNONCOLLINEAR =      F non collinear calculations
   LSORBIT =      F    spin-orbit coupling
   INIWAV =      1    electr: 0-lowe 1-rand  2-diag
   LASPH  =      T    aspherical Exc in radial PAW
   METAGGA=      F    non-selfconsistent MetaGGA calc.

 Electronic Relaxation 1
   ENCUT  =  400.0 eV  29.40 Ry    5.42 a.u.   9.79  9.79  9.79*2*pi/ulx,y,z
   ENINI  =  400.0     initial cutoff
   ENAUG  =  605.4 eV  augmentation charge cutoff
   NELM   =    100;   NELMIN=  4; NELMDL=  0     # of ELM steps 
   EDIFF  = 0.1E-05   stopping-criterion for ELM
   LREAL  =      T    real-space projection
   NLSPLINE    = F    spline interpolate recip. space projectors
   LCOMPAT=      F    compatible to vasp.4.4
   GGA_COMPAT  = T    GGA compatible to vasp.4.4-vasp.4.6
   LMAXPAW     = -100 max onsite density
   LMAXMIX     =    2 max onsite mixed and CHGCAR
   VOSKOWN=      0    Vosko Wilk Nusair interpolation
   ROPT   =   -0.00050  -0.00050
 Ionic relaxation
   EDIFFG = -.5E-01   stopping-criterion for IOM
   NSW    =     20    number of steps for IOM
   NBLOCK =      1;   KBLOCK =     20    inner block; outer block 
   IBRION =      2    ionic relax: 0-MD 1-quasi-New 2-CG
   NFREE  =      1    steps in history (QN), initial steepest desc. (CG)
   ISIF   =      2    stress and relaxation
   IWAVPR =     11    prediction:  0-non 1-charg 2-wave 3-comb
   ISYM   =      2    0-nonsym 1-usesym 2-fastsym
   LCORR  =      T    Harris-Foulkes like correction to forces

   POTIM  = 0.5000    time-step for ionic-motion
   TEIN   =    0.0    initial temperature
   TEBEG  =    0.0;   TEEND  =   0.0 temperature during run
   SMASS  =  -3.00    Nose mass-parameter (am)
   estimated Nose-frequenzy (Omega)   =  0.10E-29 period in steps =****** mass=  -0.824E-27a.u.
   SCALEE = 1.0000    scale energy and forces
   NPACO  =    256;   APACO  = 16.0  distance and # of slots for P.C.
   PSTRESS=    0.0 pullay stress

  Mass of Ions in am
   POMASS =  24.30 16.00
  Ionic Valenz
   ZVAL   =   2.00  6.00
  Atomic Wigner-Seitz radii
   RWIGS  =  -1.00 -1.00
  virtual crystal weights 
   VCA    =   1.00  1.00
   NELECT =      66.0000    total number of electrons
   NUPDOWN=      -1.0000    fix difference up-down

 DOS related values:
   EMIN   =  10.00;   EMAX   =-10.00  energy-range for DOS
   EFERMI =   0.00
   ISMEAR =     0;   SIGMA  =   0.05  broadening in eV -4-tet -1-fermi 0-gaus

 Electronic relaxation 2 (details)
   IALGO  =     38    algorithm
   LDIAG  =      T    sub-space diagonalisation (order eigenvalues)
   LSUBROT=      F    optimize rotation matrix (better conditioning)
   TURBO    =      0    0=normal 1=particle mesh
   IRESTART =      0    0=no restart 2=restart with 2 vectors
   NREBOOT  =      0    no. of reboots
   NMIN     =      0    reboot dimension
   EREF     =   0.00    reference energy to select bands
   IMIX   =      4    mixing-type and parameters
     AMIX     =   0.40;   BMIX     =  1.00
     AMIX_MAG =   1.60;   BMIX_MAG =  1.00
     AMIN     =   0.10
     WC   =   100.;   INIMIX=   1;  MIXPRE=   1;  MAXMIX= -45

 Intra band minimization:
   WEIMIN = 0.0010     energy-eigenvalue tresh-hold
   EBREAK =  0.48E-08  absolut break condition
   DEPER  =   0.30     relativ break condition  

   TIME   =   0.40     timestep for ELM

  volume/ion in A,a.u.               =       9.01        60.81
  Fermi-wavevector in a.u.,A,eV,Ry     =   1.236445  2.336542 20.800538  1.528796
  Thomas-Fermi vector in A             =   2.371053
 
 Write flags
   LWAVE  =      F    write WAVECAR
   LCHARG =      F    write CHGCAR
   LVTOT  =      F    write LOCPOT, total local potential
   LVHAR  =      F    write LOCPOT, Hartree potential only
   LELF   =      F    write electronic localiz. function (ELF)
   LORBIT =     12    0 simple, 1 ext, 2 COOP (PROOUT)


 Dipole corrections
   LMONO  =      F    monopole corrections only (constant potential shift)
   LDIPOL =      F    correct potential (dipole corrections)
   IDIPOL =      0    1-x, 2-y, 3-z, 4-all directions 
   EPSILON=  1.0000000 bulk dielectric constant

 Exchange correlation treatment:
   GGA     =    --    GGA type
   LEXCH   =     8    internal setting for exchange type
   VOSKOWN=      0    Vosko Wilk Nusair interpolation
   LHFCALC =     F    Hartree Fock is set to
   LHFONE  =     F    Hartree Fock one center treatment
   AEXX    =    0.0000 exact exchange contribution

 Linear response parameters
   LEPSILON=     F    determine dielectric tensor
   LRPA    =     F    only Hartree local field effects (RPA)
   LNABLA  =     F    use nabla operator in PAW spheres
   LVEL    =     F    velocity operator in full k-point grid
   LINTERFAST=   F  fast interpolation
   KINTER  =     0    interpolate to denser k-point grid
   CSHIFT  =0.1000    complex shift for real part using Kramers Kronig
   OMEGAMAX=  -1.0    maximum frequency
   DEG_THRESHOLD= 0.2000000E-02 threshold for treating states as degnerate
   RTIME   =    0.100 relaxation time in fs

 Orbital magnetization related:
   ORBITALMAG=     F  switch on orbital magnetization
   LCHIMAG   =     F  perturbation theory with respect to B field
   DQ        =  0.001000  dq finite difference perturbation B field



--------------------------------------------------------------------------------------------------------


 conjugate gradient relaxation of ions
 charge density and potential will be updated during run
 spin polarized calculation
 Variant of blocked Davidson
 Davidson routine will perform the subspace rotation
 perform sub-space diagonalisation
    after iterative eigenvector-optimisation
 modified Broyden-mixing scheme, WC =      100.0
 initial mixing is a Kerker type mixing with AMIX =  0.4000 and BMIX =      1.0000
 Hartree-type preconditioning will be used
 using additional bands           19
 real space projection scheme for non local part
 use partial core corrections
 calculate Harris-corrections to forces 
   (improved forces if not selfconsistent)
 use gradient corrections 
 use of overlap-Matrix (Vanderbilt PP)
 Gauss-broadening in eV      SIGMA  =   0.05


--------------------------------------------------------------------------------------------------------


  energy-cutoff  :      400.00
  volume of cell :      153.19
      direct lattice vectors                 reciprocal lattice vectors
     0.000000000  4.246893000  4.246893000    -0.117733129  0.117733129  0.117733129
     4.246893000  0.000000000  4.246893000     0.117733129 -0.117733129  0.117733129
     4.246893000  4.246893000  0.000000000     0.117733129  0.117733129 -0.117733129

  length of vectors
     6.006013679  6.006013679  6.006013679     0.203919761  0.203919761  0.203919761


 
 k-points in units of 2pi/SCALE and weight: k-point mesh                            
   0.00000000  0.00000000  0.00000000       0.125
  -0.05886656  0.05886656  0.05886656       0.125
   0.05886656 -0.05886656  0.05886656       0.125
   0.00000000  0.00000000  0.11773313       0.125
   0.05886656  0.05886656 -0.05886656       0.125
   0.00000000  0.11773313  0.00000000       0.125
   0.11773313  0.00000000  0.00000000       0.125
   0.05886656  0.05886656  0.05886656       0.125
 
 k-points in reciprocal lattice and weights: k-point mesh                            
   0.00000000  0.00000000  0.00000000       0.125
   0.50000000  0.00000000  0.00000000       0.125
   0.00000000  0.50000000  0.00000000       0.125
   0.50000000  0.50000000  0.00000000       0.125
   0.00000000  0.00000000  0.50000000       0.125
   0.50000000  0.00000000  0.50000000       0.125
   0.00000000  0.50000000  0.50000000       0.125
   0.50000000  0.50000000  0.50000000       0.125
 
 position of ions in fractional coordinates (direct lattice) 
   0.11904551  0.12734505  0.12253271
   0.97560343  0.97610483  0.97515209
   0.98086010  0.97037955  0.56580256
   0.97801585  0.56825524  0.97912057
   0.00133112  0.49480044  0.50172105
   0.56399130  0.97530342  0.97675414
   0.50380242  0.99035818  0.50188532
   0.50378000  0.49580348  0.99803265
   0.50419736  0.49602781  0.50176110
   0.25691304  0.24434717  0.25172981
   0.26356418  0.24282475  0.73954125
   0.25576442  0.74202985  0.25412058
   0.27848381  0.73675152  0.74227692
   0.73720660  0.24590674  0.25944184
   0.74351025  0.27159608  0.74026432
   0.74339017  0.73714722  0.27670346
   0.74407845  0.73525066  0.74238163
 
 position of ions in cartesian coordinates  (Angst):
   1.06120409  1.02595683  1.04639433
   8.28677936  8.28464995  8.28869616
   6.52400106  6.56851084  8.28670601
   6.57153952  8.31174896  6.56684788
   4.23212011  2.13640870  2.10701762
   8.29017961  6.54338103  6.53721999
   6.33739844  4.27104823  6.34554019
   6.34416219  6.37803762  4.24512408
   4.23750275  4.27219793  4.24784926
   2.10678586  2.16015176  2.12879844
   4.17200332  4.26008145  2.15057963
   4.23054430  2.16542703  4.23752552
   6.28127553  4.33506161  4.31159582
   2.14616136  4.23265931  4.17517717
   4.29726283  6.30143182  4.31104795
   4.30571537  4.33222849  6.28768389
   6.27534623  6.31283689  6.28255244
 


--------------------------------------------------------------------------------------------------------


 k-point  1 :   0.0000 0.0000 0.0000  plane waves:    2733
 k-point  2 :   0.5000 0.0000 0.0000  plane waves:    2788
 k-point  3 :   0.0000 0.5000 0.0000  plane waves:    2788
 k-point  4 :   0.5000 0.5000 0.0000  plane waves:    2778
 k-point  5 :   0.0000 0.0000 0.5000  plane waves:    2788
 k-point  6 :   0.5000 0.0000 0.5000  plane waves:    2778
 k-point  7 :   0.0000 0.5000 0.5000  plane waves:    2778
 k-point  8 :   0.5000 0.5000 0.5000  plane waves:    2788

 maximum and minimum number of plane-waves per node :       715      668

 maximum number of plane-waves:      2788
 maximum index in each direction: 
   IXMAX=    9   IYMAX=    9   IZMAX=    9
   IXMIN=  -10   IYMIN=  -10   IZMIN=  -10

 WARNING: aliasing errors must be expected set NGX to  40 to avoid them
 WARNING: aliasing errors must be expected set NGY to  40 to avoid them
 WARNING: aliasing errors must be expected set NGZ to  40 to avoid them
 aliasing errors are usually negligible using standard VASP settings
 and one can safely disregard these warnings

 real space projection operators:
  total allocation   :       2376.38 KBytes
  max/ min on nodes  :        637.41        552.23


 parallel 3D FFT for wavefunctions:
    minimum data exchange during FFTs selected (reduces bandwidth)
 parallel 3D FFT for charge:
    minimum data exchange during FFTs selected (reduces bandwidth)


 total amount of memory used by VASP on root node    36470. kBytes
========================================================================

   base      :      30000. kBytes
   nonlr-proj:       1346. kBytes
   fftplans  :        708. kBytes
   grid      :       1766. kBytes
   one-center:         81. kBytes
   wavefun   :       2569. kBytes
 
     INWAV:  cpu time    0.0000: real time    0.0000
 Broyden mixing: mesh for mixing (old mesh)
   NGX = 19   NGY = 19   NGZ = 19
  (NGX  = 60   NGY  = 60   NGZ  = 60)
  gives a total of   6859 points

 initial charge density was supplied:
 charge density of overlapping atoms calculated
 number of electron      66.0000000 magnetization      17.0000000
 keeping initial charge density in first step


--------------------------------------------------------------------------------------------------------


 Maximum index for non-local projection operator          511
 Maximum index for augmentation-charges          568 (set IRDMAX)


--------------------------------------------------------------------------------------------------------


 First call to EWALD:  gamma=   0.331
 Maximum number of real-space cells 3x 3x 3
 Maximum number of reciprocal cells 3x 3x 3

 FEWALD executed in parallel
    FEWALD:  cpu time    0.0000: real time    0.0017


----------------------------------------- Iteration    1(   1)  ---------------------------------------


    POTLOK:  cpu time    0.0200: real time    0.0212
    SETDIJ:  cpu time    0.9601: real time    0.9644
     EDDAV:  cpu time    0.5720: real time    0.5726
       DOS:  cpu time    0.0000: real time    0.0005
    --------------------------------------------
      LOOP:  cpu time    1.5561: real time    1.5619

 eigenvalue-minimisations  :  1728
 total energy-change (2. order) : 0.2815962E+03  (-0.2776971E+04)
 number of electron      66.0000000 magnetization      17.0000000
 augmentation part       66.0000000 magnetization      17.0000000

 Free energy of the ion-electron system (eV)
  ---------------------------------------------------
  alpha Z        PSCENC =       167.07285220
  Ewald energy   TEWEN  =     -2906.10158606
  -Hartree energ DENC   =      -985.21626693
  -exchange      EXHF   =         0.00000000
  -V(xc)+E(xc)   XCENC  =      -207.44173506
  PAW double counting   =      3357.85734499    -2905.44438128
  entropy T*S    EENTRO =        -0.00008292
  eigenvalues    EBANDS =        95.43352213
  atomic energy  EATOM  =      3665.43652948
  Solvation  Ediel_sol  =         0.00000000
  ---------------------------------------------------
  free energy    TOTEN  =       281.59619656 eV

  energy without entropy =      281.59627949  energy(sigma->0) =      281.59623802


--------------------------------------------------------------------------------------------------------




----------------------------------------- Iteration    1(   2)  ---------------------------------------


     EDDAV:  cpu time    0.6560: real time    0.6576
       DOS:  cpu time    0.0000: real time    0.0006
    --------------------------------------------
      LOOP:  cpu time    0.6560: real time    0.6609

 eigenvalue-minimisations  :  2084
 total energy-change (2. order) :-0.3529762E+03  (-0.3418329E+03)
 number of electron      66.0000000 magnetization      17.0000000
 augmentation part       66.0000000 magnetization      17.0000000

 Free energy of the ion-electron system (eV)
  ---------------------------------------------------
  alpha Z        PSCENC =       167.07285220
  Ewald energy   TEWEN  =     -2906.10158606
  -Hartree energ DENC   =      -985.21626693
  -exchange      EXHF   =         0.00000000
  -V(xc)+E(xc)   XCENC  =      -207.44173506
  PAW double counting   =      3357.85734499    -2905.44438128
  entropy T*S    EENTRO =        -0.00430460
  eigenvalues    EBANDS =      -257.53848781
  atomic energy  EATOM  =      3665.43652948
  Solvation  Ediel_sol  =         0.00000000
  ---------------------------------------------------
  free energy    TOTEN  =       -71.38003505 eV

  energy without entropy =      -71.37573045  energy(sigma->0) =      -71.37788275


--------------------------------------------------------------------------------------------------------




----------------------------------------- Iteration    1(   3)  ---------------------------------------


     EDDAV:  cpu time    0.6400: real time    0.6409
       DOS:  cpu time    0.0000: real time    0.0005
    --------------------------------------------
      LOOP:  cpu time    0.6400: real time    0.6445

 eigenvalue-minimisations  :  2008
 total energy-change (2. order) :-0.1891589E+02  (-0.1871225E+02)
 number of electron      66.0000000 magnetization      17.0000000
 augmentation part       66.0000000 magnetization      17.0000000

 Free energy of the ion-electron system (eV)
  ---------------------------------------------------
  alpha Z        PSCENC =       167.07285220
  Ewald energy   TEWEN  =     -2906.10158606
  -Hartree energ DENC   =      -985.21626693
  -exchange      EXHF   =         0.00000000
  -V(xc)+E(xc)   XCENC  =      -207.44173506
  PAW double counting   =      3357.85734499    -2905.44438128
  entropy T*S    EENTRO =        -0.00440241
  eigenvalues    EBANDS =      -276.45428059
  atomic energy  EATOM  =      3665.43652948
  Solvation  Ediel_sol  =         0.00000000
  ---------------------------------------------------
  free energy    TOTEN  =       -90.29592564 eV

  energy without entropy =      -90.29152323  energy(sigma->0) =      -90.29372444


--------------------------------------------------------------------------------------------------------




----------------------------------------- Iteration    1(   4)  ---------------------------------------


     EDDAV:  cpu time    0.6240: real time    0.6237
       DOS:  cpu time    0.0000: real time    0.0006
    --------------------------------------------
      LOOP:  cpu time    0.6240: real time    0.6276

 eigenvalue-minimisations  :  1952
 total energy-change (2. order) :-0.1405984E+00  (-0.1397832E+00)
 number of electron      66.0000000 magnetization      17.0000000
 augmentation part       66.0000000 magnetization      17.0000000

 Free energy of the ion-electron system (eV)
  ---------------------------------------------------
  alpha Z        PSCENC =       167.07285220
  Ewald energy   TEWEN  =     -2906.10158606
  -Hartree energ DENC   =      -985.21626693
  -exchange      EXHF   =         0.00000000
  -V(xc)+E(xc)   XCENC  =      -207.44173506
  PAW double counting   =      3357.85734499    -2905.44438128
  entropy T*S    EENTRO =        -0.00452953
  eigenvalues    EBANDS =      -276.59475185
  atomic energy  EATOM  =      3665.43652948
  Solvation  Ediel_sol  =         0.00000000
  ---------------------------------------------------
  free energy    TOTEN  =       -90.43652403 eV

  energy without entropy =      -90.43199449  energy(sigma->0) =      -90.43425926


--------------------------------------------------------------------------------------------------------




----------------------------------------- Iteration    1(   5)  ---------------------------------------


     EDDAV:  cpu time    0.6400: real time    0.6408
       DOS:  cpu time    0.0000: real time    0.0006
    CHARGE:  cpu time    0.0200: real time    0.0219
    MIXING:  cpu time    0.0040: real time    0.0006
    --------------------------------------------
      LOOP:  cpu time    0.6640: real time    0.6669

 eigenvalue-minimisations  :  2012
 total energy-change (2. order) :-0.1083115E-02  (-0.1082719E-02)
 number of electron      66.0000145 magnetization       1.8366808
 augmentation part        6.3775046 magnetization       0.1949891

 Broyden mixing:
  rms(total) = 0.28374E+01    rms(broyden)= 0.28367E+01
  rms(prec ) = 0.47985E+01
  weight for this iteration     100.00

 Free energy of the ion-electron system (eV)
  ---------------------------------------------------
  alpha Z        PSCENC =       167.07285220
  Ewald energy   TEWEN  =     -2906.10158606
  -Hartree energ DENC   =      -985.21626693
  -exchange      EXHF   =         0.00000000
  -V(xc)+E(xc)   XCENC  =      -207.44173506
  PAW double counting   =      3357.85734499    -2905.44438128
  entropy T*S    EENTRO =        -0.00453412
  eigenvalues    EBANDS =      -276.59583038
  atomic energy  EATOM  =      3665.43652948
  Solvation  Ediel_sol  =         0.00000000
  ---------------------------------------------------
  free energy    TOTEN  =       -90.43760714 eV

  energy without entropy =      -90.43307302  energy(sigma->0) =      -90.43534008


--------------------------------------------------------------------------------------------------------




----------------------------------------- Iteration    1(   6)  ---------------------------------------


    POTLOK:  cpu time    0.0200: real time    0.0204
    SETDIJ:  cpu time    0.9641: real time    0.9673
     EDDAV:  cpu time    0.6000: real time    0.6013
       DOS:  cpu time    0.0000: real time    0.0006
    CHARGE:  cpu time    0.0240: real time    0.0223
    MIXING:  cpu time    0.0000: real time    0.0006
    --------------------------------------------
      LOOP:  cpu time    1.6081: real time    1.6155

 eigenvalue-minimisations  :  1856
 total energy-change (2. order) : 0.7375239E+01  (-0.4502526E+01)
 number of electron      66.0000119 magnetization       1.2864343
 augmentation part        5.2823615 magnetization      -0.0198342

 Broyden mixing:
  rms(total) = 0.75468E+00    rms(broyden)= 0.75303E+00
  rms(prec ) = 0.11290E+01
  weight for this iteration     100.00

 eigenvalues of (default mixing * dielectric matrix)
  average eigenvalue GAMMA=   0.8484
  0.8484

 Free energy of the ion-electron system (eV)
  ---------------------------------------------------
  alpha Z        PSCENC =       167.07285220
  Ewald energy   TEWEN  =     -2906.10158606
  -Hartree energ DENC   =     -1135.61134815
  -exchange      EXHF   =         0.00000000
  -V(xc)+E(xc)   XCENC  =      -199.60589054
  PAW double counting   =      4013.14044918    -3563.28297634
  entropy T*S    EENTRO =        -0.00639744
  eigenvalues    EBANDS =      -124.10400073
  atomic energy  EATOM  =      3665.43652948
  Solvation  Ediel_sol  =         0.00000000
  ---------------------------------------------------
  free energy    TOTEN  =       -83.06236840 eV

  energy without entropy =      -83.05597096  energy(sigma->0) =      -83.05916968


--------------------------------------------------------------------------------------------------------




----------------------------------------- Iteration    1(   7)  ---------------------------------------


    POTLOK:  cpu time    0.0200: real time    0.0203
    SETDIJ:  cpu time    0.9681: real time    0.9692
     EDDAV:  cpu time    0.5880: real time    0.5924
       DOS:  cpu time    0.0000: real time    0.0006
    CHARGE:  cpu time    0.0240: real time    0.0223
    MIXING:  cpu time    0.0000: real time    0.0006
    --------------------------------------------
      LOOP:  cpu time    1.6001: real time    1.6088

 eigenvalue-minimisations  :  1824
 total energy-change (2. order) : 0.1016587E-01  (-0.1818956E+00)
 number of electron      66.0000118 magnetization       1.1718837
 augmentation part        5.2724910 magnetization       0.0054782

 Broyden mixing:
  rms(total) = 0.39894E+00    rms(broyden)= 0.39885E+00
  rms(prec ) = 0.62940E+00
  weight for this iteration     100.00

 eigenvalues of (default mixing * dielectric matrix)
  average eigenvalue GAMMA=   0.9895
  0.9895  0.9895

 Free energy of the ion-electron system (eV)
  ---------------------------------------------------
  alpha Z        PSCENC =       167.07285220
  Ewald energy   TEWEN  =     -2906.10158606
  -Hartree energ DENC   =     -1137.40510888
  -exchange      EXHF   =         0.00000000
  -V(xc)+E(xc)   XCENC  =      -199.36051325
  PAW double counting   =      4248.22798650    -3798.05515056
  entropy T*S    EENTRO =        -0.00818297
  eigenvalues    EBANDS =      -122.85902898
  atomic energy  EATOM  =      3665.43652948
  Solvation  Ediel_sol  =         0.00000000
  ---------------------------------------------------
  free energy    TOTEN  =       -83.05220253 eV

  energy without entropy =      -83.04401955  energy(sigma->0) =      -83.04811104


--------------------------------------------------------------------------------------------------------




----------------------------------------- Iteration    1(   8)  ---------------------------------------


    POTLOK:  cpu time    0.0200: real time    0.0203
    SETDIJ:  cpu time    0.9681: real time    0.9674
     EDDAV:  cpu time    0.6200: real time    0.6238
       DOS:  cpu time    0.0000: real time    0.0006
    CHARGE:  cpu time    0.0240: real time    0.0223
    MIXING:  cpu time    0.0000: real time    0.0006
    --------------------------------------------
      LOOP:  cpu time    1.6321: real time    1.6381

 eigenvalue-minimisations  :  1944
 total energy-change (2. order) : 0.1312328E+00  (-0.2306622E-01)
 number of electron      66.0000119 magnetization       0.8544749
 augmentation part        5.2900731 magnetization      -0.0591664

 Broyden mixing:
  rms(total) = 0.15434E+00    rms(broyden)= 0.15431E+00
  rms(prec ) = 0.25040E+00
  weight for this iteration     100.00

 eigenvalues of (default mixing * dielectric matrix)
  average eigenvalue GAMMA=   1.2875
  2.1054  0.8786  0.8786

 Free energy of the ion-electron system (eV)
  ---------------------------------------------------
  alpha Z        PSCENC =       167.07285220
  Ewald energy   TEWEN  =     -2906.10158606
  -Hartree energ DENC   =     -1141.80259136
  -exchange      EXHF   =         0.00000000
  -V(xc)+E(xc)   XCENC  =      -198.65170237
  PAW double counting   =      4500.56429233    -4050.12871180
  entropy T*S    EENTRO =        -0.00832534
  eigenvalues    EBANDS =      -119.30172681
  atomic energy  EATOM  =      3665.43652948
  Solvation  Ediel_sol  =         0.00000000
  ---------------------------------------------------
  free energy    TOTEN  =       -82.92096972 eV

  energy without entropy =      -82.91264438  energy(sigma->0) =      -82.91680705


--------------------------------------------------------------------------------------------------------




----------------------------------------- Iteration    1(   9)  ---------------------------------------


    POTLOK:  cpu time    0.0200: real time    0.0204
    SETDIJ:  cpu time    0.9681: real time    0.9709
     EDDAV:  cpu time    0.6280: real time    0.6270
       DOS:  cpu time    0.0000: real time    0.0006
    CHARGE:  cpu time    0.0200: real time    0.0224
    MIXING:  cpu time    0.0000: real time    0.0006
    --------------------------------------------
      LOOP:  cpu time    1.6361: real time    1.6470

 eigenvalue-minimisations  :  1964
 total energy-change (2. order) : 0.1319858E-01  (-0.5069339E-02)
 number of electron      66.0000119 magnetization       0.7727996
 augmentation part        5.2779500 magnetization       0.0334271

 Broyden mixing:
  rms(total) = 0.57632E-01    rms(broyden)= 0.57601E-01
  rms(prec ) = 0.76645E-01
  weight for this iteration     100.00

 eigenvalues of (default mixing * dielectric matrix)
  average eigenvalue GAMMA=   1.2560
  2.4404  0.9615  0.9615  0.6607

 Free energy of the ion-electron system (eV)
  ---------------------------------------------------
  alpha Z        PSCENC =       167.07285220
  Ewald energy   TEWEN  =     -2906.10158606
  -Hartree energ DENC   =     -1147.47020951
  -exchange      EXHF   =         0.00000000
  -V(xc)+E(xc)   XCENC  =      -198.00206878
  PAW double counting   =      4641.60507267    -4191.09056911
  entropy T*S    EENTRO =        -0.00670568
  eigenvalues    EBANDS =      -114.35108637
  atomic energy  EATOM  =      3665.43652948
  Solvation  Ediel_sol  =         0.00000000
  ---------------------------------------------------
  free energy    TOTEN  =       -82.90777113 eV

  energy without entropy =      -82.90106546  energy(sigma->0) =      -82.90441830


--------------------------------------------------------------------------------------------------------




----------------------------------------- Iteration    1(  10)  ---------------------------------------


    POTLOK:  cpu time    0.0240: real time    0.0203
    SETDIJ:  cpu time    0.9681: real time    0.9706
     EDDAV:  cpu time    0.6320: real time    0.6337
       DOS:  cpu time    0.0000: real time    0.0006
    CHARGE:  cpu time    0.0200: real time    0.0222
    MIXING:  cpu time    0.0000: real time    0.0007
    --------------------------------------------
      LOOP:  cpu time    1.6441: real time    1.6514

 eigenvalue-minimisations  :  1980
 total energy-change (2. order) : 0.5931097E-03  (-0.5962138E-03)
 number of electron      66.0000119 magnetization       0.7614238
 augmentation part        5.2748957 magnetization       0.0362658

 Broyden mixing:
  rms(total) = 0.17613E-01    rms(broyden)= 0.17600E-01
  rms(prec ) = 0.26920E-01
  weight for this iteration     100.00

 eigenvalues of (default mixing * dielectric matrix)
  average eigenvalue GAMMA=   1.2046
  2.4868  0.9853  0.9853  0.9215  0.6440

 Free energy of the ion-electron system (eV)
  ---------------------------------------------------
  alpha Z        PSCENC =       167.07285220
  Ewald energy   TEWEN  =     -2906.10158606
  -Hartree energ DENC   =     -1148.20396100
  -exchange      EXHF   =         0.00000000
  -V(xc)+E(xc)   XCENC  =      -197.93006651
  PAW double counting   =      4643.48318449    -4192.96804779
  entropy T*S    EENTRO =        -0.00583241
  eigenvalues    EBANDS =      -113.69025044
  atomic energy  EATOM  =      3665.43652948
  Solvation  Ediel_sol  =         0.00000000
  ---------------------------------------------------
  free energy    TOTEN  =       -82.90717802 eV

  energy without entropy =      -82.90134562  energy(sigma->0) =      -82.90426182


--------------------------------------------------------------------------------------------------------




----------------------------------------- Iteration    1(  11)  ---------------------------------------


    POTLOK:  cpu time    0.0200: real time    0.0203
    SETDIJ:  cpu time    0.9641: real time    0.9688
     EDDAV:  cpu time    0.5960: real time    0.5984
       DOS:  cpu time    0.0040: real time    0.0006
    CHARGE:  cpu time    0.0200: real time    0.0223
    MIXING:  cpu time    0.0000: real time    0.0007
    --------------------------------------------
      LOOP:  cpu time    1.6081: real time    1.6142

 eigenvalue-minimisations  :  1840
 total energy-change (2. order) :-0.8716935E-03  (-0.2387552E-03)
 number of electron      66.0000119 magnetization       0.7692926
 augmentation part        5.2771071 magnetization       0.0480399

 Broyden mixing:
  rms(total) = 0.90548E-02    rms(broyden)= 0.90340E-02
  rms(prec ) = 0.14588E-01
  weight for this iteration     100.00

 eigenvalues of (default mixing * dielectric matrix)
  average eigenvalue GAMMA=   1.2076
  2.5048  1.1199  1.1199  0.9302  0.9302  0.6405

 Free energy of the ion-electron system (eV)
  ---------------------------------------------------
  alpha Z        PSCENC =       167.07285220
  Ewald energy   TEWEN  =     -2906.10158606
  -Hartree energ DENC   =     -1148.24190268
  -exchange      EXHF   =         0.00000000
  -V(xc)+E(xc)   XCENC  =      -197.89824321
  PAW double counting   =      4639.74910992    -4189.22991165
  entropy T*S    EENTRO =        -0.00513980
  eigenvalues    EBANDS =      -113.68975792
  atomic energy  EATOM  =      3665.43652948
  Solvation  Ediel_sol  =         0.00000000
  ---------------------------------------------------
  free energy    TOTEN  =       -82.90804972 eV

  energy without entropy =      -82.90290992  energy(sigma->0) =      -82.90547982


--------------------------------------------------------------------------------------------------------




----------------------------------------- Iteration    1(  12)  ---------------------------------------


    POTLOK:  cpu time    0.0200: real time    0.0203
    SETDIJ:  cpu time    0.9681: real time    0.9698
     EDDAV:  cpu time    0.6120: real time    0.6111
       DOS:  cpu time    0.0000: real time    0.0006
    CHARGE:  cpu time    0.0200: real time    0.0223
    MIXING:  cpu time    0.0040: real time    0.0008
    --------------------------------------------
      LOOP:  cpu time    1.6241: real time    1.6279

 eigenvalue-minimisations  :  1888
 total energy-change (2. order) :-0.1606330E-03  (-0.7258321E-04)
 number of electron      66.0000119 magnetization       0.7695730
 augmentation part        5.2772613 magnetization       0.0489781

 Broyden mixing:
  rms(total) = 0.50479E-02    rms(broyden)= 0.50452E-02
  rms(prec ) = 0.71060E-02
  weight for this iteration     100.00

 eigenvalues of (default mixing * dielectric matrix)
  average eigenvalue GAMMA=   1.2454
  2.5402  1.6365  1.1976  0.9784  0.9784  0.7536  0.6334

 Free energy of the ion-electron system (eV)
  ---------------------------------------------------
  alpha Z        PSCENC =       167.07285220
  Ewald energy   TEWEN  =     -2906.10158606
  -Hartree energ DENC   =     -1148.28490084
  -exchange      EXHF   =         0.00000000
  -V(xc)+E(xc)   XCENC  =      -197.88303544
  PAW double counting   =      4637.99803887    -4187.48167867
  entropy T*S    EENTRO =        -0.00516496
  eigenvalues    EBANDS =      -113.65926494
  atomic energy  EATOM  =      3665.43652948
  Solvation  Ediel_sol  =         0.00000000
  ---------------------------------------------------
  free energy    TOTEN  =       -82.90821035 eV

  energy without entropy =      -82.90304539  energy(sigma->0) =      -82.90562787


--------------------------------------------------------------------------------------------------------




----------------------------------------- Iteration    1(  13)  ---------------------------------------


    POTLOK:  cpu time    0.0200: real time    0.0203
    SETDIJ:  cpu time    0.9681: real time    0.9697
     EDDAV:  cpu time    0.6240: real time    0.6286
       DOS:  cpu time    0.0000: real time    0.0006
    CHARGE:  cpu time    0.0240: real time    0.0222
    MIXING:  cpu time    0.0000: real time    0.0008
    --------------------------------------------
      LOOP:  cpu time    1.6361: real time    1.6454

 eigenvalue-minimisations  :  1960
 total energy-change (2. order) :-0.4767550E-04  (-0.1496792E-04)
 number of electron      66.0000119 magnetization       0.7649127
 augmentation part        5.2770656 magnetization       0.0468916

 Broyden mixing:
  rms(total) = 0.23878E-02    rms(broyden)= 0.23868E-02
  rms(prec ) = 0.31841E-02
  weight for this iteration     100.00

 eigenvalues of (default mixing * dielectric matrix)
  average eigenvalue GAMMA=   1.2820
  2.6333  2.1896  1.0999  1.0999  0.9440  0.9440  0.7147  0.6305

 Free energy of the ion-electron system (eV)
  ---------------------------------------------------
  alpha Z        PSCENC =       167.07285220
  Ewald energy   TEWEN  =     -2906.10158606
  -Hartree energ DENC   =     -1148.31848350
  -exchange      EXHF   =         0.00000000
  -V(xc)+E(xc)   XCENC  =      -197.87344429
  PAW double counting   =      4632.61390331    -4182.10327195
  entropy T*S    EENTRO =        -0.00511281
  eigenvalues    EBANDS =      -113.62964442
  atomic energy  EATOM  =      3665.43652948
  Solvation  Ediel_sol  =         0.00000000
  ---------------------------------------------------
  free energy    TOTEN  =       -82.90825803 eV

  energy without entropy =      -82.90314522  energy(sigma->0) =      -82.90570162


--------------------------------------------------------------------------------------------------------




----------------------------------------- Iteration    1(  14)  ---------------------------------------


    POTLOK:  cpu time    0.0200: real time    0.0203
    SETDIJ:  cpu time    0.9681: real time    0.9691
     EDDAV:  cpu time    0.6280: real time    0.6313
       DOS:  cpu time    0.0000: real time    0.0005
    CHARGE:  cpu time    0.0240: real time    0.0224
    MIXING:  cpu time    0.0000: real time    0.0008
    --------------------------------------------
      LOOP:  cpu time    1.6401: real time    1.6477

 eigenvalue-minimisations  :  1960
 total energy-change (2. order) :-0.9696815E-05  (-0.2285428E-05)
 number of electron      66.0000119 magnetization       0.7648504
 augmentation part        5.2770797 magnetization       0.0470223

 Broyden mixing:
  rms(total) = 0.87308E-03    rms(broyden)= 0.87281E-03
  rms(prec ) = 0.12233E-02
  weight for this iteration     100.00

 eigenvalues of (default mixing * dielectric matrix)
  average eigenvalue GAMMA=   1.2825
  2.7062  2.4026  1.2081  1.2081  0.9662  0.9662  0.7895  0.6707  0.6251

 Free energy of the ion-electron system (eV)
  ---------------------------------------------------
  alpha Z        PSCENC =       167.07285220
  Ewald energy   TEWEN  =     -2906.10158606
  -Hartree energ DENC   =     -1148.31320510
  -exchange      EXHF   =         0.00000000
  -V(xc)+E(xc)   XCENC  =      -197.87315344
  PAW double counting   =      4630.41881210    -4179.90978123
  entropy T*S    EENTRO =        -0.00510861
  eigenvalues    EBANDS =      -113.63362707
  atomic energy  EATOM  =      3665.43652948
  Solvation  Ediel_sol  =         0.00000000
  ---------------------------------------------------
  free energy    TOTEN  =       -82.90826772 eV

  energy without entropy =      -82.90315911  energy(sigma->0) =      -82.90571342


--------------------------------------------------------------------------------------------------------




----------------------------------------- Iteration    1(  15)  ---------------------------------------


    POTLOK:  cpu time    0.0240: real time    0.0207
    SETDIJ:  cpu time    0.9641: real time    0.9695
     EDDAV:  cpu time    0.5960: real time    0.5969
       DOS:  cpu time    0.0000: real time    0.0006
    CHARGE:  cpu time    0.0240: real time    0.0223
    MIXING:  cpu time    0.0000: real time    0.0009
    --------------------------------------------
      LOOP:  cpu time    1.6081: real time    1.6142

 eigenvalue-minimisations  :  1824
 total energy-change (2. order) :-0.1028224E-05  (-0.4417727E-06)
 number of electron      66.0000119 magnetization       0.7658288
 augmentation part        5.2770999 magnetization       0.0478357

 Broyden mixing:
  rms(total) = 0.34675E-03    rms(broyden)= 0.34654E-03
  rms(prec ) = 0.60900E-03
  weight for this iteration     100.00

 eigenvalues of (default mixing * dielectric matrix)
  average eigenvalue GAMMA=   1.2685
  2.7162  2.4716  1.2224  1.2224  1.0121  1.0121  0.8705  0.8705  0.6276  0.6598

 Free energy of the ion-electron system (eV)
  ---------------------------------------------------
  alpha Z        PSCENC =       167.07285220
  Ewald energy   TEWEN  =     -2906.10158606
  -Hartree energ DENC   =     -1148.30982772
  -exchange      EXHF   =         0.00000000
  -V(xc)+E(xc)   XCENC  =      -197.87320078
  PAW double counting   =      4629.88885540    -4179.38027449
  entropy T*S    EENTRO =        -0.00511676
  eigenvalues    EBANDS =      -113.63650003
  atomic energy  EATOM  =      3665.43652948
  Solvation  Ediel_sol  =         0.00000000
  ---------------------------------------------------
  free energy    TOTEN  =       -82.90826875 eV

  energy without entropy =      -82.90315199  energy(sigma->0) =      -82.90571037


--------------------------------------------------------------------------------------------------------




----------------------------------------- Iteration    1(  16)  ---------------------------------------


    POTLOK:  cpu time    0.0200: real time    0.0203
    SETDIJ:  cpu time    0.9681: real time    0.9690
     EDDAV:  cpu time    0.4120: real time    0.4157
       DOS:  cpu time    0.0040: real time    0.0006
    --------------------------------------------
      LOOP:  cpu time    1.4041: real time    1.4092

 eigenvalue-minimisations  :  1052
 total energy-change (2. order) :-0.5826132E-07  (-0.8128782E-07)
 number of electron      66.0000119 magnetization       0.7658288
 augmentation part        5.2770999 magnetization       0.0478357

 Free energy of the ion-electron system (eV)
  ---------------------------------------------------
  alpha Z        PSCENC =       167.07285220
  Ewald energy   TEWEN  =     -2906.10158606
  -Hartree energ DENC   =     -1148.30827561
  -exchange      EXHF   =         0.00000000
  -V(xc)+E(xc)   XCENC  =      -197.87308128
  PAW double counting   =      4629.85679158    -4179.34832419
  entropy T*S    EENTRO =        -0.00512617
  eigenvalues    EBANDS =      -113.63804877
  atomic energy  EATOM  =      3665.43652948
  Solvation  Ediel_sol  =         0.00000000
  ---------------------------------------------------
  free energy    TOTEN  =       -82.90826881 eV

  energy without entropy =      -82.90314264  energy(sigma->0) =      -82.90570573


--------------------------------------------------------------------------------------------------------




 average (electrostatic) potential at core
  the test charge radii are     1.0714  0.7215
  (the norm of the test charge is              1.0000)
       1 -35.3257       2 -34.9257       3 -34.9922       4 -34.8979       5 -34.2276
       6 -35.0019       7 -34.0070       8 -34.1705       9 -34.0589      10 -69.4748
      11 -69.4120      12 -69.4941      13 -68.9670      14 -69.3839      15 -68.9540
      16 -68.9526      17 -68.9510
 
 
 
 E-fermi :   9.7679     XC(G=0): -11.3062     alpha+bet :-13.9557


 spin component 1

 k-point     1 :       0.0000    0.0000    0.0000
  band No.  band energies     occupation 
      1     -13.7981      1.00000
      2     -12.5973      1.00000
      3     -12.5872      1.00000
      4     -12.5584      1.00000
      5     -12.5348      1.00000
      6     -12.2553      1.00000
      7     -12.2519      1.00000
      8     -12.2470      1.00000
      9      -1.4682      1.00000
     10      -1.1562      1.00000
     11      -1.1448      1.00000
     12      -1.1291      1.00000
     13      -0.8817      1.00000
     14      -0.5468      1.00000
     15      -0.5461      1.00000
     16       1.8276      1.00000
     17       1.8380      1.00000
     18       1.8560      1.00000
     19       2.1983      1.00000
     20       2.2019      1.00000
     21       2.2061      1.00000
     22       2.5190      1.00000
     23       2.5225      1.00000
     24       2.5367      1.00000
     25       2.8183      1.00000
     26       2.8209      1.00000
     27       2.9163      1.00000
     28       2.9179      1.00000
     29       2.9218      1.00000
     30       3.3197      1.00000
     31       3.3372      1.00000
     32       3.3564      1.00000
     33       7.3584      1.00000
     34       9.3532      1.00000
     35      10.7182      0.00000
     36      10.7369      0.00000
     37      10.7947      0.00000
     38      11.5101      0.00000
     39      11.6532      0.00000
     40      11.7897      0.00000
     41      12.2819      0.00000
     42      12.2946      0.00000
     43      13.0488      0.00000
     44      15.5670      0.00000
     45      15.5818      0.00000
     46      15.7460      0.00000
     47      15.8443      0.00000
     48      16.0159      0.00000
     49      16.1388      0.00000
     50      17.4404      0.00000
     51      17.8212      0.00000
     52      17.9192      0.00000

 k-point     2 :       0.5000    0.0000    0.0000
  band No.  band energies     occupation 
      1     -13.3081      1.00000
      2     -13.1523      1.00000
      3     -12.5461      1.00000
      4     -12.5098      1.00000
      5     -12.4812      1.00000
      6     -12.3614      1.00000
      7     -12.3193      1.00000
      8     -12.3170      1.00000
      9      -0.7174      1.00000
     10      -0.5815      1.00000
     11      -0.3790      1.00000
     12      -0.3571      1.00000
     13      -0.2795      1.00000
     14      -0.2691      1.00000
     15       0.6327      1.00000
     16       0.6462      1.00000
     17       1.2455      1.00000
     18       1.4071      1.00000
     19       1.4334      1.00000
     20       1.4998      1.00000
     21       1.6266      1.00000
     22       1.6310      1.00000
     23       2.1677      1.00000
     24       2.1735      1.00000
     25       2.3787      1.00000
     26       2.3935      1.00000
     27       2.4835      1.00000
     28       2.5996      1.00000
     29       2.9704      1.00000
     30       2.9860      1.00000
     31       3.1436      1.00000
     32       3.1528      1.00000
     33       9.2019      1.00000
     34       9.8204      0.06880
     35      10.9855      0.00000
     36      11.6291      0.00000
     37      11.8244      0.00000
     38      12.7783      0.00000
     39      12.8355      0.00000
     40      12.8894      0.00000
     41      13.3658      0.00000
     42      13.4036      0.00000
     43      14.1305      0.00000
     44      14.5198      0.00000
     45      14.7475      0.00000
     46      14.7943      0.00000
     47      15.0428      0.00000
     48      16.0976      0.00000
     49      16.1209      0.00000
     50      16.3007      0.00000
     51      16.3367      0.00000
     52      16.4466      0.00000

 k-point     3 :       0.0000    0.5000    0.0000
  band No.  band energies     occupation 
      1     -13.2645      1.00000
      2     -13.2080      1.00000
      3     -12.5371      1.00000
      4     -12.5137      1.00000
      5     -12.4744      1.00000
      6     -12.3487      1.00000
      7     -12.3307      1.00000
      8     -12.3174      1.00000
      9      -0.6824      1.00000
     10      -0.5805      1.00000
     11      -0.3843      1.00000
     12      -0.3697      1.00000
     13      -0.2977      1.00000
     14      -0.2833      1.00000
     15       0.6036      1.00000
     16       0.6656      1.00000
     17       1.2170      1.00000
     18       1.4116      1.00000
     19       1.4766      1.00000
     20       1.5039      1.00000
     21       1.6313      1.00000
     22       1.6412      1.00000
     23       2.1982      1.00000
     24       2.2291      1.00000
     25       2.3355      1.00000
     26       2.3535      1.00000
     27       2.4895      1.00000
     28       2.5956      1.00000
     29       2.9981      1.00000
     30       3.0124      1.00000
     31       3.1025      1.00000
     32       3.1180      1.00000
     33       9.2234      1.00000
     34       9.7182      0.92011
     35      11.0147      0.00000
     36      11.6150      0.00000
     37      11.8713      0.00000
     38      12.5736      0.00000
     39      12.8033      0.00000
     40      12.8600      0.00000
     41      13.4780      0.00000
     42      13.5614      0.00000
     43      14.2372      0.00000
     44      14.5729      0.00000
     45      14.7498      0.00000
     46      14.8239      0.00000
     47      15.2510      0.00000
     48      15.9681      0.00000
     49      16.0050      0.00000
     50      16.2888      0.00000
     51      16.3711      0.00000
     52      16.4533      0.00000

 k-point     4 :       0.5000    0.5000    0.0000
  band No.  band energies     occupation 
      1     -13.1181      1.00000
      2     -13.0511      1.00000
      3     -12.7046      1.00000
      4     -12.6250      1.00000
      5     -12.6026      1.00000
      6     -12.5151      1.00000
      7     -12.2174      1.00000
      8     -12.2118      1.00000
      9      -0.3672      1.00000
     10      -0.2030      1.00000
     11      -0.0183      1.00000
     12      -0.0098      1.00000
     13       0.2465      1.00000
     14       0.2561      1.00000
     15       0.4978      1.00000
     16       0.6592      1.00000
     17       0.7528      1.00000
     18       0.7924      1.00000
     19       1.2718      1.00000
     20       1.3217      1.00000
     21       1.4118      1.00000
     22       1.5138      1.00000
     23       1.5896      1.00000
     24       1.5953      1.00000
     25       2.4690      1.00000
     26       2.4783      1.00000
     27       2.6694      1.00000
     28       2.6741      1.00000
     29       2.7675      1.00000
     30       2.8159      1.00000
     31       2.8268      1.00000
     32       2.9783      1.00000
     33       9.6963      0.97859
     34      10.4628      0.00000
     35      11.2673      0.00000
     36      11.8515      0.00000
     37      11.9224      0.00000
     38      12.9945      0.00000
     39      13.2164      0.00000
     40      13.6163      0.00000
     41      13.6683      0.00000
     42      14.0040      0.00000
     43      14.0131      0.00000
     44      14.3497      0.00000
     45      14.6965      0.00000
     46      14.9239      0.00000
     47      15.0059      0.00000
     48      15.0559      0.00000
     49      15.7472      0.00000
     50      16.1728      0.00000
     51      16.4115      0.00000
     52      17.2067      0.00000

 k-point     5 :       0.0000    0.0000    0.5000
  band No.  band energies     occupation 
      1     -13.2951      1.00000
      2     -13.1701      1.00000
      3     -12.5466      1.00000
      4     -12.5067      1.00000
      5     -12.4785      1.00000
      6     -12.3502      1.00000
      7     -12.3309      1.00000
      8     -12.3169      1.00000
      9      -0.7114      1.00000
     10      -0.5844      1.00000
     11      -0.3754      1.00000
     12      -0.3504      1.00000
     13      -0.2887      1.00000
     14      -0.2764      1.00000
     15       0.6314      1.00000
     16       0.6442      1.00000
     17       1.2361      1.00000
     18       1.3999      1.00000
     19       1.4275      1.00000
     20       1.5316      1.00000
     21       1.6256      1.00000
     22       1.6359      1.00000
     23       2.1728      1.00000
     24       2.1941      1.00000
     25       2.3665      1.00000
     26       2.3787      1.00000
     27       2.4859      1.00000
     28       2.5926      1.00000
     29       2.9786      1.00000
     30       2.9996      1.00000
     31       3.1277      1.00000
     32       3.1459      1.00000
     33       9.2081      1.00000
     34       9.7878      0.28717
     35      10.9771      0.00000
     36      11.5775      0.00000
     37      11.9115      0.00000
     38      12.7852      0.00000
     39      12.7951      0.00000
     40      12.8448      0.00000
     41      13.3927      0.00000
     42      13.4435      0.00000
     43      14.2228      0.00000
     44      14.4654      0.00000
     45      14.7260      0.00000
     46      14.8235      0.00000
     47      15.0992      0.00000
     48      16.0582      0.00000
     49      16.1141      0.00000
     50      16.2971      0.00000
     51      16.3390      0.00000
     52      16.4545      0.00000

 k-point     6 :       0.5000    0.0000    0.5000
  band No.  band energies     occupation 
      1     -13.1264      1.00000
      2     -13.0453      1.00000
      3     -12.6875      1.00000
      4     -12.6422      1.00000
      5     -12.5953      1.00000
      6     -12.5205      1.00000
      7     -12.2187      1.00000
      8     -12.2098      1.00000
      9      -0.3610      1.00000
     10      -0.2101      1.00000
     11      -0.0389      1.00000
     12       0.0042      1.00000
     13       0.2232      1.00000
     14       0.2726      1.00000
     15       0.4851      1.00000
     16       0.6820      1.00000
     17       0.7468      1.00000
     18       0.8024      1.00000
     19       1.2955      1.00000
     20       1.3429      1.00000
     21       1.3767      1.00000
     22       1.5013      1.00000
     23       1.5828      1.00000
     24       1.6114      1.00000
     25       2.4517      1.00000
     26       2.5169      1.00000
     27       2.6615      1.00000
     28       2.6661      1.00000
     29       2.7655      1.00000
     30       2.7914      1.00000
     31       2.8475      1.00000
     32       2.9710      1.00000
     33       9.6935      0.98230
     34      10.4753      0.00000
     35      11.2680      0.00000
     36      11.7211      0.00000
     37      12.0253      0.00000
     38      12.9612      0.00000
     39      13.2840      0.00000
     40      13.6434      0.00000
     41      13.6821      0.00000
     42      13.9808      0.00000
     43      14.0602      0.00000
     44      14.2525      0.00000
     45      14.8224      0.00000
     46      14.9070      0.00000
     47      14.9542      0.00000
     48      14.9770      0.00000
     49      15.7127      0.00000
     50      16.2324      0.00000
     51      16.4625      0.00000
     52      17.0923      0.00000

 k-point     7 :       0.0000    0.5000    0.5000
  band No.  band energies     occupation 
      1     -13.1214      1.00000
      2     -13.0484      1.00000
      3     -12.7010      1.00000
      4     -12.6288      1.00000
      5     -12.6002      1.00000
      6     -12.5171      1.00000
      7     -12.2158      1.00000
      8     -12.2130      1.00000
      9      -0.3657      1.00000
     10      -0.2064      1.00000
     11      -0.0212      1.00000
     12      -0.0081      1.00000
     13       0.2417      1.00000
     14       0.2587      1.00000
     15       0.4944      1.00000
     16       0.6670      1.00000
     17       0.7502      1.00000
     18       0.7942      1.00000
     19       1.2831      1.00000
     20       1.3132      1.00000
     21       1.4126      1.00000
     22       1.5104      1.00000
     23       1.5897      1.00000
     24       1.6024      1.00000
     25       2.4694      1.00000
     26       2.4832      1.00000
     27       2.6658      1.00000
     28       2.6712      1.00000
     29       2.7691      1.00000
     30       2.8069      1.00000
     31       2.8310      1.00000
     32       2.9765      1.00000
     33       9.6942      0.98144
     34      10.4645      0.00000
     35      11.2626      0.00000
     36      11.8222      0.00000
     37      11.9507      0.00000
     38      12.9828      0.00000
     39      13.2318      0.00000
     40      13.6442      0.00000
     41      13.6646      0.00000
     42      13.9903      0.00000
     43      14.0213      0.00000
     44      14.3286      0.00000
     45      14.7045      0.00000
     46      14.9227      0.00000
     47      15.0126      0.00000
     48      15.0266      0.00000
     49      15.7587      0.00000
     50      16.1889      0.00000
     51      16.4339      0.00000
     52      17.1938      0.00000

 k-point     8 :       0.5000    0.5000    0.5000
  band No.  band energies     occupation 
      1     -13.2727      1.00000
      2     -13.1984      1.00000
      3     -12.5357      1.00000
      4     -12.5170      1.00000
      5     -12.4734      1.00000
      6     -12.3493      1.00000
      7     -12.3320      1.00000
      8     -12.3161      1.00000
      9      -0.6907      1.00000
     10      -0.5810      1.00000
     11      -0.3824      1.00000
     12      -0.3588      1.00000
     13      -0.2987      1.00000
     14      -0.2843      1.00000
     15       0.6108      1.00000
     16       0.6606      1.00000
     17       1.2213      1.00000
     18       1.4125      1.00000
     19       1.4636      1.00000
     20       1.4997      1.00000
     21       1.6261      1.00000
     22       1.6455      1.00000
     23       2.2024      1.00000
     24       2.2125      1.00000
     25       2.3440      1.00000
     26       2.3600      1.00000
     27       2.4902      1.00000
     28       2.5941      1.00000
     29       2.9944      1.00000
     30       3.0109      1.00000
     31       3.1082      1.00000
     32       3.1271      1.00000
     33       9.2182      1.00000
     34       9.7319      0.84588
     35      11.0073      0.00000
     36      11.5995      0.00000
     37      11.8921      0.00000
     38      12.6279      0.00000
     39      12.7679      0.00000
     40      12.8793      0.00000
     41      13.4715      0.00000
     42      13.5160      0.00000
     43      14.2625      0.00000
     44      14.5140      0.00000
     45      14.7702      0.00000
     46      14.7990      0.00000
     47      15.2082      0.00000
     48      16.0056      0.00000
     49      16.0375      0.00000
     50      16.2465      0.00000
     51      16.3653      0.00000
     52      16.4709      0.00000

 spin component 2

 k-point     1 :       0.0000    0.0000    0.0000
  band No.  band energies     occupation 
      1     -13.7553      1.00000
      2     -12.5775      1.00000
      3     -12.5566      1.00000
      4     -12.5187      1.00000
      5     -12.5097      1.00000
      6     -12.1767      1.00000
      7     -12.1689      1.00000
      8     -12.1665      1.00000
      9      -1.3408      1.00000
     10      -1.1316      1.00000
     11      -1.1188      1.00000
     12      -1.1038      1.00000
     13      -0.6380      1.00000
     14      -0.5300      1.00000
     15      -0.5285      1.00000
     16       1.8738      1.00000
     17       1.8849      1.00000
     18       1.9061      1.00000
     19       2.2221      1.00000
     20       2.2240      1.00000
     21       2.2268      1.00000
     22       2.6024      1.00000
     23       2.6074      1.00000
     24       2.6128      1.00000
     25       2.8527      1.00000
     26       2.8568      1.00000
     27       2.9468      1.00000
     28       2.9512      1.00000
     29       2.9565      1.00000
     30       3.3708      1.00000
     31       3.3944      1.00000
     32       3.4164      1.00000
     33       7.5842      1.00000
     34      10.6833      0.00000
     35      10.7304      0.00000
     36      10.7384      0.00000
     37      10.7901      0.00000
     38      11.5865      0.00000
     39      11.7201      0.00000
     40      11.8472      0.00000
     41      12.3089      0.00000
     42      12.3216      0.00000
     43      13.1465      0.00000
     44      15.5928      0.00000
     45      15.6174      0.00000
     46      15.7435      0.00000
     47      15.8732      0.00000
     48      16.0432      0.00000
     49      16.1673      0.00000
     50      17.7565      0.00000
     51      18.0907      0.00000
     52      18.2026      0.00000

 k-point     2 :       0.5000    0.0000    0.0000
  band No.  band energies     occupation 
      1     -13.2853      1.00000
      2     -13.0924      1.00000
      3     -12.5432      1.00000
      4     -12.5065      1.00000
      5     -12.4418      1.00000
      6     -12.2774      1.00000
      7     -12.2245      1.00000
      8     -12.2224      1.00000
      9      -0.6949      1.00000
     10      -0.3762      1.00000
     11      -0.3468      1.00000
     12      -0.2928      1.00000
     13      -0.2417      1.00000
     14      -0.2333      1.00000
     15       0.6684      1.00000
     16       0.7023      1.00000
     17       1.3136      1.00000
     18       1.4237      1.00000
     19       1.4605      1.00000
     20       1.6510      1.00000
     21       1.6907      1.00000
     22       1.6946      1.00000
     23       2.1813      1.00000
     24       2.1868      1.00000
     25       2.4725      1.00000
     26       2.4848      1.00000
     27       2.4949      1.00000
     28       2.6470      1.00000
     29       3.0014      1.00000
     30       3.0221      1.00000
     31       3.2097      1.00000
     32       3.2220      1.00000
     33       9.6910      0.98526
     34      10.1023      0.00000
     35      11.6214      0.00000
     36      11.7237      0.00000
     37      11.8576      0.00000
     38      12.8626      0.00000
     39      12.9142      0.00000
     40      12.9567      0.00000
     41      13.4016      0.00000
     42      13.4395      0.00000
     43      14.2683      0.00000
     44      14.5486      0.00000
     45      14.7673      0.00000
     46      14.8265      0.00000
     47      15.1423      0.00000
     48      16.1136      0.00000
     49      16.1492      0.00000
     50      16.3654      0.00000
     51      16.4707      0.00000
     52      16.5861      0.00000

 k-point     3 :       0.0000    0.5000    0.0000
  band No.  band energies     occupation 
      1     -13.2451      1.00000
      2     -13.1485      1.00000
      3     -12.5235      1.00000
      4     -12.4843      1.00000
      5     -12.4722      1.00000
      6     -12.2596      1.00000
      7     -12.2366      1.00000
      8     -12.2231      1.00000
      9      -0.6551      1.00000
     10      -0.3701      1.00000
     11      -0.3488      1.00000
     12      -0.2974      1.00000
     13      -0.2688      1.00000
     14      -0.2534      1.00000
     15       0.6208      1.00000
     16       0.7327      1.00000
     17       1.2771      1.00000
     18       1.4491      1.00000
     19       1.4904      1.00000
     20       1.6668      1.00000
     21       1.6986      1.00000
     22       1.7053      1.00000
     23       2.2091      1.00000
     24       2.2412      1.00000
     25       2.4225      1.00000
     26       2.4469      1.00000
     27       2.4996      1.00000
     28       2.6367      1.00000
     29       3.0285      1.00000
     30       3.0460      1.00000
     31       3.1645      1.00000
     32       3.1880      1.00000
     33       9.6951      0.98023
     34      10.0087      0.00000
     35      11.5963      0.00000
     36      11.7986      0.00000
     37      11.8819      0.00000
     38      12.7404      0.00000
     39      12.8829      0.00000
     40      12.9322      0.00000
     41      13.5160      0.00000
     42      13.6067      0.00000
     43      14.2496      0.00000
     44      14.6947      0.00000
     45      14.7653      0.00000
     46      14.8414      0.00000
     47      15.3425      0.00000
     48      15.9794      0.00000
     49      16.0315      0.00000
     50      16.3100      0.00000
     51      16.4444      0.00000
     52      16.6579      0.00000

 k-point     4 :       0.5000    0.5000    0.0000
  band No.  band energies     occupation 
      1     -13.0821      1.00000
      2     -13.0290      1.00000
      3     -12.6500      1.00000
      4     -12.6030      1.00000
      5     -12.5775      1.00000
      6     -12.4218      1.00000
      7     -12.1434      1.00000
      8     -12.1368      1.00000
      9      -0.2724      1.00000
     10      -0.1598      1.00000
     11       0.0017      1.00000
     12       0.0111      1.00000
     13       0.3713      1.00000
     14       0.4697      1.00000
     15       0.5162      1.00000
     16       0.6799      1.00000
     17       0.7737      1.00000
     18       0.8248      1.00000
     19       1.2897      1.00000
     20       1.3277      1.00000
     21       1.4342      1.00000
     22       1.6681      1.00000
     23       1.6865      1.00000
     24       1.6942      1.00000
     25       2.4730      1.00000
     26       2.4821      1.00000
     27       2.7285      1.00000
     28       2.7337      1.00000
     29       2.8046      1.00000
     30       2.8990      1.00000
     31       2.9082      1.00000
     32       3.0149      1.00000
     33      10.4733      0.00000
     34      10.5500      0.00000
     35      11.8420      0.00000
     36      11.8838      0.00000
     37      11.9642      0.00000
     38      13.0503      0.00000
     39      13.4573      0.00000
     40      13.6399      0.00000
     41      13.7349      0.00000
     42      14.0760      0.00000
     43      14.0908      0.00000
     44      14.4108      0.00000
     45      14.7336      0.00000
     46      14.9869      0.00000
     47      15.0422      0.00000
     48      15.0887      0.00000
     49      15.7590      0.00000
     50      16.2338      0.00000
     51      16.6072      0.00000
     52      17.2304      0.00000

 k-point     5 :       0.0000    0.0000    0.5000
  band No.  band energies     occupation 
[...]
     34      10.5653      0.00000
     35      11.8375      0.00000
     36      11.8633      0.00000
     37      11.9854      0.00000
     38      13.0376      0.00000
     39      13.4643      0.00000
     40      13.6607      0.00000
     41      13.7381      0.00000
     42      14.0544      0.00000
     43      14.1153      0.00000
     44      14.3888      0.00000
     45      14.7417      0.00000
     46      14.9761      0.00000
     47      15.0514      0.00000
     48      15.0655      0.00000
     49      15.7705      0.00000
     50      16.2541      0.00000
     51      16.6235      0.00000
     52      17.1818      0.00000

 k-point     8 :       0.5000    0.5000    0.5000
  band No.  band energies     occupation 
      1     -13.2513      1.00000
      2     -13.1404      1.00000
      3     -12.5294      1.00000
      4     -12.4821      1.00000
      5     -12.4696      1.00000
      6     -12.2606      1.00000
      7     -12.2375      1.00000
      8     -12.2221      1.00000
      9      -0.6600      1.00000
     10      -0.3693      1.00000
     11      -0.3474      1.00000
     12      -0.2919      1.00000
     13      -0.2686      1.00000
     14      -0.2539      1.00000
     15       0.6283      1.00000
     16       0.7275      1.00000
     17       1.2819      1.00000
     18       1.4414      1.00000
     19       1.4840      1.00000
     20       1.6532      1.00000
     21       1.6922      1.00000
     22       1.7186      1.00000
     23       2.2141      1.00000
     24       2.2263      1.00000
     25       2.4380      1.00000
     26       2.4458      1.00000
     27       2.5008      1.00000
     28       2.6360      1.00000
     29       3.0220      1.00000
     30       3.0473      1.00000
     31       3.1717      1.00000
     32       3.1953      1.00000
     33       9.6928      0.98325
     34      10.0257      0.00000
     35      11.5815      0.00000
     36      11.7854      0.00000
     37      11.9043      0.00000
     38      12.7862      0.00000
     39      12.8481      0.00000
     40      12.9470      0.00000
     41      13.5186      0.00000
     42      13.5505      0.00000
     43      14.2797      0.00000
     44      14.6315      0.00000
     45      14.7904      0.00000
     46      14.8177      0.00000
     47      15.2985      0.00000
     48      16.0327      0.00000
     49      16.0468      0.00000
     50      16.2665      0.00000
     51      16.4761      0.00000
     52      16.6455      0.00000


--------------------------------------------------------------------------------------------------------


 soft charge-density along one line, spin component           1
         0         1         2         3         4         5         6         7         8         9
 total charge-density along one line
 
 soft charge-density along one line, spin component           2
         0         1         2         3         4         5         6         7         8         9
 total charge-density along one line
 
 pseudopotential strength for first ion, spin component:           1
  3.015   9.572  -0.000  -0.000   0.000   0.001  -0.000   0.000
  9.572  30.241   0.001  -0.000   0.000   0.003  -0.000  -0.000
 -0.000   0.001   7.460  -0.000   0.000  10.788  -0.000   0.000
 -0.000  -0.000  -0.000   7.460   0.000  -0.000  10.788   0.001
  0.000   0.000   0.000   0.000   7.460   0.000   0.001  10.788
  0.001   0.003  10.788  -0.000   0.000  14.828  -0.001   0.000
 -0.000  -0.000  -0.000  10.788   0.001  -0.001  14.829   0.002
  0.000  -0.000   0.000   0.001  10.788   0.000   0.002  14.829
  0.000   0.000  -0.000  -0.007   0.001  -0.000  -0.008   0.001
 -0.000  -0.001  -0.000   0.001  -0.007  -0.000   0.001  -0.008
  0.000   0.000  -0.001  -0.000   0.000  -0.001  -0.000   0.000
  0.001   0.001  -0.007  -0.000   0.000  -0.008  -0.000   0.000
  0.000   0.000  -0.002   0.000  -0.000  -0.002   0.000  -0.000
 pseudopotential strength for first ion, spin component:           2
  3.015   9.572  -0.000  -0.000   0.000   0.001  -0.000  -0.000
  9.572  30.241   0.001  -0.000   0.000   0.004  -0.000  -0.000
 -0.000   0.001   7.460  -0.000   0.000  10.788  -0.000   0.000
 -0.000  -0.000  -0.000   7.460   0.000  -0.000  10.789   0.001
  0.000   0.000   0.000   0.000   7.460   0.000   0.001  10.789
  0.001   0.004  10.788  -0.000   0.000  14.829  -0.001   0.000
 -0.000  -0.000  -0.000  10.789   0.001  -0.001  14.829   0.002
 -0.000  -0.000   0.000   0.001  10.789   0.000   0.002  14.829
  0.000   0.000  -0.000  -0.007   0.001  -0.000  -0.008   0.002
 -0.000  -0.001  -0.000   0.001  -0.007  -0.000   0.002  -0.008
  0.000   0.000  -0.001   0.000   0.000  -0.001   0.000   0.000
  0.000   0.001  -0.007  -0.000   0.000  -0.008  -0.000   0.000
  0.000   0.000  -0.002   0.000  -0.000  -0.002   0.000  -0.000
 total augmentation occupancy for first ion, spin component:           1
  1.929  -0.078  -0.013  -0.001   0.005  -0.000  -0.000   0.000   0.000   0.001   0.000   0.000   0.000
 -0.078   0.005  -0.001  -0.000   0.000   0.000   0.000  -0.000   0.000  -0.000  -0.000   0.001  -0.000
 -0.013  -0.001   0.208   0.003  -0.001  -0.020  -0.000   0.000   0.000  -0.001  -0.003   0.064  -0.005
 -0.001  -0.000   0.003   0.209  -0.007  -0.000  -0.020   0.001   0.065  -0.000   0.000   0.001   0.001
  0.005   0.000  -0.001  -0.007   0.208   0.000   0.001  -0.020  -0.001   0.065   0.001   0.001  -0.002
 -0.000   0.000  -0.020  -0.000   0.000   0.002   0.000  -0.000  -0.000   0.000   0.000  -0.007   0.001
 -0.000   0.000  -0.000  -0.020   0.001   0.000   0.002  -0.000  -0.007   0.000  -0.000  -0.000  -0.000
  0.000  -0.000   0.000   0.001  -0.020  -0.000  -0.000   0.002   0.000  -0.007  -0.000  -0.000   0.000
  0.000   0.000   0.000   0.065  -0.001  -0.000  -0.007   0.000   0.066   0.001   0.000   0.000   0.000
  0.001  -0.000  -0.001  -0.000   0.065   0.000   0.000  -0.007   0.001   0.066   0.001  -0.000  -0.001
  0.000  -0.000  -0.003   0.000   0.001   0.000  -0.000  -0.000   0.000   0.001   0.032  -0.002   0.000
  0.000   0.001   0.064   0.001   0.001  -0.007  -0.000  -0.000   0.000  -0.000  -0.002   0.068  -0.003
  0.000  -0.000  -0.005   0.001  -0.002   0.001  -0.000   0.000   0.000  -0.001   0.000  -0.003   0.032
 total augmentation occupancy for first ion, spin component:           2
 -0.027  -0.001  -0.004  -0.001   0.000   0.000   0.000  -0.000   0.000   0.001  -0.000  -0.000  -0.000
 -0.001  -0.000  -0.000  -0.000   0.000  -0.000  -0.000   0.000   0.000   0.000   0.000  -0.000  -0.000
 -0.004  -0.000   0.002  -0.000   0.000  -0.000   0.000  -0.000   0.000   0.000   0.000  -0.001   0.000
 -0.001  -0.000  -0.000   0.002   0.001   0.000  -0.000  -0.000  -0.001  -0.000  -0.000   0.000  -0.000
  0.000   0.000   0.000   0.001   0.002  -0.000  -0.000  -0.000  -0.000  -0.001  -0.000  -0.000   0.000
  0.000  -0.000  -0.000   0.000  -0.000   0.000  -0.000   0.000  -0.000   0.000  -0.000   0.000  -0.000
  0.000  -0.000   0.000  -0.000  -0.000  -0.000  -0.000   0.000  -0.000   0.000   0.000  -0.000  -0.000
 -0.000   0.000  -0.000  -0.000  -0.000   0.000   0.000  -0.000   0.000   0.000   0.000   0.000  -0.000
  0.000   0.000   0.000  -0.001  -0.000  -0.000  -0.000   0.000   0.001   0.000   0.000  -0.000  -0.000
  0.001   0.000   0.000  -0.000  -0.001   0.000   0.000   0.000   0.000   0.001   0.000   0.000  -0.000
 -0.000   0.000   0.000  -0.000  -0.000  -0.000   0.000   0.000   0.000   0.000  -0.000  -0.000   0.000
 -0.000  -0.000  -0.001   0.000  -0.000   0.000  -0.000   0.000  -0.000   0.000  -0.000   0.001  -0.000
 -0.000  -0.000   0.000  -0.000   0.000  -0.000  -0.000  -0.000  -0.000  -0.000   0.000  -0.000  -0.000


------------------------ aborting loop because EDIFF is reached ----------------------------------------


 


 total charge     
 
# of ion     s       p       d       tot
----------------------------------------
  1        0.290   0.317   0.144   0.751
  2        0.230   0.208   0.088   0.526
  3        0.218   0.207   0.087   0.512
  4        0.235   0.209   0.088   0.532
  5        0.155   0.185   0.081   0.421
  6        0.212   0.207   0.086   0.505
  7        0.158   0.196   0.087   0.441
  8        0.156   0.188   0.082   0.426
  9        0.157   0.194   0.085   0.436
 10        1.596   3.542   0.000   5.138
 11        1.601   3.540   0.000   5.141
 12        1.595   3.542   0.000   5.136
 13        1.591   3.601   0.000   5.192
 14        1.603   3.540   0.000   5.143
 15        1.593   3.596   0.000   5.190
 16        1.592   3.599   0.000   5.191
 17        1.593   3.597   0.000   5.190
------------------------------------------------
tot       14.575  30.469   0.827  45.871
 


 magnetization (x)
 
# of ion     s       p       d       tot
----------------------------------------
  1       -0.006   0.004   0.001  -0.001
  2        0.028   0.017   0.012   0.056
  3        0.024   0.017   0.011   0.052
  4        0.028   0.016   0.012   0.056
  5        0.002   0.000   0.001   0.003
  6        0.022   0.018   0.010   0.049
  7        0.002   0.001   0.001   0.004
  8        0.002   0.001   0.001   0.003
  9        0.002   0.001   0.001   0.004
 10       -0.003   0.006   0.000   0.003
 11       -0.001   0.003   0.000   0.002
 12       -0.003   0.006   0.000   0.003
 13        0.012   0.040   0.000   0.053
 14       -0.000   0.002   0.000   0.001
 15        0.013   0.038   0.000   0.052
 16        0.012   0.040   0.000   0.052
 17        0.013   0.038   0.000   0.051
------------------------------------------------
tot        0.147   0.247   0.050   0.444
 
    CHARGE:  cpu time    0.0240: real time    0.0222
    FORLOC:  cpu time    0.0000: real time    0.0016
    FORNL :  cpu time    0.1520: real time    0.1531
    STRESS:  cpu time    0.4560: real time    0.4589
    FORCOR:  cpu time    0.0240: real time    0.0213
    FORHAR:  cpu time    0.0000: real time    0.0032
    MIXING:  cpu time    0.0040: real time    0.0011
    OFIELD:  cpu time    0.0000: real time    0.0000

  FORCE on cell =-STRESS in cart. coord.  units (eV):
  Direction    XX          YY          ZZ          XY          YZ          ZX
  --------------------------------------------------------------------------------------
  Alpha Z   167.07285   167.07285   167.07285
  Ewald    -968.67806  -970.22382  -967.20605     0.05858     0.71059    -1.78924
  Hartree   382.88908   382.21054   383.20873     0.20675    -0.54198     1.44151
  E(xc)    -301.13461  -301.11794  -301.14909    -0.00562     0.01090    -0.05698
  Local    -338.02810  -335.92201  -339.67301    -0.23772    -0.20375     0.27530
  n-local  -127.41513  -127.51201  -127.32605     0.03452    -0.04281     0.26971
  augment    53.74689    53.74749    53.74651     0.00077     0.00527    -0.00649
  Kinetic  1161.41123  1161.29028  1161.48142     0.00067    -0.03194     0.20251
  Fock        0.00000     0.00000     0.00000     0.00000     0.00000     0.00000
  -------------------------------------------------------------------------------------
  Total      29.86415    29.54537    30.15532     0.05794    -0.09373     0.33633
  in kB     312.33218   308.99828   315.37739     0.60601    -0.98023     3.51752
  external pressure =      312.24 kB  Pullay stress =        0.00 kB


 VOLUME and BASIS-vectors are now :
 -----------------------------------------------------------------------------
  energy-cutoff  :      400.00
  volume of cell :      153.19
      direct lattice vectors                 reciprocal lattice vectors
     0.000000000  4.246893000  4.246893000    -0.117733129  0.117733129  0.117733129
     4.246893000  0.000000000  4.246893000     0.117733129 -0.117733129  0.117733129
     4.246893000  4.246893000  0.000000000     0.117733129  0.117733129 -0.117733129

  length of vectors
     6.006013679  6.006013679  6.006013679     0.203919761  0.203919761  0.203919761


 FORCES acting on ions
    electron-ion (+dipol)            ewald-force                    non-local-force                 convergence-correction
 -----------------------------------------------------------------------------------------------
   -.724E+00 0.246E+01 0.118E+00   0.794E+00 -.274E+01 -.113E+00   -.116E+00 0.272E+00 -.256E-02   -.258E-05 -.144E-03 0.320E-04
   -.493E+01 -.630E+01 -.534E+01   0.286E+01 0.390E+01 0.320E+01   0.208E+01 0.242E+01 0.215E+01   0.776E-04 -.193E-04 0.835E-04
   0.392E+01 0.424E+01 -.518E+01   -.173E+01 -.210E+01 0.286E+01   -.218E+01 -.217E+01 0.233E+01   0.327E-04 -.510E-04 -.341E-04
   0.655E+01 -.517E+01 0.600E+01   -.432E+01 0.296E+01 -.389E+01   -.224E+01 0.218E+01 -.212E+01   -.929E-04 -.125E-04 -.840E-04
   0.591E+01 -.571E+01 -.608E+01   -.518E+01 0.511E+01 0.531E+01   -.708E+00 0.599E+00 0.757E+00   0.760E-05 0.112E-03 -.740E-05
   -.438E+01 0.273E+01 0.414E+01   0.211E+01 -.695E+00 -.191E+01   0.227E+01 -.202E+01 -.223E+01   -.196E-04 -.691E-04 0.194E-04
   -.422E+01 0.555E+01 -.378E+01   0.379E+01 -.493E+01 0.344E+01   0.415E+00 -.616E+00 0.343E+00   0.991E-04 -.212E-05 0.977E-04
   -.611E+01 -.496E+01 0.557E+01   0.537E+01 0.449E+01 -.488E+01   0.743E+00 0.487E+00 -.686E+00   -.374E-05 0.108E-03 0.365E-05
   0.422E+01 0.589E+01 0.450E+01   -.384E+01 -.519E+01 -.403E+01   -.401E+00 -.692E+00 -.482E+00   -.980E-04 -.372E-05 -.102E-03
   -.433E+01 0.191E+01 -.184E+01   0.709E+01 0.539E+00 0.444E+01   -.275E+01 -.243E+01 -.261E+01   0.421E-03 0.770E-03 0.807E-03
   -.412E+01 0.502E+01 0.211E+01   0.229E+01 -.797E+01 0.132E+00   0.185E+01 0.294E+01 -.226E+01   -.478E-03 -.423E-03 0.653E-03
   0.317E+01 0.105E+01 0.436E+01   -.611E+01 0.115E+01 -.720E+01   0.294E+01 -.222E+01 0.286E+01   -.966E-03 0.935E-03 -.517E-03
   -.123E+02 0.970E+01 0.132E+02   0.112E+02 -.834E+01 -.121E+02   0.108E+01 -.137E+01 -.116E+01   -.238E-03 0.374E-03 0.210E-03
   0.192E+01 0.209E+01 -.436E+01   0.311E+00 -.459E+01 0.251E+01   -.223E+01 0.251E+01 0.187E+01   0.102E-02 -.762E-03 -.961E-03
   0.101E+02 -.131E+02 0.809E+01   -.907E+01 0.119E+02 -.684E+01   -.106E+01 0.120E+01 -.127E+01   0.146E-03 -.480E-04 -.157E-03
   0.134E+02 0.870E+01 -.121E+02   -.122E+02 -.747E+01 0.111E+02   -.124E+01 -.125E+01 0.108E+01   0.411E-03 0.513E-04 -.371E-03
   -.802E+01 -.147E+02 -.929E+01   0.664E+01 0.139E+02 0.798E+01   0.139E+01 0.843E+00 0.133E+01   -.266E-04 -.146E-03 -.336E-03
 -----------------------------------------------------------------------------------------------
   0.146E+00 -.670E+00 0.960E-01   0.000E+00 0.107E-13 0.240E-13   -.144E+00 0.682E+00 -.946E-01   0.286E-03 0.669E-03 -.661E-03
 
 
 POSITION                                       TOTAL-FORCE (eV/Angst)
 -----------------------------------------------------------------------------------
      1.06120      1.02596      1.04639        -0.046764     -0.007882      0.002546
      8.28678      8.28465      8.28870         0.013729      0.027710      0.010442
      6.52400      6.56851      8.28671         0.017574     -0.023133      0.015276
      6.57154      8.31175      6.56685        -0.000057     -0.022947     -0.004991
      4.23212      2.13641      2.10702         0.016486     -0.001742     -0.007533
      8.29018      6.54338      6.53722         0.004799      0.011965     -0.000214
      6.33740      4.27105      6.34554        -0.015415      0.004735      0.004767
      6.34416      6.37804      4.24512         0.000444      0.017260      0.001113
      4.23750      4.27220      4.24785        -0.020603      0.003266     -0.010405
      2.10679      2.16015      2.12880         0.013608      0.025053     -0.005761
      4.17200      4.26008      2.15058         0.017889     -0.010807     -0.014754
      4.23054      2.16543      4.23753         0.004020     -0.017693      0.012590
      6.28128      4.33506      4.31160        -0.003902     -0.009231     -0.009416
      2.14616      4.23266      4.17518         0.002544      0.004132      0.005959
      4.29726      6.30143      4.31105        -0.013877      0.011917     -0.017006
      4.30572      4.33223      6.28768         0.004188     -0.020332      0.003797
      6.27535      6.31284      6.28255         0.005337      0.007728      0.013590
 -----------------------------------------------------------------------------------
    total drift:                                0.002036      0.012804      0.000740


--------------------------------------------------------------------------------------------------------



  FREE ENERGIE OF THE ION-ELECTRON SYSTEM (eV)
  ---------------------------------------------------
  free  energy   TOTEN  =       -82.90826881 eV

  energy  without entropy=      -82.90314264  energy(sigma->0) =      -82.90570573
 


--------------------------------------------------------------------------------------------------------


    POTLOK:  cpu time    0.9761: real time    0.9817


--------------------------------------------------------------------------------------------------------




--------------------------------------------------------------------------------------------------------


  
 reached required accuracy - stopping structural energy minimisation
     LOOP+:  cpu time   24.3855: real time   24.5039
    4ORBIT:  cpu time    0.0000: real time    0.0000
 


 total charge     
 
# of ion     s       p       d       tot
----------------------------------------
  1        0.290   0.317   0.144   0.751
  2        0.230   0.208   0.088   0.526
  3        0.218   0.207   0.087   0.512
  4        0.235   0.209   0.088   0.532
  5        0.155   0.185   0.081   0.421
  6        0.212   0.207   0.086   0.505
  7        0.158   0.196   0.087   0.441
  8        0.156   0.188   0.082   0.426
  9        0.157   0.194   0.085   0.436
 10        1.596   3.542   0.000   5.138
 11        1.601   3.540   0.000   5.141
 12        1.595   3.542   0.000   5.136
 13        1.591   3.601   0.000   5.192
 14        1.603   3.540   0.000   5.143
 15        1.593   3.596   0.000   5.190
 16        1.592   3.599   0.000   5.191
 17        1.593   3.597   0.000   5.190
------------------------------------------------
tot       14.575  30.469   0.827  45.871
 


 magnetization (x)
 
# of ion     s       p       d       tot
----------------------------------------
  1       -0.006   0.004   0.001  -0.001
  2        0.028   0.017   0.012   0.056
  3        0.024   0.017   0.011   0.052
  4        0.028   0.016   0.012   0.056
  5        0.002   0.000   0.001   0.003
  6        0.022   0.018   0.010   0.049
  7        0.002   0.001   0.001   0.004
  8        0.002   0.001   0.001   0.003
  9        0.002   0.001   0.001   0.004
 10       -0.003   0.006   0.000   0.003
 11       -0.001   0.003   0.000   0.002
 12       -0.003   0.006   0.000   0.003
 13        0.012   0.040   0.000   0.053
 14       -0.000   0.002   0.000   0.001
 15        0.013   0.038   0.000   0.052
 16        0.012   0.040   0.000   0.052
 17        0.013   0.038   0.000   0.051
------------------------------------------------
tot        0.147   0.247   0.050   0.444
 

 total amount of memory used by VASP on root node    36470. kBytes
========================================================================

   base      :      30000. kBytes
   nonlr-proj:       1346. kBytes
   fftplans  :        708. kBytes
   grid      :       1766. kBytes
   one-center:         81. kBytes
   wavefun   :       2569. kBytes
 
  
  
 General timing and accounting informations for this job:
 ========================================================
  
                  Total CPU time used (sec):       25.626
                            User time (sec):       25.426
                          System time (sec):        0.200
                         Elapsed time (sec):       25.986
  
                   Maximum memory used (kb):       38988.
                   Average memory used (kb):           0.
  
                          Minor page faults:        10390
                          Major page faults:           10
                 Voluntary context switches:          934
