 vasp.5.4.1 05Feb16 (build Mar 31 2016 13:39:20) complex                        
  
 executed on           IFC91_ompi date 2018.04.12  14:16:26
 running on   36 total cores
 distrk:  each k-point on   36 cores,    1 groups
 distr:  one band on NCORES_PER_BAND=   9 cores,    4 groups


--------------------------------------------------------------------------------------------------------


 INCAR:
 POTCAR:    PAW_PBE Mg 13Apr2007                  
 POTCAR:    PAW_PBE O 08Apr2002                   
 POTCAR:    PAW_PBE Mg 13Apr2007                  
   VRHFIN =Mg: s2p0                                                             
   LEXCH  = PE                                                                  
   EATOM  =    23.0369 eV,    1.6932 Ry                                         
                                                                                
   TITEL  = PAW_PBE Mg 13Apr2007                                                
   LULTRA =        F    use ultrasoft PP ?                                      
   IUNSCR =        1    unscreen: 0-lin 1-nonlin 2-no                           
   RPACOR =    1.500    partial core radius                                     
   POMASS =   24.305; ZVAL   =    2.000    mass and valenz                      
   RCORE  =    2.000    outmost cutoff radius                                   
   RWIGS  =    2.880; RWIGS  =    1.524    wigner-seitz radius (au A)           
   ENMAX  =  126.143; ENMIN  =   94.607 eV                                      
   RCLOC  =    1.506    cutoff for local pot                                    
   LCOR   =        T    correct aug charges                                     
   LPAW   =        T    paw PP                                                  
   EAUG   =  454.734                                                            
   DEXC   =    0.000                                                            
   RMAX   =    2.045    core radius for proj-oper                               
   RAUG   =    1.300    factor for augmentation sphere                          
   RDEP   =    2.025    radius for radial grids                                 
   RDEPT  =    1.942    core radius for aug-charge                              
                                                                                
   Atomic configuration                                                         
    6 entries                                                                   
     n  l   j            E        occ.                                          
     1  0  0.50     -1259.6230   2.0000                                         
     2  0  0.50       -79.8442   2.0000                                         
     2  1  1.50       -46.6121   6.0000                                         
     3  0  0.50        -4.7055   2.0000                                         
     3  1  0.50        -1.3660   0.0000                                         
     3  2  1.50        -1.3606   0.0000                                         
   Description                                                                  
     l       E           TYP  RCUT    TYP  RCUT                                 
     0     -4.7054661     23  2.000                                             
     0     27.2116520     23  2.000                                             
     1      1.3605826     23  2.000                                             
     1     27.2116520     23  2.000                                             
     2     -1.3605826     23  2.000                                             
  local pseudopotential read in
  partial core-charges read in
  partial kinetic energy density read in
  atomic valenz-charges read in
  non local Contribution for L=           0  read in
    real space projection operators read in
  non local Contribution for L=           0  read in
    real space projection operators read in
  non local Contribution for L=           1  read in
    real space projection operators read in
  non local Contribution for L=           1  read in
    real space projection operators read in
  non local Contribution for L=           2  read in
    real space projection operators read in
    PAW grid and wavefunctions read in
 
   number of l-projection  operators is LMAX  =           5
   number of lm-projection operators is LMMAX =          13
 
 POTCAR:    PAW_PBE O 08Apr2002                   
   VRHFIN =O: s2p4                                                              
   LEXCH  = PE                                                                  
   EATOM  =   432.3788 eV,   31.7789 Ry                                         
                                                                                
   TITEL  = PAW_PBE O 08Apr2002                                                 
   LULTRA =        F    use ultrasoft PP ?                                      
   IUNSCR =        1    unscreen: 0-lin 1-nonlin 2-no                           
   RPACOR =    1.200    partial core radius                                     
   POMASS =   16.000; ZVAL   =    6.000    mass and valenz                      
   RCORE  =    1.520    outmost cutoff radius                                   
   RWIGS  =    1.550; RWIGS  =    0.820    wigner-seitz radius (au A)           
   ENMAX  =  400.000; ENMIN  =  300.000 eV                                      
   ICORE  =        2    local potential                                         
   LCOR   =        T    correct aug charges                                     
   LPAW   =        T    paw PP                                                  
   EAUG   =  605.392                                                            
   DEXC   =    0.000                                                            
   RMAX   =    1.553    core radius for proj-oper                               
   RAUG   =    1.300    factor for augmentation sphere                          
   RDEP   =    1.550    radius for radial grids                                 
   RDEPT  =    1.329    core radius for aug-charge                              
                                                                                
   Atomic configuration                                                         
    4 entries                                                                   
     n  l   j            E        occ.                                          
     1  0  0.50      -514.6923   2.0000                                         
     2  0  0.50       -23.9615   2.0000                                         
     2  1  0.50        -9.0305   4.0000                                         
     3  2  1.50        -9.5241   0.0000                                         
   Description                                                                  
     l       E           TYP  RCUT    TYP  RCUT                                 
     0    -23.9615318     23  1.200                                             
     0     -9.5240782     23  1.200                                             
     1     -9.0304911     23  1.520                                             
     1      8.1634956     23  1.520                                             
     2     -9.5240782      7  1.500                                             
  local pseudopotential read in
  partial core-charges read in
  partial kinetic energy density read in
  kinetic energy density of atom read in
  atomic valenz-charges read in
  non local Contribution for L=           0  read in
    real space projection operators read in
  non local Contribution for L=           0  read in
    real space projection operators read in
  non local Contribution for L=           1  read in
    real space projection operators read in
  non local Contribution for L=           1  read in
    real space projection operators read in
    PAW grid and wavefunctions read in
 
   number of l-projection  operators is LMAX  =           4
   number of lm-projection operators is LMMAX =           8
 
 Optimization of the real space projectors (new method)

 maximal supplied QI-value         = 18.90
 optimisation between [QCUT,QGAM] = [ 10.20, 20.41] = [ 29.16,116.64] Ry 
 Optimized for a Real-space Cutoff    1.30 Angstroem

   l    n(q)    QCUT    max X(q) W(low)/X(q) W(high)/X(q)  e(spline) 
   0      8    10.205    28.265    0.22E-03    0.17E-03    0.53E-07
   0      8    10.205    10.429    0.17E-03    0.15E-03    0.43E-07
   1      7    10.205    13.073    0.71E-04    0.41E-03    0.76E-07
   1      7    10.205     9.625    0.71E-04    0.33E-03    0.63E-07
   2      7    10.205     4.652    0.24E-03    0.41E-03    0.55E-07
 Optimization of the real space projectors (new method)

 maximal supplied QI-value         = 24.76
 optimisation between [QCUT,QGAM] = [ 10.15, 20.30] = [ 28.85,115.39] Ry 
 Optimized for a Real-space Cutoff    1.38 Angstroem

   l    n(q)    QCUT    max X(q) W(low)/X(q) W(high)/X(q)  e(spline) 
   0      8    10.150    20.381    0.22E-03    0.32E-03    0.29E-06
   0      8    10.150    15.268    0.23E-03    0.35E-03    0.30E-06
   1      8    10.150     5.964    0.46E-03    0.53E-03    0.21E-06
   1      8    10.150     5.382    0.38E-03    0.45E-03    0.19E-06
  PAW_PBE Mg 13Apr2007                  :
 energy of atom  1       EATOM=  -23.0369
 kinetic energy error for atom=    0.0001 (will be added to EATOM!!)
  PAW_PBE O 08Apr2002                   :
 energy of atom  2       EATOM= -432.3788
 kinetic energy error for atom=    0.1156 (will be added to EATOM!!)
 
 
 POSCAR: Mg9 O8                                  
  positions in direct lattice
  velocities in cartesian coordinates
 exchange correlation table for  LEXCH =        8
   RHO(1)=    0.500       N(1)  =     2000
   RHO(2)=  100.500       N(2)  =     4000
 


--------------------------------------------------------------------------------------------------------


 ion  position               nearest neighbor table
   1  0.119  0.131  0.120-  14 1.87  11 1.87  10 1.88  12 1.89   4 2.16   2 2.17   3 2.18   6 2.18
                             8 3.46   5 3.47   9 3.49   9 3.50   7 3.51   5 3.52   8 3.53   7 3.53
   2  0.977  0.976  0.976-  15 2.02  16 2.04  13 2.05   1 2.17  14 2.36  11 2.36  12 2.37   4 2.42
                             3 2.47   6 2.48   5 3.00   8 3.00   7 3.02   7 3.03   8 3.04   5 3.04
   3  0.982  0.971  0.564-  17 2.04  13 2.05  15 2.06   1 2.18  12 2.29  10 2.33  14 2.33   4 2.45
                             2 2.47   6 2.50   5 3.01   9 3.01   7 3.02   7 3.02   9 3.02   5 3.03
   4  0.977  0.571  0.978-  16 2.02  13 2.02  17 2.04   1 2.16  10 2.38   2 2.42  14 2.42  11 2.43
                             3 2.45   6 2.45   5 3.01   9 3.02   8 3.02   8 3.03   9 3.03   5 3.04
   5  0.001  0.495  0.502-  17 2.04  15 2.05  16 2.05  11 2.12  10 2.13  12 2.14   7 2.98   9 2.98
                             8 2.98   2 3.00   3 3.01   4 3.01   8 3.02   9 3.03   3 3.03   7 3.03
   6  0.564  0.975  0.978-  17 2.05  15 2.05  16 2.06   1 2.18  11 2.30  12 2.31  10 2.32   4 2.45
                             2 2.48   3 2.50   9 3.01   7 3.01   8 3.01   8 3.02   7 3.03   9 3.03
   7  0.504  0.989  0.502-  16 2.03  13 2.03  17 2.04  14 2.07  11 2.08  10 2.10   9 2.97   8 2.97
                             5 2.98   6 3.01   3 3.02   2 3.02   3 3.02   2 3.03   6 3.03   5 3.03
   8  0.504  0.495  0.998-  17 2.04  13 2.05  15 2.05  14 2.11  10 2.12  12 2.14   7 2.97   9 2.98
                             5 2.98   2 3.00   6 3.01   4 3.02   6 3.02   5 3.02   9 3.03   7 3.03
   9  0.504  0.495  0.502-  15 2.03  16 2.04  13 2.05  14 2.10  11 2.10  12 2.12   7 2.97   8 2.98
                             5 2.98   6 3.01   3 3.01   4 3.02   3 3.02   5 3.03   8 3.03   6 3.03
  10  0.257  0.242  0.254-   1 1.88   7 2.10   8 2.12   5 2.13   6 2.32   3 2.33   4 2.38
  11  0.263  0.242  0.738-   1 1.87   7 2.08   9 2.10   5 2.12   6 2.30   2 2.36   4 2.43
  12  0.254  0.745  0.253-   1 1.89   9 2.12   5 2.14   8 2.14   3 2.29   6 2.31   2 2.37
  13  0.279  0.737  0.742-   4 2.02   7 2.03   2 2.05   8 2.05   9 2.05   3 2.05
  14  0.738  0.244  0.260-   1 1.87   7 2.07   9 2.10   8 2.11   3 2.33   2 2.36   4 2.42
  15  0.744  0.271  0.741-   2 2.02   9 2.03   5 2.05   6 2.05   8 2.05   3 2.06
  16  0.743  0.738  0.277-   4 2.02   7 2.03   2 2.04   9 2.04   5 2.05   6 2.06
  17  0.744  0.735  0.742-   4 2.04   7 2.04   8 2.04   5 2.04   3 2.04   6 2.05
 
  LATTYP: Found a face centered cubic cell.
 ALAT       =     8.4937860000
  
  Lattice vectors:
  
 A1 = (   0.0000000000,   4.2468930000,   4.2468930000)
 A2 = (   4.2468930000,   0.0000000000,   4.2468930000)
 A3 = (   4.2468930000,   4.2468930000,   0.0000000000)


Analysis of symmetry for initial positions (statically):
=====================================================================
 Subroutine PRICEL returns:
 Original cell was already a primitive cell.
 

 Routine SETGRP: Setting up the symmetry group for a 
 face centered cubic supercell.


 Subroutine GETGRP returns: Found  1 space group operations
 (whereof  1 operations were pure point group operations)
 out of a pool of 48 trial point group operations.


The static configuration has the point symmetry C_1 .


Analysis of symmetry for dynamics (positions and initial velocities):
=====================================================================
 Subroutine PRICEL returns:
 Original cell was already a primitive cell.
 

 Routine SETGRP: Setting up the symmetry group for a 
 face centered cubic supercell.


 Subroutine GETGRP returns: Found  1 space group operations
 (whereof  1 operations were pure point group operations)
 out of a pool of 48 trial point group operations.


The dynamic configuration has the point symmetry C_1 .


Analysis of structural, dynamic, and magnetic symmetry:
=====================================================================
 Subroutine PRICEL returns:
 Original cell was already a primitive cell.
 

 Routine SETGRP: Setting up the symmetry group for a 
 face centered cubic supercell.


 Subroutine GETGRP returns: Found  1 space group operations
 (whereof  1 operations were pure point group operations)
 out of a pool of 48 trial point group operations.


The magnetic configuration has the point symmetry C_1 .


 Subroutine INISYM returns: Found  1 space group operations
 (whereof  1 operations are pure point group operations),
 and found     1 'primitive' translations

 
 
 KPOINTS: k-point mesh                            

Automatic generation of k-mesh.
Space group operators:
 irot       det(A)        alpha          n_x          n_y          n_z        tau_x        tau_y        tau_z
    1     1.000000     0.000000     1.000000     0.000000     0.000000     0.000000     0.000000     0.000000
 
 Subroutine IBZKPT returns following result:
 ===========================================
 
 Found     16 irreducible k-points:
 
 Following reciprocal coordinates:
            Coordinates               Weight
  0.250000  0.250000  0.250000     24.000000
  0.250000  0.000000  0.000000     24.000000
  0.000000  0.000000 -0.250000     24.000000
  0.000000  0.250000  0.000000     24.000000
 -0.250000  0.250000  0.250000     24.000000
  0.250000 -0.250000  0.250000     24.000000
  0.250000  0.250000 -0.250000     24.000000
  0.250000  0.000000  0.500000     24.000000
 -0.250000  0.500000  0.500000     24.000000
  0.250000  0.500000  0.000000     24.000000
  0.000000  0.500000 -0.250000     24.000000
  0.500000  0.000000 -0.250000     24.000000
  0.500000  0.500000  0.250000     24.000000
  0.500000 -0.250000  0.500000     24.000000
  0.000000  0.250000  0.500000     24.000000
  0.500000  0.250000  0.000000     24.000000
 
 Following cartesian coordinates:
            Coordinates               Weight
  0.029433  0.029433  0.029433     24.000000
 -0.029433  0.029433  0.029433     24.000000
 -0.029433 -0.029433  0.029433     24.000000
  0.029433 -0.029433  0.029433     24.000000
  0.088300 -0.029433 -0.029433     24.000000
 -0.029433  0.088300 -0.029433     24.000000
 -0.029433 -0.029433  0.088300     24.000000
  0.029433  0.088300 -0.029433     24.000000
  0.147166 -0.029433 -0.029433     24.000000
  0.029433 -0.029433  0.088300     24.000000
  0.029433 -0.088300  0.088300     24.000000
 -0.088300  0.029433  0.088300     24.000000
  0.029433  0.029433  0.088300     24.000000
 -0.029433  0.147166 -0.029433     24.000000
  0.088300  0.029433 -0.029433     24.000000
 -0.029433  0.029433  0.088300     24.000000
 


--------------------------------------------------------------------------------------------------------




 Dimension of arrays:
   k-points           NKPTS =     16   k-points in BZ     NKDIM =     16   number of bands    NBANDS=     52
   number of dos      NEDOS =    301   number of ions     NIONS =     17
   non local maximal  LDIM  =      5   non local SUM 2l+1 LMDIM =     13
   total plane-waves  NPLWV =  27000
   max r-space proj   IRMAX =   1992   max aug-charges    IRDMAX=   7686
   dimension x,y,z NGX =    30 NGY =   30 NGZ =   30
   dimension x,y,z NGXF=    60 NGYF=   60 NGZF=   60
   support grid    NGXF=    60 NGYF=   60 NGZF=   60
   ions per type =               9   8
 NGX,Y,Z   is equivalent  to a cutoff of   8.30,  8.30,  8.30 a.u.
 NGXF,Y,Z  is equivalent  to a cutoff of  16.61, 16.61, 16.61 a.u.


 I would recommend the setting:
   dimension x,y,z NGX =    29 NGY =   29 NGZ =   29
 SYSTEM =  unknown system                          
 POSCAR =  Mg9 O8                                  

 Startparameter for this run:
   NWRITE =      2    write-flag & timer
   PREC   = n         normal or accurate (medium, high low for compatibility)
   ISTART =      0    job   : 0-new  1-cont  2-samecut
   ICHARG =      2    charge: 1-file 2-atom 10-const
   ISPIN  =      2    spin polarized calculation?
   LNONCOLLINEAR =      F non collinear calculations
   LSORBIT =      F    spin-orbit coupling
   INIWAV =      1    electr: 0-lowe 1-rand  2-diag
   LASPH  =      T    aspherical Exc in radial PAW
   METAGGA=      F    non-selfconsistent MetaGGA calc.

 Electronic Relaxation 1
   ENCUT  =  400.0 eV  29.40 Ry    5.42 a.u.   9.79  9.79  9.79*2*pi/ulx,y,z
   ENINI  =  400.0     initial cutoff
   ENAUG  =  605.4 eV  augmentation charge cutoff
   NELM   =    100;   NELMIN=  4; NELMDL=  0     # of ELM steps 
   EDIFF  = 0.1E-05   stopping-criterion for ELM
   LREAL  =      T    real-space projection
   NLSPLINE    = F    spline interpolate recip. space projectors
   LCOMPAT=      F    compatible to vasp.4.4
   GGA_COMPAT  = T    GGA compatible to vasp.4.4-vasp.4.6
   LMAXPAW     = -100 max onsite density
   LMAXMIX     =    2 max onsite mixed and CHGCAR
   VOSKOWN=      0    Vosko Wilk Nusair interpolation
   ROPT   =   -0.00050  -0.00050
 Ionic relaxation
   EDIFFG = -.5E-01   stopping-criterion for IOM
   NSW    =     20    number of steps for IOM
   NBLOCK =      1;   KBLOCK =     20    inner block; outer block 
   IBRION =      2    ionic relax: 0-MD 1-quasi-New 2-CG
   NFREE  =      1    steps in history (QN), initial steepest desc. (CG)
   ISIF   =      2    stress and relaxation
   IWAVPR =     11    prediction:  0-non 1-charg 2-wave 3-comb
   ISYM   =      2    0-nonsym 1-usesym 2-fastsym
   LCORR  =      T    Harris-Foulkes like correction to forces

   POTIM  = 0.5000    time-step for ionic-motion
   TEIN   =    0.0    initial temperature
   TEBEG  =    0.0;   TEEND  =   0.0 temperature during run
   SMASS  =  -3.00    Nose mass-parameter (am)
   estimated Nose-frequenzy (Omega)   =  0.10E-29 period in steps =****** mass=  -0.824E-27a.u.
   SCALEE = 1.0000    scale energy and forces
   NPACO  =    256;   APACO  = 16.0  distance and # of slots for P.C.
   PSTRESS=    0.0 pullay stress

  Mass of Ions in am
   POMASS =  24.30 16.00
  Ionic Valenz
   ZVAL   =   2.00  6.00
  Atomic Wigner-Seitz radii
   RWIGS  =  -1.00 -1.00
  virtual crystal weights 
   VCA    =   1.00  1.00
   NELECT =      66.0000    total number of electrons
   NUPDOWN=      -1.0000    fix difference up-down

 DOS related values:
   EMIN   =  10.00;   EMAX   =-10.00  energy-range for DOS
   EFERMI =   0.00
   ISMEAR =     0;   SIGMA  =   0.05  broadening in eV -4-tet -1-fermi 0-gaus

 Electronic relaxation 2 (details)
   IALGO  =     38    algorithm
   LDIAG  =      T    sub-space diagonalisation (order eigenvalues)
   LSUBROT=      F    optimize rotation matrix (better conditioning)
   TURBO    =      0    0=normal 1=particle mesh
   IRESTART =      0    0=no restart 2=restart with 2 vectors
   NREBOOT  =      0    no. of reboots
   NMIN     =      0    reboot dimension
   EREF     =   0.00    reference energy to select bands
   IMIX   =      4    mixing-type and parameters
     AMIX     =   0.40;   BMIX     =  1.00
     AMIX_MAG =   1.60;   BMIX_MAG =  1.00
     AMIN     =   0.10
     WC   =   100.;   INIMIX=   1;  MIXPRE=   1;  MAXMIX= -45

 Intra band minimization:
   WEIMIN = 0.0010     energy-eigenvalue tresh-hold
   EBREAK =  0.48E-08  absolut break condition
   DEPER  =   0.30     relativ break condition  

   TIME   =   0.40     timestep for ELM

  volume/ion in A,a.u.               =       9.01        60.81
  Fermi-wavevector in a.u.,A,eV,Ry     =   1.236445  2.336542 20.800538  1.528796
  Thomas-Fermi vector in A             =   2.371053
 
 Write flags
   LWAVE  =      F    write WAVECAR
   LCHARG =      F    write CHGCAR
   LVTOT  =      F    write LOCPOT, total local potential
   LVHAR  =      F    write LOCPOT, Hartree potential only
   LELF   =      F    write electronic localiz. function (ELF)
   LORBIT =     12    0 simple, 1 ext, 2 COOP (PROOUT)


 Dipole corrections
   LMONO  =      F    monopole corrections only (constant potential shift)
   LDIPOL =      F    correct potential (dipole corrections)
   IDIPOL =      0    1-x, 2-y, 3-z, 4-all directions 
   EPSILON=  1.0000000 bulk dielectric constant

 Exchange correlation treatment:
   GGA     =    --    GGA type
   LEXCH   =     8    internal setting for exchange type
   VOSKOWN=      0    Vosko Wilk Nusair interpolation
   LHFCALC =     F    Hartree Fock is set to
   LHFONE  =     F    Hartree Fock one center treatment
   AEXX    =    0.0000 exact exchange contribution

 Linear response parameters
   LEPSILON=     F    determine dielectric tensor
   LRPA    =     F    only Hartree local field effects (RPA)
   LNABLA  =     F    use nabla operator in PAW spheres
   LVEL    =     F    velocity operator in full k-point grid
   LINTERFAST=   F  fast interpolation
   KINTER  =     0    interpolate to denser k-point grid
   CSHIFT  =0.1000    complex shift for real part using Kramers Kronig
   OMEGAMAX=  -1.0    maximum frequency
   DEG_THRESHOLD= 0.2000000E-02 threshold for treating states as degnerate
   RTIME   =    0.100 relaxation time in fs

 Orbital magnetization related:
   ORBITALMAG=     F  switch on orbital magnetization
   LCHIMAG   =     F  perturbation theory with respect to B field
   DQ        =  0.001000  dq finite difference perturbation B field



--------------------------------------------------------------------------------------------------------


 conjugate gradient relaxation of ions
 charge density and potential will be updated during run
 spin polarized calculation
 Variant of blocked Davidson
 Davidson routine will perform the subspace rotation
 perform sub-space diagonalisation
    after iterative eigenvector-optimisation
 modified Broyden-mixing scheme, WC =      100.0
 initial mixing is a Kerker type mixing with AMIX =  0.4000 and BMIX =      1.0000
 Hartree-type preconditioning will be used
 using additional bands           19
 real space projection scheme for non local part
 use partial core corrections
 calculate Harris-corrections to forces 
   (improved forces if not selfconsistent)
 use gradient corrections 
 use of overlap-Matrix (Vanderbilt PP)
 Gauss-broadening in eV      SIGMA  =   0.05


--------------------------------------------------------------------------------------------------------


  energy-cutoff  :      400.00
  volume of cell :      153.19
      direct lattice vectors                 reciprocal lattice vectors
     0.000000000  4.246893000  4.246893000    -0.117733129  0.117733129  0.117733129
     4.246893000  0.000000000  4.246893000     0.117733129 -0.117733129  0.117733129
     4.246893000  4.246893000  0.000000000     0.117733129  0.117733129 -0.117733129

  length of vectors
     6.006013679  6.006013679  6.006013679     0.203919761  0.203919761  0.203919761


 
 k-points in units of 2pi/SCALE and weight: k-point mesh                            
   0.02943328  0.02943328  0.02943328       0.062
  -0.02943328  0.02943328  0.02943328       0.062
  -0.02943328 -0.02943328  0.02943328       0.062
   0.02943328 -0.02943328  0.02943328       0.062
   0.08829985 -0.02943328 -0.02943328       0.062
  -0.02943328  0.08829985 -0.02943328       0.062
  -0.02943328 -0.02943328  0.08829985       0.062
   0.02943328  0.08829985 -0.02943328       0.062
   0.14716641 -0.02943328 -0.02943328       0.062
   0.02943328 -0.02943328  0.08829985       0.062
   0.02943328 -0.08829985  0.08829985       0.062
  -0.08829985  0.02943328  0.08829985       0.062
   0.02943328  0.02943328  0.08829985       0.062
  -0.02943328  0.14716641 -0.02943328       0.062
   0.08829985  0.02943328 -0.02943328       0.062
  -0.02943328  0.02943328  0.08829985       0.062
 
 k-points in reciprocal lattice and weights: k-point mesh                            
   0.25000000  0.25000000  0.25000000       0.062
   0.25000000  0.00000000  0.00000000       0.062
   0.00000000  0.00000000 -0.25000000       0.062
   0.00000000  0.25000000  0.00000000       0.062
  -0.25000000  0.25000000  0.25000000       0.062
   0.25000000 -0.25000000  0.25000000       0.062
   0.25000000  0.25000000 -0.25000000       0.062
   0.25000000  0.00000000  0.50000000       0.062
  -0.25000000  0.50000000  0.50000000       0.062
   0.25000000  0.50000000  0.00000000       0.062
   0.00000000  0.50000000 -0.25000000       0.062
   0.50000000  0.00000000 -0.25000000       0.062
   0.50000000  0.50000000  0.25000000       0.062
   0.50000000 -0.25000000  0.50000000       0.062
   0.00000000  0.25000000  0.50000000       0.062
   0.50000000  0.25000000  0.00000000       0.062
 
 position of ions in fractional coordinates (direct lattice) 
   0.11927644  0.13079177  0.11977704
   0.97653959  0.97567445  0.97580128
   0.98213815  0.97127805  0.56366556
   0.97727131  0.57100388  0.97835332
   0.00064349  0.49463961  0.50228659
   0.56386730  0.97477093  0.97774593
   0.50428897  0.98906985  0.50220010
   0.50367000  0.49533144  0.99841889
   0.50417513  0.49535842  0.50222639
   0.25708237  0.24209838  0.25445436
   0.26336114  0.24159158  0.73829823
   0.25408539  0.74475488  0.25342711
   0.27863121  0.73666690  0.74233551
   0.73785699  0.24377117  0.26008213
   0.74351899  0.27079379  0.74071304
   0.74290583  0.73750945  0.27704444
   0.74422569  0.73512746  0.74239208
 
 position of ions in cartesian coordinates  (Angst):
   1.06413891  1.01523452  1.06201292
   8.28770861  8.29138280  8.29084413
   6.51874128  6.56486295  8.29594959
   6.57995422  8.30532854  6.57535907
   4.23383890  2.13589024  2.10341431
   8.29213019  6.54706641  6.53443193
   6.33326394  4.27445140  6.34213512
   6.34379784  6.37921081  4.24265225
   4.23663595  4.27407958  4.24491203
   2.10880634  2.17244177  2.11996723
   4.16148715  4.25394014  2.14448016
   4.23917212  2.15535129  4.24196774
   6.28116495  4.33593642  4.31186244
   2.13981109  4.23814069  4.16886980
   4.29576126  6.30337462  4.30767785
   4.30870180  4.33161968  6.28716530
   6.27486739  6.31350661  6.28265453
 


--------------------------------------------------------------------------------------------------------


 k-point  1 :   0.2500 0.2500 0.2500  plane waves:    2782
 k-point  2 :   0.2500 0.0000 0.0000  plane waves:    2782
 k-point  3 :   0.0000 0.0000-0.2500  plane waves:    2782
 k-point  4 :   0.0000 0.2500 0.0000  plane waves:    2782
 k-point  5 :  -0.2500 0.2500 0.2500  plane waves:    2788
 k-point  6 :   0.2500-0.2500 0.2500  plane waves:    2788
 k-point  7 :   0.2500 0.2500-0.2500  plane waves:    2788
 k-point  8 :   0.2500 0.0000 0.5000  plane waves:    2788
 k-point  9 :  -0.2500 0.5000 0.5000  plane waves:    2788
 k-point 10 :   0.2500 0.5000 0.0000  plane waves:    2788
 k-point 11 :   0.0000 0.5000-0.2500  plane waves:    2788
 k-point 12 :   0.5000 0.0000-0.2500  plane waves:    2788
 k-point 13 :   0.5000 0.5000 0.2500  plane waves:    2788
 k-point 14 :   0.5000-0.2500 0.5000  plane waves:    2788
 k-point 15 :   0.0000 0.2500 0.5000  plane waves:    2788
 k-point 16 :   0.5000 0.2500 0.0000  plane waves:    2788

 maximum and minimum number of plane-waves per node :       326      286

 maximum number of plane-waves:      2788
 maximum index in each direction: 
   IXMAX=   10   IYMAX=   10   IZMAX=   10
   IXMIN=  -10   IYMIN=  -10   IZMIN=  -10

 WARNING: aliasing errors must be expected set NGX to  42 to avoid them
 WARNING: aliasing errors must be expected set NGY to  42 to avoid them
 WARNING: aliasing errors must be expected set NGZ to  42 to avoid them
 aliasing errors are usually negligible using standard VASP settings
 and one can safely disregard these warnings

 real space projection operators:
  total allocation   :       2377.56 KBytes
  max/ min on nodes  :        334.62        218.17


 parallel 3D FFT for wavefunctions:
    minimum data exchange during FFTs selected (reduces bandwidth)
 parallel 3D FFT for charge:
    minimum data exchange during FFTs selected (reduces bandwidth)


 total amount of memory used by VASP on root node    34494. kBytes
========================================================================

   base      :      30000. kBytes
   nonlr-proj:        963. kBytes
   fftplans  :        353. kBytes
   grid      :        883. kBytes
   one-center:         32. kBytes
   wavefun   :       2263. kBytes
 
     INWAV:  cpu time    0.0000: real time    0.0003
 Broyden mixing: mesh for mixing (old mesh)
   NGX = 19   NGY = 19   NGZ = 19
  (NGX  = 60   NGY  = 60   NGZ  = 60)
  gives a total of   6859 points

 initial charge density was supplied:
 charge density of overlapping atoms calculated
 number of electron      66.0000000 magnetization      17.0000000
 keeping initial charge density in first step


--------------------------------------------------------------------------------------------------------


 Maximum index for non-local projection operator          290
 Maximum index for augmentation-charges          415 (set IRDMAX)


--------------------------------------------------------------------------------------------------------


 First call to EWALD:  gamma=   0.331
 Maximum number of real-space cells 3x 3x 3
 Maximum number of reciprocal cells 3x 3x 3

 FEWALD executed in parallel
    FEWALD:  cpu time    0.0000: real time    0.0013


----------------------------------------- Iteration    1(   1)  ---------------------------------------


    POTLOK:  cpu time    0.0080: real time    0.0104
    SETDIJ:  cpu time    0.3600: real time    0.3612
     EDDAV:  cpu time    0.7320: real time    0.7397
       DOS:  cpu time    0.0000: real time    0.0009
    --------------------------------------------
      LOOP:  cpu time    1.1040: real time    1.1153

 eigenvalue-minimisations  :  3384
 total energy-change (2. order) : 0.2856404E+03  (-0.2784647E+04)
 number of electron      66.0000000 magnetization      17.0000000
 augmentation part       66.0000000 magnetization      17.0000000

 Free energy of the ion-electron system (eV)
  ---------------------------------------------------
  alpha Z        PSCENC =       167.07285220
  Ewald energy   TEWEN  =     -2905.88786767
  -Hartree energ DENC   =      -985.32716712
  -exchange      EXHF   =         0.00000000
  -V(xc)+E(xc)   XCENC  =      -207.43957504
  PAW double counting   =      3357.85734499    -2905.44438128
  entropy T*S    EENTRO =        -0.00244571
  eigenvalues    EBANDS =        99.37511944
  atomic energy  EATOM  =      3665.43652948
  Solvation  Ediel_sol  =         0.00000000
  ---------------------------------------------------
  free energy    TOTEN  =       285.64040930 eV

  energy without entropy =      285.64285501  energy(sigma->0) =      285.64163215


--------------------------------------------------------------------------------------------------------




----------------------------------------- Iteration    1(   2)  ---------------------------------------


     EDDAV:  cpu time    0.8000: real time    0.7992
       DOS:  cpu time    0.0000: real time    0.0009
    --------------------------------------------
      LOOP:  cpu time    0.8000: real time    0.8056

 eigenvalue-minimisations  :  4232
 total energy-change (2. order) :-0.3573278E+03  (-0.3467135E+03)
 number of electron      66.0000000 magnetization      17.0000000
 augmentation part       66.0000000 magnetization      17.0000000

 Free energy of the ion-electron system (eV)
  ---------------------------------------------------
  alpha Z        PSCENC =       167.07285220
  Ewald energy   TEWEN  =     -2905.88786767
  -Hartree energ DENC   =      -985.32716712
  -exchange      EXHF   =         0.00000000
  -V(xc)+E(xc)   XCENC  =      -207.43957504
  PAW double counting   =      3357.85734499    -2905.44438128
  entropy T*S    EENTRO =        -0.00279261
  eigenvalues    EBANDS =      -257.95229897
  atomic energy  EATOM  =      3665.43652948
  Solvation  Ediel_sol  =         0.00000000
  ---------------------------------------------------
  free energy    TOTEN  =       -71.68735602 eV

  energy without entropy =      -71.68456340  energy(sigma->0) =      -71.68595971


--------------------------------------------------------------------------------------------------------




----------------------------------------- Iteration    1(   3)  ---------------------------------------


     EDDAV:  cpu time    0.8040: real time    0.8031
       DOS:  cpu time    0.0000: real time    0.0009
    --------------------------------------------
      LOOP:  cpu time    0.8040: real time    0.8069

 eigenvalue-minimisations  :  4104
 total energy-change (2. order) :-0.1855050E+02  (-0.1840105E+02)
 number of electron      66.0000000 magnetization      17.0000000
 augmentation part       66.0000000 magnetization      17.0000000

 Free energy of the ion-electron system (eV)
  ---------------------------------------------------
  alpha Z        PSCENC =       167.07285220
  Ewald energy   TEWEN  =     -2905.88786767
  -Hartree energ DENC   =      -985.32716712
  -exchange      EXHF   =         0.00000000
  -V(xc)+E(xc)   XCENC  =      -207.43957504
  PAW double counting   =      3357.85734499    -2905.44438128
  entropy T*S    EENTRO =        -0.00535299
  eigenvalues    EBANDS =      -276.50024280
  atomic energy  EATOM  =      3665.43652948
  Solvation  Ediel_sol  =         0.00000000
  ---------------------------------------------------
  free energy    TOTEN  =       -90.23786023 eV

  energy without entropy =      -90.23250723  energy(sigma->0) =      -90.23518373


--------------------------------------------------------------------------------------------------------




----------------------------------------- Iteration    1(   4)  ---------------------------------------


     EDDAV:  cpu time    0.7560: real time    0.7560
       DOS:  cpu time    0.0000: real time    0.0009
    --------------------------------------------
      LOOP:  cpu time    0.7560: real time    0.7599

 eigenvalue-minimisations  :  3888
 total energy-change (2. order) :-0.1266030E+00  (-0.1260711E+00)
 number of electron      66.0000000 magnetization      17.0000000
 augmentation part       66.0000000 magnetization      17.0000000

 Free energy of the ion-electron system (eV)
  ---------------------------------------------------
  alpha Z        PSCENC =       167.07285220
  Ewald energy   TEWEN  =     -2905.88786767
  -Hartree energ DENC   =      -985.32716712
  -exchange      EXHF   =         0.00000000
  -V(xc)+E(xc)   XCENC  =      -207.43957504
  PAW double counting   =      3357.85734499    -2905.44438128
  entropy T*S    EENTRO =        -0.00598614
  eigenvalues    EBANDS =      -276.62621269
  atomic energy  EATOM  =      3665.43652948
  Solvation  Ediel_sol  =         0.00000000
  ---------------------------------------------------
  free energy    TOTEN  =       -90.36446326 eV

  energy without entropy =      -90.35847712  energy(sigma->0) =      -90.36147019


--------------------------------------------------------------------------------------------------------




----------------------------------------- Iteration    1(   5)  ---------------------------------------


     EDDAV:  cpu time    0.7440: real time    0.7443
       DOS:  cpu time    0.0000: real time    0.0011
    CHARGE:  cpu time    0.0200: real time    0.0200
    MIXING:  cpu time    0.0000: real time    0.0003
    --------------------------------------------
      LOOP:  cpu time    0.7680: real time    0.7687

 eigenvalue-minimisations  :  3852
 total energy-change (2. order) :-0.8439649E-03  (-0.8437099E-03)
 number of electron      66.0000175 magnetization       1.5881018
 augmentation part        6.3800998 magnetization       0.1961966

 Broyden mixing:
  rms(total) = 0.28575E+01    rms(broyden)= 0.28568E+01
  rms(prec ) = 0.48129E+01
  weight for this iteration     100.00

 Free energy of the ion-electron system (eV)
  ---------------------------------------------------
  alpha Z        PSCENC =       167.07285220
  Ewald energy   TEWEN  =     -2905.88786767
  -Hartree energ DENC   =      -985.32716712
  -exchange      EXHF   =         0.00000000
  -V(xc)+E(xc)   XCENC  =      -207.43957504
  PAW double counting   =      3357.85734499    -2905.44438128
  entropy T*S    EENTRO =        -0.00599044
  eigenvalues    EBANDS =      -276.62705236
  atomic energy  EATOM  =      3665.43652948
  Solvation  Ediel_sol  =         0.00000000
  ---------------------------------------------------
  free energy    TOTEN  =       -90.36530723 eV

  energy without entropy =      -90.35931679  energy(sigma->0) =      -90.36231201


--------------------------------------------------------------------------------------------------------




----------------------------------------- Iteration    1(   6)  ---------------------------------------


    POTLOK:  cpu time    0.0080: real time    0.0089
    SETDIJ:  cpu time    0.3680: real time    0.3666
     EDDAV:  cpu time    0.7280: real time    0.7310
       DOS:  cpu time    0.0040: real time    0.0010
    CHARGE:  cpu time    0.0200: real time    0.0198
    MIXING:  cpu time    0.0000: real time    0.0003
    --------------------------------------------
      LOOP:  cpu time    1.1280: real time    1.1308

 eigenvalue-minimisations  :  3724
 total energy-change (2. order) : 0.7330001E+01  (-0.4467962E+01)
 number of electron      66.0000143 magnetization       0.6790384
 augmentation part        5.2854932 magnetization      -0.0182385

 Broyden mixing:
  rms(total) = 0.73979E+00    rms(broyden)= 0.73810E+00
  rms(prec ) = 0.11186E+01
  weight for this iteration     100.00

 eigenvalues of (default mixing * dielectric matrix)
  average eigenvalue GAMMA=   0.8618
  0.8618

 Free energy of the ion-electron system (eV)
  ---------------------------------------------------
  alpha Z        PSCENC =       167.07285220
  Ewald energy   TEWEN  =     -2905.88786767
  -Hartree energ DENC   =     -1135.62375487
  -exchange      EXHF   =         0.00000000
  -V(xc)+E(xc)   XCENC  =      -199.63630233
  PAW double counting   =      4012.32042038    -3562.47134041
  entropy T*S    EENTRO =        -0.01307620
  eigenvalues    EBANDS =      -124.23276648
  atomic energy  EATOM  =      3665.43652948
  Solvation  Ediel_sol  =         0.00000000
  ---------------------------------------------------
  free energy    TOTEN  =       -83.03530591 eV

  energy without entropy =      -83.02222970  energy(sigma->0) =      -83.02876781


--------------------------------------------------------------------------------------------------------




----------------------------------------- Iteration    1(   7)  ---------------------------------------


    POTLOK:  cpu time    0.0080: real time    0.0099
    SETDIJ:  cpu time    0.3720: real time    0.3690
     EDDAV:  cpu time    0.7320: real time    0.7324
       DOS:  cpu time    0.0000: real time    0.0010
    CHARGE:  cpu time    0.0200: real time    0.0195
    MIXING:  cpu time    0.0000: real time    0.0003
    --------------------------------------------
      LOOP:  cpu time    1.1320: real time    1.1352

 eigenvalue-minimisations  :  3748
 total energy-change (2. order) :-0.5837822E-01  (-0.2037848E+00)
 number of electron      66.0000143 magnetization       0.4253310
 augmentation part        5.2689954 magnetization      -0.0532549

 Broyden mixing:
  rms(total) = 0.39397E+00    rms(broyden)= 0.39387E+00
  rms(prec ) = 0.61622E+00
  weight for this iteration     100.00

 eigenvalues of (default mixing * dielectric matrix)
  average eigenvalue GAMMA=   1.0050
  1.0050  1.0050

 Free energy of the ion-electron system (eV)
  ---------------------------------------------------
  alpha Z        PSCENC =       167.07285220
  Ewald energy   TEWEN  =     -2905.88786767
  -Hartree energ DENC   =     -1137.93525278
  -exchange      EXHF   =         0.00000000
  -V(xc)+E(xc)   XCENC  =      -199.36826122
  PAW double counting   =      4250.79984658    -3800.64012033
  entropy T*S    EENTRO =        -0.00952763
  eigenvalues    EBANDS =      -122.56188278
  atomic energy  EATOM  =      3665.43652948
  Solvation  Ediel_sol  =         0.00000000
  ---------------------------------------------------
  free energy    TOTEN  =       -83.09368413 eV

  energy without entropy =      -83.08415651  energy(sigma->0) =      -83.08892032


--------------------------------------------------------------------------------------------------------




----------------------------------------- Iteration    1(   8)  ---------------------------------------


    POTLOK:  cpu time    0.0080: real time    0.0090
    SETDIJ:  cpu time    0.3680: real time    0.3689
     EDDAV:  cpu time    0.7440: real time    0.7422
       DOS:  cpu time    0.0000: real time    0.0010
    CHARGE:  cpu time    0.0200: real time    0.0193
    MIXING:  cpu time    0.0000: real time    0.0003
    --------------------------------------------
      LOOP:  cpu time    1.1400: real time    1.1439

 eigenvalue-minimisations  :  3720
 total energy-change (2. order) : 0.1075314E+00  (-0.2008562E-01)
 number of electron      66.0000143 magnetization       0.4673515
 augmentation part        5.2818028 magnetization       0.0004602

 Broyden mixing:
  rms(total) = 0.16917E+00    rms(broyden)= 0.16916E+00
  rms(prec ) = 0.26721E+00
  weight for this iteration     100.00

 eigenvalues of (default mixing * dielectric matrix)
  average eigenvalue GAMMA=   1.2482
  1.9572  0.9883  0.7990

 Free energy of the ion-electron system (eV)
  ---------------------------------------------------
  alpha Z        PSCENC =       167.07285220
  Ewald energy   TEWEN  =     -2905.88786767
  -Hartree energ DENC   =     -1142.41288103
  -exchange      EXHF   =         0.00000000
  -V(xc)+E(xc)   XCENC  =      -198.67900167
  PAW double counting   =      4489.59276525    -4039.16883814
  entropy T*S    EENTRO =        -0.00957136
  eigenvalues    EBANDS =      -118.93013985
  atomic energy  EATOM  =      3665.43652948
  Solvation  Ediel_sol  =         0.00000000
  ---------------------------------------------------
  free energy    TOTEN  =       -82.98615277 eV

  energy without entropy =      -82.97658141  energy(sigma->0) =      -82.98136709


--------------------------------------------------------------------------------------------------------




----------------------------------------- Iteration    1(   9)  ---------------------------------------


    POTLOK:  cpu time    0.0080: real time    0.0088
    SETDIJ:  cpu time    0.3720: real time    0.3706
     EDDAV:  cpu time    0.7720: real time    0.7716
       DOS:  cpu time    0.0000: real time    0.0010
    CHARGE:  cpu time    0.0200: real time    0.0192
    MIXING:  cpu time    0.0000: real time    0.0004
    --------------------------------------------
      LOOP:  cpu time    1.1720: real time    1.1746

 eigenvalue-minimisations  :  4032
 total energy-change (2. order) : 0.1654438E-01  (-0.7316841E-02)
 number of electron      66.0000143 magnetization       0.4912879
 augmentation part        5.2746295 magnetization       0.0295265

 Broyden mixing:
  rms(total) = 0.59132E-01    rms(broyden)= 0.59121E-01
  rms(prec ) = 0.74393E-01
  weight for this iteration     100.00

 eigenvalues of (default mixing * dielectric matrix)
  average eigenvalue GAMMA=   1.2455
  2.3537  1.0137  0.9508  0.6637

 Free energy of the ion-electron system (eV)
  ---------------------------------------------------
  alpha Z        PSCENC =       167.07285220
  Ewald energy   TEWEN  =     -2905.88786767
  -Hartree energ DENC   =     -1147.84661617
  -exchange      EXHF   =         0.00000000
  -V(xc)+E(xc)   XCENC  =      -198.01226428
  PAW double counting   =      4644.46868912    -4193.93585689
  entropy T*S    EENTRO =        -0.00956044
  eigenvalues    EBANDS =      -114.25551376
  atomic energy  EATOM  =      3665.43652948
  Solvation  Ediel_sol  =         0.00000000
  ---------------------------------------------------
  free energy    TOTEN  =       -82.96960840 eV

  energy without entropy =      -82.96004795  energy(sigma->0) =      -82.96482818


--------------------------------------------------------------------------------------------------------




----------------------------------------- Iteration    1(  10)  ---------------------------------------


    POTLOK:  cpu time    0.0080: real time    0.0084
    SETDIJ:  cpu time    0.3720: real time    0.3708
     EDDAV:  cpu time    0.7720: real time    0.7750
       DOS:  cpu time    0.0040: real time    0.0009
    CHARGE:  cpu time    0.0160: real time    0.0196
    MIXING:  cpu time    0.0040: real time    0.0004
    --------------------------------------------
      LOOP:  cpu time    1.1760: real time    1.1782

 eigenvalue-minimisations  :  3960
 total energy-change (2. order) : 0.3279591E-03  (-0.3692271E-03)
 number of electron      66.0000143 magnetization       0.5044775
 augmentation part        5.2714300 magnetization       0.0415438

 Broyden mixing:
  rms(total) = 0.16433E-01    rms(broyden)= 0.16429E-01
  rms(prec ) = 0.26380E-01
  weight for this iteration     100.00

 eigenvalues of (default mixing * dielectric matrix)
  average eigenvalue GAMMA=   1.2245
  2.4725  1.1059  1.0234  0.8656  0.6550

 Free energy of the ion-electron system (eV)
  ---------------------------------------------------
  alpha Z        PSCENC =       167.07285220
  Ewald energy   TEWEN  =     -2905.88786767
  -Hartree energ DENC   =     -1148.52996216
  -exchange      EXHF   =         0.00000000
  -V(xc)+E(xc)   XCENC  =      -197.93571913
  PAW double counting   =      4648.68685100    -4198.15366819
  entropy T*S    EENTRO =        -0.00956079
  eigenvalues    EBANDS =      -113.64873518
  atomic energy  EATOM  =      3665.43652948
  Solvation  Ediel_sol  =         0.00000000
  ---------------------------------------------------
  free energy    TOTEN  =       -82.96928044 eV

  energy without entropy =      -82.95971965  energy(sigma->0) =      -82.96450004


--------------------------------------------------------------------------------------------------------




----------------------------------------- Iteration    1(  11)  ---------------------------------------


    POTLOK:  cpu time    0.0080: real time    0.0091
    SETDIJ:  cpu time    0.3680: real time    0.3697
     EDDAV:  cpu time    0.7520: real time    0.7527
       DOS:  cpu time    0.0040: real time    0.0009
    CHARGE:  cpu time    0.0200: real time    0.0201
    MIXING:  cpu time    0.0000: real time    0.0004
    --------------------------------------------
      LOOP:  cpu time    1.1520: real time    1.1560

 eigenvalue-minimisations  :  3920
 total energy-change (2. order) :-0.4564805E-03  (-0.3372250E-03)
 number of electron      66.0000143 magnetization       0.5029304
 augmentation part        5.2709250 magnetization       0.0377662

 Broyden mixing:
  rms(total) = 0.10103E-01    rms(broyden)= 0.10097E-01
  rms(prec ) = 0.15515E-01
  weight for this iteration     100.00

 eigenvalues of (default mixing * dielectric matrix)
  average eigenvalue GAMMA=   1.2023
  2.5145  1.3702  0.9215  0.9215  0.8520  0.6340

 Free energy of the ion-electron system (eV)
  ---------------------------------------------------
  alpha Z        PSCENC =       167.07285220
  Ewald energy   TEWEN  =     -2905.88786767
  -Hartree energ DENC   =     -1148.67233347
  -exchange      EXHF   =         0.00000000
  -V(xc)+E(xc)   XCENC  =      -197.90951119
  PAW double counting   =      4639.43228965    -4188.90236656
  entropy T*S    EENTRO =        -0.00955546
  eigenvalues    EBANDS =      -113.52977391
  atomic energy  EATOM  =      3665.43652948
  Solvation  Ediel_sol  =         0.00000000
  ---------------------------------------------------
  free energy    TOTEN  =       -82.96973692 eV

  energy without entropy =      -82.96018146  energy(sigma->0) =      -82.96495919


--------------------------------------------------------------------------------------------------------




----------------------------------------- Iteration    1(  12)  ---------------------------------------


    POTLOK:  cpu time    0.0080: real time    0.0089
    SETDIJ:  cpu time    0.3680: real time    0.3698
     EDDAV:  cpu time    0.7280: real time    0.7254
       DOS:  cpu time    0.0000: real time    0.0010
    CHARGE:  cpu time    0.0200: real time    0.0188
    MIXING:  cpu time    0.0000: real time    0.0004
    --------------------------------------------
      LOOP:  cpu time    1.1240: real time    1.1274

 eigenvalue-minimisations  :  3728
 total energy-change (2. order) :-0.1180085E-04  (-0.2582135E-04)
 number of electron      66.0000143 magnetization       0.4993144
 augmentation part        5.2712415 magnetization       0.0347011

 Broyden mixing:
  rms(total) = 0.49031E-02    rms(broyden)= 0.49024E-02
  rms(prec ) = 0.70637E-02
  weight for this iteration     100.00

 eigenvalues of (default mixing * dielectric matrix)
  average eigenvalue GAMMA=   1.2613
  2.5009  1.7397  1.1930  1.0236  0.9013  0.8373  0.6335

 Free energy of the ion-electron system (eV)
  ---------------------------------------------------
  alpha Z        PSCENC =       167.07285220
  Ewald energy   TEWEN  =     -2905.88786767
  -Hartree energ DENC   =     -1148.69368262
  -exchange      EXHF   =         0.00000000
  -V(xc)+E(xc)   XCENC  =      -197.90070855
  PAW double counting   =      4637.39759173    -4186.86814728
  entropy T*S    EENTRO =        -0.00955520
  eigenvalues    EBANDS =      -113.51676083
  atomic energy  EATOM  =      3665.43652948
  Solvation  Ediel_sol  =         0.00000000
  ---------------------------------------------------
  free energy    TOTEN  =       -82.96974872 eV

  energy without entropy =      -82.96019352  energy(sigma->0) =      -82.96497112


--------------------------------------------------------------------------------------------------------




----------------------------------------- Iteration    1(  13)  ---------------------------------------


    POTLOK:  cpu time    0.0080: real time    0.0092
    SETDIJ:  cpu time    0.3720: real time    0.3703
     EDDAV:  cpu time    0.7360: real time    0.7369
       DOS:  cpu time    0.0000: real time    0.0012
    CHARGE:  cpu time    0.0200: real time    0.0212
    MIXING:  cpu time    0.0000: real time    0.0005
    --------------------------------------------
      LOOP:  cpu time    1.1360: real time    1.1428

 eigenvalue-minimisations  :  3736
 total energy-change (2. order) :-0.7723135E-04  (-0.2997049E-04)
 number of electron      66.0000143 magnetization       0.4994024
 augmentation part        5.2716601 magnetization       0.0348619

 Broyden mixing:
  rms(total) = 0.23371E-02    rms(broyden)= 0.23345E-02
  rms(prec ) = 0.35897E-02
  weight for this iteration     100.00

 eigenvalues of (default mixing * dielectric matrix)
  average eigenvalue GAMMA=   1.2595
  2.5867  2.2303  1.1650  0.9623  0.8740  0.8740  0.7500  0.6334

 Free energy of the ion-electron system (eV)
  ---------------------------------------------------
  alpha Z        PSCENC =       167.07285220
  Ewald energy   TEWEN  =     -2905.88786767
  -Hartree energ DENC   =     -1148.67524848
  -exchange      EXHF   =         0.00000000
  -V(xc)+E(xc)   XCENC  =      -197.89343194
  PAW double counting   =      4633.42604062    -4182.89859898
  entropy T*S    EENTRO =        -0.00955688
  eigenvalues    EBANDS =      -113.54054432
  atomic energy  EATOM  =      3665.43652948
  Solvation  Ediel_sol  =         0.00000000
  ---------------------------------------------------
  free energy    TOTEN  =       -82.96982595 eV

  energy without entropy =      -82.96026907  energy(sigma->0) =      -82.96504751


--------------------------------------------------------------------------------------------------------




----------------------------------------- Iteration    1(  14)  ---------------------------------------


    POTLOK:  cpu time    0.0080: real time    0.0090
    SETDIJ:  cpu time    0.3720: real time    0.3716
     EDDAV:  cpu time    0.7840: real time    0.7853
       DOS:  cpu time    0.0000: real time    0.0010
    CHARGE:  cpu time    0.0200: real time    0.0188
    MIXING:  cpu time    0.0000: real time    0.0005
    --------------------------------------------
      LOOP:  cpu time    1.1880: real time    1.1894

 eigenvalue-minimisations  :  4100
 total energy-change (2. order) :-0.3548034E-05  (-0.2621706E-05)
 number of electron      66.0000143 magnetization       0.4998073
 augmentation part        5.2716887 magnetization       0.0353629

 Broyden mixing:
  rms(total) = 0.81823E-03    rms(broyden)= 0.81775E-03
  rms(prec ) = 0.10882E-02
  weight for this iteration     100.00

 eigenvalues of (default mixing * dielectric matrix)
  average eigenvalue GAMMA=   1.2539
  2.6286  2.3767  0.9817  0.9817  1.1200  1.0333  0.8329  0.7026  0.6281

 Free energy of the ion-electron system (eV)
  ---------------------------------------------------
  alpha Z        PSCENC =       167.07285220
  Ewald energy   TEWEN  =     -2905.88786767
  -Hartree energ DENC   =     -1148.67558185
  -exchange      EXHF   =         0.00000000
  -V(xc)+E(xc)   XCENC  =      -197.89096573
  PAW double counting   =      4631.37855861    -4180.85269303
  entropy T*S    EENTRO =        -0.00955716
  eigenvalues    EBANDS =      -113.54110436
  atomic energy  EATOM  =      3665.43652948
  Solvation  Ediel_sol  =         0.00000000
  ---------------------------------------------------
  free energy    TOTEN  =       -82.96982950 eV

  energy without entropy =      -82.96027234  energy(sigma->0) =      -82.96505092


--------------------------------------------------------------------------------------------------------




----------------------------------------- Iteration    1(  15)  ---------------------------------------


    POTLOK:  cpu time    0.0080: real time    0.0082
    SETDIJ:  cpu time    0.3680: real time    0.3699
     EDDAV:  cpu time    0.7400: real time    0.7367
       DOS:  cpu time    0.0000: real time    0.0009
    CHARGE:  cpu time    0.0200: real time    0.0191
    MIXING:  cpu time    0.0000: real time    0.0005
    --------------------------------------------
      LOOP:  cpu time    1.1360: real time    1.1383

 eigenvalue-minimisations  :  3784
 total energy-change (2. order) :-0.1152432E-05  (-0.6655177E-06)
 number of electron      66.0000143 magnetization       0.5001281
 augmentation part        5.2716300 magnetization       0.0357097

 Broyden mixing:
  rms(total) = 0.43822E-03    rms(broyden)= 0.43800E-03
  rms(prec ) = 0.71185E-03
  weight for this iteration     100.00

 eigenvalues of (default mixing * dielectric matrix)
  average eigenvalue GAMMA=   1.2332
  2.6775  2.4181  0.9022  0.9022  1.1401  1.1401  0.9915  0.8575  0.6735  0.6288

 Free energy of the ion-electron system (eV)
  ---------------------------------------------------
  alpha Z        PSCENC =       167.07285220
  Ewald energy   TEWEN  =     -2905.88786767
  -Hartree energ DENC   =     -1148.68442558
  -exchange      EXHF   =         0.00000000
  -V(xc)+E(xc)   XCENC  =      -197.89011409
  PAW double counting   =      4630.89200355    -4180.36684425
  entropy T*S    EENTRO =        -0.00955723
  eigenvalues    EBANDS =      -113.53240707
  atomic energy  EATOM  =      3665.43652948
  Solvation  Ediel_sol  =         0.00000000
  ---------------------------------------------------
  free energy    TOTEN  =       -82.96983065 eV

  energy without entropy =      -82.96027342  energy(sigma->0) =      -82.96505204


--------------------------------------------------------------------------------------------------------




----------------------------------------- Iteration    1(  16)  ---------------------------------------


    POTLOK:  cpu time    0.0080: real time    0.0082
    SETDIJ:  cpu time    0.3680: real time    0.3696
     EDDAV:  cpu time    0.5320: real time    0.5341
       DOS:  cpu time    0.0000: real time    0.0010
    --------------------------------------------
      LOOP:  cpu time    0.9080: real time    0.9159

 eigenvalue-minimisations  :  2228
 total energy-change (2. order) :-0.1718308E-07  (-0.1048955E-06)
 number of electron      66.0000143 magnetization       0.5001281
 augmentation part        5.2716300 magnetization       0.0357097

 Free energy of the ion-electron system (eV)
  ---------------------------------------------------
  alpha Z        PSCENC =       167.07285220
  Ewald energy   TEWEN  =     -2905.88786767
  -Hartree energ DENC   =     -1148.68920236
  -exchange      EXHF   =         0.00000000
  -V(xc)+E(xc)   XCENC  =      -197.88972391
  PAW double counting   =      4630.63081973    -4180.10620438
  entropy T*S    EENTRO =        -0.00955716
  eigenvalues    EBANDS =      -113.52747662
  atomic energy  EATOM  =      3665.43652948
  Solvation  Ediel_sol  =         0.00000000
  ---------------------------------------------------
  free energy    TOTEN  =       -82.96983067 eV

  energy without entropy =      -82.96027351  energy(sigma->0) =      -82.96505209


--------------------------------------------------------------------------------------------------------




 average (electrostatic) potential at core
  the test charge radii are     1.0714  0.7215
  (the norm of the test charge is              1.0000)
       1 -35.3708       2 -34.9587       3 -34.9846       4 -34.8676       5 -34.2126
       6 -34.9844       7 -33.9535       8 -34.1920       9 -34.0926      10 -69.4332
      11 -69.3922      12 -69.4843      13 -68.9630      14 -69.3853      15 -68.9642
      16 -68.9597      17 -68.9464
 
 
 
 E-fermi :   9.8810     XC(G=0): -11.3076     alpha+bet :-13.9557


 spin component 1

 k-point     1 :       0.2500    0.2500    0.2500
  band No.  band energies     occupation 
      1     -13.6291      1.00000
      2     -12.7680      1.00000
      3     -12.5514      1.00000
      4     -12.5270      1.00000
      5     -12.5070      1.00000
      6     -12.2824      1.00000
      7     -12.2747      1.00000
      8     -12.2717      1.00000
      9      -1.1597      1.00000
     10      -0.8785      1.00000
     11      -0.8534      1.00000
     12      -0.7377      1.00000
     13      -0.5793      1.00000
     14      -0.3393      1.00000
     15      -0.3316      1.00000
     16       1.4668      1.00000
     17       1.6712      1.00000
     18       1.6798      1.00000
     19       2.0188      1.00000
     20       2.0944      1.00000
     21       2.0957      1.00000
     22       2.3006      1.00000
     23       2.3248      1.00000
     24       2.3334      1.00000
     25       2.4265      1.00000
     26       2.5337      1.00000
     27       2.5472      1.00000
     28       2.8147      1.00000
     29       2.9018      1.00000
     30       2.9267      1.00000
     31       3.2587      1.00000
     32       3.2884      1.00000
     33       8.2712      1.00000
     34       9.7187      1.00000
     35      10.8549      0.00000
     36      11.2188      0.00000
     37      11.3769      0.00000
     38      12.0588      0.00000
     39      12.1518      0.00000
     40      12.2391      0.00000
     41      12.8291      0.00000
     42      12.8559      0.00000
     43      13.4960      0.00000
     44      15.2613      0.00000
     45      15.2716      0.00000
     46      15.3554      0.00000
     47      15.7027      0.00000
     48      15.9580      0.00000
     49      16.2408      0.00000
     50      16.8217      0.00000
     51      17.1775      0.00000
     52      17.2049      0.00000

 k-point     2 :       0.2500    0.0000    0.0000
  band No.  band energies     occupation 
      1     -13.6299      1.00000
      2     -12.7603      1.00000
      3     -12.5501      1.00000
      4     -12.5266      1.00000
      5     -12.5160      1.00000
      6     -12.2883      1.00000
      7     -12.2752      1.00000
      8     -12.2651      1.00000
      9      -1.1671      1.00000
     10      -0.8733      1.00000
     11      -0.8490      1.00000
     12      -0.7306      1.00000
     13      -0.5911      1.00000
     14      -0.3377      1.00000
     15      -0.3309      1.00000
     16       1.4761      1.00000
     17       1.6655      1.00000
     18       1.6769      1.00000
     19       2.0281      1.00000
     20       2.0819      1.00000
     21       2.0879      1.00000
     22       2.3076      1.00000
     23       2.3222      1.00000
     24       2.3320      1.00000
     25       2.4107      1.00000
     26       2.5404      1.00000
     27       2.5466      1.00000
     28       2.8222      1.00000
     29       2.9022      1.00000
     30       2.9213      1.00000
     31       3.2706      1.00000
     32       3.2950      1.00000
     33       8.2719      1.00000
     34       9.7293      0.99999
     35      10.8713      0.00000
     36      11.2233      0.00000
     37      11.3422      0.00000
     38      12.0502      0.00000
     39      12.1834      0.00000
     40      12.2951      0.00000
     41      12.7924      0.00000
     42      12.8209      0.00000
     43      13.4688      0.00000
     44      15.2475      0.00000
     45      15.2816      0.00000
     46      15.3450      0.00000
     47      15.5501      0.00000
     48      16.0614      0.00000
     49      16.2675      0.00000
     50      16.8031      0.00000
     51      17.2092      0.00000
     52      17.2213      0.00000

 k-point     3 :       0.0000    0.0000   -0.2500
  band No.  band energies     occupation 
      1     -13.6297      1.00000
      2     -12.7619      1.00000
      3     -12.5511      1.00000
      4     -12.5282      1.00000
      5     -12.5117      1.00000
      6     -12.2879      1.00000
      7     -12.2754      1.00000
      8     -12.2654      1.00000
      9      -1.1662      1.00000
     10      -0.8737      1.00000
     11      -0.8495      1.00000
     12      -0.7328      1.00000
     13      -0.5894      1.00000
     14      -0.3375      1.00000
     15      -0.3309      1.00000
     16       1.4710      1.00000
     17       1.6659      1.00000
     18       1.6799      1.00000
     19       2.0306      1.00000
     20       2.0820      1.00000
     21       2.0893      1.00000
     22       2.3097      1.00000
     23       2.3185      1.00000
     24       2.3338      1.00000
     25       2.4137      1.00000
     26       2.5398      1.00000
     27       2.5451      1.00000
     28       2.8210      1.00000
     29       2.9025      1.00000
     30       2.9226      1.00000
     31       3.2674      1.00000
     32       3.2951      1.00000
     33       8.2715      1.00000
     34       9.7275      0.99999
     35      10.8614      0.00000
     36      11.2126      0.00000
     37      11.3585      0.00000
     38      12.0533      0.00000
     39      12.1971      0.00000
     40      12.2758      0.00000
     41      12.7892      0.00000
     42      12.8297      0.00000
     43      13.4756      0.00000
     44      15.2447      0.00000
     45      15.2795      0.00000
     46      15.3436      0.00000
     47      15.5736      0.00000
     48      16.0503      0.00000
     49      16.2680      0.00000
     50      16.8045      0.00000
     51      17.2051      0.00000
     52      17.2223      0.00000

 k-point     4 :       0.0000    0.2500    0.0000
  band No.  band energies     occupation 
      1     -13.6288      1.00000
      2     -12.7716      1.00000
      3     -12.5528      1.00000
      4     -12.5218      1.00000
      5     -12.5074      1.00000
      6     -12.2901      1.00000
      7     -12.2743      1.00000
      8     -12.2643      1.00000
      9      -1.1486      1.00000
     10      -0.8799      1.00000
     11      -0.8725      1.00000
     12      -0.7392      1.00000
     13      -0.5648      1.00000
     14      -0.3391      1.00000
     15      -0.3364      1.00000
     16       1.4576      1.00000
     17       1.6752      1.00000
     18       1.6818      1.00000
     19       2.0174      1.00000
     20       2.0929      1.00000
     21       2.0953      1.00000
     22       2.3068      1.00000
     23       2.3300      1.00000
     24       2.3347      1.00000
     25       2.4427      1.00000
     26       2.5395      1.00000
     27       2.5497      1.00000
     28       2.8185      1.00000
     29       2.8993      1.00000
     30       2.9105      1.00000
     31       3.2564      1.00000
     32       3.2719      1.00000
     33       8.2716      1.00000
     34       9.7136      1.00000
     35      10.8577      0.00000
     36      11.2490      0.00000
     37      11.3538      0.00000
     38      11.9976      0.00000
     39      12.1508      0.00000
     40      12.2295      0.00000
     41      12.8599      0.00000
     42      12.8950      0.00000
     43      13.5009      0.00000
     44      15.2733      0.00000
     45      15.2843      0.00000
     46      15.3602      0.00000
     47      15.8753      0.00000
     48      15.9559      0.00000
     49      16.0869      0.00000
     50      16.8401      0.00000
     51      17.1529      0.00000
     52      17.1579      0.00000

 k-point     5 :      -0.2500    0.2500    0.2500
  band No.  band energies     occupation 
      1     -13.2725      1.00000
      2     -12.9574      1.00000
      3     -12.7335      1.00000
      4     -12.5686      1.00000
      5     -12.5249      1.00000
      6     -12.3741      1.00000
      7     -12.2522      1.00000
      8     -12.2331      1.00000
      9      -0.5520      1.00000
     10      -0.3324      1.00000
     11      -0.2550      1.00000
     12      -0.2046      1.00000
     13       0.0193      1.00000
     14       0.0840      1.00000
     15       0.2071      1.00000
     16       0.7319      1.00000
     17       0.9911      1.00000
     18       1.0375      1.00000
     19       1.1529      1.00000
     20       1.6133      1.00000
     21       1.6959      1.00000
     22       1.8778      1.00000
     23       2.0157      1.00000
     24       2.2003      1.00000
     25       2.3537      1.00000
     26       2.4045      1.00000
     27       2.5434      1.00000
     28       2.5795      1.00000
     29       2.6762      1.00000
     30       2.9244      1.00000
     31       2.9392      1.00000
     32       3.0735      1.00000
     33       9.4722      1.00000
     34      10.2772      0.00000
     35      11.1747      0.00000
     36      11.6851      0.00000
     37      11.9256      0.00000
     38      12.8767      0.00000
     39      13.1228      0.00000
     40      13.2768      0.00000
     41      13.4926      0.00000
     42      13.7300      0.00000
     43      13.8908      0.00000
     44      14.4243      0.00000
     45      14.8360      0.00000
     46      14.9142      0.00000
     47      15.1858      0.00000
     48      15.4577      0.00000
     49      15.8061      0.00000
     50      16.2719      0.00000
     51      16.5105      0.00000
     52      16.9426      0.00000

 k-point     6 :       0.2500   -0.2500    0.2500
  band No.  band energies     occupation 
      1     -13.2656      1.00000
      2     -12.9722      1.00000
      3     -12.7460      1.00000
      4     -12.5445      1.00000
      5     -12.5135      1.00000
      6     -12.3934      1.00000
      7     -12.2469      1.00000
      8     -12.2336      1.00000
      9      -0.5258      1.00000
     10      -0.3317      1.00000
     11      -0.2564      1.00000
     12      -0.2361      1.00000
     13       0.0080      1.00000
     14       0.0861      1.00000
     15       0.2118      1.00000
     16       0.7037      1.00000
     17       1.0203      1.00000
     18       1.0448      1.00000
     19       1.1592      1.00000
     20       1.6634      1.00000
     21       1.6809      1.00000
     22       1.8639      1.00000
     23       2.0035      1.00000
     24       2.1996      1.00000
     25       2.3647      1.00000
     26       2.4307      1.00000
     27       2.5091      1.00000
     28       2.5744      1.00000
     29       2.6934      1.00000
     30       2.9229      1.00000
     31       2.9439      1.00000
     32       3.0363      1.00000
     33       9.4857      1.00000
     34      10.2041      0.00000
     35      11.1684      0.00000
     36      11.7100      0.00000
     37      11.9880      0.00000
     38      12.7978      0.00000
     39      13.0974      0.00000
     40      13.3134      0.00000
     41      13.4820      0.00000
     42      13.7427      0.00000
     43      13.9627      0.00000
     44      14.3926      0.00000
     45      14.8805      0.00000
     46      14.9498      0.00000
     47      15.3471      0.00000
     48      15.4239      0.00000
     49      15.7613      0.00000
     50      16.2956      0.00000
     51      16.4892      0.00000
     52      16.8904      0.00000

 k-point     7 :       0.2500    0.2500   -0.2500
  band No.  band energies     occupation 
      1     -13.2713      1.00000
      2     -12.9596      1.00000
      3     -12.7352      1.00000
      4     -12.5687      1.00000
      5     -12.5202      1.00000
      6     -12.3759      1.00000
      7     -12.2534      1.00000
      8     -12.2319      1.00000
      9      -0.5522      1.00000
     10      -0.3303      1.00000
     11      -0.2599      1.00000
     12      -0.2010      1.00000
     13       0.0179      1.00000
     14       0.0850      1.00000
     15       0.2066      1.00000
     16       0.7299      1.00000
     17       0.9840      1.00000
     18       1.0448      1.00000
     19       1.1544      1.00000
     20       1.6069      1.00000
     21       1.7068      1.00000
     22       1.8777      1.00000
     23       2.0150      1.00000
     24       2.1987      1.00000
     25       2.3532      1.00000
     26       2.4057      1.00000
     27       2.5408      1.00000
     28       2.5797      1.00000
     29       2.6772      1.00000
     30       2.9266      1.00000
     31       2.9387      1.00000
     32       3.0721      1.00000
     33       9.4738      1.00000
     34      10.2677      0.00000
     35      11.1646      0.00000
     36      11.6736      0.00000
     37      11.9663      0.00000
     38      12.8671      0.00000
     39      13.1114      0.00000
     40      13.2702      0.00000
     41      13.5011      0.00000
     42      13.7317      0.00000
     43      13.8870      0.00000
     44      14.4313      0.00000
     45      14.8379      0.00000
     46      14.9148      0.00000
     47      15.2001      0.00000
     48      15.4663      0.00000
     49      15.8055      0.00000
     50      16.2688      0.00000
     51      16.5051      0.00000
     52      16.9340      0.00000

 k-point     8 :       0.2500    0.0000    0.5000
  band No.  band energies     occupation 
      1     -13.2712      1.00000
      2     -12.9657      1.00000
      3     -12.7165      1.00000
      4     -12.5774      1.00000
      5     -12.5324      1.00000
      6     -12.3667      1.00000
      7     -12.2467      1.00000
      8     -12.2395      1.00000
      9      -0.5467      1.00000
     10      -0.3335      1.00000
     11      -0.2706      1.00000
     12      -0.1996      1.00000
     13       0.0225      1.00000
     14       0.0791      1.00000
     15       0.2112      1.00000
     16       0.7334      1.00000
     17       0.9954      1.00000
     18       1.0287      1.00000
     19       1.1606      1.00000
     20       1.6252      1.00000
     21       1.6836      1.00000
     22       1.8788      1.00000
     23       2.0221      1.00000
     24       2.1937      1.00000
     25       2.3583      1.00000
     26       2.4091      1.00000
     27       2.5426      1.00000
     28       2.5737      1.00000
     29       2.6749      1.00000
     30       2.9231      1.00000
     31       2.9347      1.00000
     32       3.0770      1.00000
     33       9.4763      1.00000
     34      10.2580      0.00000
     35      11.1961      0.00000
     36      11.6932      0.00000
     37      11.8836      0.00000
     38      12.8374      0.00000
     39      13.2215      0.00000
     40      13.2953      0.00000
     41      13.4205      0.00000
     42      13.7312      0.00000
     43      13.9573      0.00000
     44      14.4119      0.00000
     45      14.8222      0.00000
     46      14.8813      0.00000
     47      15.2050      0.00000
     48      15.4582      0.00000
     49      15.8112      0.00000
     50      16.2897      0.00000
     51      16.4291      0.00000
     52      17.0337      0.00000

 k-point     9 :      -0.2500    0.5000    0.5000
  band No.  band energies     occupation 
      1     -13.2666      1.00000
      2     -12.9739      1.00000
      3     -12.7250      1.00000
      4     -12.5685      1.00000
      5     -12.5218      1.00000
      6     -12.3747      1.00000
      7     -12.2518      1.00000
      8     -12.2338      1.00000
      9      -0.5385      1.00000
     10      -0.3277      1.00000
     11      -0.2744      1.00000
     12      -0.2051      1.00000
     13       0.0152      1.00000
     14       0.0796      1.00000
     15       0.2143      1.00000
     16       0.7273      1.00000
     17       0.9980      1.00000
     18       1.0320      1.00000
     19       1.1638      1.00000
     20       1.6159      1.00000
     21       1.7042      1.00000
     22       1.8762      1.00000
     23       2.0154      1.00000
     24       2.1902      1.00000
     25       2.3636      1.00000
     26       2.4120      1.00000
     27       2.5249      1.00000
     28       2.5754      1.00000
     29       2.6826      1.00000
     30       2.9252      1.00000
     31       2.9403      1.00000
     32       3.0635      1.00000
     33       9.4833      1.00000
     34      10.2155      0.00000
     35      11.1934      0.00000
     36      11.7198      0.00000
     37      11.9480      0.00000
     38      12.7788      0.00000
     39      13.1377      0.00000
     40      13.2781      0.00000
     41      13.5230      0.00000
     42      13.7266      0.00000
     43      13.9373      0.00000
     44      14.4544      0.00000
     45      14.8231      0.00000
     46      14.8897      0.00000
     47      15.3233      0.00000
     48      15.4257      0.00000
     49      15.8036      0.00000
     50      16.2836      0.00000
     51      16.4048      0.00000
     52      16.9395      0.00000

 k-point    10 :       0.2500    0.5000    0.0000
  band No.  band energies     occupation 
      1     -13.2642      1.00000
      2     -12.9784      1.00000
      3     -12.7307      1.00000
      4     -12.5568      1.00000
      5     -12.5218      1.00000
      6     -12.3816      1.00000
      7     -12.2441      1.00000
      8     -12.2384      1.00000
      9      -0.5223      1.00000
     10      -0.3357      1.00000
     11      -0.2656      1.00000
     12      -0.2227      1.00000
     13       0.0082      1.00000
     14       0.0793      1.00000
     15       0.2163      1.00000
     16       0.7133      1.00000
     17       0.9965      1.00000
     18       1.0450      1.00000
     19       1.1743      1.00000
     20       1.6418      1.00000
     21       1.6922      1.00000
     22       1.8724      1.00000
     23       2.0110      1.00000
     24       2.1862      1.00000
     25       2.3701      1.00000
     26       2.4217      1.00000
     27       2.5209      1.00000
     28       2.5644      1.00000
     29       2.6926      1.00000
     30       2.9292      1.00000
     31       2.9355      1.00000
     32       3.0466      1.00000
     33       9.4889      1.00000
     34      10.1870      0.00000
     35      11.2088      0.00000
     36      11.7794      0.00000
     37      11.8990      0.00000
     38      12.7376      0.00000
     39      13.1034      0.00000
     40      13.2995      0.00000
     41      13.5349      0.00000
     42      13.7925      0.00000
     43      13.8910      0.00000
     44      14.4556      0.00000
     45      14.8474      0.00000
     46      14.9136      0.00000
     47      15.3847      0.00000
     48      15.4746      0.00000
     49      15.7503      0.00000
     50      16.2883      0.00000
     51      16.4191      0.00000
     52      16.9238      0.00000

 k-point    11 :       0.0000    0.5000   -0.2500
  band No.  band energies     occupation 
      1     -13.2646      1.00000
      2     -12.9771      1.00000
      3     -12.7336      1.00000
      4     -12.5550      1.00000
      5     -12.5193      1.00000
      6     -12.3842      1.00000
      7     -12.2448      1.00000
      8     -12.2373      1.00000
      9      -0.5232      1.00000
     10      -0.3418      1.00000
     11      -0.2586      1.00000
     12      -0.2212      1.00000
     13       0.0084      1.00000
     14       0.0803      1.00000
     15       0.2134      1.00000
     16       0.7133      1.00000
     17       0.9962      1.00000
     18       1.0430      1.00000
     19       1.1775      1.00000
     20       1.6356      1.00000
     21       1.6982      1.00000
     22       1.8705      1.00000
     23       2.0114      1.00000
     24       2.1876      1.00000
     25       2.3717      1.00000
     26       2.4230      1.00000
     27       2.5225      1.00000
     28       2.5636      1.00000
     29       2.6885      1.00000
     30       2.9313      1.00000
     31       2.9341      1.00000
     32       3.0456      1.00000
     33       9.4879      1.00000
     34      10.1898      0.00000
     35      11.2023      0.00000
     36      11.7563      0.00000
     37      11.9288      0.00000
     38      12.7524      0.00000
     39      13.1037      0.00000
     40      13.2904      0.00000
     41      13.5150      0.00000
     42      13.7983      0.00000
     43      13.8976      0.00000
     44      14.4474      0.00000
     45      14.8343      0.00000
     46      14.9297      0.00000
     47      15.3873      0.00000
     48      15.4810      0.00000
     49      15.7436      0.00000
     50      16.2925      0.00000
     51      16.4476      0.00000
     52      16.8843      0.00000

[...]
     34      10.7115      0.00000
     35      11.1705      0.00000
     36      11.9074      0.00000
     37      12.0815      0.00000
     38      12.9668      0.00000
     39      13.0654      0.00000
     40      13.2709      0.00000
     41      13.5142      0.00000
     42      13.6954      0.00000
     43      13.9923      0.00000
     44      14.3841      0.00000
     45      14.8593      0.00000
     46      14.9486      0.00000
     47      15.1852      0.00000
     48      15.4228      0.00000
     49      15.8142      0.00000
     50      16.4246      0.00000
     51      16.6618      0.00000
     52      16.8556      0.00000

 k-point    16 :       0.5000    0.2500    0.0000
  band No.  band energies     occupation 
      1     -13.2594      1.00000
      2     -12.9346      1.00000
      3     -12.7355      1.00000
      4     -12.5578      1.00000
      5     -12.4876      1.00000
      6     -12.3466      1.00000
      7     -12.1868      1.00000
      8     -12.1781      1.00000
      9      -0.5121      1.00000
     10      -0.2850      1.00000
     11      -0.2223      1.00000
     12      -0.0955      1.00000
     13       0.0137      1.00000
     14       0.0999      1.00000
     15       0.2279      1.00000
     16       0.7817      1.00000
     17       1.0279      1.00000
     18       1.0664      1.00000
     19       1.1892      1.00000
     20       1.6543      1.00000
     21       1.7204      1.00000
     22       1.8857      1.00000
     23       2.0553      1.00000
     24       2.2362      1.00000
     25       2.3981      1.00000
     26       2.4152      1.00000
     27       2.5750      1.00000
     28       2.6134      1.00000
     29       2.7124      1.00000
     30       2.9353      1.00000
     31       2.9925      1.00000
     32       3.1036      1.00000
     33       9.8612      0.71218
     34      10.7292      0.00000
     35      11.1789      0.00000
     36      11.8903      0.00000
     37      12.0651      0.00000
     38      12.9589      0.00000
     39      13.0854      0.00000
     40      13.2507      0.00000
     41      13.5174      0.00000
     42      13.7119      0.00000
     43      13.9802      0.00000
     44      14.3886      0.00000
     45      14.8576      0.00000
     46      14.9545      0.00000
     47      15.1733      0.00000
     48      15.4325      0.00000
     49      15.8013      0.00000
     50      16.4252      0.00000
     51      16.6728      0.00000
     52      16.8569      0.00000


--------------------------------------------------------------------------------------------------------


 soft charge-density along one line, spin component           1
         0         1         2         3         4         5         6         7         8         9
 total charge-density along one line
 
 soft charge-density along one line, spin component           2
         0         1         2         3         4         5         6         7         8         9
 total charge-density along one line
 
 pseudopotential strength for first ion, spin component:           1
  3.015   9.572  -0.000  -0.000   0.000   0.000  -0.000  -0.000
  9.572  30.246   0.000  -0.001  -0.000   0.001  -0.002  -0.001
 -0.000   0.000   7.457  -0.000  -0.000  10.786  -0.000  -0.000
 -0.000  -0.001  -0.000   7.457   0.001  -0.000  10.786   0.001
  0.000  -0.000  -0.000   0.001   7.457  -0.000   0.001  10.786
  0.000   0.001  10.786  -0.000  -0.000  14.827  -0.000  -0.000
 -0.000  -0.002  -0.000  10.786   0.001  -0.000  14.827   0.002
 -0.000  -0.001  -0.000   0.001  10.786  -0.000   0.002  14.827
 -0.000  -0.000  -0.000  -0.007   0.001  -0.001  -0.008   0.001
 -0.000  -0.000  -0.001   0.001  -0.007  -0.001   0.001  -0.008
  0.000   0.000  -0.001  -0.001   0.000  -0.001  -0.001   0.000
  0.001   0.002  -0.007  -0.000  -0.000  -0.008  -0.000  -0.000
  0.000   0.000  -0.001   0.000  -0.001  -0.002   0.000  -0.001
 pseudopotential strength for first ion, spin component:           2
  3.015   9.574  -0.000  -0.000   0.000  -0.000  -0.000  -0.000
  9.574  30.250  -0.000  -0.001  -0.000   0.000  -0.001  -0.001
 -0.000  -0.000   7.457  -0.000  -0.000  10.787  -0.000  -0.000
 -0.000  -0.001  -0.000   7.457   0.001  -0.000  10.787   0.001
  0.000  -0.000  -0.000   0.001   7.457  -0.000   0.001  10.787
 -0.000   0.000  10.787  -0.000  -0.000  14.829  -0.001  -0.000
 -0.000  -0.001  -0.000  10.787   0.001  -0.001  14.829   0.003
 -0.000  -0.001  -0.000   0.001  10.787  -0.000   0.003  14.829
 -0.000  -0.000  -0.000  -0.007   0.000  -0.000  -0.008   0.000
 -0.000  -0.001  -0.001   0.001  -0.007  -0.001   0.000  -0.008
  0.000   0.000  -0.001  -0.001   0.000  -0.001  -0.001   0.000
  0.001   0.002  -0.007  -0.000  -0.000  -0.008  -0.000  -0.000
  0.000   0.000  -0.001   0.000  -0.001  -0.001   0.000  -0.001
 total augmentation occupancy for first ion, spin component:           1
  1.912  -0.079  -0.010   0.003   0.004  -0.000  -0.000   0.000   0.000   0.001   0.000  -0.002   0.000
 -0.079   0.005  -0.001   0.000   0.000   0.000  -0.000  -0.000  -0.000  -0.001  -0.000   0.001  -0.000
 -0.010  -0.001   0.209   0.003   0.002  -0.020  -0.000  -0.000   0.000  -0.000  -0.003   0.064  -0.006
  0.003   0.000   0.003   0.210  -0.009  -0.000  -0.020   0.001   0.065  -0.001  -0.002   0.001   0.001
  0.004   0.000   0.002  -0.009   0.209  -0.000   0.001  -0.020  -0.002   0.065   0.002   0.002  -0.002
 -0.000   0.000  -0.020  -0.000  -0.000   0.002   0.000   0.000  -0.000   0.000   0.000  -0.007   0.001
 -0.000  -0.000  -0.000  -0.020   0.001   0.000   0.002  -0.000  -0.007   0.000   0.000  -0.000  -0.000
  0.000  -0.000  -0.000   0.001  -0.020   0.000  -0.000   0.002   0.000  -0.007  -0.000  -0.000   0.000
  0.000  -0.000   0.000   0.065  -0.002  -0.000  -0.007   0.000   0.066   0.001  -0.001  -0.001   0.000
  0.001  -0.001  -0.000  -0.001   0.065   0.000   0.000  -0.007   0.001   0.067   0.001  -0.001  -0.001
  0.000  -0.000  -0.003  -0.002   0.002   0.000   0.000  -0.000  -0.001   0.001   0.032  -0.002   0.000
 -0.002   0.001   0.064   0.001   0.002  -0.007  -0.000  -0.000  -0.001  -0.001  -0.002   0.068  -0.004
  0.000  -0.000  -0.006   0.001  -0.002   0.001  -0.000   0.000   0.000  -0.001   0.000  -0.004   0.032
 total augmentation occupancy for first ion, spin component:           2
 -0.037  -0.001   0.005  -0.002  -0.002  -0.000   0.000   0.000   0.002   0.002   0.000  -0.005   0.000
 -0.001  -0.000   0.000  -0.000  -0.000   0.000  -0.000  -0.000   0.000   0.000   0.000  -0.000   0.000
  0.005   0.000  -0.001   0.000   0.000   0.000  -0.000  -0.000  -0.000  -0.000  -0.000   0.000  -0.000
 -0.002  -0.000   0.000  -0.000  -0.000  -0.000   0.000   0.000  -0.000   0.000  -0.000  -0.000   0.000
 -0.002  -0.000   0.000  -0.000  -0.000  -0.000   0.000   0.000   0.000  -0.000   0.000  -0.000  -0.000
 -0.000   0.000   0.000  -0.000  -0.000  -0.000   0.000   0.000   0.000   0.000   0.000  -0.000   0.000
  0.000  -0.000  -0.000   0.000   0.000   0.000  -0.000  -0.000  -0.000  -0.000   0.000   0.000  -0.000
  0.000  -0.000  -0.000   0.000   0.000   0.000  -0.000  -0.000  -0.000  -0.000  -0.000   0.000   0.000
  0.002   0.000  -0.000  -0.000   0.000   0.000  -0.000  -0.000   0.000   0.000  -0.000   0.000  -0.000
  0.002   0.000  -0.000   0.000  -0.000   0.000  -0.000  -0.000   0.000   0.000  -0.000   0.000  -0.000
  0.000   0.000  -0.000  -0.000   0.000   0.000   0.000  -0.000  -0.000  -0.000  -0.000   0.000  -0.000
 -0.005  -0.000   0.000  -0.000  -0.000  -0.000   0.000   0.000   0.000   0.000   0.000   0.000  -0.000
  0.000   0.000  -0.000   0.000  -0.000   0.000  -0.000   0.000  -0.000  -0.000  -0.000  -0.000  -0.000


------------------------ aborting loop because EDIFF is reached ----------------------------------------


 


 total charge     
 
# of ion     s       p       d       tot
----------------------------------------
  1        0.286   0.319   0.145   0.750
  2        0.230   0.206   0.087   0.524
  3        0.219   0.205   0.086   0.509
  4        0.245   0.208   0.088   0.541
  5        0.158   0.183   0.081   0.423
  6        0.217   0.204   0.086   0.507
  7        0.162   0.195   0.089   0.446
  8        0.159   0.184   0.082   0.425
  9        0.160   0.189   0.085   0.434
 10        1.596   3.543   0.000   5.139
 11        1.599   3.546   0.000   5.145
 12        1.594   3.541   0.000   5.135
 13        1.596   3.595   0.000   5.190
 14        1.599   3.546   0.000   5.146
 15        1.595   3.593   0.000   5.188
 16        1.596   3.594   0.000   5.190
 17        1.596   3.593   0.000   5.189
------------------------------------------------
tot       14.607  30.445   0.828  45.880
 


 magnetization (x)
 
# of ion     s       p       d       tot
----------------------------------------
  1       -0.007  -0.001   0.000  -0.008
  2        0.016   0.015   0.010   0.040
  3        0.017   0.015   0.009   0.041
  4        0.013   0.013   0.010   0.036
  5       -0.001   0.001   0.001   0.001
  6        0.017   0.015   0.009   0.041
  7       -0.001   0.001   0.000   0.000
  8       -0.001   0.001   0.001   0.001
  9       -0.001   0.001   0.001   0.001
 10       -0.004  -0.004   0.000  -0.008
 11       -0.005  -0.004   0.000  -0.009
 12       -0.003  -0.003   0.000  -0.006
 13        0.008   0.030   0.000   0.039
 14       -0.005  -0.004   0.000  -0.010
 15        0.008   0.032   0.000   0.040
 16        0.008   0.030   0.000   0.039
 17        0.008   0.031   0.000   0.039
------------------------------------------------
tot        0.066   0.170   0.041   0.277
 
    CHARGE:  cpu time    0.0200: real time    0.0208
    FORLOC:  cpu time    0.0000: real time    0.0007
    FORNL :  cpu time    0.1280: real time    0.1280
    STRESS:  cpu time    0.4000: real time    0.4017
    FORCOR:  cpu time    0.0080: real time    0.0085
    FORHAR:  cpu time    0.0000: real time    0.0014
    MIXING:  cpu time    0.0000: real time    0.0006
    OFIELD:  cpu time    0.0000: real time    0.0000

  FORCE on cell =-STRESS in cart. coord.  units (eV):
  Direction    XX          YY          ZZ          XY          YZ          ZX
  --------------------------------------------------------------------------------------
  Alpha Z   167.07285   167.07285   167.07285
  Ewald    -968.22720  -969.87024  -967.79674     0.94709     1.06675    -2.81776
  Hartree   383.00184   382.49944   383.17932    -0.25499    -0.55950     1.73296
  E(xc)    -301.15661  -301.13418  -301.15851     0.00607     0.00987    -0.02242
  Local    -338.38690  -336.39005  -338.94815    -0.71954    -0.61521     1.50266
  n-local  -127.03734  -127.17963  -127.02607    -0.03486    -0.05259     0.14018
  augment    53.67808    53.67997    53.67804     0.01020     0.01365    -0.03211
  Kinetic  1161.45624  1161.33031  1161.47423    -0.04246    -0.04105     0.14679
  Fock        0.00000     0.00000     0.00000     0.00000     0.00000     0.00000
  -------------------------------------------------------------------------------------
  Total      30.40096    30.00847    30.47497    -0.08848    -0.17808     0.65031
  in kB     317.94640   313.84158   318.72047    -0.92538    -1.86242     6.80124
  external pressure =      316.84 kB  Pullay stress =        0.00 kB


 VOLUME and BASIS-vectors are now :
 -----------------------------------------------------------------------------
  energy-cutoff  :      400.00
  volume of cell :      153.19
      direct lattice vectors                 reciprocal lattice vectors
     0.000000000  4.246893000  4.246893000    -0.117733129  0.117733129  0.117733129
     4.246893000  0.000000000  4.246893000     0.117733129 -0.117733129  0.117733129
     4.246893000  4.246893000  0.000000000     0.117733129  0.117733129 -0.117733129

  length of vectors
     6.006013679  6.006013679  6.006013679     0.203919761  0.203919761  0.203919761


 FORCES acting on ions
    electron-ion (+dipol)            ewald-force                    non-local-force                 convergence-correction
 -----------------------------------------------------------------------------------------------
   -.120E+01 0.290E+01 -.761E+00   0.129E+01 -.306E+01 0.852E+00   -.791E-01 0.187E+00 -.800E-01   0.124E-04 -.412E-04 0.811E-05
   -.485E+01 -.593E+01 -.505E+01   0.266E+01 0.357E+01 0.285E+01   0.220E+01 0.239E+01 0.222E+01   -.464E-04 -.889E-04 -.502E-04
   0.358E+01 0.411E+01 -.442E+01   -.144E+01 -.190E+01 0.218E+01   -.213E+01 -.221E+01 0.224E+01   0.901E-04 0.430E-04 -.747E-04
   0.693E+01 -.566E+01 0.647E+01   -.469E+01 0.349E+01 -.429E+01   -.225E+01 0.216E+01 -.218E+01   0.517E-04 -.786E-04 0.481E-04
   0.595E+01 -.552E+01 -.647E+01   -.523E+01 0.490E+01 0.569E+01   -.732E+00 0.618E+00 0.808E+00   0.281E-04 0.276E-05 -.483E-04
   -.418E+01 0.313E+01 0.398E+01   0.195E+01 -.104E+01 -.179E+01   0.222E+01 -.209E+01 -.219E+01   -.743E-04 0.463E-04 0.889E-04
   -.429E+01 0.515E+01 -.402E+01   0.381E+01 -.458E+01 0.359E+01   0.490E+00 -.589E+00 0.436E+00   0.559E-05 0.266E-04 0.103E-04
   -.646E+01 -.523E+01 0.580E+01   0.569E+01 0.464E+01 -.510E+01   0.789E+00 0.589E+00 -.719E+00   -.477E-04 0.740E-05 0.278E-04
   0.460E+01 0.628E+01 0.474E+01   -.409E+01 -.553E+01 -.421E+01   -.515E+00 -.775E+00 -.551E+00   -.950E-05 0.483E-04 -.499E-05
   -.433E+01 0.411E+01 -.339E+01   0.718E+01 -.167E+01 0.621E+01   -.283E+01 -.244E+01 -.281E+01   0.329E-03 0.608E-03 0.360E-03
   -.583E+01 0.460E+01 0.672E+00   0.384E+01 -.758E+01 0.193E+01   0.201E+01 0.297E+01 -.263E+01   -.612E-03 -.333E-03 0.530E-03
   0.471E+01 -.349E+00 0.495E+01   -.784E+01 0.290E+01 -.794E+01   0.312E+01 -.258E+01 0.298E+01   -.348E-03 0.470E-03 -.314E-03
   -.113E+02 0.861E+01 0.149E+02   0.102E+02 -.729E+01 -.138E+02   0.115E+01 -.133E+01 -.112E+01   0.389E-03 -.503E-03 -.373E-03
   0.635E+00 0.315E+01 -.587E+01   0.197E+01 -.588E+01 0.382E+01   -.264E+01 0.274E+01 0.207E+01   0.526E-03 -.354E-03 -.615E-03
   0.942E+01 -.123E+02 0.858E+01   -.834E+01 0.110E+02 -.740E+01   -.107E+01 0.130E+01 -.119E+01   -.534E-03 0.423E-03 -.553E-03
   0.150E+02 0.832E+01 -.112E+02   -.138E+02 -.711E+01 0.101E+02   -.121E+01 -.120E+01 0.118E+01   -.375E-03 -.537E-03 0.396E-03
   -.820E+01 -.160E+02 -.864E+01   0.691E+01 0.151E+02 0.737E+01   0.129E+01 0.862E+00 0.128E+01   0.553E-03 0.405E-03 0.530E-03
 -----------------------------------------------------------------------------------------------
   0.166E+00 -.600E+00 0.255E+00   -.213E-13 0.355E-14 -.888E-15   -.172E+00 0.603E+00 -.252E+00   -.621E-04 0.146E-03 -.345E-04
 
 
 POSITION                                       TOTAL-FORCE (eV/Angst)
 -----------------------------------------------------------------------------------
      1.06414      1.01523      1.06201         0.004486      0.030153      0.011398
      8.28771      8.29138      8.29084         0.008638      0.025152      0.016788
      6.51874      6.56486      8.29595         0.011645     -0.004365      0.004066
      6.57995      8.30533      6.57536        -0.009501     -0.014947     -0.001105
      4.23384      2.13589      2.10341        -0.013580     -0.003123      0.022625
      8.29213      6.54707      6.53443        -0.004376      0.008952      0.003019
      6.33326      4.27445      6.34214         0.017573     -0.012664      0.000660
      6.34380      6.37921      4.24265         0.019394      0.003106     -0.017402
      4.23664      4.27408      4.24491        -0.008423     -0.032484     -0.014754
      2.10881      2.17244      2.11997         0.015190      0.002917      0.001863
      4.16149      4.25394      2.14448         0.014266     -0.018760     -0.027036
      4.23917      2.15535      4.24197        -0.009695     -0.022149     -0.008582
      6.28116      4.33594      4.31186         0.008407     -0.011114     -0.034765
      2.13981      4.23814      4.16887        -0.037891      0.010953      0.025605
      4.29576      6.30337      4.30768         0.008344      0.020870     -0.000213
      4.30870      4.33162      6.28717        -0.036688     -0.001235      0.007312
      6.27487      6.31351      6.28265         0.012210      0.018737      0.010521
 -----------------------------------------------------------------------------------
    total drift:                               -0.006057      0.002525      0.003295


--------------------------------------------------------------------------------------------------------



  FREE ENERGIE OF THE ION-ELECTRON SYSTEM (eV)
  ---------------------------------------------------
  free  energy   TOTEN  =       -82.96983067 eV

  energy  without entropy=      -82.96027351  energy(sigma->0) =      -82.96505209
 


--------------------------------------------------------------------------------------------------------


    POTLOK:  cpu time    0.3840: real time    0.3815


--------------------------------------------------------------------------------------------------------




--------------------------------------------------------------------------------------------------------


  
 reached required accuracy - stopping structural energy minimisation
     LOOP+:  cpu time   17.9440: real time   18.0191
    4ORBIT:  cpu time    0.0000: real time    0.0000
 


 total charge     
 
# of ion     s       p       d       tot
----------------------------------------
  1        0.286   0.319   0.145   0.750
  2        0.230   0.206   0.087   0.524
  3        0.219   0.205   0.086   0.509
  4        0.245   0.208   0.088   0.541
  5        0.158   0.183   0.081   0.423
  6        0.217   0.204   0.086   0.507
  7        0.162   0.195   0.089   0.446
  8        0.159   0.184   0.082   0.425
  9        0.160   0.189   0.085   0.434
 10        1.596   3.543   0.000   5.139
 11        1.599   3.546   0.000   5.145
 12        1.594   3.541   0.000   5.135
 13        1.596   3.595   0.000   5.190
 14        1.599   3.546   0.000   5.146
 15        1.595   3.593   0.000   5.188
 16        1.596   3.594   0.000   5.190
 17        1.596   3.593   0.000   5.189
------------------------------------------------
tot       14.607  30.445   0.828  45.880
 


 magnetization (x)
 
# of ion     s       p       d       tot
----------------------------------------
  1       -0.007  -0.001   0.000  -0.008
  2        0.016   0.015   0.010   0.040
  3        0.017   0.015   0.009   0.041
  4        0.013   0.013   0.010   0.036
  5       -0.001   0.001   0.001   0.001
  6        0.017   0.015   0.009   0.041
  7       -0.001   0.001   0.000   0.000
  8       -0.001   0.001   0.001   0.001
  9       -0.001   0.001   0.001   0.001
 10       -0.004  -0.004   0.000  -0.008
 11       -0.005  -0.004   0.000  -0.009
 12       -0.003  -0.003   0.000  -0.006
 13        0.008   0.030   0.000   0.039
 14       -0.005  -0.004   0.000  -0.010
 15        0.008   0.032   0.000   0.040
 16        0.008   0.030   0.000   0.039
 17        0.008   0.031   0.000   0.039
------------------------------------------------
tot        0.066   0.170   0.041   0.277
 

 total amount of memory used by VASP on root node    34494. kBytes
========================================================================

   base      :      30000. kBytes
   nonlr-proj:        963. kBytes
   fftplans  :        353. kBytes
   grid      :        883. kBytes
   one-center:         32. kBytes
   wavefun   :       2263. kBytes
 
  
  
 General timing and accounting informations for this job:
 ========================================================
  
                  Total CPU time used (sec):       19.396
                            User time (sec):       19.144
                          System time (sec):        0.252
                         Elapsed time (sec):       19.784
  
                   Maximum memory used (kb):       84116.
                   Average memory used (kb):           0.
  
                          Minor page faults:        17635
                          Major page faults:           10
                 Voluntary context switches:         2291
