<?xml version="1.0" encoding="ISO-8859-1"?>
<modeling>
 <generator>
  <i name="program" type="string">vasp </i>
  <i name="version" type="string">5.4.1  </i>
  <i name="subversion" type="string">05Feb16 (build Mar 31 2016 13:39:20) complex                          parallel </i>
  <i name="platform" type="string">IFC91_ompi </i>
  <i name="date" type="string">2018 04 28 </i>
  <i name="time" type="string">12:52:04 </i>
 </generator>
 <incar>
  <i type="string" name="PREC">n</i>
  <i type="string" name="ALGO"> N</i>
  <i type="int" name="ISPIN">     2</i>
  <i type="int" name="NELM">   100</i>
  <i type="int" name="NELMIN">     4</i>
  <i type="int" name="IBRION">     2</i>
  <i name="EDIFF">      0.00000100</i>
  <i name="EDIFFG">     -0.05000000</i>
  <i type="int" name="NSW">    20</i>
  <i type="int" name="ISIF">     2</i>
  <i name="ENCUT">    400.00000000</i>
  <i name="NELECT">     66.00000000</i>
  <i type="string" name="LREAL"> A</i>
  <i type="int" name="ISMEAR">     0</i>
  <i name="SIGMA">      0.05000000</i>
  <i type="logical" name="LWAVE"> F  </i>
  <i type="logical" name="LCHARG"> F  </i>
  <i type="logical" name="LORBIT"> F  </i>
  <i type="logical" name="LASPH"> T  </i>
  <v type="int" name="KPOINT_BSE">    -1     0     0     0</v>
  <i type="int" name="NELM">   100</i>
  <i type="logical" name="LASPH"> T  </i>
 </incar>
 <kpoints>
  <generation param="Gamma">
   <v type="int" name="divisions">       2        2        2 </v>
   <v name="usershift">      0.00000000       0.00000000       0.00000000 </v>
   <v name="genvec1">      0.50000000       0.00000000       0.00000000 </v>
   <v name="genvec2">      0.00000000       0.50000000       0.00000000 </v>
   <v name="genvec3">      0.00000000       0.00000000       0.50000000 </v>
   <v name="shift">      0.00000000       0.00000000       0.00000000 </v>
  </generation>
  <varray name="kpointlist" >
   <v>       0.00000000       0.00000000       0.00000000 </v>
   <v>       0.50000000       0.00000000       0.00000000 </v>
   <v>       0.00000000       0.50000000       0.00000000 </v>
   <v>       0.50000000       0.50000000       0.00000000 </v>
   <v>       0.00000000       0.00000000       0.50000000 </v>
   <v>       0.50000000       0.00000000       0.50000000 </v>
   <v>       0.00000000       0.50000000       0.50000000 </v>
   <v>       0.50000000       0.50000000       0.50000000 </v>
  </varray>
  <varray name="weights" >
   <v>       0.12500000 </v>
   <v>       0.12500000 </v>
   <v>       0.12500000 </v>
   <v>       0.12500000 </v>
   <v>       0.12500000 </v>
   <v>       0.12500000 </v>
   <v>       0.12500000 </v>
   <v>       0.12500000 </v>
  </varray>
 </kpoints>
 <parameters>
  <separator name="general" >
   <i type="string" name="SYSTEM">unknown system</i>
   <i type="logical" name="LCOMPAT"> F  </i>
  </separator>
  <separator name="electronic" >
   <i type="string" name="PREC">n</i>
   <i name="ENMAX">    400.00000000</i>
   <i name="ENAUG">    605.39200000</i>
   <i name="EDIFF">      0.00000100</i>
   <i type="int" name="IALGO">    38</i>
   <i type="int" name="IWAVPR">    11</i>
   <i type="int" name="NBANDS">    52</i>
   <i name="NELECT">     66.00000000</i>
   <i type="int" name="TURBO">     0</i>
   <i type="int" name="IRESTART">     0</i>
   <i type="int" name="NREBOOT">     0</i>
   <i type="int" name="NMIN">     0</i>
   <i name="EREF">      0.00000000</i>
   <separator name="electronic smearing" >
    <i type="int" name="ISMEAR">     0</i>
    <i name="SIGMA">      0.05000000</i>
    <i name="KSPACING">      0.50000000</i>
    <i type="logical" name="KGAMMA"> T  </i>
   </separator>
   <separator name="electronic projectors" >
    <i type="logical" name="LREAL"> T  </i>
    <v name="ROPT">     -0.00050000     -0.00050000</v>
    <i type="int" name="LMAXPAW">  -100</i>
    <i type="int" name="LMAXMIX">     2</i>
    <i type="logical" name="NLSPLINE"> F  </i>
   </separator>
   <separator name="electronic startup" >
    <i type="int" name="ISTART">     0</i>
    <i type="int" name="ICHARG">     2</i>
    <i type="int" name="INIWAV">     1</i>
   </separator>
   <separator name="electronic spin" >
    <i type="int" name="ISPIN">     2</i>
    <i type="logical" name="LNONCOLLINEAR"> F  </i>
    <v name="MAGMOM">      1.00000000      1.00000000      1.00000000      1.00000000      1.00000000      1.00000000      1.00000000      1.00000000      1.00000000      1.00000000      1.00000000      1.00000000      1.00000000      1.00000000      1.00000000      1.00000000      1.00000000</v>
    <i name="NUPDOWN">     -1.00000000</i>
    <i type="logical" name="LSORBIT"> F  </i>
    <v name="SAXIS">      0.00000000      0.00000000      1.00000000</v>
    <i type="logical" name="LSPIRAL"> F  </i>
    <v name="QSPIRAL">      0.00000000      0.00000000      0.00000000</v>
    <i type="logical" name="LZEROZ"> F  </i>
   </separator>
   <separator name="electronic exchange-correlation" >
    <i type="logical" name="LASPH"> T  </i>
    <i type="logical" name="LMETAGGA"> F  </i>
   </separator>
   <separator name="electronic convergence" >
    <i type="int" name="NELM">   100</i>
    <i type="int" name="NELMDL">     0</i>
    <i type="int" name="NELMIN">     4</i>
    <i name="ENINI">    400.00000000</i>
    <separator name="electronic convergence detail" >
     <i type="logical" name="LDIAG"> T  </i>
     <i type="logical" name="LSUBROT"> F  </i>
     <i name="WEIMIN">      0.00100000</i>
     <i name="EBREAK">      0.00000000</i>
     <i name="DEPER">      0.30000000</i>
     <i type="int" name="NRMM">     4</i>
     <i name="TIME">      0.40000000</i>
    </separator>
   </separator>
   <separator name="electronic mixer" >
    <i name="AMIX">      0.40000000</i>
    <i name="BMIX">      1.00000000</i>
    <i name="AMIN">      0.10000000</i>
    <i name="AMIX_MAG">      1.60000000</i>
    <i name="BMIX_MAG">      1.00000000</i>
    <separator name="electronic mixer details" >
     <i type="int" name="IMIX">     4</i>
     <i type="logical" name="MIXFIRST"> F  </i>
     <i type="int" name="MAXMIX">   -45</i>
     <i name="WC">    100.00000000</i>
     <i type="int" name="INIMIX">     1</i>
     <i type="int" name="MIXPRE">     1</i>
     <i type="int" name="MREMOVE">     5</i>
    </separator>
   </separator>
   <separator name="electronic dipolcorrection" >
    <i type="logical" name="LDIPOL"> F  </i>
    <i type="logical" name="LMONO"> F  </i>
    <i type="int" name="IDIPOL">     0</i>
    <i name="EPSILON">      1.00000000</i>
    <v name="DIPOL">   -100.00000000   -100.00000000   -100.00000000</v>
    <i name="EFIELD">      0.00000000</i>
   </separator>
  </separator>
  <separator name="grids" >
   <i type="int" name="NGX">    30</i>
   <i type="int" name="NGY">    30</i>
   <i type="int" name="NGZ">    30</i>
   <i type="int" name="NGXF">    60</i>
   <i type="int" name="NGYF">    60</i>
   <i type="int" name="NGZF">    60</i>
   <i type="logical" name="ADDGRID"> F  </i>
  </separator>
  <separator name="ionic" >
   <i type="int" name="NSW">    20</i>
   <i type="int" name="IBRION">     2</i>
   <i type="int" name="ISIF">     2</i>
   <i name="PSTRESS">      0.00000000</i>
   <i name="EDIFFG">     -0.05000000</i>
   <i type="int" name="NFREE">     1</i>
   <i name="POTIM">      0.50000000</i>
   <i name="SMASS">     -3.00000000</i>
   <i name="SCALEE">      1.00000000</i>
  </separator>
  <separator name="ionic md" >
   <i name="TEBEG">      0.00010000</i>
   <i name="TEEND">      0.00010000</i>
   <i type="int" name="NBLOCK">     1</i>
   <i type="int" name="KBLOCK">    20</i>
   <i type="int" name="NPACO">   256</i>
   <i name="APACO">     16.00000000</i>
  </separator>
  <separator name="symmetry" >
   <i type="int" name="ISYM">     2</i>
   <i name="SYMPREC">      0.00001000</i>
  </separator>
  <separator name="dos" >
   <i type="logical" name="LORBIT"> F  </i>
   <v name="RWIGS">     -1.00000000     -1.00000000</v>
   <i type="int" name="NEDOS">   301</i>
   <i name="EMIN">     10.00000000</i>
   <i name="EMAX">    -10.00000000</i>
   <i name="EFERMI">      0.00000000</i>
  </separator>
  <separator name="writing" >
   <i type="int" name="NWRITE">     2</i>
   <i type="logical" name="LWAVE"> F  </i>
   <i type="logical" name="LCHARG"> F  </i>
   <i type="logical" name="LPARD"> F  </i>
   <i type="logical" name="LVTOT"> F  </i>
   <i type="logical" name="LVHAR"> F  </i>
   <i type="logical" name="LELF"> F  </i>
   <i type="logical" name="LOPTICS"> F  </i>
   <v name="STM">      0.00000000      0.00000000      0.00000000      0.00000000      0.00000000      0.00000000      0.00000000</v>
  </separator>
  <separator name="performance" >
   <i type="int" name="NPAR">     4</i>
   <i type="int" name="NSIM">     4</i>
   <i type="int" name="NBLK">    -1</i>
   <i type="logical" name="LPLANE"> T  </i>
   <i type="logical" name="LSCALAPACK"> T  </i>
   <i type="logical" name="LSCAAWARE"> F  </i>
   <i type="logical" name="LSCALU"> F  </i>
   <i type="logical" name="LASYNC"> F  </i>
   <i type="logical" name="LORBITALREAL"> F  </i>
  </separator>
  <separator name="miscellaneous" >
   <i type="int" name="IDIOT">     3</i>
   <i type="logical" name="LMUSIC"> F  </i>
   <v name="POMASS">     24.30500000     16.00000000</v>
   <v name="DARWINR">      0.00000000      0.00000000</v>
   <v name="DARWINV">      1.00000000      1.00000000</v>
   <i type="logical" name="LCORR"> T  </i>
  </separator>
  <i type="logical" name="GGA_COMPAT"> T  </i>
  <i type="logical" name="LBERRY"> F  </i>
  <i type="int" name="ICORELEVEL">     0</i>
  <i type="logical" name="LDAU"> F  </i>
  <i type="int" name="I_CONSTRAINED_M">     0</i>
  <separator name="electronic exchange-correlation" >
   <i type="string" name="GGA">--</i>
   <i type="int" name="VOSKOWN">     0</i>
   <i type="logical" name="LHFCALC"> F  </i>
   <i type="string" name="PRECFOCK"></i>
   <i type="logical" name="LSYMGRAD"> F  </i>
   <i type="logical" name="LHFONE"> F  </i>
   <i type="logical" name="LRHFCALC"> F  </i>
   <i type="logical" name="LTHOMAS"> F  </i>
   <i type="logical" name="LMODELHF"> F  </i>
   <i name="ENCUT4O">     -1.00000000</i>
   <i type="int" name="EXXOEP">     0</i>
   <i type="int" name="FOURORBIT">     0</i>
   <i name="AEXX">      0.00000000</i>
   <i name="HFALPHA">      0.00000000</i>
   <i name="MCALPHA">      0.00000000</i>
   <i name="ALDAX">      1.00000000</i>
   <i name="AGGAX">      1.00000000</i>
   <i name="ALDAC">      1.00000000</i>
   <i name="AGGAC">      1.00000000</i>
   <i type="int" name="NKREDX">     1</i>
   <i type="int" name="NKREDY">     1</i>
   <i type="int" name="NKREDZ">     1</i>
   <i type="logical" name="SHIFTRED"> F  </i>
   <i type="logical" name="ODDONLY"> F  </i>
   <i type="logical" name="EVENONLY"> F  </i>
   <i type="int" name="LMAXFOCK">     0</i>
   <i type="int" name="NMAXFOCKAE">     0</i>
   <i type="logical" name="LFOCKAEDFT"> F  </i>
   <i name="HFSCREEN">      0.00000000</i>
   <i name="HFSCREENC">      0.00000000</i>
   <i type="int" name="NBANDSGWLOW">     0</i>
  </separator>
  <separator name="vdW DFT" >
   <i type="logical" name="LUSE_VDW"> F  </i>
   <i name="Zab_VDW">     -0.84910000</i>
   <i name="PARAM1">      0.12340000</i>
   <i name="PARAM2">      1.00000000</i>
   <i name="PARAM3">      0.00000000</i>
  </separator>
  <separator name="model GW" >
   <i type="int" name="MODEL_GW">     0</i>
   <i name="MODEL_EPS0">      5.40687441</i>
   <i name="MODEL_ALPHA">      1.00000000</i>
  </separator>
  <separator name="linear response parameters" >
   <i type="logical" name="LEPSILON"> F  </i>
   <i type="logical" name="LRPA"> F  </i>
   <i type="logical" name="LNABLA"> F  </i>
   <i type="logical" name="LVEL"> F  </i>
   <i type="int" name="KINTER">     0</i>
   <i name="CSHIFT">      0.10000000</i>
   <i name="OMEGAMAX">     -1.00000000</i>
   <i name="DEG_THRESHOLD">      0.00200000</i>
  </separator>
  <separator name="orbital magnetization" >
   <i type="logical" name="NUCIND"> F  </i>
   <v name="MAGPOS">      0.00000000      0.00000000      0.00000000</v>
   <i type="logical" name="LNICSALL"> T  </i>
   <i type="logical" name="ORBITALMAG"> F  </i>
   <i type="logical" name="LMAGBLOCH"> F  </i>
   <i type="logical" name="LCHIMAG"> F  </i>
   <i type="logical" name="LGAUGE"> T  </i>
   <i type="int" name="MAGATOM">     0</i>
   <v name="MAGDIPOL">      0.00000000      0.00000000      0.00000000</v>
   <v name="AVECCONST">      0.00000000      0.00000000      0.00000000</v>
  </separator>
  <separator name="response functions" >
   <i type="logical" name="LADDER"> F  </i>
   <i type="logical" name="LFXC"> F  </i>
   <i type="logical" name="LHARTREE"> T  </i>
   <i type="int" name="IBSE">     0</i>
   <v type="int" name="KPOINT">    -1     0     0     0</v>
   <i type="logical" name="LTCTE"> F  </i>
   <i type="logical" name="LTETE"> F  </i>
   <i type="logical" name="LTRIPLET"> F  </i>
   <i type="logical" name="LFXCEPS"> F  </i>
   <i type="logical" name="LFXHEG"> F  </i>
   <i type="int" name="NATURALO">     0</i>
   <i type="logical" name="L2ORDER"> F  </i>
   <i type="logical" name="LUSEW"> F  </i>
   <i name="ENCUTGW">     -2.00000000</i>
   <i name="ENCUTGWSOFT">     -2.00000000</i>
   <i name="ENCUTLF">     -1.00000000</i>
   <i type="int" name="LMAXMP2">    -1</i>
   <i name="SCISSOR">      0.00000000</i>
   <i type="int" name="NOMEGA">     0</i>
   <i type="int" name="NOMEGAR">     0</i>
   <i type="int" name="NBANDSGW">    -1</i>
   <i type="int" name="NBANDSO">    -1</i>
   <i type="int" name="NBANDSV">    -1</i>
   <i type="int" name="NELM">   100</i>
   <i type="int" name="NELMHF">     1</i>
   <i type="int" name="DIM">     3</i>
   <i type="int" name="ANTIRES">     0</i>
   <i name="OMEGAMAX">    -30.00000000</i>
   <i name="OMEGAMIN">    -30.00000000</i>
   <i name="OMEGATL">   -200.00000000</i>
   <i type="int" name="OMEGAGRID">     0</i>
   <i name="CSHIFT">     -0.10000000</i>
   <i type="logical" name="SELFENERGY"> F  </i>
   <i type="logical" name="LSPECTRAL"> F  </i>
   <i type="logical" name="LSPECTRALGW"> F  </i>
   <i type="logical" name="LSINGLES"> F  </i>
   <i type="logical" name="LFERMIGW"> F  </i>
   <i type="logical" name="ODDONLYGW"> F  </i>
   <i type="logical" name="EVENONLYGW"> F  </i>
   <i type="int" name="NKREDLFX">     1</i>
   <i type="int" name="NKREDLFY">     1</i>
   <i type="int" name="NKREDLFZ">     1</i>
   <i type="int" name="MAXMEM">  1800</i>
   <i type="int" name="TELESCOPE">     0</i>
   <i type="int" name="TAUPAR">     1</i>
   <i type="int" name="OMEGAPAR">    -1</i>
   <i name="LAMBDA">      1.00000000</i>
  </separator>
  <separator name="External order field" >
   <i name="OFIELD_KAPPA">      0.00000000</i>
   <v name="OFIELD_K">      0.00000000      0.00000000      0.00000000</v>
   <i name="OFIELD_Q6_NEAR">      0.00000000</i>
   <i name="OFIELD_Q6_FAR">      0.00000000</i>
   <i name="OFIELD_A">      0.00000000</i>
  </separator>
 </parameters>
 <atominfo>
  <atoms>      17 </atoms>
  <types>       2 </types>
  <array name="atoms" >
   <dimension dim="1">ion</dimension>
   <field type="string">element</field>
   <field type="int">atomtype</field>
   <set>
    <rc><c>Mg</c><c>   1</c></rc>
    <rc><c>Mg</c><c>   1</c></rc>
    <rc><c>Mg</c><c>   1</c></rc>
    <rc><c>Mg</c><c>   1</c></rc>
    <rc><c>Mg</c><c>   1</c></rc>
    <rc><c>Mg</c><c>   1</c></rc>
    <rc><c>Mg</c><c>   1</c></rc>
    <rc><c>Mg</c><c>   1</c></rc>
    <rc><c>Mg</c><c>   1</c></rc>
    <rc><c>O </c><c>   2</c></rc>
    <rc><c>O </c><c>   2</c></rc>
    <rc><c>O </c><c>   2</c></rc>
    <rc><c>O </c><c>   2</c></rc>
    <rc><c>O </c><c>   2</c></rc>
    <rc><c>O </c><c>   2</c></rc>
    <rc><c>O </c><c>   2</c></rc>
    <rc><c>O </c><c>   2</c></rc>
   </set>
  </array>
  <array name="atomtypes" >
   <dimension dim="1">type</dimension>
   <field type="int">atomspertype</field>
   <field type="string">element</field>
   <field>mass</field>
   <field>valence</field>
   <field type="string">pseudopotential</field>
   <set>
    <rc><c>   9</c><c>Mg</c><c>     24.30500000</c><c>      2.00000000</c><c>  PAW_PBE Mg 13Apr2007                  </c></rc>
    <rc><c>   8</c><c>O </c><c>     16.00000000</c><c>      6.00000000</c><c>  PAW_PBE O 08Apr2002                   </c></rc>
   </set>
  </array>
 </atominfo>
 <structure name="initialpos" >
  <crystal>
   <varray name="basis" >
    <v>       0.00000000       4.24689300       4.24689300 </v>
    <v>       4.24689300       0.00000000       4.24689300 </v>
    <v>       4.24689300       4.24689300       0.00000000 </v>
   </varray>
   <i name="volume">    153.19477498 </i>
   <varray name="rec_basis" >
    <v>      -0.11773313       0.11773313       0.11773313 </v>
    <v>       0.11773313      -0.11773313       0.11773313 </v>
    <v>       0.11773313       0.11773313      -0.11773313 </v>
   </varray>
  </crystal>
  <varray name="positions" >
   <v>       0.11904551       0.12734505       0.12253271 </v>
   <v>       0.97560343       0.97610483       0.97515209 </v>
   <v>       0.98086010       0.97037955       0.56580256 </v>
   <v>       0.97801585       0.56825524       0.97912057 </v>
   <v>       0.00133112       0.49480044       0.50172105 </v>
   <v>       0.56399130       0.97530342       0.97675414 </v>
   <v>       0.50380242       0.99035818       0.50188532 </v>
   <v>       0.50378000       0.49580348       0.99803265 </v>
   <v>       0.50419736       0.49602781       0.50176110 </v>
   <v>       0.25691304       0.24434717       0.25172981 </v>
   <v>       0.26356418       0.24282475       0.73954125 </v>
   <v>       0.25576442       0.74202985       0.25412058 </v>
   <v>       0.27848381       0.73675152       0.74227692 </v>
   <v>       0.73720660       0.24590674       0.25944184 </v>
   <v>       0.74351025       0.27159608       0.74026432 </v>
   <v>       0.74339017       0.73714722       0.27670346 </v>
   <v>       0.74407845       0.73525066       0.74238163 </v>
  </varray>
 </structure>
 <calculation>
  <scstep>
   <time name="dav">    0.57    0.57</time>
   <time name="total">    1.56    1.56</time>
   <energy>
    <i name="alphaZ">    167.07285220 </i>
    <i name="ewald">  -2906.10158606 </i>
    <i name="hartreedc">   -985.21626693 </i>
    <i name="XCdc">   -207.44173506 </i>
    <i name="pawpsdc">   3357.85734499 </i>
    <i name="pawaedc">  -2905.44438128 </i>
    <i name="eentropy">     -0.00008292 </i>
    <i name="bandstr">     95.43352213 </i>
    <i name="atom">   3665.43652948 </i>
    <i name="e_fr_energy">    281.59619656 </i>
    <i name="e_wo_entrp">    281.59627949 </i>
    <i name="e_0_energy">    281.59623802 </i>
   </energy>
  </scstep>
  <scstep>
   <time name="dav">    0.66    0.66</time>
   <time name="total">    0.66    0.66</time>
   <energy>
    <i name="e_fr_energy">    -71.38003505 </i>
    <i name="e_wo_entrp">    -71.37573045 </i>
    <i name="e_0_energy">    -71.37788275 </i>
   </energy>
  </scstep>
  <scstep>
   <time name="dav">    0.64    0.64</time>
   <time name="total">    0.64    0.64</time>
   <energy>
    <i name="e_fr_energy">    -90.29592564 </i>
    <i name="e_wo_entrp">    -90.29152323 </i>
    <i name="e_0_energy">    -90.29372444 </i>
   </energy>
  </scstep>
  <scstep>
   <time name="dav">    0.62    0.62</time>
   <time name="total">    0.62    0.63</time>
   <energy>
    <i name="e_fr_energy">    -90.43652403 </i>
    <i name="e_wo_entrp">    -90.43199449 </i>
    <i name="e_0_energy">    -90.43425926 </i>
   </energy>
  </scstep>
  <scstep>
   <time name="dav">    0.64    0.64</time>
   <time name="total">    0.66    0.67</time>
   <energy>
    <i name="e_fr_energy">    -90.43760714 </i>
    <i name="e_wo_entrp">    -90.43307302 </i>
    <i name="e_0_energy">    -90.43534008 </i>
   </energy>
  </scstep>
  <scstep>
   <time name="dav">    0.60    0.60</time>
   <time name="total">    1.61    1.62</time>
   <energy>
    <i name="e_fr_energy">    -83.06236840 </i>
    <i name="e_wo_entrp">    -83.05597096 </i>
    <i name="e_0_energy">    -83.05916968 </i>
   </energy>
  </scstep>
  <scstep>
   <time name="dav">    0.59    0.59</time>
   <time name="total">    1.60    1.61</time>
   <energy>
    <i name="e_fr_energy">    -83.05220253 </i>
    <i name="e_wo_entrp">    -83.04401955 </i>
    <i name="e_0_energy">    -83.04811104 </i>
   </energy>
  </scstep>
  <scstep>
   <time name="dav">    0.62    0.62</time>
   <time name="total">    1.63    1.64</time>
   <energy>
    <i name="e_fr_energy">    -82.92096972 </i>
    <i name="e_wo_entrp">    -82.91264438 </i>
    <i name="e_0_energy">    -82.91680705 </i>
   </energy>
  </scstep>
  <scstep>
   <time name="dav">    0.63    0.63</time>
   <time name="total">    1.64    1.65</time>
   <energy>
    <i name="e_fr_energy">    -82.90777113 </i>
    <i name="e_wo_entrp">    -82.90106546 </i>
    <i name="e_0_energy">    -82.90441830 </i>
   </energy>
  </scstep>
  <scstep>
   <time name="dav">    0.63    0.63</time>
   <time name="total">    1.64    1.65</time>
   <energy>
    <i name="e_fr_energy">    -82.90717802 </i>
    <i name="e_wo_entrp">    -82.90134562 </i>
    <i name="e_0_energy">    -82.90426182 </i>
   </energy>
  </scstep>
  <scstep>
   <time name="dav">    0.60    0.60</time>
   <time name="total">    1.61    1.61</time>
   <energy>
    <i name="e_fr_energy">    -82.90804972 </i>
    <i name="e_wo_entrp">    -82.90290992 </i>
    <i name="e_0_energy">    -82.90547982 </i>
   </energy>
  </scstep>
  <scstep>
   <time name="dav">    0.61    0.61</time>
   <time name="total">    1.62    1.63</time>
   <energy>
    <i name="e_fr_energy">    -82.90821035 </i>
    <i name="e_wo_entrp">    -82.90304539 </i>
    <i name="e_0_energy">    -82.90562787 </i>
   </energy>
  </scstep>
  <scstep>
   <time name="dav">    0.62    0.63</time>
   <time name="total">    1.64    1.65</time>
   <energy>
    <i name="e_fr_energy">    -82.90825803 </i>
    <i name="e_wo_entrp">    -82.90314522 </i>
    <i name="e_0_energy">    -82.90570162 </i>
   </energy>
  </scstep>
  <scstep>
   <time name="dav">    0.63    0.63</time>
   <time name="total">    1.64    1.65</time>
   <energy>
    <i name="e_fr_energy">    -82.90826772 </i>
    <i name="e_wo_entrp">    -82.90315911 </i>
    <i name="e_0_energy">    -82.90571342 </i>
   </energy>
  </scstep>
  <scstep>
   <time name="dav">    0.60    0.60</time>
   <time name="total">    1.61    1.61</time>
   <energy>
    <i name="e_fr_energy">    -82.90826875 </i>
    <i name="e_wo_entrp">    -82.90315199 </i>
    <i name="e_0_energy">    -82.90571037 </i>
   </energy>
  </scstep>
  <scstep>
   <time name="dav">    0.41    0.42</time>
   <time name="total">    1.40    1.41</time>
   <energy>
    <i name="alphaZ">    167.07285220 </i>
    <i name="ewald">  -2906.10158606 </i>
    <i name="hartreedc">  -1148.30827561 </i>
    <i name="XCdc">   -197.87308128 </i>
    <i name="pawpsdc">   4629.85679158 </i>
    <i name="pawaedc">  -4179.34832419 </i>
    <i name="eentropy">     -0.00512617 </i>
    <i name="bandstr">   -113.63804877 </i>
    <i name="atom">   3665.43652948 </i>
    <i name="e_fr_energy">    -82.90826881 </i>
    <i name="e_wo_entrp">    -82.90314264 </i>
    <i name="e_0_energy">    -82.90570573 </i>
   </energy>
  </scstep>
  <structure>
   <crystal>
    <varray name="basis" >
     <v>       0.00000000       4.24689300       4.24689300 </v>
     <v>       4.24689300       0.00000000       4.24689300 </v>
     <v>       4.24689300       4.24689300       0.00000000 </v>
    </varray>
    <i name="volume">    153.19477498 </i>
    <varray name="rec_basis" >
     <v>      -0.11773313       0.11773313       0.11773313 </v>
     <v>       0.11773313      -0.11773313       0.11773313 </v>
     <v>       0.11773313       0.11773313      -0.11773313 </v>
    </varray>
   </crystal>
   <varray name="positions" >
    <v>       0.11904551       0.12734505       0.12253271 </v>
    <v>       0.97560343       0.97610483       0.97515209 </v>
    <v>       0.98086010       0.97037955       0.56580256 </v>
    <v>       0.97801585       0.56825524       0.97912057 </v>
    <v>       0.00133112       0.49480044       0.50172105 </v>
    <v>       0.56399130       0.97530342       0.97675414 </v>
    <v>       0.50380242       0.99035818       0.50188532 </v>
    <v>       0.50378000       0.49580348       0.99803265 </v>
    <v>       0.50419736       0.49602781       0.50176110 </v>
    <v>       0.25691304       0.24434717       0.25172981 </v>
    <v>       0.26356418       0.24282475       0.73954125 </v>
    <v>       0.25576442       0.74202985       0.25412058 </v>
    <v>       0.27848381       0.73675152       0.74227692 </v>
    <v>       0.73720660       0.24590674       0.25944184 </v>
    <v>       0.74351025       0.27159608       0.74026432 </v>
    <v>       0.74339017       0.73714722       0.27670346 </v>
    <v>       0.74407845       0.73525066       0.74238163 </v>
   </varray>
  </structure>
  <varray name="forces" >
   <v>      -0.04676358      -0.00788188       0.00254563 </v>
   <v>       0.01372939       0.02771032       0.01044218 </v>
   <v>       0.01757427      -0.02313293       0.01527632 </v>
   <v>      -0.00005735      -0.02294728      -0.00499068 </v>
   <v>       0.01648638      -0.00174242      -0.00753280 </v>
   <v>       0.00479920       0.01196484      -0.00021376 </v>
   <v>      -0.01541504       0.00473539       0.00476653 </v>
   <v>       0.00044418       0.01725976       0.00111269 </v>
   <v>      -0.02060338       0.00326645      -0.01040465 </v>
   <v>       0.01360783       0.02505266      -0.00576146 </v>
   <v>       0.01788895      -0.01080709      -0.01475413 </v>
   <v>       0.00401964      -0.01769340       0.01258976 </v>
   <v>      -0.00390206      -0.00923056      -0.00941556 </v>
   <v>       0.00254413       0.00413248       0.00595940 </v>
   <v>      -0.01387695       0.01191714      -0.01700581 </v>
   <v>       0.00418764      -0.02033156       0.00379673 </v>
   <v>       0.00533676       0.00772810       0.01358960 </v>
  </varray>
  <varray name="stress" >
   <v>     312.33217621       0.60600994       3.51751540 </v>
   <v>       0.60601223     308.99828273      -0.98022680 </v>
   <v>       3.51751568      -0.98022803     315.37738948 </v>
  </varray>
  <energy>
   <i name="e_fr_energy">    -82.90826881 </i>
   <i name="e_wo_entrp">    -82.90570573 </i>
   <i name="e_0_energy">     -0.00512617 </i>
  </energy>
  <time name="totalsc">   24.39   24.50</time>
  <eigenvalues>
   <array>
    <dimension dim="1">band</dimension>
    <dimension dim="2">kpoint</dimension>
    <dimension dim="3">spin</dimension>
    <field>eigene</field>
    <field>occ</field>
    <set>
     <set comment="spin 1">
      <set comment="kpoint 1">
       <r>  -13.7981    1.0000 </r>
       <r>  -12.5973    1.0000 </r>
       <r>  -12.5872    1.0000 </r>
       <r>  -12.5584    1.0000 </r>
       <r>  -12.5348    1.0000 </r>
       <r>  -12.2553    1.0000 </r>
       <r>  -12.2519    1.0000 </r>
       <r>  -12.2470    1.0000 </r>
       <r>   -1.4682    1.0000 </r>
       <r>   -1.1562    1.0000 </r>
       <r>   -1.1448    1.0000 </r>
       <r>   -1.1291    1.0000 </r>
       <r>   -0.8817    1.0000 </r>
       <r>   -0.5468    1.0000 </r>
       <r>   -0.5461    1.0000 </r>
       <r>    1.8276    1.0000 </r>
       <r>    1.8380    1.0000 </r>
       <r>    1.8560    1.0000 </r>
       <r>    2.1983    1.0000 </r>
       <r>    2.2019    1.0000 </r>
       <r>    2.2061    1.0000 </r>
       <r>    2.5190    1.0000 </r>
       <r>    2.5225    1.0000 </r>
       <r>    2.5367    1.0000 </r>
       <r>    2.8183    1.0000 </r>
       <r>    2.8209    1.0000 </r>
       <r>    2.9163    1.0000 </r>
       <r>    2.9179    1.0000 </r>
       <r>    2.9218    1.0000 </r>
       <r>    3.3197    1.0000 </r>
       <r>    3.3372    1.0000 </r>
       <r>    3.3564    1.0000 </r>
       <r>    7.3584    1.0000 </r>
       <r>    9.3532    1.0000 </r>
       <r>   10.7182    0.0000 </r>
       <r>   10.7369    0.0000 </r>
       <r>   10.7947    0.0000 </r>
       <r>   11.5101    0.0000 </r>
       <r>   11.6532    0.0000 </r>
       <r>   11.7897    0.0000 </r>
       <r>   12.2819    0.0000 </r>
       <r>   12.2946    0.0000 </r>
       <r>   13.0488    0.0000 </r>
       <r>   15.5670    0.0000 </r>
       <r>   15.5818    0.0000 </r>
       <r>   15.7460    0.0000 </r>
       <r>   15.8443    0.0000 </r>
       <r>   16.0159    0.0000 </r>
       <r>   16.1388    0.0000 </r>
       <r>   17.4404    0.0000 </r>
       <r>   17.8212    0.0000 </r>
       <r>   17.9192    0.0000 </r>
      </set>
      <set comment="kpoint 2">
       <r>  -13.3081    1.0000 </r>
       <r>  -13.1523    1.0000 </r>
       <r>  -12.5461    1.0000 </r>
       <r>  -12.5098    1.0000 </r>
       <r>  -12.4812    1.0000 </r>
       <r>  -12.3614    1.0000 </r>
       <r>  -12.3193    1.0000 </r>
       <r>  -12.3170    1.0000 </r>
       <r>   -0.7174    1.0000 </r>
       <r>   -0.5815    1.0000 </r>
       <r>   -0.3790    1.0000 </r>
       <r>   -0.3571    1.0000 </r>
       <r>   -0.2795    1.0000 </r>
       <r>   -0.2691    1.0000 </r>
       <r>    0.6327    1.0000 </r>
       <r>    0.6462    1.0000 </r>
       <r>    1.2455    1.0000 </r>
       <r>    1.4071    1.0000 </r>
       <r>    1.4334    1.0000 </r>
       <r>    1.4998    1.0000 </r>
       <r>    1.6266    1.0000 </r>
       <r>    1.6310    1.0000 </r>
       <r>    2.1677    1.0000 </r>
       <r>    2.1735    1.0000 </r>
       <r>    2.3787    1.0000 </r>
       <r>    2.3935    1.0000 </r>
       <r>    2.4835    1.0000 </r>
       <r>    2.5996    1.0000 </r>
       <r>    2.9704    1.0000 </r>
       <r>    2.9860    1.0000 </r>
       <r>    3.1436    1.0000 </r>
       <r>    3.1528    1.0000 </r>
       <r>    9.2019    1.0000 </r>
       <r>    9.8204    0.0688 </r>
       <r>   10.9855    0.0000 </r>
       <r>   11.6291    0.0000 </r>
       <r>   11.8244    0.0000 </r>
       <r>   12.7783    0.0000 </r>
       <r>   12.8355    0.0000 </r>
       <r>   12.8894    0.0000 </r>
       <r>   13.3658    0.0000 </r>
       <r>   13.4036    0.0000 </r>
       <r>   14.1305    0.0000 </r>
       <r>   14.5198    0.0000 </r>
       <r>   14.7475    0.0000 </r>
       <r>   14.7943    0.0000 </r>
       <r>   15.0428    0.0000 </r>
       <r>   16.0976    0.0000 </r>
       <r>   16.1209    0.0000 </r>
       <r>   16.3007    0.0000 </r>
       <r>   16.3367    0.0000 </r>
       <r>   16.4466    0.0000 </r>
      </set>
      <set comment="kpoint 3">
       <r>  -13.2645    1.0000 </r>
       <r>  -13.2080    1.0000 </r>
       <r>  -12.5371    1.0000 </r>
       <r>  -12.5137    1.0000 </r>
       <r>  -12.4744    1.0000 </r>
       <r>  -12.3487    1.0000 </r>
       <r>  -12.3307    1.0000 </r>
       <r>  -12.3174    1.0000 </r>
       <r>   -0.6824    1.0000 </r>
       <r>   -0.5805    1.0000 </r>
       <r>   -0.3843    1.0000 </r>
       <r>   -0.3697    1.0000 </r>
       <r>   -0.2977    1.0000 </r>
       <r>   -0.2833    1.0000 </r>
       <r>    0.6036    1.0000 </r>
       <r>    0.6656    1.0000 </r>
       <r>    1.2170    1.0000 </r>
       <r>    1.4116    1.0000 </r>
       <r>    1.4766    1.0000 </r>
       <r>    1.5039    1.0000 </r>
       <r>    1.6313    1.0000 </r>
       <r>    1.6412    1.0000 </r>
       <r>    2.1982    1.0000 </r>
       <r>    2.2291    1.0000 </r>
       <r>    2.3355    1.0000 </r>
       <r>    2.3535    1.0000 </r>
       <r>    2.4895    1.0000 </r>
       <r>    2.5956    1.0000 </r>
       <r>    2.9981    1.0000 </r>
       <r>    3.0124    1.0000 </r>
       <r>    3.1025    1.0000 </r>
       <r>    3.1180    1.0000 </r>
       <r>    9.2234    1.0000 </r>
       <r>    9.7182    0.9201 </r>
       <r>   11.0147    0.0000 </r>
       <r>   11.6150    0.0000 </r>
       <r>   11.8713    0.0000 </r>
       <r>   12.5736    0.0000 </r>
       <r>   12.8033    0.0000 </r>
       <r>   12.8600    0.0000 </r>
       <r>   13.4780    0.0000 </r>
       <r>   13.5614    0.0000 </r>
       <r>   14.2372    0.0000 </r>
       <r>   14.5729    0.0000 </r>
       <r>   14.7498    0.0000 </r>
       <r>   14.8239    0.0000 </r>
       <r>   15.2510    0.0000 </r>
       <r>   15.9681    0.0000 </r>
       <r>   16.0050    0.0000 </r>
       <r>   16.2888    0.0000 </r>
       <r>   16.3711    0.0000 </r>
       <r>   16.4533    0.0000 </r>
      </set>
      <set comment="kpoint 4">
       <r>  -13.1181    1.0000 </r>
       <r>  -13.0511    1.0000 </r>
       <r>  -12.7046    1.0000 </r>
       <r>  -12.6250    1.0000 </r>
       <r>  -12.6026    1.0000 </r>
       <r>  -12.5151    1.0000 </r>
       <r>  -12.2174    1.0000 </r>
       <r>  -12.2118    1.0000 </r>
       <r>   -0.3672    1.0000 </r>
       <r>   -0.2030    1.0000 </r>
       <r>   -0.0183    1.0000 </r>
       <r>   -0.0098    1.0000 </r>
       <r>    0.2465    1.0000 </r>
       <r>    0.2561    1.0000 </r>
       <r>    0.4978    1.0000 </r>
       <r>    0.6592    1.0000 </r>
       <r>    0.7528    1.0000 </r>
       <r>    0.7924    1.0000 </r>
       <r>    1.2718    1.0000 </r>
       <r>    1.3217    1.0000 </r>
       <r>    1.4118    1.0000 </r>
       <r>    1.5138    1.0000 </r>
       <r>    1.5896    1.0000 </r>
       <r>    1.5953    1.0000 </r>
       <r>    2.4690    1.0000 </r>
       <r>    2.4783    1.0000 </r>
       <r>    2.6694    1.0000 </r>
       <r>    2.6741    1.0000 </r>
       <r>    2.7675    1.0000 </r>
       <r>    2.8159    1.0000 </r>
       <r>    2.8268    1.0000 </r>
       <r>    2.9783    1.0000 </r>
       <r>    9.6963    0.9786 </r>
       <r>   10.4628    0.0000 </r>
       <r>   11.2673    0.0000 </r>
       <r>   11.8515    0.0000 </r>
       <r>   11.9224    0.0000 </r>
       <r>   12.9945    0.0000 </r>
       <r>   13.2164    0.0000 </r>
       <r>   13.6163    0.0000 </r>
       <r>   13.6683    0.0000 </r>
       <r>   14.0040    0.0000 </r>
       <r>   14.0131    0.0000 </r>
       <r>   14.3497    0.0000 </r>
       <r>   14.6965    0.0000 </r>
       <r>   14.9239    0.0000 </r>
       <r>   15.0059    0.0000 </r>
       <r>   15.0559    0.0000 </r>
       <r>   15.7472    0.0000 </r>
       <r>   16.1728    0.0000 </r>
       <r>   16.4115    0.0000 </r>
       <r>   17.2067    0.0000 </r>
      </set>
      <set comment="kpoint 5">
       <r>  -13.2951    1.0000 </r>
       <r>  -13.1701    1.0000 </r>
       <r>  -12.5466    1.0000 </r>
       <r>  -12.5067    1.0000 </r>
       <r>  -12.4785    1.0000 </r>
       <r>  -12.3502    1.0000 </r>
       <r>  -12.3309    1.0000 </r>
       <r>  -12.3169    1.0000 </r>
       <r>   -0.7114    1.0000 </r>
       <r>   -0.5844    1.0000 </r>
       <r>   -0.3754    1.0000 </r>
       <r>   -0.3504    1.0000 </r>
       <r>   -0.2887    1.0000 </r>
       <r>   -0.2764    1.0000 </r>
       <r>    0.6314    1.0000 </r>
       <r>    0.6442    1.0000 </r>
       <r>    1.2361    1.0000 </r>
       <r>    1.3999    1.0000 </r>
       <r>    1.4275    1.0000 </r>
       <r>    1.5316    1.0000 </r>
       <r>    1.6256    1.0000 </r>
       <r>    1.6359    1.0000 </r>
       <r>    2.1728    1.0000 </r>
       <r>    2.1941    1.0000 </r>
       <r>    2.3665    1.0000 </r>
       <r>    2.3787    1.0000 </r>
       <r>    2.4859    1.0000 </r>
       <r>    2.5926    1.0000 </r>
       <r>    2.9786    1.0000 </r>
       <r>    2.9996    1.0000 </r>
       <r>    3.1277    1.0000 </r>
       <r>    3.1459    1.0000 </r>
       <r>    9.2081    1.0000 </r>
       <r>    9.7878    0.2872 </r>
       <r>   10.9771    0.0000 </r>
       <r>   11.5775    0.0000 </r>
       <r>   11.9115    0.0000 </r>
       <r>   12.7852    0.0000 </r>
       <r>   12.7951    0.0000 </r>
       <r>   12.8448    0.0000 </r>
       <r>   13.3927    0.0000 </r>
       <r>   13.4435    0.0000 </r>
       <r>   14.2228    0.0000 </r>
       <r>   14.4654    0.0000 </r>
       <r>   14.7260    0.0000 </r>
       <r>   14.8235    0.0000 </r>
       <r>   15.0992    0.0000 </r>
       <r>   16.0582    0.0000 </r>
       <r>   16.1141    0.0000 </r>
       <r>   16.2971    0.0000 </r>
       <r>   16.3390    0.0000 </r>
       <r>   16.4545    0.0000 </r>
      </set>
      <set comment="kpoint 6">
       <r>  -13.1264    1.0000 </r>
       <r>  -13.0453    1.0000 </r>
       <r>  -12.6875    1.0000 </r>
       <r>  -12.6422    1.0000 </r>
       <r>  -12.5953    1.0000 </r>
       <r>  -12.5205    1.0000 </r>
       <r>  -12.2187    1.0000 </r>
       <r>  -12.2098    1.0000 </r>
       <r>   -0.3610    1.0000 </r>
       <r>   -0.2101    1.0000 </r>
       <r>   -0.0389    1.0000 </r>
       <r>    0.0042    1.0000 </r>
       <r>    0.2232    1.0000 </r>
       <r>    0.2726    1.0000 </r>
       <r>    0.4851    1.0000 </r>
       <r>    0.6820    1.0000 </r>
       <r>    0.7468    1.0000 </r>
       <r>    0.8024    1.0000 </r>
       <r>    1.2955    1.0000 </r>
       <r>    1.3429    1.0000 </r>
       <r>    1.3767    1.0000 </r>
       <r>    1.5013    1.0000 </r>
       <r>    1.5828    1.0000 </r>
       <r>    1.6114    1.0000 </r>
       <r>    2.4517    1.0000 </r>
       <r>    2.5169    1.0000 </r>
       <r>    2.6615    1.0000 </r>
       <r>    2.6661    1.0000 </r>
       <r>    2.7655    1.0000 </r>
       <r>    2.7914    1.0000 </r>
       <r>    2.8475    1.0000 </r>
       <r>    2.9710    1.0000 </r>
       <r>    9.6935    0.9823 </r>
       <r>   10.4753    0.0000 </r>
       <r>   11.2680    0.0000 </r>
       <r>   11.7211    0.0000 </r>
       <r>   12.0253    0.0000 </r>
       <r>   12.9612    0.0000 </r>
       <r>   13.2840    0.0000 </r>
       <r>   13.6434    0.0000 </r>
       <r>   13.6821    0.0000 </r>
       <r>   13.9808    0.0000 </r>
       <r>   14.0602    0.0000 </r>
       <r>   14.2525    0.0000 </r>
       <r>   14.8224    0.0000 </r>
       <r>   14.9070    0.0000 </r>
       <r>   14.9542    0.0000 </r>
       <r>   14.9770    0.0000 </r>
       <r>   15.7127    0.0000 </r>
       <r>   16.2324    0.0000 </r>
       <r>   16.4625    0.0000 </r>
       <r>   17.0923    0.0000 </r>
      </set>
      <set comment="kpoint 7">
       <r>  -13.1214    1.0000 </r>
       <r>  -13.0484    1.0000 </r>
       <r>  -12.7010    1.0000 </r>
       <r>  -12.6288    1.0000 </r>
       <r>  -12.6002    1.0000 </r>
       <r>  -12.5171    1.0000 </r>
       <r>  -12.2158    1.0000 </r>
       <r>  -12.2130    1.0000 </r>
       <r>   -0.3657    1.0000 </r>
       <r>   -0.2064    1.0000 </r>
       <r>   -0.0212    1.0000 </r>
       <r>   -0.0081    1.0000 </r>
       <r>    0.2417    1.0000 </r>
       <r>    0.2587    1.0000 </r>
       <r>    0.4944    1.0000 </r>
       <r>    0.6670    1.0000 </r>
       <r>    0.7502    1.0000 </r>
       <r>    0.7942    1.0000 </r>
       <r>    1.2831    1.0000 </r>
       <r>    1.3132    1.0000 </r>
       <r>    1.4126    1.0000 </r>
       <r>    1.5104    1.0000 </r>
       <r>    1.5897    1.0000 </r>
       <r>    1.6024    1.0000 </r>
       <r>    2.4694    1.0000 </r>
       <r>    2.4832    1.0000 </r>
       <r>    2.6658    1.0000 </r>
       <r>    2.6712    1.0000 </r>
       <r>    2.7691    1.0000 </r>
       <r>    2.8069    1.0000 </r>
       <r>    2.8310    1.0000 </r>
       <r>    2.9765    1.0000 </r>
       <r>    9.6942    0.9814 </r>
       <r>   10.4645    0.0000 </r>
       <r>   11.2626    0.0000 </r>
       <r>   11.8222    0.0000 </r>
       <r>   11.9507    0.0000 </r>
       <r>   12.9828    0.0000 </r>
       <r>   13.2318    0.0000 </r>
       <r>   13.6442    0.0000 </r>
       <r>   13.6646    0.0000 </r>
       <r>   13.9903    0.0000 </r>
       <r>   14.0213    0.0000 </r>
       <r>   14.3286    0.0000 </r>
       <r>   14.7045    0.0000 </r>
       <r>   14.9227    0.0000 </r>
       <r>   15.0126    0.0000 </r>
       <r>   15.0266    0.0000 </r>
       <r>   15.7587    0.0000 </r>
       <r>   16.1889    0.0000 </r>
       <r>   16.4339    0.0000 </r>
       <r>   17.1938    0.0000 </r>
      </set>
      <set comment="kpoint 8">
       <r>  -13.2727    1.0000 </r>
       <r>  -13.1984    1.0000 </r>
       <r>  -12.5357    1.0000 </r>
       <r>  -12.5170    1.0000 </r>
       <r>  -12.4734    1.0000 </r>
       <r>  -12.3493    1.0000 </r>
       <r>  -12.3320    1.0000 </r>
       <r>  -12.3161    1.0000 </r>
       <r>   -0.6907    1.0000 </r>
       <r>   -0.5810    1.0000 </r>
       <r>   -0.3824    1.0000 </r>
       <r>   -0.3588    1.0000 </r>
       <r>   -0.2987    1.0000 </r>
       <r>   -0.2843    1.0000 </r>
       <r>    0.6108    1.0000 </r>
       <r>    0.6606    1.0000 </r>
       <r>    1.2213    1.0000 </r>
       <r>    1.4125    1.0000 </r>
       <r>    1.4636    1.0000 </r>
       <r>    1.4997    1.0000 </r>
       <r>    1.6261    1.0000 </r>
       <r>    1.6455    1.0000 </r>
       <r>    2.2024    1.0000 </r>
       <r>    2.2125    1.0000 </r>
       <r>    2.3440    1.0000 </r>
       <r>    2.3600    1.0000 </r>
       <r>    2.4902    1.0000 </r>
       <r>    2.5941    1.0000 </r>
       <r>    2.9944    1.0000 </r>
       <r>    3.0109    1.0000 </r>
       <r>    3.1082    1.0000 </r>
       <r>    3.1271    1.0000 </r>
       <r>    9.2182    1.0000 </r>
       <r>    9.7319    0.8459 </r>
       <r>   11.0073    0.0000 </r>
       <r>   11.5995    0.0000 </r>
       <r>   11.8921    0.0000 </r>
       <r>   12.6279    0.0000 </r>
       <r>   12.7679    0.0000 </r>
       <r>   12.8793    0.0000 </r>
       <r>   13.4715    0.0000 </r>
       <r>   13.5160    0.0000 </r>
       <r>   14.2625    0.0000 </r>
       <r>   14.5140    0.0000 </r>
       <r>   14.7702    0.0000 </r>
       <r>   14.7990    0.0000 </r>
       <r>   15.2082    0.0000 </r>
       <r>   16.0056    0.0000 </r>
       <r>   16.0375    0.0000 </r>
       <r>   16.2465    0.0000 </r>
       <r>   16.3653    0.0000 </r>
       <r>   16.4709    0.0000 </r>
      </set>
     </set>
     <set comment="spin 2">
      <set comment="kpoint 1">
       <r>  -13.7553    1.0000 </r>
       <r>  -12.5775    1.0000 </r>
       <r>  -12.5566    1.0000 </r>
       <r>  -12.5187    1.0000 </r>
       <r>  -12.5097    1.0000 </r>
       <r>  -12.1767    1.0000 </r>
       <r>  -12.1689    1.0000 </r>
       <r>  -12.1665    1.0000 </r>
       <r>   -1.3408    1.0000 </r>
       <r>   -1.1316    1.0000 </r>
       <r>   -1.1188    1.0000 </r>
       <r>   -1.1038    1.0000 </r>
       <r>   -0.6380    1.0000 </r>
       <r>   -0.5300    1.0000 </r>
       <r>   -0.5285    1.0000 </r>
       <r>    1.8738    1.0000 </r>
       <r>    1.8849    1.0000 </r>
       <r>    1.9061    1.0000 </r>
       <r>    2.2221    1.0000 </r>
       <r>    2.2240    1.0000 </r>
       <r>    2.2268    1.0000 </r>
       <r>    2.6024    1.0000 </r>
       <r>    2.6074    1.0000 </r>
       <r>    2.6128    1.0000 </r>
       <r>    2.8527    1.0000 </r>
       <r>    2.8568    1.0000 </r>
       <r>    2.9468    1.0000 </r>
       <r>    2.9512    1.0000 </r>
       <r>    2.9565    1.0000 </r>
       <r>    3.3708    1.0000 </r>
       <r>    3.3944    1.0000 </r>
       <r>    3.4164    1.0000 </r>
       <r>    7.5842    1.0000 </r>
       <r>   10.6833    0.0000 </r>
       <r>   10.7304    0.0000 </r>
       <r>   10.7384    0.0000 </r>
       <r>   10.7901    0.0000 </r>
       <r>   11.5865    0.0000 </r>
       <r>   11.7201    0.0000 </r>
       <r>   11.8472    0.0000 </r>
       <r>   12.3089    0.0000 </r>
       <r>   12.3216    0.0000 </r>
       <r>   13.1465    0.0000 </r>
       <r>   15.5928    0.0000 </r>
       <r>   15.6174    0.0000 </r>
       <r>   15.7435    0.0000 </r>
       <r>   15.8732    0.0000 </r>
       <r>   16.0432    0.0000 </r>
       <r>   16.1673    0.0000 </r>
       <r>   17.7565    0.0000 </r>
       <r>   18.0907    0.0000 </r>
       <r>   18.2026    0.0000 </r>
      </set>
      <set comment="kpoint 2">
       <r>  -13.2853    1.0000 </r>
       <r>  -13.0924    1.0000 </r>
       <r>  -12.5432    1.0000 </r>
       <r>  -12.5065    1.0000 </r>
       <r>  -12.4418    1.0000 </r>
       <r>  -12.2774    1.0000 </r>
       <r>  -12.2245    1.0000 </r>
       <r>  -12.2224    1.0000 </r>
       <r>   -0.6949    1.0000 </r>
       <r>   -0.3762    1.0000 </r>
       <r>   -0.3468    1.0000 </r>
       <r>   -0.2928    1.0000 </r>
       <r>   -0.2417    1.0000 </r>
       <r>   -0.2333    1.0000 </r>
       <r>    0.6684    1.0000 </r>
       <r>    0.7023    1.0000 </r>
       <r>    1.3136    1.0000 </r>
       <r>    1.4237    1.0000 </r>
       <r>    1.4605    1.0000 </r>
       <r>    1.6510    1.0000 </r>
       <r>    1.6907    1.0000 </r>
       <r>    1.6946    1.0000 </r>
       <r>    2.1813    1.0000 </r>
       <r>    2.1868    1.0000 </r>
       <r>    2.4725    1.0000 </r>
       <r>    2.4848    1.0000 </r>
       <r>    2.4949    1.0000 </r>
       <r>    2.6470    1.0000 </r>
       <r>    3.0014    1.0000 </r>
       <r>    3.0221    1.0000 </r>
       <r>    3.2097    1.0000 </r>
       <r>    3.2220    1.0000 </r>
       <r>    9.6910    0.9853 </r>
       <r>   10.1023    0.0000 </r>
       <r>   11.6214    0.0000 </r>
       <r>   11.7237    0.0000 </r>
       <r>   11.8576    0.0000 </r>
       <r>   12.8626    0.0000 </r>
       <r>   12.9142    0.0000 </r>
       <r>   12.9567    0.0000 </r>
       <r>   13.4016    0.0000 </r>
       <r>   13.4395    0.0000 </r>
       <r>   14.2683    0.0000 </r>
       <r>   14.5486    0.0000 </r>
       <r>   14.7673    0.0000 </r>
       <r>   14.8265    0.0000 </r>
       <r>   15.1423    0.0000 </r>
       <r>   16.1136    0.0000 </r>
       <r>   16.1492    0.0000 </r>
       <r>   16.3654    0.0000 </r>
       <r>   16.4707    0.0000 </r>
       <r>   16.5861    0.0000 </r>
      </set>
      <set comment="kpoint 3">
       <r>  -13.2451    1.0000 </r>
       <r>  -13.1485    1.0000 </r>
       <r>  -12.5235    1.0000 </r>
       <r>  -12.4843    1.0000 </r>
       <r>  -12.4722    1.0000 </r>
       <r>  -12.2596    1.0000 </r>
       <r>  -12.2366    1.0000 </r>
       <r>  -12.2231    1.0000 </r>
       <r>   -0.6551    1.0000 </r>
       <r>   -0.3701    1.0000 </r>
       <r>   -0.3488    1.0000 </r>
       <r>   -0.2974    1.0000 </r>
       <r>   -0.2688    1.0000 </r>
       <r>   -0.2534    1.0000 </r>
       <r>    0.6208    1.0000 </r>
       <r>    0.7327    1.0000 </r>
       <r>    1.2771    1.0000 </r>
       <r>    1.4491    1.0000 </r>
       <r>    1.4904    1.0000 </r>
       <r>    1.6668    1.0000 </r>
       <r>    1.6986    1.0000 </r>
       <r>    1.7053    1.0000 </r>
       <r>    2.2091    1.0000 </r>
       <r>    2.2412    1.0000 </r>
       <r>    2.4225    1.0000 </r>
       <r>    2.4469    1.0000 </r>
       <r>    2.4996    1.0000 </r>
       <r>    2.6367    1.0000 </r>
       <r>    3.0285    1.0000 </r>
       <r>    3.0460    1.0000 </r>
       <r>    3.1645    1.0000 </r>
       <r>    3.1880    1.0000 </r>
       <r>    9.6951    0.9802 </r>
       <r>   10.0087    0.0000 </r>
       <r>   11.5963    0.0000 </r>
       <r>   11.7986    0.0000 </r>
       <r>   11.8819    0.0000 </r>
       <r>   12.7404    0.0000 </r>
       <r>   12.8829    0.0000 </r>
       <r>   12.9322    0.0000 </r>
       <r>   13.5160    0.0000 </r>
       <r>   13.6067    0.0000 </r>
       <r>   14.2496    0.0000 </r>
       <r>   14.6947    0.0000 </r>
       <r>   14.7653    0.0000 </r>
       <r>   14.8414    0.0000 </r>
       <r>   15.3425    0.0000 </r>
       <r>   15.9794    0.0000 </r>
       <r>   16.0315    0.0000 </r>
       <r>   16.3100    0.0000 </r>
       <r>   16.4444    0.0000 </r>
       <r>   16.6579    0.0000 </r>
      </set>
      <set comment="kpoint 4">
       <r>  -13.0821    1.0000 </r>
       <r>  -13.0290    1.0000 </r>
       <r>  -12.6500    1.0000 </r>
       <r>  -12.6030    1.0000 </r>
       <r>  -12.5775    1.0000 </r>
       <r>  -12.4218    1.0000 </r>
       <r>  -12.1434    1.0000 </r>
       <r>  -12.1368    1.0000 </r>
       <r>   -0.2724    1.0000 </r>
       <r>   -0.1598    1.0000 </r>
       <r>    0.0017    1.0000 </r>
       <r>    0.0111    1.0000 </r>
       <r>    0.3713    1.0000 </r>
       <r>    0.4697    1.0000 </r>
       <r>    0.5162    1.0000 </r>
       <r>    0.6799    1.0000 </r>
       <r>    0.7737    1.0000 </r>
       <r>    0.8248    1.0000 </r>
       <r>    1.2897    1.0000 </r>
       <r>    1.3277    1.0000 </r>
       <r>    1.4342    1.0000 </r>
       <r>    1.6681    1.0000 </r>
       <r>    1.6865    1.0000 </r>
       <r>    1.6942    1.0000 </r>
       <r>    2.4730    1.0000 </r>
       <r>    2.4821    1.0000 </r>
       <r>    2.7285    1.0000 </r>
       <r>    2.7337    1.0000 </r>
       <r>    2.8046    1.0000 </r>
       <r>    2.8990    1.0000 </r>
       <r>    2.9082    1.0000 </r>
       <r>    3.0149    1.0000 </r>
       <r>   10.4733    0.0000 </r>
       <r>   10.5500    0.0000 </r>
       <r>   11.8420    0.0000 </r>
       <r>   11.8838    0.0000 </r>
       <r>   11.9642    0.0000 </r>
       <r>   13.0503    0.0000 </r>
       <r>   13.4573    0.0000 </r>
       <r>   13.6399    0.0000 </r>
       <r>   13.7349    0.0000 </r>
       <r>   14.0760    0.0000 </r>
       <r>   14.0908    0.0000 </r>
       <r>   14.4108    0.0000 </r>
       <r>   14.7336    0.0000 </r>
       <r>   14.9869    0.0000 </r>
       <r>   15.0422    0.0000 </r>
       <r>   15.0887    0.0000 </r>
       <r>   15.7590    0.0000 </r>
       <r>   16.2338    0.0000 </r>
       <r>   16.6072    0.0000 </r>
       <r>   17.2304    0.0000 </r>
      </set>
      <set comment="kpoint 5">
       <r>  -13.2728    1.0000 </r>
       <r>  -13.1109    1.0000 </r>
       <r>  -12.5435    1.0000 </r>
       <r>  -12.4956    1.0000 </r>
       <r>  -12.4478    1.0000 </r>
       <r>  -12.2637    1.0000 </r>
       <r>  -12.2366    1.0000 </r>
       <r>  -12.2224    1.0000 </r>
       <r>   -0.6865    1.0000 </r>
       <r>   -0.3704    1.0000 </r>
       <r>   -0.3367    1.0000 </r>
       <r>   -0.2998    1.0000 </r>
       <r>   -0.2530    1.0000 </r>
       <r>   -0.2408    1.0000 </r>
       <r>    0.6521    1.0000 </r>
       <r>    0.7112    1.0000 </r>
       <r>    1.2920    1.0000 </r>
       <r>    1.4202    1.0000 </r>
       <r>    1.4864    1.0000 </r>
       <r>    1.6581    1.0000 </r>
       <r>    1.6969    1.0000 </r>
       <r>    1.6998    1.0000 </r>
       <r>    2.1859    1.0000 </r>
       <r>    2.2077    1.0000 </r>
       <r>    2.4563    1.0000 </r>
       <r>    2.4727    1.0000 </r>
       <r>    2.4964    1.0000 </r>
       <r>    2.6386    1.0000 </r>
       <r>    3.0099    1.0000 </r>
       <r>    3.0356    1.0000 </r>
       <r>    3.1909    1.0000 </r>
       <r>    3.2158    1.0000 </r>
       <r>    9.6893    0.9870 </r>
       <r>   10.0700    0.0000 </r>
       <r>   11.5774    0.0000 </r>
       <r>   11.7050    0.0000 </r>
       <r>   11.9550    0.0000 </r>
       <r>   12.8772    0.0000 </r>
       <r>   12.8848    0.0000 </r>
       <r>   12.9212    0.0000 </r>
       <r>   13.4325    0.0000 </r>
       <r>   13.4828    0.0000 </r>
       <r>   14.3149    0.0000 </r>
       <r>   14.5229    0.0000 </r>
       <r>   14.7427    0.0000 </r>
       <r>   14.8593    0.0000 </r>
       <r>   15.1919    0.0000 </r>
       <r>   16.0704    0.0000 </r>
       <r>   16.1448    0.0000 </r>
       <r>   16.3357    0.0000 </r>
       <r>   16.4709    0.0000 </r>
       <r>   16.6086    0.0000 </r>
      </set>
      <set comment="kpoint 6">
       <r>  -13.0920    1.0000 </r>
       <r>  -13.0211    1.0000 </r>
       <r>  -12.6354    1.0000 </r>
       <r>  -12.6181    1.0000 </r>
       <r>  -12.5701    1.0000 </r>
       <r>  -12.4268    1.0000 </r>
       <r>  -12.1416    1.0000 </r>
       <r>  -12.1384    1.0000 </r>
       <r>   -0.2663    1.0000 </r>
       <r>   -0.1643    1.0000 </r>
       <r>   -0.0203    1.0000 </r>
       <r>    0.0253    1.0000 </r>
       <r>    0.3607    1.0000 </r>
       <r>    0.4667    1.0000 </r>
       <r>    0.5024    1.0000 </r>
       <r>    0.7027    1.0000 </r>
       <r>    0.7677    1.0000 </r>
       <r>    0.8392    1.0000 </r>
       <r>    1.3004    1.0000 </r>
       <r>    1.3567    1.0000 </r>
       <r>    1.4013    1.0000 </r>
       <r>    1.6622    1.0000 </r>
       <r>    1.6814    1.0000 </r>
       <r>    1.7104    1.0000 </r>
       <r>    2.4575    1.0000 </r>
       <r>    2.5174    1.0000 </r>
       <r>    2.7186    1.0000 </r>
       <r>    2.7284    1.0000 </r>
       <r>    2.7993    1.0000 </r>
       <r>    2.8701    1.0000 </r>
       <r>    2.9337    1.0000 </r>
       <r>    3.0081    1.0000 </r>
       <r>   10.4061    0.0000 </r>
       <r>   10.6346    0.0000 </r>
       <r>   11.7520    0.0000 </r>
       <r>   11.8650    0.0000 </r>
       <r>   12.0471    0.0000 </r>
       <r>   13.0207    0.0000 </r>
       <r>   13.5398    0.0000 </r>
       <r>   13.6729    0.0000 </r>
       <r>   13.6986    0.0000 </r>
       <r>   14.0145    0.0000 </r>
       <r>   14.2028    0.0000 </r>
       <r>   14.3122    0.0000 </r>
       <r>   14.8288    0.0000 </r>
       <r>   14.9763    0.0000 </r>
       <r>   15.0068    0.0000 </r>
       <r>   15.0129    0.0000 </r>
       <r>   15.7295    0.0000 </r>
       <r>   16.2942    0.0000 </r>
       <r>   16.6439    0.0000 </r>
       <r>   17.1030    0.0000 </r>
      </set>
      <set comment="kpoint 7">
       <r>  -13.0856    1.0000 </r>
       <r>  -13.0261    1.0000 </r>
       <r>  -12.6458    1.0000 </r>
       <r>  -12.6072    1.0000 </r>
       <r>  -12.5750    1.0000 </r>
       <r>  -12.4240    1.0000 </r>
       <r>  -12.1424    1.0000 </r>
       <r>  -12.1374    1.0000 </r>
       <r>   -0.2679    1.0000 </r>
       <r>   -0.1644    1.0000 </r>
       <r>   -0.0006    1.0000 </r>
       <r>    0.0121    1.0000 </r>
       <r>    0.3692    1.0000 </r>
       <r>    0.4655    1.0000 </r>
       <r>    0.5127    1.0000 </r>
       <r>    0.6878    1.0000 </r>
       <r>    0.7712    1.0000 </r>
       <r>    0.8278    1.0000 </r>
       <r>    1.3010    1.0000 </r>
       <r>    1.3183    1.0000 </r>
       <r>    1.4353    1.0000 </r>
       <r>    1.6713    1.0000 </r>
       <r>    1.6817    1.0000 </r>
       <r>    1.7017    1.0000 </r>
       <r>    2.4740    1.0000 </r>
       <r>    2.4858    1.0000 </r>
       <r>    2.7254    1.0000 </r>
       <r>    2.7313    1.0000 </r>
       <r>    2.8053    1.0000 </r>
       <r>    2.8892    1.0000 </r>
       <r>    2.9131    1.0000 </r>
       <r>    3.0133    1.0000 </r>
       <r>   10.4589    0.0000 </r>
       <r>   10.5653    0.0000 </r>
       <r>   11.8375    0.0000 </r>
       <r>   11.8633    0.0000 </r>
       <r>   11.9854    0.0000 </r>
       <r>   13.0376    0.0000 </r>
       <r>   13.4643    0.0000 </r>
       <r>   13.6607    0.0000 </r>
       <r>   13.7381    0.0000 </r>
       <r>   14.0544    0.0000 </r>
       <r>   14.1153    0.0000 </r>
       <r>   14.3888    0.0000 </r>
       <r>   14.7417    0.0000 </r>
       <r>   14.9761    0.0000 </r>
       <r>   15.0514    0.0000 </r>
       <r>   15.0655    0.0000 </r>
       <r>   15.7705    0.0000 </r>
       <r>   16.2541    0.0000 </r>
       <r>   16.6235    0.0000 </r>
       <r>   17.1818    0.0000 </r>
      </set>
      <set comment="kpoint 8">
       <r>  -13.2513    1.0000 </r>
       <r>  -13.1404    1.0000 </r>
       <r>  -12.5294    1.0000 </r>
       <r>  -12.4821    1.0000 </r>
       <r>  -12.4696    1.0000 </r>
       <r>  -12.2606    1.0000 </r>
       <r>  -12.2375    1.0000 </r>
       <r>  -12.2221    1.0000 </r>
       <r>   -0.6600    1.0000 </r>
       <r>   -0.3693    1.0000 </r>
       <r>   -0.3474    1.0000 </r>
       <r>   -0.2919    1.0000 </r>
       <r>   -0.2686    1.0000 </r>
       <r>   -0.2539    1.0000 </r>
       <r>    0.6283    1.0000 </r>
       <r>    0.7275    1.0000 </r>
       <r>    1.2819    1.0000 </r>
       <r>    1.4414    1.0000 </r>
       <r>    1.4840    1.0000 </r>
       <r>    1.6532    1.0000 </r>
       <r>    1.6922    1.0000 </r>
       <r>    1.7186    1.0000 </r>
       <r>    2.2141    1.0000 </r>
       <r>    2.2263    1.0000 </r>
       <r>    2.4380    1.0000 </r>
       <r>    2.4458    1.0000 </r>
       <r>    2.5008    1.0000 </r>
       <r>    2.6360    1.0000 </r>
       <r>    3.0220    1.0000 </r>
       <r>    3.0473    1.0000 </r>
       <r>    3.1717    1.0000 </r>
       <r>    3.1953    1.0000 </r>
       <r>    9.6928    0.9832 </r>
       <r>   10.0257    0.0000 </r>
       <r>   11.5815    0.0000 </r>
       <r>   11.7854    0.0000 </r>
       <r>   11.9043    0.0000 </r>
       <r>   12.7862    0.0000 </r>
       <r>   12.8481    0.0000 </r>
       <r>   12.9470    0.0000 </r>
       <r>   13.5186    0.0000 </r>
       <r>   13.5505    0.0000 </r>
       <r>   14.2797    0.0000 </r>
       <r>   14.6315    0.0000 </r>
       <r>   14.7904    0.0000 </r>
       <r>   14.8177    0.0000 </r>
       <r>   15.2985    0.0000 </r>
       <r>   16.0327    0.0000 </r>
       <r>   16.0468    0.0000 </r>
       <r>   16.2665    0.0000 </r>
       <r>   16.4761    0.0000 </r>
       <r>   16.6455    0.0000 </r>
      </set>
     </set>
    </set>
   </array>
  </eigenvalues>
  <separator name="orbital magnetization" >
   <v name="MAGDIPOLOUT">      0.00000000      0.00000000      0.00000000</v>
  </separator>
  <dos>
   <i name="efermi">      9.76792831 </i>
   <total>
    <array>
     <dimension dim="1">gridpoints</dimension>
     <dimension dim="2">spin</dimension>
     <field>energy</field>
     <field>total</field>
     <field>integrated</field>
     <set>
      <set comment="spin 1">
       <r>   -15.3981     0.0000     0.0000 </r>
       <r>   -15.2808     0.0000     0.0000 </r>
       <r>   -15.1635     0.0000     0.0000 </r>
       <r>   -15.0461     0.0000     0.0000 </r>
       <r>   -14.9288     0.0000     0.0000 </r>
       <r>   -14.8114     0.0000     0.0000 </r>
       <r>   -14.6941     0.0000     0.0000 </r>
       <r>   -14.5768     0.0000     0.0000 </r>
       <r>   -14.4594     0.0000     0.0000 </r>
       <r>   -14.3421     0.0000     0.0000 </r>
       <r>   -14.2248     0.0000     0.0000 </r>
       <r>   -14.1074     0.0000     0.0000 </r>
       <r>   -13.9901     0.0000     0.0000 </r>
       <r>   -13.8728     0.0185     0.0022 </r>
       <r>   -13.7554     0.9257     0.1108 </r>
       <r>   -13.6381     0.1212     0.1250 </r>
       <r>   -13.5208     0.0000     0.1250 </r>
       <r>   -13.4034     0.0051     0.1256 </r>
       <r>   -13.2861     2.1021     0.3722 </r>
       <r>   -13.1687     5.1149     0.9724 </r>
       <r>   -13.0514     5.9033     1.6651 </r>
       <r>   -12.9341     1.7871     1.8748 </r>
       <r>   -12.8167     0.0035     1.8752 </r>
       <r>   -12.6994     1.6477     2.0685 </r>
       <r>   -12.5821     9.1003     3.1363 </r>
       <r>   -12.4647    16.8124     5.1090 </r>
       <r>   -12.3474     6.7325     5.8990 </r>
       <r>   -12.2301    12.7023     7.3894 </r>
       <r>   -12.1127     5.1905     7.9984 </r>
       <r>   -11.9954     0.0135     8.0000 </r>
       <r>   -11.8781     0.0000     8.0000 </r>
       <r>   -11.7607     0.0000     8.0000 </r>
       <r>   -11.6434     0.0000     8.0000 </r>
       <r>   -11.5260     0.0000     8.0000 </r>
       <r>   -11.4087     0.0000     8.0000 </r>
       <r>   -11.2914     0.0000     8.0000 </r>
       <r>   -11.1740     0.0000     8.0000 </r>
       <r>   -11.0567     0.0000     8.0000 </r>
       <r>   -10.9394     0.0000     8.0000 </r>
       <r>   -10.8220     0.0000     8.0000 </r>
       <r>   -10.7047     0.0000     8.0000 </r>
       <r>   -10.5874     0.0000     8.0000 </r>
       <r>   -10.4700     0.0000     8.0000 </r>
       <r>   -10.3527     0.0000     8.0000 </r>
       <r>   -10.2354     0.0000     8.0000 </r>
       <r>   -10.1180     0.0000     8.0000 </r>
       <r>   -10.0007     0.0000     8.0000 </r>
       <r>    -9.8833     0.0000     8.0000 </r>
       <r>    -9.7660     0.0000     8.0000 </r>
       <r>    -9.6487     0.0000     8.0000 </r>
       <r>    -9.5313     0.0000     8.0000 </r>
       <r>    -9.4140     0.0000     8.0000 </r>
       <r>    -9.2967     0.0000     8.0000 </r>
       <r>    -9.1793     0.0000     8.0000 </r>
       <r>    -9.0620     0.0000     8.0000 </r>
       <r>    -8.9447     0.0000     8.0000 </r>
       <r>    -8.8273     0.0000     8.0000 </r>
       <r>    -8.7100     0.0000     8.0000 </r>
       <r>    -8.5927     0.0000     8.0000 </r>
       <r>    -8.4753     0.0000     8.0000 </r>
       <r>    -8.3580     0.0000     8.0000 </r>
       <r>    -8.2406     0.0000     8.0000 </r>
       <r>    -8.1233     0.0000     8.0000 </r>
       <r>    -8.0060     0.0000     8.0000 </r>
       <r>    -7.8886     0.0000     8.0000 </r>
       <r>    -7.7713     0.0000     8.0000 </r>
       <r>    -7.6540     0.0000     8.0000 </r>
       <r>    -7.5366     0.0000     8.0000 </r>
       <r>    -7.4193     0.0000     8.0000 </r>
       <r>    -7.3020     0.0000     8.0000 </r>
       <r>    -7.1846     0.0000     8.0000 </r>
       <r>    -7.0673     0.0000     8.0000 </r>
       <r>    -6.9500     0.0000     8.0000 </r>
       <r>    -6.8326     0.0000     8.0000 </r>
       <r>    -6.7153     0.0000     8.0000 </r>
       <r>    -6.5979     0.0000     8.0000 </r>
       <r>    -6.4806     0.0000     8.0000 </r>
       <r>    -6.3633     0.0000     8.0000 </r>
       <r>    -6.2459     0.0000     8.0000 </r>
       <r>    -6.1286     0.0000     8.0000 </r>
       <r>    -6.0113     0.0000     8.0000 </r>
       <r>    -5.8939     0.0000     8.0000 </r>
       <r>    -5.7766     0.0000     8.0000 </r>
       <r>    -5.6593     0.0000     8.0000 </r>
       <r>    -5.5419     0.0000     8.0000 </r>
       <r>    -5.4246     0.0000     8.0000 </r>
       <r>    -5.3073     0.0000     8.0000 </r>
       <r>    -5.1899     0.0000     8.0000 </r>
       <r>    -5.0726     0.0000     8.0000 </r>
       <r>    -4.9552     0.0000     8.0000 </r>
       <r>    -4.8379     0.0000     8.0000 </r>
       <r>    -4.7206     0.0000     8.0000 </r>
       <r>    -4.6032     0.0000     8.0000 </r>
       <r>    -4.4859     0.0000     8.0000 </r>
       <r>    -4.3686     0.0000     8.0000 </r>
       <r>    -4.2512     0.0000     8.0000 </r>
       <r>    -4.1339     0.0000     8.0000 </r>
       <r>    -4.0166     0.0000     8.0000 </r>
       <r>    -3.8992     0.0000     8.0000 </r>
       <r>    -3.7819     0.0000     8.0000 </r>
       <r>    -3.6646     0.0000     8.0000 </r>
       <r>    -3.5472     0.0000     8.0000 </r>
       <r>    -3.4299     0.0000     8.0000 </r>
       <r>    -3.3125     0.0000     8.0000 </r>
       <r>    -3.1952     0.0000     8.0000 </r>
       <r>    -3.0779     0.0000     8.0000 </r>
       <r>    -2.9605     0.0000     8.0000 </r>
       <r>    -2.8432     0.0000     8.0000 </r>
       <r>    -2.7259     0.0000     8.0000 </r>
       <r>    -2.6085     0.0000     8.0000 </r>
       <r>    -2.4912     0.0000     8.0000 </r>
       <r>    -2.3739     0.0000     8.0000 </r>
       <r>    -2.2565     0.0000     8.0000 </r>
       <r>    -2.1392     0.0000     8.0000 </r>
       <r>    -2.0219     0.0000     8.0000 </r>
       <r>    -1.9045     0.0000     8.0000 </r>
       <r>    -1.7872     0.0000     8.0000 </r>
       <r>    -1.6698     0.0000     8.0000 </r>
       <r>    -1.5525     0.0091     8.0011 </r>
       <r>    -1.4352     0.8699     8.1031 </r>
       <r>    -1.3178     0.1863     8.1250 </r>
       <r>    -1.2005     0.1963     8.1480 </r>
       <r>    -1.0832     2.8322     8.4804 </r>
       <r>    -0.9658     0.1767     8.5011 </r>
       <r>    -0.8485     0.8712     8.6033 </r>
       <r>    -0.7312     1.0868     8.7308 </r>
       <r>    -0.6138     4.1520     9.2180 </r>
       <r>    -0.4965     5.4006     9.8517 </r>
       <r>    -0.3792     4.7416    10.4080 </r>
       <r>    -0.2618    13.5995    12.0037 </r>
       <r>    -0.1445     5.1680    12.6101 </r>
       <r>    -0.0271     2.5338    12.9074 </r>
       <r>     0.0902     3.9694    13.3732 </r>
       <r>     0.2075     0.8924    13.4779 </r>
       <r>     0.3249     5.3545    14.1062 </r>
       <r>     0.4422     0.4163    14.1550 </r>
       <r>     0.5595     3.1020    14.5190 </r>
       <r>     0.6769     8.8721    15.5600 </r>
       <r>     0.7942     7.0632    16.3888 </r>
       <r>     0.9115     2.0112    16.6248 </r>
       <r>     1.0289     0.0020    16.6250 </r>
       <r>     1.1462     0.0509    16.6310 </r>
       <r>     1.2635     4.5212    17.1615 </r>
       <r>     1.3809     7.9714    18.0968 </r>
       <r>     1.4982    12.2030    19.5287 </r>
       <r>     1.6156    12.3017    20.9721 </r>
       <r>     1.7329     7.6766    21.8728 </r>
       <r>     1.8502     1.9456    22.1011 </r>
       <r>     1.9676     1.2679    22.2499 </r>
       <r>     2.0849     0.0286    22.2532 </r>
       <r>     2.2022     6.5494    23.0217 </r>
       <r>     2.3196     6.2725    23.7577 </r>
       <r>     2.4369     8.4518    24.7494 </r>
       <r>     2.5542    12.2780    26.1900 </r>
       <r>     2.6716     8.1671    27.1483 </r>
       <r>     2.7889     7.1278    27.9847 </r>
       <r>     2.9062     8.8145    29.0189 </r>
       <r>     3.0236    11.5871    30.3785 </r>
       <r>     3.1409     7.4351    31.2509 </r>
       <r>     3.2583     3.2452    31.6317 </r>
       <r>     3.3756     2.6172    31.9388 </r>
       <r>     3.4929     0.5215    32.0000 </r>
       <r>     3.6103     0.0001    32.0000 </r>
       <r>     3.7276     0.0000    32.0000 </r>
       <r>     3.8449     0.0000    32.0000 </r>
       <r>     3.9623     0.0000    32.0000 </r>
       <r>     4.0796     0.0000    32.0000 </r>
       <r>     4.1969     0.0000    32.0000 </r>
       <r>     4.3143     0.0000    32.0000 </r>
       <r>     4.4316     0.0000    32.0000 </r>
       <r>     4.5489     0.0000    32.0000 </r>
       <r>     4.6663     0.0000    32.0000 </r>
       <r>     4.7836     0.0000    32.0000 </r>
       <r>     4.9010     0.0000    32.0000 </r>
       <r>     5.0183     0.0000    32.0000 </r>
       <r>     5.1356     0.0000    32.0000 </r>
       <r>     5.2530     0.0000    32.0000 </r>
       <r>     5.3703     0.0000    32.0000 </r>
       <r>     5.4876     0.0000    32.0000 </r>
       <r>     5.6050     0.0000    32.0000 </r>
       <r>     5.7223     0.0000    32.0000 </r>
       <r>     5.8396     0.0000    32.0000 </r>
       <r>     5.9570     0.0000    32.0000 </r>
       <r>     6.0743     0.0000    32.0000 </r>
       <r>     6.1916     0.0000    32.0000 </r>
       <r>     6.3090     0.0000    32.0000 </r>
       <r>     6.4263     0.0000    32.0000 </r>
       <r>     6.5437     0.0000    32.0000 </r>
       <r>     6.6610     0.0000    32.0000 </r>
       <r>     6.7783     0.0000    32.0000 </r>
       <r>     6.8957     0.0000    32.0000 </r>
       <r>     7.0130     0.0000    32.0000 </r>
       <r>     7.1303     0.0000    32.0000 </r>
       <r>     7.2477     0.0009    32.0001 </r>
       <r>     7.3650     0.6106    32.0717 </r>
       <r>     7.4823     0.4536    32.1250 </r>
       <r>     7.5997     0.0002    32.1250 </r>
       <r>     7.7170     0.0000    32.1250 </r>
       <r>     7.8344     0.0000    32.1250 </r>
       <r>     7.9517     0.0000    32.1250 </r>
       <r>     8.0690     0.0000    32.1250 </r>
       <r>     8.1864     0.0000    32.1250 </r>
       <r>     8.3037     0.0000    32.1250 </r>
       <r>     8.4210     0.0000    32.1250 </r>
       <r>     8.5384     0.0000    32.1250 </r>
       <r>     8.6557     0.0000    32.1250 </r>
       <r>     8.7730     0.0000    32.1250 </r>
       <r>     8.8904     0.0000    32.1250 </r>
       <r>     9.0077     0.0000    32.1250 </r>
       <r>     9.1250     0.0332    32.1289 </r>
       <r>     9.2424     3.3389    32.5207 </r>
       <r>     9.3597     1.4991    32.6966 </r>
       <r>     9.4771     0.4552    32.7500 </r>
       <r>     9.5944     0.0079    32.7509 </r>
       <r>     9.7117     2.9565    33.0978 </r>
       <r>     9.8291     3.9294    33.5589 </r>
       <r>     9.9464     0.5635    33.6250 </r>
       <r>    10.0637     0.0002    33.6250 </r>
       <r>    10.1811     0.0000    33.6250 </r>
       <r>    10.2984     0.0000    33.6250 </r>
       <r>    10.4157     0.2362    33.6527 </r>
       <r>    10.5331     2.8525    33.9874 </r>
       <r>    10.6504     0.1443    34.0043 </r>
       <r>    10.7677     2.0409    34.2438 </r>
       <r>    10.8851     1.1202    34.3752 </r>
       <r>    11.0024     2.4014    34.6570 </r>
       <r>    11.1198     1.8554    34.8747 </r>
       <r>    11.2371     0.6653    34.9528 </r>
       <r>    11.3544     2.5130    35.2476 </r>
       <r>    11.4718     0.1697    35.2676 </r>
       <r>    11.5891     2.4023    35.5494 </r>
       <r>    11.7064     4.1195    36.0328 </r>
       <r>    11.8238     3.1122    36.3980 </r>
       <r>    11.9411     5.9713    37.0986 </r>
       <r>    12.0584     2.1684    37.3530 </r>
       <r>    12.1758     0.1890    37.3752 </r>
       <r>    12.2931     1.1771    37.5133 </r>
       <r>    12.4104     0.9510    37.6249 </r>
       <r>    12.5278     0.1069    37.6375 </r>
       <r>    12.6451     1.6677    37.8331 </r>
       <r>    12.7625     1.8062    38.0451 </r>
       <r>    12.8798     7.4213    38.9159 </r>
       <r>    12.9971     4.0212    39.3877 </r>
       <r>    13.1145     1.9908    39.6213 </r>
       <r>    13.2318     1.3512    39.7798 </r>
       <r>    13.3491     2.3670    40.0576 </r>
       <r>    13.4665     4.3923    40.5729 </r>
       <r>    13.5838     3.6381    40.9998 </r>
       <r>    13.7011     5.6094    41.6580 </r>
       <r>    13.8185     0.7841    41.7500 </r>
       <r>    13.9358     0.2266    41.7766 </r>
       <r>    14.0531     5.0818    42.3729 </r>
       <r>    14.1705     2.1313    42.6229 </r>
       <r>    14.2878     3.9152    43.0823 </r>
       <r>    14.4052     2.4647    43.3715 </r>
       <r>    14.5225     2.3189    43.6436 </r>
       <r>    14.6398     2.0443    43.8835 </r>
       <r>    14.7572     4.8308    44.4503 </r>
       <r>    14.8745     6.9319    45.2637 </r>
       <r>    14.9918     5.5885    45.9194 </r>
       <r>    15.1092     5.4830    46.5628 </r>
       <r>    15.2265     1.5340    46.7428 </r>
       <r>    15.3438     1.1224    46.8745 </r>
       <r>    15.4612     0.0065    46.8752 </r>
       <r>    15.5785     1.1599    47.0113 </r>
       <r>    15.6958     1.5072    47.1882 </r>
       <r>    15.8132     3.7929    47.6332 </r>
       <r>    15.9305     1.1878    47.7726 </r>
       <r>    16.0479     4.8270    48.3389 </r>
       <r>    16.1652     5.9201    49.0336 </r>
       <r>    16.2825     5.0070    49.6211 </r>
       <r>    16.3999     6.8108    50.4202 </r>
       <r>    16.5172     6.7913    51.2171 </r>
       <r>    16.6345     0.2804    51.2500 </r>
       <r>    16.7519     0.0000    51.2500 </r>
       <r>    16.8692     0.0000    51.2500 </r>
       <r>    16.9865     0.0015    51.2502 </r>
       <r>    17.1039     0.6761    51.3295 </r>
       <r>    17.2212     1.9222    51.5551 </r>
       <r>    17.3385     0.5981    51.6252 </r>
       <r>    17.4559     0.7106    51.7086 </r>
       <r>    17.5732     0.3527    51.7500 </r>
       <r>    17.6906     0.0002    51.7500 </r>
       <r>    17.8079     0.3766    51.7942 </r>
       <r>    17.9252     1.2911    51.9457 </r>
       <r>    18.0426     0.4625    52.0000 </r>
       <r>    18.1599     0.0003    52.0000 </r>
       <r>    18.2772     0.0000    52.0000 </r>
       <r>    18.3946     0.0000    52.0000 </r>
       <r>    18.5119     0.0000    52.0000 </r>
       <r>    18.6292     0.0000    52.0000 </r>
       <r>    18.7466     0.0000    52.0000 </r>
       <r>    18.8639     0.0000    52.0000 </r>
       <r>    18.9812     0.0000    52.0000 </r>
       <r>    19.0986     0.0000    52.0000 </r>
       <r>    19.2159     0.0000    52.0000 </r>
       <r>    19.3333     0.0000    52.0000 </r>
       <r>    19.4506     0.0000    52.0000 </r>
       <r>    19.5679     0.0000    52.0000 </r>
       <r>    19.6853     0.0000    52.0000 </r>
       <r>    19.8026     0.0000    52.0000 </r>
      </set>
      <set comment="spin 2">
       <r>   -15.3981     0.0000     0.0000 </r>
       <r>   -15.2808     0.0000     0.0000 </r>
       <r>   -15.1635     0.0000     0.0000 </r>
       <r>   -15.0461     0.0000     0.0000 </r>
       <r>   -14.9288     0.0000     0.0000 </r>
       <r>   -14.8114     0.0000     0.0000 </r>
       <r>   -14.6941     0.0000     0.0000 </r>
       <r>   -14.5768     0.0000     0.0000 </r>
       <r>   -14.4594     0.0000     0.0000 </r>
       <r>   -14.3421     0.0000     0.0000 </r>
       <r>   -14.2248     0.0000     0.0000 </r>
       <r>   -14.1074     0.0000     0.0000 </r>
       <r>   -13.9901     0.0000     0.0000 </r>
       <r>   -13.8728     0.0005     0.0001 </r>
       <r>   -13.7554     0.5302     0.0623 </r>
       <r>   -13.6381     0.5342     0.1249 </r>
       <r>   -13.5208     0.0005     0.1250 </r>
       <r>   -13.4034     0.0006     0.1251 </r>
       <r>   -13.2861     1.2036     0.2663 </r>
       <r>   -13.1687     3.6597     0.6957 </r>
       <r>   -13.0514     6.8890     1.5040 </r>
       <r>   -12.9341     3.1455     1.8731 </r>
       <r>   -12.8167     0.0162     1.8750 </r>
       <r>   -12.6994     0.2137     1.9001 </r>
       <r>   -12.5821     7.8844     2.8252 </r>
       <r>   -12.4647    15.2293     4.6121 </r>
       <r>   -12.3474     6.4995     5.3748 </r>
       <r>   -12.2301     7.8294     6.2934 </r>
       <r>   -12.1127    12.9619     7.8143 </r>
       <r>   -11.9954     1.5823     8.0000 </r>
       <r>   -11.8781     0.0001     8.0000 </r>
       <r>   -11.7607     0.0000     8.0000 </r>
       <r>   -11.6434     0.0000     8.0000 </r>
       <r>   -11.5260     0.0000     8.0000 </r>
       <r>   -11.4087     0.0000     8.0000 </r>
       <r>   -11.2914     0.0000     8.0000 </r>
       <r>   -11.1740     0.0000     8.0000 </r>
       <r>   -11.0567     0.0000     8.0000 </r>
       <r>   -10.9394     0.0000     8.0000 </r>
       <r>   -10.8220     0.0000     8.0000 </r>
       <r>   -10.7047     0.0000     8.0000 </r>
       <r>   -10.5874     0.0000     8.0000 </r>
       <r>   -10.4700     0.0000     8.0000 </r>
       <r>   -10.3527     0.0000     8.0000 </r>
       <r>   -10.2354     0.0000     8.0000 </r>
       <r>   -10.1180     0.0000     8.0000 </r>
       <r>   -10.0007     0.0000     8.0000 </r>
       <r>    -9.8833     0.0000     8.0000 </r>
       <r>    -9.7660     0.0000     8.0000 </r>
       <r>    -9.6487     0.0000     8.0000 </r>
       <r>    -9.5313     0.0000     8.0000 </r>
       <r>    -9.4140     0.0000     8.0000 </r>
       <r>    -9.2967     0.0000     8.0000 </r>
       <r>    -9.1793     0.0000     8.0000 </r>
       <r>    -9.0620     0.0000     8.0000 </r>
       <r>    -8.9447     0.0000     8.0000 </r>
       <r>    -8.8273     0.0000     8.0000 </r>
       <r>    -8.7100     0.0000     8.0000 </r>
       <r>    -8.5927     0.0000     8.0000 </r>
       <r>    -8.4753     0.0000     8.0000 </r>
       <r>    -8.3580     0.0000     8.0000 </r>
       <r>    -8.2406     0.0000     8.0000 </r>
       <r>    -8.1233     0.0000     8.0000 </r>
       <r>    -8.0060     0.0000     8.0000 </r>
       <r>    -7.8886     0.0000     8.0000 </r>
       <r>    -7.7713     0.0000     8.0000 </r>
       <r>    -7.6540     0.0000     8.0000 </r>
       <r>    -7.5366     0.0000     8.0000 </r>
       <r>    -7.4193     0.0000     8.0000 </r>
       <r>    -7.3020     0.0000     8.0000 </r>
       <r>    -7.1846     0.0000     8.0000 </r>
       <r>    -7.0673     0.0000     8.0000 </r>
       <r>    -6.9500     0.0000     8.0000 </r>
       <r>    -6.8326     0.0000     8.0000 </r>
       <r>    -6.7153     0.0000     8.0000 </r>
       <r>    -6.5979     0.0000     8.0000 </r>
       <r>    -6.4806     0.0000     8.0000 </r>
       <r>    -6.3633     0.0000     8.0000 </r>
       <r>    -6.2459     0.0000     8.0000 </r>
       <r>    -6.1286     0.0000     8.0000 </r>
       <r>    -6.0113     0.0000     8.0000 </r>
       <r>    -5.8939     0.0000     8.0000 </r>
       <r>    -5.7766     0.0000     8.0000 </r>
       <r>    -5.6593     0.0000     8.0000 </r>
       <r>    -5.5419     0.0000     8.0000 </r>
       <r>    -5.4246     0.0000     8.0000 </r>
       <r>    -5.3073     0.0000     8.0000 </r>
       <r>    -5.1899     0.0000     8.0000 </r>
       <r>    -5.0726     0.0000     8.0000 </r>
       <r>    -4.9552     0.0000     8.0000 </r>
       <r>    -4.8379     0.0000     8.0000 </r>
       <r>    -4.7206     0.0000     8.0000 </r>
       <r>    -4.6032     0.0000     8.0000 </r>
       <r>    -4.4859     0.0000     8.0000 </r>
       <r>    -4.3686     0.0000     8.0000 </r>
       <r>    -4.2512     0.0000     8.0000 </r>
       <r>    -4.1339     0.0000     8.0000 </r>
       <r>    -4.0166     0.0000     8.0000 </r>
       <r>    -3.8992     0.0000     8.0000 </r>
       <r>    -3.7819     0.0000     8.0000 </r>
       <r>    -3.6646     0.0000     8.0000 </r>
       <r>    -3.5472     0.0000     8.0000 </r>
       <r>    -3.4299     0.0000     8.0000 </r>
       <r>    -3.3125     0.0000     8.0000 </r>
       <r>    -3.1952     0.0000     8.0000 </r>
       <r>    -3.0779     0.0000     8.0000 </r>
       <r>    -2.9605     0.0000     8.0000 </r>
       <r>    -2.8432     0.0000     8.0000 </r>
       <r>    -2.7259     0.0000     8.0000 </r>
       <r>    -2.6085     0.0000     8.0000 </r>
       <r>    -2.4912     0.0000     8.0000 </r>
       <r>    -2.3739     0.0000     8.0000 </r>
       <r>    -2.2565     0.0000     8.0000 </r>
       <r>    -2.1392     0.0000     8.0000 </r>
       <r>    -2.0219     0.0000     8.0000 </r>
       <r>    -1.9045     0.0000     8.0000 </r>
       <r>    -1.7872     0.0000     8.0000 </r>
       <r>    -1.6698     0.0000     8.0000 </r>
       <r>    -1.5525     0.0000     8.0000 </r>
       <r>    -1.4352     0.0040     8.0005 </r>
       <r>    -1.3178     0.7864     8.0927 </r>
       <r>    -1.2005     0.3166     8.1299 </r>
       <r>    -1.0832     2.5979     8.4347 </r>
       <r>    -0.9658     0.5563     8.5000 </r>
       <r>    -0.8485     0.0001     8.5000 </r>
       <r>    -0.7312     0.3177     8.5373 </r>
       <r>    -0.6138     4.4991     9.0652 </r>
       <r>    -0.4965     2.2633     9.3308 </r>
       <r>    -0.3792     2.9069     9.6718 </r>
       <r>    -0.2618    14.6831    11.3947 </r>
       <r>    -0.1445     9.5024    12.5097 </r>
       <r>    -0.0271     2.2592    12.7747 </r>
       <r>     0.0902     5.0393    13.3660 </r>
       <r>     0.2075     0.0764    13.3750 </r>
       <r>     0.3249     0.3787    13.4194 </r>
       <r>     0.4422     3.6169    13.8438 </r>
       <r>     0.5595     5.3829    14.4754 </r>
       <r>     0.6769     5.3620    15.1046 </r>
       <r>     0.7942     9.3451    16.2011 </r>
       <r>     0.9115     3.5739    16.6204 </r>
       <r>     1.0289     0.0388    16.6250 </r>
       <r>     1.1462     0.0002    16.6250 </r>
       <r>     1.2635     1.6662    16.8205 </r>
       <r>     1.3809     9.3315    17.9155 </r>
       <r>     1.4982     9.7637    19.0611 </r>
       <r>     1.6156     2.5662    19.3622 </r>
       <r>     1.7329    18.8236    21.5709 </r>
[...]
        <r>  0.0047  0.0001  0.0000  0.0017  0.0002  0.0003  0.0001  0.0001  0.0000 </r>
        <r>  0.0012  0.0006  0.0005  0.0038  0.0001  0.0000  0.0000  0.0000  0.0003 </r>
        <r>  0.0012  0.0018  0.0005  0.0000  0.0046  0.0003  0.0005  0.0050  0.0004 </r>
        <r>  0.0002  0.0057  0.0034  0.0002  0.0000  0.0000  0.0000  0.0000  0.0000 </r>
        <r>  0.0037  0.0000  0.0023  0.0237  0.0000  0.0000  0.0000  0.0000  0.0000 </r>
        <r>  0.0053  0.0045  0.0069  0.0268  0.0000  0.0000  0.0000  0.0000  0.0000 </r>
        <r>  0.0002  0.0000  0.0021  0.0009  0.0000  0.0000  0.0000  0.0000  0.0000 </r>
        <r>  0.0003  0.0128  0.0146  0.0000  0.0000  0.0000  0.0000  0.0000  0.0000 </r>
        <r>  0.0000  0.0163  0.0180  0.0216  0.0000  0.0000  0.0000  0.0000  0.0000 </r>
        <r>  0.0001  0.0073  0.0113  0.0131  0.0000  0.0000  0.0000  0.0000  0.0000 </r>
        <r>  0.0011  0.0138  0.0073  0.0002  0.0000  0.0000  0.0000  0.0000  0.0000 </r>
       </set>
       <set comment="band 42">
        <r>  0.0004  0.0007  0.0053  0.0071  0.0042  0.0073  0.0044  0.0009  0.0066 </r>
        <r>  0.0001  0.0018  0.0071  0.0069  0.0002  0.0001  0.0007  0.0001  0.0013 </r>
        <r>  0.0161  0.0001  0.0004  0.0072  0.0017  0.0170  0.0000  0.0003  0.0001 </r>
        <r>  0.0044  0.0002  0.0022  0.0031  0.0044  0.0147  0.0003  0.0002  0.0000 </r>
        <r>  0.0025  0.0019  0.0001  0.0004  0.0000  0.0000  0.0000  0.0001  0.0000 </r>
        <r>  0.0462  0.0041  0.0056  0.0012  0.0062  0.0054  0.0000  0.0013  0.0001 </r>
        <r>  0.0008  0.0002  0.0042  0.0026  0.0002  0.0000  0.0001  0.0000  0.0000 </r>
        <r>  0.0012  0.0047  0.0003  0.0007  0.0000  0.0001  0.0000  0.0001  0.0002 </r>
        <r>  0.0003  0.0003  0.0003  0.0006  0.0031  0.0080  0.0004  0.0005  0.0004 </r>
        <r>  0.0002  0.0015  0.0051  0.0071  0.0000  0.0000  0.0000  0.0000  0.0000 </r>
        <r>  0.0011  0.0406  0.0040  0.0002  0.0000  0.0000  0.0000  0.0000  0.0000 </r>
        <r>  0.0006  0.0004  0.0266  0.0056  0.0000  0.0000  0.0000  0.0000  0.0000 </r>
        <r>  0.0000  0.0163  0.0132  0.0135  0.0000  0.0000  0.0000  0.0000  0.0000 </r>
        <r>  0.0033  0.0216  0.0089  0.0053  0.0000  0.0000  0.0000  0.0000  0.0000 </r>
        <r>  0.0000  0.0016  0.0063  0.0003  0.0000  0.0000  0.0000  0.0000  0.0000 </r>
        <r>  0.0003  0.0117  0.0055  0.0029  0.0000  0.0000  0.0000  0.0000  0.0000 </r>
        <r>  0.0006  0.0020  0.0073  0.0137  0.0000  0.0000  0.0000  0.0000  0.0000 </r>
       </set>
       <set comment="band 43">
        <r>  0.0540  0.0050  0.0037  0.0023  0.0087  0.0068  0.0001  0.0102  0.0001 </r>
        <r>  0.0059  0.0019  0.0005  0.0001  0.0008  0.0004  0.0000  0.0027  0.0000 </r>
        <r>  0.0003  0.0017  0.0038  0.0000  0.0017  0.0050  0.0000  0.0083  0.0001 </r>
        <r>  0.0006  0.0056  0.0001  0.0000  0.0062  0.0043  0.0000  0.0024  0.0000 </r>
        <r>  0.0077  0.0003  0.0001  0.0205  0.0031  0.0002  0.0001  0.0022  0.0002 </r>
        <r>  0.0010  0.0027  0.0008  0.0033  0.0075  0.0012  0.0000  0.0086  0.0001 </r>
        <r>  0.0030  0.0166  0.0004  0.0003  0.0020  0.0022  0.0000  0.0000  0.0002 </r>
        <r>  0.0049  0.0005  0.0184  0.0001  0.0001  0.0031  0.0002  0.0020  0.0000 </r>
        <r>  0.0001  0.0000  0.0001  0.0001  0.0011  0.0006  0.0000  0.0015  0.0000 </r>
        <r>  0.0045  0.0544  0.0452  0.0504  0.0000  0.0000  0.0000  0.0000  0.0000 </r>
        <r>  0.0038  0.0001  0.0013  0.0010  0.0000  0.0000  0.0000  0.0000  0.0000 </r>
        <r>  0.0022  0.0008  0.0000  0.0004  0.0000  0.0000  0.0000  0.0000  0.0000 </r>
        <r>  0.0002  0.0016  0.0002  0.0010  0.0000  0.0000  0.0000  0.0000  0.0000 </r>
        <r>  0.0039  0.0006  0.0017  0.0010  0.0000  0.0000  0.0000  0.0000  0.0000 </r>
        <r>  0.0006  0.0000  0.0000  0.0000  0.0000  0.0000  0.0000  0.0000  0.0000 </r>
        <r>  0.0004  0.0007  0.0004  0.0000  0.0000  0.0000  0.0000  0.0000  0.0000 </r>
        <r>  0.0150  0.0004  0.0000  0.0001  0.0000  0.0000  0.0000  0.0000  0.0000 </r>
       </set>
       <set comment="band 44">
        <r>  0.0062  0.0094  0.0086  0.0084  0.0000  0.0000  0.0000  0.0000  0.0003 </r>
        <r>  0.0300  0.0002  0.0000  0.0000  0.0047  0.0046  0.0000  0.0038  0.0001 </r>
        <r>  0.0088  0.0004  0.0000  0.0008  0.0008  0.0049  0.0011  0.0050  0.0001 </r>
        <r>  0.0098  0.0002  0.0000  0.0001  0.0054  0.0053  0.0003  0.0005  0.0006 </r>
        <r>  0.0006  0.0035  0.0027  0.0006  0.0004  0.0046  0.0001  0.0005  0.0000 </r>
        <r>  0.0085  0.0004  0.0008  0.0000  0.0049  0.0008  0.0001  0.0047  0.0010 </r>
        <r>  0.0016  0.0006  0.0023  0.0020  0.0001  0.0000  0.0000  0.0037  0.0001 </r>
        <r>  0.0006  0.0033  0.0006  0.0024  0.0043  0.0002  0.0001  0.0004  0.0001 </r>
        <r>  0.0919  0.0002  0.0010  0.0010  0.0004  0.0005  0.0000  0.0002  0.0000 </r>
        <r>  0.0114  0.0000  0.0013  0.0014  0.0000  0.0000  0.0000  0.0000  0.0000 </r>
        <r>  0.0046  0.0054  0.0532  0.0084  0.0000  0.0000  0.0000  0.0000  0.0000 </r>
        <r>  0.0011  0.0460  0.0104  0.0103  0.0000  0.0000  0.0000  0.0000  0.0000 </r>
        <r>  0.0054  0.0052  0.0011  0.0000  0.0000  0.0000  0.0000  0.0000  0.0000 </r>
        <r>  0.0058  0.0045  0.0075  0.0534  0.0000  0.0000  0.0000  0.0000  0.0000 </r>
        <r>  0.0092  0.0013  0.0010  0.0007  0.0000  0.0000  0.0000  0.0000  0.0000 </r>
        <r>  0.0056  0.0052  0.0000  0.0006  0.0000  0.0000  0.0000  0.0000  0.0000 </r>
        <r>  0.0008  0.0026  0.0006  0.0006  0.0000  0.0000  0.0000  0.0000  0.0000 </r>
       </set>
       <set comment="band 45">
        <r>  0.0004  0.0001  0.0001  0.0001  0.0001  0.0001  0.0135  0.0001  0.0101 </r>
        <r>  0.0019  0.0000  0.0000  0.0000  0.0065  0.0003  0.0000  0.0134  0.0000 </r>
        <r>  0.0000  0.0126  0.0105  0.0008  0.0001  0.0004  0.0013  0.0001  0.0008 </r>
        <r>  0.0015  0.0074  0.0076  0.0004  0.0003  0.0000  0.0016  0.0003  0.0015 </r>
        <r>  0.0011  0.0004  0.0000  0.0002  0.0045  0.0000  0.0010  0.0058  0.0001 </r>
        <r>  0.0001  0.0112  0.0084  0.0015  0.0009  0.0002  0.0007  0.0003  0.0005 </r>
        <r>  0.0041  0.0001  0.0001  0.0001  0.0000  0.0016  0.0001  0.0037  0.0001 </r>
        <r>  0.0039  0.0001  0.0005  0.0000  0.0014  0.0026  0.0001  0.0022  0.0007 </r>
        <r>  0.0000  0.0038  0.0029  0.0003  0.0000  0.0001  0.0000  0.0007  0.0000 </r>
        <r>  0.0001  0.0393  0.0328  0.0039  0.0000  0.0000  0.0000  0.0000  0.0000 </r>
        <r>  0.0017  0.0191  0.0039  0.0045  0.0000  0.0000  0.0000  0.0000  0.0000 </r>
        <r>  0.0041  0.0120  0.0041  0.0009  0.0000  0.0000  0.0000  0.0000  0.0000 </r>
        <r>  0.0006  0.0225  0.0337  0.0001  0.0000  0.0000  0.0000  0.0000  0.0000 </r>
        <r>  0.0001  0.0301  0.0188  0.0001  0.0000  0.0000  0.0000  0.0000  0.0000 </r>
        <r>  0.0050  0.0032  0.0029  0.0025  0.0000  0.0000  0.0000  0.0000  0.0000 </r>
        <r>  0.0041  0.0080  0.0002  0.0179  0.0000  0.0000  0.0000  0.0000  0.0000 </r>
        <r>  0.0003  0.0194  0.0186  0.0026  0.0000  0.0000  0.0000  0.0000  0.0000 </r>
       </set>
       <set comment="band 46">
        <r>  0.0002  0.0000  0.0003  0.0001  0.0001  0.0004  0.0119  0.0000  0.0131 </r>
        <r>  0.0006  0.0000  0.0003  0.0003  0.0082  0.0146  0.0000  0.0015  0.0000 </r>
        <r>  0.0001  0.0001  0.0029  0.0157  0.0003  0.0004  0.0011  0.0004  0.0006 </r>
        <r>  0.0002  0.0004  0.0050  0.0122  0.0004  0.0010  0.0010  0.0001  0.0015 </r>
        <r>  0.0050  0.0000  0.0000  0.0007  0.0001  0.0043  0.0000  0.0005  0.0001 </r>
        <r>  0.0000  0.0032  0.0080  0.0124  0.0000  0.0000  0.0008  0.0002  0.0011 </r>
        <r>  0.0003  0.0000  0.0001  0.0000  0.0064  0.0046  0.0008  0.0004  0.0003 </r>
        <r>  0.0014  0.0002  0.0002  0.0000  0.0027  0.0023  0.0000  0.0044  0.0005 </r>
        <r>  0.0000  0.0003  0.0010  0.0034  0.0004  0.0001  0.0000  0.0001  0.0000 </r>
        <r>  0.0000  0.0036  0.0187  0.0480  0.0000  0.0000  0.0000  0.0000  0.0000 </r>
        <r>  0.0009  0.0142  0.0036  0.0154  0.0000  0.0000  0.0000  0.0000  0.0000 </r>
        <r>  0.0004  0.0008  0.0225  0.0235  0.0000  0.0000  0.0000  0.0000  0.0000 </r>
        <r>  0.0045  0.0043  0.0001  0.0008  0.0000  0.0000  0.0000  0.0000  0.0000 </r>
        <r>  0.0022  0.0004  0.0032  0.0068  0.0000  0.0000  0.0000  0.0000  0.0000 </r>
        <r>  0.0004  0.0007  0.0249  0.0282  0.0000  0.0000  0.0000  0.0000  0.0000 </r>
        <r>  0.0016  0.0187  0.0016  0.0144  0.0000  0.0000  0.0000  0.0000  0.0000 </r>
        <r>  0.0001  0.0015  0.0087  0.0265  0.0000  0.0000  0.0000  0.0000  0.0000 </r>
       </set>
       <set comment="band 47">
        <r>  0.0085  0.0005  0.0005  0.0006  0.0008  0.0006  0.0000  0.0006  0.0003 </r>
        <r>  0.0241  0.0011  0.0016  0.0019  0.0001  0.0004  0.0000  0.0000  0.0000 </r>
        <r>  0.0022  0.0011  0.0027  0.0000  0.0197  0.0020  0.0000  0.0038  0.0000 </r>
        <r>  0.0015  0.0060  0.0000  0.0000  0.0026  0.0022  0.0000  0.0185  0.0001 </r>
        <r>  0.0050  0.0004  0.0007  0.0031  0.0003  0.0000  0.0000  0.0000  0.0001 </r>
        <r>  0.0022  0.0013  0.0003  0.0020  0.0021  0.0200  0.0000  0.0035  0.0000 </r>
        <r>  0.0043  0.0021  0.0002  0.0002  0.0000  0.0001  0.0000  0.0001  0.0000 </r>
        <r>  0.0051  0.0002  0.0026  0.0007  0.0000  0.0003  0.0000  0.0000  0.0000 </r>
        <r>  0.0381  0.0012  0.0004  0.0003  0.0067  0.0071  0.0000  0.0057  0.0000 </r>
        <r>  0.0001  0.0007  0.0001  0.0006  0.0000  0.0000  0.0000  0.0000  0.0000 </r>
        <r>  0.0000  0.0001  0.0174  0.0017  0.0000  0.0000  0.0000  0.0000  0.0000 </r>
        <r>  0.0000  0.0239  0.0012  0.0020  0.0000  0.0000  0.0000  0.0000  0.0000 </r>
        <r>  0.0023  0.0023  0.0003  0.0310  0.0000  0.0000  0.0000  0.0000  0.0000 </r>
        <r>  0.0000  0.0002  0.0012  0.0153  0.0000  0.0000  0.0000  0.0000  0.0000 </r>
        <r>  0.0010  0.0251  0.0020  0.0009  0.0000  0.0000  0.0000  0.0000  0.0000 </r>
        <r>  0.0019  0.0034  0.0295  0.0001  0.0000  0.0000  0.0000  0.0000  0.0000 </r>
        <r>  0.0019  0.0148  0.0109  0.0094  0.0000  0.0000  0.0000  0.0000  0.0000 </r>
       </set>
       <set comment="band 48">
        <r>  0.0002  0.0054  0.0009  0.0012  0.0021  0.0032  0.0001  0.0109  0.0000 </r>
        <r>  0.0001  0.0166  0.0028  0.0056  0.0004  0.0008  0.0016  0.0019  0.0057 </r>
        <r>  0.0017  0.0001  0.0050  0.0005  0.0007  0.0150  0.0002  0.0079  0.0008 </r>
        <r>  0.0077  0.0210  0.0004  0.0012  0.0005  0.0002  0.0003  0.0032  0.0004 </r>
        <r>  0.0008  0.0089  0.0010  0.0047  0.0002  0.0000  0.0001  0.0003  0.0008 </r>
        <r>  0.0030  0.0000  0.0019  0.0048  0.0152  0.0009  0.0008  0.0066  0.0000 </r>
        <r>  0.0099  0.0179  0.0036  0.0055  0.0000  0.0001  0.0002  0.0001  0.0008 </r>
        <r>  0.0075  0.0080  0.0035  0.0021  0.0000  0.0005  0.0002  0.0003  0.0006 </r>
        <r>  0.0000  0.0000  0.0000  0.0001  0.0019  0.0023  0.0003  0.0085  0.0015 </r>
        <r>  0.0000  0.0094  0.0022  0.0019  0.0000  0.0000  0.0000  0.0000  0.0000 </r>
        <r>  0.0011  0.0084  0.0028  0.0044  0.0000  0.0000  0.0000  0.0000  0.0000 </r>
        <r>  0.0061  0.0091  0.0011  0.0028  0.0000  0.0000  0.0000  0.0000  0.0000 </r>
        <r>  0.0001  0.0145  0.0100  0.0053  0.0000  0.0000  0.0000  0.0000  0.0000 </r>
        <r>  0.0014  0.0051  0.0042  0.0037  0.0000  0.0000  0.0000  0.0000  0.0000 </r>
        <r>  0.0005  0.0105  0.0000  0.0000  0.0000  0.0000  0.0000  0.0000  0.0000 </r>
        <r>  0.0000  0.0100  0.0019  0.0149  0.0000  0.0000  0.0000  0.0000  0.0000 </r>
        <r>  0.0000  0.0229  0.0032  0.0064  0.0000  0.0000  0.0000  0.0000  0.0000 </r>
       </set>
       <set comment="band 49">
        <r>  0.0001  0.0000  0.0038  0.0033  0.0095  0.0085  0.0002  0.0000  0.0001 </r>
        <r>  0.0000  0.0000  0.0174  0.0149  0.0021  0.0020  0.0058  0.0000  0.0014 </r>
        <r>  0.0078  0.0014  0.0135  0.0012  0.0022  0.0005  0.0007  0.0049  0.0003 </r>
        <r>  0.0000  0.0001  0.0000  0.0000  0.0108  0.0121  0.0008  0.0000  0.0004 </r>
        <r>  0.0005  0.0001  0.0110  0.0115  0.0005  0.0001  0.0010  0.0001  0.0004 </r>
        <r>  0.0084  0.0015  0.0012  0.0107  0.0011  0.0019  0.0000  0.0084  0.0009 </r>
        <r>  0.0001  0.0000  0.0066  0.0062  0.0007  0.0008  0.0006  0.0000  0.0002 </r>
        <r>  0.0009  0.0004  0.0133  0.0117  0.0002  0.0005  0.0011  0.0000  0.0002 </r>
        <r>  0.0000  0.0000  0.0001  0.0002  0.0059  0.0051  0.0020  0.0000  0.0005 </r>
        <r>  0.0000  0.0001  0.0051  0.0035  0.0000  0.0000  0.0000  0.0000  0.0000 </r>
        <r>  0.0050  0.0002  0.0090  0.0038  0.0000  0.0000  0.0000  0.0000  0.0000 </r>
        <r>  0.0000  0.0000  0.0085  0.0092  0.0000  0.0000  0.0000  0.0000  0.0000 </r>
        <r>  0.0007  0.0014  0.0087  0.0143  0.0000  0.0000  0.0000  0.0000  0.0000 </r>
        <r>  0.0042  0.0010  0.0039  0.0084  0.0000  0.0000  0.0000  0.0000  0.0000 </r>
        <r>  0.0000  0.0001  0.0128  0.0146  0.0000  0.0000  0.0000  0.0000  0.0000 </r>
        <r>  0.0009  0.0005  0.0135  0.0055  0.0000  0.0000  0.0000  0.0000  0.0000 </r>
        <r>  0.0000  0.0000  0.0204  0.0175  0.0000  0.0000  0.0000  0.0000  0.0000 </r>
       </set>
       <set comment="band 50">
        <r>  0.0005  0.0000  0.0001  0.0000  0.0000  0.0000  0.0071  0.0002  0.0037 </r>
        <r>  0.0001  0.0001  0.0008  0.0005  0.0002  0.0003  0.0001  0.0000  0.0002 </r>
        <r>  0.0001  0.0006  0.0121  0.0129  0.0005  0.0004  0.0005  0.0001  0.0002 </r>
        <r>  0.0001  0.0004  0.0058  0.0086  0.0004  0.0003  0.0011  0.0000  0.0009 </r>
        <r>  0.1694  0.0000  0.0008  0.0008  0.0006  0.0014  0.0000  0.0001  0.0000 </r>
        <r>  0.0000  0.0010  0.0082  0.0184  0.0000  0.0001  0.0004  0.0000  0.0001 </r>
        <r>  0.0016  0.0003  0.0005  0.0003  0.0001  0.0000  0.0001  0.0000  0.0000 </r>
        <r>  0.1335  0.0001  0.0010  0.0006  0.0008  0.0002  0.0000  0.0001  0.0000 </r>
        <r>  0.0000  0.0000  0.0014  0.0015  0.0000  0.0000  0.0001  0.0000  0.0000 </r>
        <r>  0.0000  0.0001  0.0020  0.0016  0.0000  0.0000  0.0000  0.0000  0.0000 </r>
        <r>  0.0004  0.0140  0.0021  0.0045  0.0000  0.0000  0.0000  0.0000  0.0000 </r>
        <r>  0.0000  0.0002  0.0056  0.0015  0.0000  0.0000  0.0000  0.0000  0.0000 </r>
        <r>  0.0032  0.0147  0.0068  0.0079  0.0000  0.0000  0.0000  0.0000  0.0000 </r>
        <r>  0.0012  0.0153  0.0044  0.0031  0.0000  0.0000  0.0000  0.0000  0.0000 </r>
        <r>  0.0000  0.0000  0.0058  0.0022  0.0000  0.0000  0.0000  0.0000  0.0000 </r>
        <r>  0.0029  0.0202  0.0090  0.0041  0.0000  0.0000  0.0000  0.0000  0.0000 </r>
        <r>  0.0001  0.0001  0.0021  0.0020  0.0000  0.0000  0.0000  0.0000  0.0000 </r>
       </set>
       <set comment="band 51">
        <r>  0.0057  0.0005  0.0002  0.0001  0.0002  0.0003  0.0036  0.0000  0.0070 </r>
        <r>  0.0020  0.0038  0.0008  0.0004  0.0008  0.0006  0.0000  0.0005  0.0000 </r>
        <r>  0.0002  0.0067  0.0061  0.0012  0.0000  0.0000  0.0001  0.0001  0.0009 </r>
        <r>  0.0000  0.0133  0.0111  0.0081  0.0000  0.0000  0.0008  0.0033  0.0015 </r>
        <r>  0.0353  0.0019  0.0001  0.0004  0.0002  0.0004  0.0000  0.0021  0.0000 </r>
        <r>  0.0004  0.0056  0.0027  0.0031  0.0000  0.0000  0.0012  0.0001  0.0000 </r>
        <r>  0.1675  0.0011  0.0008  0.0007  0.0000  0.0000  0.0000  0.0016  0.0000 </r>
        <r>  0.0659  0.0019  0.0002  0.0000  0.0007  0.0004  0.0000  0.0023  0.0000 </r>
        <r>  0.0012  0.0015  0.0010  0.0006  0.0000  0.0000  0.0001  0.0009  0.0002 </r>
        <r>  0.0002  0.0009  0.0002  0.0001  0.0000  0.0000  0.0000  0.0000  0.0000 </r>
        <r>  0.0005  0.0004  0.0007  0.0110  0.0000  0.0000  0.0000  0.0000  0.0000 </r>
        <r>  0.0001  0.0013  0.0153  0.0188  0.0000  0.0000  0.0000  0.0000  0.0000 </r>
        <r>  0.0004  0.0001  0.0026  0.0025  0.0000  0.0000  0.0000  0.0000  0.0000 </r>
        <r>  0.0003  0.0022  0.0082  0.0003  0.0000  0.0000  0.0000  0.0000  0.0000 </r>
        <r>  0.0058  0.0154  0.0184  0.0206  0.0000  0.0000  0.0000  0.0000  0.0000 </r>
        <r>  0.0010  0.0001  0.0045  0.0042  0.0000  0.0000  0.0000  0.0000  0.0000 </r>
        <r>  0.0009  0.0047  0.0029  0.0019  0.0000  0.0000  0.0000  0.0000  0.0000 </r>
       </set>
       <set comment="band 52">
        <r>  0.0020  0.0028  0.0019  0.0016  0.0000  0.0000  0.0000  0.0001  0.0001 </r>
        <r>  0.0111  0.0003  0.0015  0.0017  0.0003  0.0003  0.0000  0.0003  0.0000 </r>
        <r>  0.0030  0.0049  0.0027  0.0018  0.0018  0.0004  0.0071  0.0007  0.0000 </r>
        <r>  0.0043  0.0070  0.0008  0.0006  0.0004  0.0003  0.0020  0.0015  0.0060 </r>
        <r>  0.0003  0.0005  0.0004  0.0024  0.0069  0.0109  0.0000  0.0067  0.0001 </r>
        <r>  0.0027  0.0055  0.0025  0.0029  0.0004  0.0017  0.0014  0.0005  0.0049 </r>
        <r>  0.0104  0.0029  0.0003  0.0002  0.0073  0.0074  0.0000  0.0088  0.0001 </r>
        <r>  0.0001  0.0005  0.0027  0.0004  0.0109  0.0068  0.0001  0.0067  0.0000 </r>
        <r>  0.0235  0.0102  0.0078  0.0074  0.0002  0.0003  0.0000  0.0001  0.0000 </r>
        <r>  0.0004  0.0001  0.0000  0.0000  0.0000  0.0000  0.0000  0.0000  0.0000 </r>
        <r>  0.0002  0.0028  0.0021  0.0047  0.0000  0.0000  0.0000  0.0000  0.0000 </r>
        <r>  0.0005  0.0034  0.0010  0.0010  0.0000  0.0000  0.0000  0.0000  0.0000 </r>
        <r>  0.0052  0.0121  0.0140  0.0192  0.0000  0.0000  0.0000  0.0000  0.0000 </r>
        <r>  0.0002  0.0030  0.0050  0.0019  0.0000  0.0000  0.0000  0.0000  0.0000 </r>
        <r>  0.0033  0.0302  0.0076  0.0077  0.0000  0.0000  0.0000  0.0000  0.0000 </r>
        <r>  0.0051  0.0119  0.0202  0.0137  0.0000  0.0000  0.0000  0.0000  0.0000 </r>
        <r>  0.0147  0.0006  0.0001  0.0000  0.0000  0.0000  0.0000  0.0000  0.0000 </r>
       </set>
      </set>
     </set>
    </set>
   </array>
  </projected>
 </calculation>
 <structure name="finalpos" >
  <crystal>
   <varray name="basis" >
    <v>       0.00000000       4.24689300       4.24689300 </v>
    <v>       4.24689300       0.00000000       4.24689300 </v>
    <v>       4.24689300       4.24689300       0.00000000 </v>
   </varray>
   <i name="volume">    153.19477498 </i>
   <varray name="rec_basis" >
    <v>      -0.11773313       0.11773313       0.11773313 </v>
    <v>       0.11773313      -0.11773313       0.11773313 </v>
    <v>       0.11773313       0.11773313      -0.11773313 </v>
   </varray>
  </crystal>
  <varray name="positions" >
   <v>       0.11904551       0.12734505       0.12253271 </v>
   <v>       0.97560343       0.97610483       0.97515209 </v>
   <v>       0.98086010       0.97037955       0.56580256 </v>
   <v>       0.97801585       0.56825524       0.97912057 </v>
   <v>       0.00133112       0.49480044       0.50172105 </v>
   <v>       0.56399130       0.97530342       0.97675414 </v>
   <v>       0.50380242       0.99035818       0.50188532 </v>
   <v>       0.50378000       0.49580348       0.99803265 </v>
   <v>       0.50419736       0.49602781       0.50176110 </v>
   <v>       0.25691304       0.24434717       0.25172981 </v>
   <v>       0.26356418       0.24282475       0.73954125 </v>
   <v>       0.25576442       0.74202985       0.25412058 </v>
   <v>       0.27848381       0.73675152       0.74227692 </v>
   <v>       0.73720660       0.24590674       0.25944184 </v>
   <v>       0.74351025       0.27159608       0.74026432 </v>
   <v>       0.74339017       0.73714722       0.27670346 </v>
   <v>       0.74407845       0.73525066       0.74238163 </v>
  </varray>
 </structure>
</modeling>
