<?xml version="1.0" encoding="ISO-8859-1"?>
<modeling>
 <generator>
  <i name="program" type="string">vasp </i>
  <i name="version" type="string">5.4.1  </i>
  <i name="subversion" type="string">05Feb16 (build Mar 31 2016 13:39:20) complex                          parallel </i>
  <i name="platform" type="string">IFC91_ompi </i>
  <i name="date" type="string">2018 04 12 </i>
  <i name="time" type="string">14:16:26 </i>
 </generator>
 <incar>
  <i type="string" name="PREC">n</i>
  <i type="string" name="ALGO"> N</i>
  <i type="int" name="ISPIN">     2</i>
  <i type="int" name="NELM">   100</i>
  <i type="int" name="NELMIN">     4</i>
  <i type="int" name="IBRION">     2</i>
  <i name="EDIFF">      0.00000100</i>
  <i name="EDIFFG">     -0.05000000</i>
  <i type="int" name="NSW">    20</i>
  <i type="int" name="ISIF">     2</i>
  <i name="ENCUT">    400.00000000</i>
  <i name="NELECT">     66.00000000</i>
  <i type="string" name="LREAL"> A</i>
  <i type="int" name="ISMEAR">     0</i>
  <i name="SIGMA">      0.05000000</i>
  <i type="logical" name="LWAVE"> F  </i>
  <i type="logical" name="LCHARG"> F  </i>
  <i type="logical" name="LORBIT"> F  </i>
  <i type="logical" name="LASPH"> T  </i>
  <v type="int" name="KPOINT_BSE">    -1     0     0     0</v>
  <i type="int" name="NELM">   100</i>
  <i type="logical" name="LASPH"> T  </i>
 </incar>
 <kpoints>
  <generation param="Monkhorst-Pack">
   <v type="int" name="divisions">       2        2        2 </v>
   <v name="usershift">      0.00000000       0.00000000       0.00000000 </v>
   <v name="genvec1">      0.50000000       0.00000000       0.00000000 </v>
   <v name="genvec2">      0.00000000       0.50000000       0.00000000 </v>
   <v name="genvec3">      0.00000000       0.00000000       0.50000000 </v>
   <v name="shift">      0.50000000       0.50000000       0.50000000 </v>
  </generation>
  <varray name="kpointlist" >
   <v>       0.25000000       0.25000000       0.25000000 </v>
   <v>       0.25000000       0.00000000       0.00000000 </v>
   <v>       0.00000000       0.00000000      -0.25000000 </v>
   <v>       0.00000000       0.25000000       0.00000000 </v>
   <v>      -0.25000000       0.25000000       0.25000000 </v>
   <v>       0.25000000      -0.25000000       0.25000000 </v>
   <v>       0.25000000       0.25000000      -0.25000000 </v>
   <v>       0.25000000       0.00000000       0.50000000 </v>
   <v>      -0.25000000       0.50000000       0.50000000 </v>
   <v>       0.25000000       0.50000000       0.00000000 </v>
   <v>       0.00000000       0.50000000      -0.25000000 </v>
   <v>       0.50000000       0.00000000      -0.25000000 </v>
   <v>       0.50000000       0.50000000       0.25000000 </v>
   <v>       0.50000000      -0.25000000       0.50000000 </v>
   <v>       0.00000000       0.25000000       0.50000000 </v>
   <v>       0.50000000       0.25000000       0.00000000 </v>
  </varray>
  <varray name="weights" >
   <v>       0.06250000 </v>
   <v>       0.06250000 </v>
   <v>       0.06250000 </v>
   <v>       0.06250000 </v>
   <v>       0.06250000 </v>
   <v>       0.06250000 </v>
   <v>       0.06250000 </v>
   <v>       0.06250000 </v>
   <v>       0.06250000 </v>
   <v>       0.06250000 </v>
   <v>       0.06250000 </v>
   <v>       0.06250000 </v>
   <v>       0.06250000 </v>
   <v>       0.06250000 </v>
   <v>       0.06250000 </v>
   <v>       0.06250000 </v>
  </varray>
 </kpoints>
 <parameters>
  <separator name="general" >
   <i type="string" name="SYSTEM">unknown system</i>
   <i type="logical" name="LCOMPAT"> F  </i>
  </separator>
  <separator name="electronic" >
   <i type="string" name="PREC">n</i>
   <i name="ENMAX">    400.00000000</i>
   <i name="ENAUG">    605.39200000</i>
   <i name="EDIFF">      0.00000100</i>
   <i type="int" name="IALGO">    38</i>
   <i type="int" name="IWAVPR">    11</i>
   <i type="int" name="NBANDS">    52</i>
   <i name="NELECT">     66.00000000</i>
   <i type="int" name="TURBO">     0</i>
   <i type="int" name="IRESTART">     0</i>
   <i type="int" name="NREBOOT">     0</i>
   <i type="int" name="NMIN">     0</i>
   <i name="EREF">      0.00000000</i>
   <separator name="electronic smearing" >
    <i type="int" name="ISMEAR">     0</i>
    <i name="SIGMA">      0.05000000</i>
    <i name="KSPACING">      0.50000000</i>
    <i type="logical" name="KGAMMA"> T  </i>
   </separator>
   <separator name="electronic projectors" >
    <i type="logical" name="LREAL"> T  </i>
    <v name="ROPT">     -0.00050000     -0.00050000</v>
    <i type="int" name="LMAXPAW">  -100</i>
    <i type="int" name="LMAXMIX">     2</i>
    <i type="logical" name="NLSPLINE"> F  </i>
   </separator>
   <separator name="electronic startup" >
    <i type="int" name="ISTART">     0</i>
    <i type="int" name="ICHARG">     2</i>
    <i type="int" name="INIWAV">     1</i>
   </separator>
   <separator name="electronic spin" >
    <i type="int" name="ISPIN">     2</i>
    <i type="logical" name="LNONCOLLINEAR"> F  </i>
    <v name="MAGMOM">      1.00000000      1.00000000      1.00000000      1.00000000      1.00000000      1.00000000      1.00000000      1.00000000      1.00000000      1.00000000      1.00000000      1.00000000      1.00000000      1.00000000      1.00000000      1.00000000      1.00000000</v>
    <i name="NUPDOWN">     -1.00000000</i>
    <i type="logical" name="LSORBIT"> F  </i>
    <v name="SAXIS">      0.00000000      0.00000000      1.00000000</v>
    <i type="logical" name="LSPIRAL"> F  </i>
    <v name="QSPIRAL">      0.00000000      0.00000000      0.00000000</v>
    <i type="logical" name="LZEROZ"> F  </i>
   </separator>
   <separator name="electronic exchange-correlation" >
    <i type="logical" name="LASPH"> T  </i>
    <i type="logical" name="LMETAGGA"> F  </i>
   </separator>
   <separator name="electronic convergence" >
    <i type="int" name="NELM">   100</i>
    <i type="int" name="NELMDL">     0</i>
    <i type="int" name="NELMIN">     4</i>
    <i name="ENINI">    400.00000000</i>
    <separator name="electronic convergence detail" >
     <i type="logical" name="LDIAG"> T  </i>
     <i type="logical" name="LSUBROT"> F  </i>
     <i name="WEIMIN">      0.00100000</i>
     <i name="EBREAK">      0.00000000</i>
     <i name="DEPER">      0.30000000</i>
     <i type="int" name="NRMM">     4</i>
     <i name="TIME">      0.40000000</i>
    </separator>
   </separator>
   <separator name="electronic mixer" >
    <i name="AMIX">      0.40000000</i>
    <i name="BMIX">      1.00000000</i>
    <i name="AMIN">      0.10000000</i>
    <i name="AMIX_MAG">      1.60000000</i>
    <i name="BMIX_MAG">      1.00000000</i>
    <separator name="electronic mixer details" >
     <i type="int" name="IMIX">     4</i>
     <i type="logical" name="MIXFIRST"> F  </i>
     <i type="int" name="MAXMIX">   -45</i>
     <i name="WC">    100.00000000</i>
     <i type="int" name="INIMIX">     1</i>
     <i type="int" name="MIXPRE">     1</i>
     <i type="int" name="MREMOVE">     5</i>
    </separator>
   </separator>
   <separator name="electronic dipolcorrection" >
    <i type="logical" name="LDIPOL"> F  </i>
    <i type="logical" name="LMONO"> F  </i>
    <i type="int" name="IDIPOL">     0</i>
    <i name="EPSILON">      1.00000000</i>
    <v name="DIPOL">   -100.00000000   -100.00000000   -100.00000000</v>
    <i name="EFIELD">      0.00000000</i>
   </separator>
  </separator>
  <separator name="grids" >
   <i type="int" name="NGX">    30</i>
   <i type="int" name="NGY">    30</i>
   <i type="int" name="NGZ">    30</i>
   <i type="int" name="NGXF">    60</i>
   <i type="int" name="NGYF">    60</i>
   <i type="int" name="NGZF">    60</i>
   <i type="logical" name="ADDGRID"> F  </i>
  </separator>
  <separator name="ionic" >
   <i type="int" name="NSW">    20</i>
   <i type="int" name="IBRION">     2</i>
   <i type="int" name="ISIF">     2</i>
   <i name="PSTRESS">      0.00000000</i>
   <i name="EDIFFG">     -0.05000000</i>
   <i type="int" name="NFREE">     1</i>
   <i name="POTIM">      0.50000000</i>
   <i name="SMASS">     -3.00000000</i>
   <i name="SCALEE">      1.00000000</i>
  </separator>
  <separator name="ionic md" >
   <i name="TEBEG">      0.00010000</i>
   <i name="TEEND">      0.00010000</i>
   <i type="int" name="NBLOCK">     1</i>
   <i type="int" name="KBLOCK">    20</i>
   <i type="int" name="NPACO">   256</i>
   <i name="APACO">     16.00000000</i>
  </separator>
  <separator name="symmetry" >
   <i type="int" name="ISYM">     2</i>
   <i name="SYMPREC">      0.00001000</i>
  </separator>
  <separator name="dos" >
   <i type="logical" name="LORBIT"> F  </i>
   <v name="RWIGS">     -1.00000000     -1.00000000</v>
   <i type="int" name="NEDOS">   301</i>
   <i name="EMIN">     10.00000000</i>
   <i name="EMAX">    -10.00000000</i>
   <i name="EFERMI">      0.00000000</i>
  </separator>
  <separator name="writing" >
   <i type="int" name="NWRITE">     2</i>
   <i type="logical" name="LWAVE"> F  </i>
   <i type="logical" name="LCHARG"> F  </i>
   <i type="logical" name="LPARD"> F  </i>
   <i type="logical" name="LVTOT"> F  </i>
   <i type="logical" name="LVHAR"> F  </i>
   <i type="logical" name="LELF"> F  </i>
   <i type="logical" name="LOPTICS"> F  </i>
   <v name="STM">      0.00000000      0.00000000      0.00000000      0.00000000      0.00000000      0.00000000      0.00000000</v>
  </separator>
  <separator name="performance" >
   <i type="int" name="NPAR">     4</i>
   <i type="int" name="NSIM">     4</i>
   <i type="int" name="NBLK">    -1</i>
   <i type="logical" name="LPLANE"> T  </i>
   <i type="logical" name="LSCALAPACK"> T  </i>
   <i type="logical" name="LSCAAWARE"> F  </i>
   <i type="logical" name="LSCALU"> F  </i>
   <i type="logical" name="LASYNC"> F  </i>
   <i type="logical" name="LORBITALREAL"> F  </i>
  </separator>
  <separator name="miscellaneous" >
   <i type="int" name="IDIOT">     3</i>
   <i type="logical" name="LMUSIC"> F  </i>
   <v name="POMASS">     24.30500000     16.00000000</v>
   <v name="DARWINR">      0.00000000      0.00000000</v>
   <v name="DARWINV">      1.00000000      1.00000000</v>
   <i type="logical" name="LCORR"> T  </i>
  </separator>
  <i type="logical" name="GGA_COMPAT"> T  </i>
  <i type="logical" name="LBERRY"> F  </i>
  <i type="int" name="ICORELEVEL">     0</i>
  <i type="logical" name="LDAU"> F  </i>
  <i type="int" name="I_CONSTRAINED_M">     0</i>
  <separator name="electronic exchange-correlation" >
   <i type="string" name="GGA">--</i>
   <i type="int" name="VOSKOWN">     0</i>
   <i type="logical" name="LHFCALC"> F  </i>
   <i type="string" name="PRECFOCK"></i>
   <i type="logical" name="LSYMGRAD"> F  </i>
   <i type="logical" name="LHFONE"> F  </i>
   <i type="logical" name="LRHFCALC"> F  </i>
   <i type="logical" name="LTHOMAS"> F  </i>
   <i type="logical" name="LMODELHF"> F  </i>
   <i name="ENCUT4O">     -1.00000000</i>
   <i type="int" name="EXXOEP">     0</i>
   <i type="int" name="FOURORBIT">     0</i>
   <i name="AEXX">      0.00000000</i>
   <i name="HFALPHA">      0.00000000</i>
   <i name="MCALPHA">      0.00000000</i>
   <i name="ALDAX">      1.00000000</i>
   <i name="AGGAX">      1.00000000</i>
   <i name="ALDAC">      1.00000000</i>
   <i name="AGGAC">      1.00000000</i>
   <i type="int" name="NKREDX">     1</i>
   <i type="int" name="NKREDY">     1</i>
   <i type="int" name="NKREDZ">     1</i>
   <i type="logical" name="SHIFTRED"> F  </i>
   <i type="logical" name="ODDONLY"> F  </i>
   <i type="logical" name="EVENONLY"> F  </i>
   <i type="int" name="LMAXFOCK">     0</i>
   <i type="int" name="NMAXFOCKAE">     0</i>
   <i type="logical" name="LFOCKAEDFT"> F  </i>
   <i name="HFSCREEN">      0.00000000</i>
   <i name="HFSCREENC">      0.00000000</i>
   <i type="int" name="NBANDSGWLOW">     0</i>
  </separator>
  <separator name="vdW DFT" >
   <i type="logical" name="LUSE_VDW"> F  </i>
   <i name="Zab_VDW">     -0.84910000</i>
   <i name="PARAM1">      0.12340000</i>
   <i name="PARAM2">      1.00000000</i>
   <i name="PARAM3">      0.00000000</i>
  </separator>
  <separator name="model GW" >
   <i type="int" name="MODEL_GW">     0</i>
   <i name="MODEL_EPS0">      5.40687441</i>
   <i name="MODEL_ALPHA">      1.00000000</i>
  </separator>
  <separator name="linear response parameters" >
   <i type="logical" name="LEPSILON"> F  </i>
   <i type="logical" name="LRPA"> F  </i>
   <i type="logical" name="LNABLA"> F  </i>
   <i type="logical" name="LVEL"> F  </i>
   <i type="int" name="KINTER">     0</i>
   <i name="CSHIFT">      0.10000000</i>
   <i name="OMEGAMAX">     -1.00000000</i>
   <i name="DEG_THRESHOLD">      0.00200000</i>
  </separator>
  <separator name="orbital magnetization" >
   <i type="logical" name="NUCIND"> F  </i>
   <v name="MAGPOS">      0.00000000      0.00000000      0.00000000</v>
   <i type="logical" name="LNICSALL"> T  </i>
   <i type="logical" name="ORBITALMAG"> F  </i>
   <i type="logical" name="LMAGBLOCH"> F  </i>
   <i type="logical" name="LCHIMAG"> F  </i>
   <i type="logical" name="LGAUGE"> T  </i>
   <i type="int" name="MAGATOM">     0</i>
   <v name="MAGDIPOL">      0.00000000      0.00000000      0.00000000</v>
   <v name="AVECCONST">      0.00000000      0.00000000      0.00000000</v>
  </separator>
  <separator name="response functions" >
   <i type="logical" name="LADDER"> F  </i>
   <i type="logical" name="LFXC"> F  </i>
   <i type="logical" name="LHARTREE"> T  </i>
   <i type="int" name="IBSE">     0</i>
   <v type="int" name="KPOINT">    -1     0     0     0</v>
   <i type="logical" name="LTCTE"> F  </i>
   <i type="logical" name="LTETE"> F  </i>
   <i type="logical" name="LTRIPLET"> F  </i>
   <i type="logical" name="LFXCEPS"> F  </i>
   <i type="logical" name="LFXHEG"> F  </i>
   <i type="int" name="NATURALO">     0</i>
   <i type="logical" name="L2ORDER"> F  </i>
   <i type="logical" name="LUSEW"> F  </i>
   <i name="ENCUTGW">     -2.00000000</i>
   <i name="ENCUTGWSOFT">     -2.00000000</i>
   <i name="ENCUTLF">     -1.00000000</i>
   <i type="int" name="LMAXMP2">    -1</i>
   <i name="SCISSOR">      0.00000000</i>
   <i type="int" name="NOMEGA">     0</i>
   <i type="int" name="NOMEGAR">     0</i>
   <i type="int" name="NBANDSGW">    -1</i>
   <i type="int" name="NBANDSO">    -1</i>
   <i type="int" name="NBANDSV">    -1</i>
   <i type="int" name="NELM">   100</i>
   <i type="int" name="NELMHF">     1</i>
   <i type="int" name="DIM">     3</i>
   <i type="int" name="ANTIRES">     0</i>
   <i name="OMEGAMAX">    -30.00000000</i>
   <i name="OMEGAMIN">    -30.00000000</i>
   <i name="OMEGATL">   -200.00000000</i>
   <i type="int" name="OMEGAGRID">     0</i>
   <i name="CSHIFT">     -0.10000000</i>
   <i type="logical" name="SELFENERGY"> F  </i>
   <i type="logical" name="LSPECTRAL"> F  </i>
   <i type="logical" name="LSPECTRALGW"> F  </i>
   <i type="logical" name="LSINGLES"> F  </i>
   <i type="logical" name="LFERMIGW"> F  </i>
   <i type="logical" name="ODDONLYGW"> F  </i>
   <i type="logical" name="EVENONLYGW"> F  </i>
   <i type="int" name="NKREDLFX">     1</i>
   <i type="int" name="NKREDLFY">     1</i>
   <i type="int" name="NKREDLFZ">     1</i>
   <i type="int" name="MAXMEM">  1800</i>
   <i type="int" name="TELESCOPE">     0</i>
   <i type="int" name="TAUPAR">     1</i>
   <i type="int" name="OMEGAPAR">    -1</i>
   <i name="LAMBDA">      1.00000000</i>
  </separator>
  <separator name="External order field" >
   <i name="OFIELD_KAPPA">      0.00000000</i>
   <v name="OFIELD_K">      0.00000000      0.00000000      0.00000000</v>
   <i name="OFIELD_Q6_NEAR">      0.00000000</i>
   <i name="OFIELD_Q6_FAR">      0.00000000</i>
   <i name="OFIELD_A">      0.00000000</i>
  </separator>
 </parameters>
 <atominfo>
  <atoms>      17 </atoms>
  <types>       2 </types>
  <array name="atoms" >
   <dimension dim="1">ion</dimension>
   <field type="string">element</field>
   <field type="int">atomtype</field>
   <set>
    <rc><c>Mg</c><c>   1</c></rc>
    <rc><c>Mg</c><c>   1</c></rc>
    <rc><c>Mg</c><c>   1</c></rc>
    <rc><c>Mg</c><c>   1</c></rc>
    <rc><c>Mg</c><c>   1</c></rc>
    <rc><c>Mg</c><c>   1</c></rc>
    <rc><c>Mg</c><c>   1</c></rc>
    <rc><c>Mg</c><c>   1</c></rc>
    <rc><c>Mg</c><c>   1</c></rc>
    <rc><c>O </c><c>   2</c></rc>
    <rc><c>O </c><c>   2</c></rc>
    <rc><c>O </c><c>   2</c></rc>
    <rc><c>O </c><c>   2</c></rc>
    <rc><c>O </c><c>   2</c></rc>
    <rc><c>O </c><c>   2</c></rc>
    <rc><c>O </c><c>   2</c></rc>
    <rc><c>O </c><c>   2</c></rc>
   </set>
  </array>
  <array name="atomtypes" >
   <dimension dim="1">type</dimension>
   <field type="int">atomspertype</field>
   <field type="string">element</field>
   <field>mass</field>
   <field>valence</field>
   <field type="string">pseudopotential</field>
   <set>
    <rc><c>   9</c><c>Mg</c><c>     24.30500000</c><c>      2.00000000</c><c>  PAW_PBE Mg 13Apr2007                  </c></rc>
    <rc><c>   8</c><c>O </c><c>     16.00000000</c><c>      6.00000000</c><c>  PAW_PBE O 08Apr2002                   </c></rc>
   </set>
  </array>
 </atominfo>
 <structure name="initialpos" >
  <crystal>
   <varray name="basis" >
    <v>       0.00000000       4.24689300       4.24689300 </v>
    <v>       4.24689300       0.00000000       4.24689300 </v>
    <v>       4.24689300       4.24689300       0.00000000 </v>
   </varray>
   <i name="volume">    153.19477498 </i>
   <varray name="rec_basis" >
    <v>      -0.11773313       0.11773313       0.11773313 </v>
    <v>       0.11773313      -0.11773313       0.11773313 </v>
    <v>       0.11773313       0.11773313      -0.11773313 </v>
   </varray>
  </crystal>
  <varray name="positions" >
   <v>       0.11927644       0.13079177       0.11977704 </v>
   <v>       0.97653959       0.97567445       0.97580128 </v>
   <v>       0.98213815       0.97127805       0.56366556 </v>
   <v>       0.97727131       0.57100388       0.97835332 </v>
   <v>       0.00064349       0.49463961       0.50228659 </v>
   <v>       0.56386730       0.97477093       0.97774593 </v>
   <v>       0.50428897       0.98906985       0.50220010 </v>
   <v>       0.50367000       0.49533144       0.99841889 </v>
   <v>       0.50417513       0.49535842       0.50222639 </v>
   <v>       0.25708237       0.24209838       0.25445436 </v>
   <v>       0.26336114       0.24159158       0.73829823 </v>
   <v>       0.25408539       0.74475488       0.25342711 </v>
   <v>       0.27863121       0.73666690       0.74233551 </v>
   <v>       0.73785699       0.24377117       0.26008213 </v>
   <v>       0.74351899       0.27079379       0.74071304 </v>
   <v>       0.74290583       0.73750945       0.27704444 </v>
   <v>       0.74422569       0.73512746       0.74239208 </v>
  </varray>
 </structure>
 <calculation>
  <scstep>
   <time name="dav">    0.73    0.74</time>
   <time name="total">    1.10    1.12</time>
   <energy>
    <i name="alphaZ">    167.07285220 </i>
    <i name="ewald">  -2905.88786767 </i>
    <i name="hartreedc">   -985.32716712 </i>
    <i name="XCdc">   -207.43957504 </i>
    <i name="pawpsdc">   3357.85734499 </i>
    <i name="pawaedc">  -2905.44438128 </i>
    <i name="eentropy">     -0.00244571 </i>
    <i name="bandstr">     99.37511944 </i>
    <i name="atom">   3665.43652948 </i>
    <i name="e_fr_energy">    285.64040930 </i>
    <i name="e_wo_entrp">    285.64285501 </i>
    <i name="e_0_energy">    285.64163215 </i>
   </energy>
  </scstep>
  <scstep>
   <time name="dav">    0.80    0.80</time>
   <time name="total">    0.80    0.81</time>
   <energy>
    <i name="e_fr_energy">    -71.68735602 </i>
    <i name="e_wo_entrp">    -71.68456340 </i>
    <i name="e_0_energy">    -71.68595971 </i>
   </energy>
  </scstep>
  <scstep>
   <time name="dav">    0.80    0.80</time>
   <time name="total">    0.80    0.81</time>
   <energy>
    <i name="e_fr_energy">    -90.23786023 </i>
    <i name="e_wo_entrp">    -90.23250723 </i>
    <i name="e_0_energy">    -90.23518373 </i>
   </energy>
  </scstep>
  <scstep>
   <time name="dav">    0.76    0.76</time>
   <time name="total">    0.76    0.76</time>
   <energy>
    <i name="e_fr_energy">    -90.36446326 </i>
    <i name="e_wo_entrp">    -90.35847712 </i>
    <i name="e_0_energy">    -90.36147019 </i>
   </energy>
  </scstep>
  <scstep>
   <time name="dav">    0.74    0.74</time>
   <time name="total">    0.77    0.77</time>
   <energy>
    <i name="e_fr_energy">    -90.36530723 </i>
    <i name="e_wo_entrp">    -90.35931679 </i>
    <i name="e_0_energy">    -90.36231201 </i>
   </energy>
  </scstep>
  <scstep>
   <time name="dav">    0.73    0.73</time>
   <time name="total">    1.13    1.13</time>
   <energy>
    <i name="e_fr_energy">    -83.03530591 </i>
    <i name="e_wo_entrp">    -83.02222970 </i>
    <i name="e_0_energy">    -83.02876781 </i>
   </energy>
  </scstep>
  <scstep>
   <time name="dav">    0.73    0.73</time>
   <time name="total">    1.13    1.14</time>
   <energy>
    <i name="e_fr_energy">    -83.09368413 </i>
    <i name="e_wo_entrp">    -83.08415651 </i>
    <i name="e_0_energy">    -83.08892032 </i>
   </energy>
  </scstep>
  <scstep>
   <time name="dav">    0.74    0.74</time>
   <time name="total">    1.14    1.14</time>
   <energy>
    <i name="e_fr_energy">    -82.98615277 </i>
    <i name="e_wo_entrp">    -82.97658141 </i>
    <i name="e_0_energy">    -82.98136709 </i>
   </energy>
  </scstep>
  <scstep>
   <time name="dav">    0.77    0.77</time>
   <time name="total">    1.17    1.17</time>
   <energy>
    <i name="e_fr_energy">    -82.96960840 </i>
    <i name="e_wo_entrp">    -82.96004795 </i>
    <i name="e_0_energy">    -82.96482818 </i>
   </energy>
  </scstep>
  <scstep>
   <time name="dav">    0.77    0.77</time>
   <time name="total">    1.18    1.18</time>
   <energy>
    <i name="e_fr_energy">    -82.96928044 </i>
    <i name="e_wo_entrp">    -82.95971965 </i>
    <i name="e_0_energy">    -82.96450004 </i>
   </energy>
  </scstep>
  <scstep>
   <time name="dav">    0.75    0.75</time>
   <time name="total">    1.15    1.16</time>
   <energy>
    <i name="e_fr_energy">    -82.96973692 </i>
    <i name="e_wo_entrp">    -82.96018146 </i>
    <i name="e_0_energy">    -82.96495919 </i>
   </energy>
  </scstep>
  <scstep>
   <time name="dav">    0.73    0.73</time>
   <time name="total">    1.12    1.13</time>
   <energy>
    <i name="e_fr_energy">    -82.96974872 </i>
    <i name="e_wo_entrp">    -82.96019352 </i>
    <i name="e_0_energy">    -82.96497112 </i>
   </energy>
  </scstep>
  <scstep>
   <time name="dav">    0.74    0.74</time>
   <time name="total">    1.14    1.14</time>
   <energy>
    <i name="e_fr_energy">    -82.96982595 </i>
    <i name="e_wo_entrp">    -82.96026907 </i>
    <i name="e_0_energy">    -82.96504751 </i>
   </energy>
  </scstep>
  <scstep>
   <time name="dav">    0.78    0.79</time>
   <time name="total">    1.19    1.19</time>
   <energy>
    <i name="e_fr_energy">    -82.96982950 </i>
    <i name="e_wo_entrp">    -82.96027234 </i>
    <i name="e_0_energy">    -82.96505092 </i>
   </energy>
  </scstep>
  <scstep>
   <time name="dav">    0.74    0.74</time>
   <time name="total">    1.14    1.14</time>
   <energy>
    <i name="e_fr_energy">    -82.96983065 </i>
    <i name="e_wo_entrp">    -82.96027342 </i>
    <i name="e_0_energy">    -82.96505204 </i>
   </energy>
  </scstep>
  <scstep>
   <time name="dav">    0.53    0.53</time>
   <time name="total">    0.91    0.92</time>
   <energy>
    <i name="alphaZ">    167.07285220 </i>
    <i name="ewald">  -2905.88786767 </i>
    <i name="hartreedc">  -1148.68920236 </i>
    <i name="XCdc">   -197.88972391 </i>
    <i name="pawpsdc">   4630.63081973 </i>
    <i name="pawaedc">  -4180.10620438 </i>
    <i name="eentropy">     -0.00955716 </i>
    <i name="bandstr">   -113.52747662 </i>
    <i name="atom">   3665.43652948 </i>
    <i name="e_fr_energy">    -82.96983067 </i>
    <i name="e_wo_entrp">    -82.96027351 </i>
    <i name="e_0_energy">    -82.96505209 </i>
   </energy>
  </scstep>
  <structure>
   <crystal>
    <varray name="basis" >
     <v>       0.00000000       4.24689300       4.24689300 </v>
     <v>       4.24689300       0.00000000       4.24689300 </v>
     <v>       4.24689300       4.24689300       0.00000000 </v>
    </varray>
    <i name="volume">    153.19477498 </i>
    <varray name="rec_basis" >
     <v>      -0.11773313       0.11773313       0.11773313 </v>
     <v>       0.11773313      -0.11773313       0.11773313 </v>
     <v>       0.11773313       0.11773313      -0.11773313 </v>
    </varray>
   </crystal>
   <varray name="positions" >
    <v>       0.11927644       0.13079177       0.11977704 </v>
    <v>       0.97653959       0.97567445       0.97580128 </v>
    <v>       0.98213815       0.97127805       0.56366556 </v>
    <v>       0.97727131       0.57100388       0.97835332 </v>
    <v>       0.00064349       0.49463961       0.50228659 </v>
    <v>       0.56386730       0.97477093       0.97774593 </v>
    <v>       0.50428897       0.98906985       0.50220010 </v>
    <v>       0.50367000       0.49533144       0.99841889 </v>
    <v>       0.50417513       0.49535842       0.50222639 </v>
    <v>       0.25708237       0.24209838       0.25445436 </v>
    <v>       0.26336114       0.24159158       0.73829823 </v>
    <v>       0.25408539       0.74475488       0.25342711 </v>
    <v>       0.27863121       0.73666690       0.74233551 </v>
    <v>       0.73785699       0.24377117       0.26008213 </v>
    <v>       0.74351899       0.27079379       0.74071304 </v>
    <v>       0.74290583       0.73750945       0.27704444 </v>
    <v>       0.74422569       0.73512746       0.74239208 </v>
   </varray>
  </structure>
  <varray name="forces" >
   <v>       0.00448646       0.03015283       0.01139796 </v>
   <v>       0.00863775       0.02515248       0.01678778 </v>
   <v>       0.01164522      -0.00436453       0.00406598 </v>
   <v>      -0.00950090      -0.01494673      -0.00110453 </v>
   <v>      -0.01357951      -0.00312288       0.02262486 </v>
   <v>      -0.00437645       0.00895228       0.00301864 </v>
   <v>       0.01757338      -0.01266371       0.00066006 </v>
   <v>       0.01939428       0.00310572      -0.01740163 </v>
   <v>      -0.00842303      -0.03248412      -0.01475352 </v>
   <v>       0.01519030       0.00291678       0.00186306 </v>
   <v>       0.01426600      -0.01876038      -0.02703596 </v>
   <v>      -0.00969464      -0.02214898      -0.00858225 </v>
   <v>       0.00840664      -0.01111425      -0.03476525 </v>
   <v>      -0.03789127       0.01095349       0.02560452 </v>
   <v>       0.00834420       0.02087040      -0.00021250 </v>
   <v>      -0.03668823      -0.00123511       0.00731166 </v>
   <v>       0.01220978       0.01873669       0.01052112 </v>
  </varray>
  <varray name="stress" >
   <v>     317.94639925      -0.92538613       6.80123980 </v>
   <v>      -0.92538420     313.84158158      -1.86241414 </v>
   <v>       6.80124045      -1.86241522     318.72046888 </v>
  </varray>
  <energy>
   <i name="e_fr_energy">    -82.96983067 </i>
   <i name="e_wo_entrp">    -82.96505209 </i>
   <i name="e_0_energy">     -0.00955716 </i>
  </energy>
  <time name="totalsc">   17.94   18.02</time>
  <eigenvalues>
   <array>
    <dimension dim="1">band</dimension>
    <dimension dim="2">kpoint</dimension>
    <dimension dim="3">spin</dimension>
    <field>eigene</field>
    <field>occ</field>
    <set>
     <set comment="spin 1">
      <set comment="kpoint 1">
       <r>  -13.6291    1.0000 </r>
       <r>  -12.7680    1.0000 </r>
       <r>  -12.5514    1.0000 </r>
       <r>  -12.5270    1.0000 </r>
       <r>  -12.5070    1.0000 </r>
       <r>  -12.2824    1.0000 </r>
       <r>  -12.2747    1.0000 </r>
       <r>  -12.2717    1.0000 </r>
       <r>   -1.1597    1.0000 </r>
       <r>   -0.8785    1.0000 </r>
       <r>   -0.8534    1.0000 </r>
       <r>   -0.7377    1.0000 </r>
       <r>   -0.5793    1.0000 </r>
       <r>   -0.3393    1.0000 </r>
       <r>   -0.3316    1.0000 </r>
       <r>    1.4668    1.0000 </r>
       <r>    1.6712    1.0000 </r>
       <r>    1.6798    1.0000 </r>
       <r>    2.0188    1.0000 </r>
       <r>    2.0944    1.0000 </r>
       <r>    2.0957    1.0000 </r>
       <r>    2.3006    1.0000 </r>
       <r>    2.3248    1.0000 </r>
       <r>    2.3334    1.0000 </r>
       <r>    2.4265    1.0000 </r>
       <r>    2.5337    1.0000 </r>
       <r>    2.5472    1.0000 </r>
       <r>    2.8147    1.0000 </r>
       <r>    2.9018    1.0000 </r>
       <r>    2.9267    1.0000 </r>
       <r>    3.2587    1.0000 </r>
       <r>    3.2884    1.0000 </r>
       <r>    8.2712    1.0000 </r>
       <r>    9.7187    1.0000 </r>
       <r>   10.8549    0.0000 </r>
       <r>   11.2188    0.0000 </r>
       <r>   11.3769    0.0000 </r>
       <r>   12.0588    0.0000 </r>
       <r>   12.1518    0.0000 </r>
       <r>   12.2391    0.0000 </r>
       <r>   12.8291    0.0000 </r>
       <r>   12.8559    0.0000 </r>
       <r>   13.4960    0.0000 </r>
       <r>   15.2613    0.0000 </r>
       <r>   15.2716    0.0000 </r>
       <r>   15.3554    0.0000 </r>
       <r>   15.7027    0.0000 </r>
       <r>   15.9580    0.0000 </r>
       <r>   16.2408    0.0000 </r>
       <r>   16.8217    0.0000 </r>
       <r>   17.1775    0.0000 </r>
       <r>   17.2049    0.0000 </r>
      </set>
      <set comment="kpoint 2">
       <r>  -13.6299    1.0000 </r>
       <r>  -12.7603    1.0000 </r>
       <r>  -12.5501    1.0000 </r>
       <r>  -12.5266    1.0000 </r>
       <r>  -12.5160    1.0000 </r>
       <r>  -12.2883    1.0000 </r>
       <r>  -12.2752    1.0000 </r>
       <r>  -12.2651    1.0000 </r>
       <r>   -1.1671    1.0000 </r>
       <r>   -0.8733    1.0000 </r>
       <r>   -0.8490    1.0000 </r>
       <r>   -0.7306    1.0000 </r>
       <r>   -0.5911    1.0000 </r>
       <r>   -0.3377    1.0000 </r>
       <r>   -0.3309    1.0000 </r>
       <r>    1.4761    1.0000 </r>
       <r>    1.6655    1.0000 </r>
       <r>    1.6769    1.0000 </r>
       <r>    2.0281    1.0000 </r>
       <r>    2.0819    1.0000 </r>
       <r>    2.0879    1.0000 </r>
       <r>    2.3076    1.0000 </r>
       <r>    2.3222    1.0000 </r>
       <r>    2.3320    1.0000 </r>
       <r>    2.4107    1.0000 </r>
       <r>    2.5404    1.0000 </r>
       <r>    2.5466    1.0000 </r>
       <r>    2.8222    1.0000 </r>
       <r>    2.9022    1.0000 </r>
       <r>    2.9213    1.0000 </r>
       <r>    3.2706    1.0000 </r>
       <r>    3.2950    1.0000 </r>
       <r>    8.2719    1.0000 </r>
       <r>    9.7293    1.0000 </r>
       <r>   10.8713    0.0000 </r>
       <r>   11.2233    0.0000 </r>
       <r>   11.3422    0.0000 </r>
       <r>   12.0502    0.0000 </r>
       <r>   12.1834    0.0000 </r>
       <r>   12.2951    0.0000 </r>
       <r>   12.7924    0.0000 </r>
       <r>   12.8209    0.0000 </r>
       <r>   13.4688    0.0000 </r>
       <r>   15.2475    0.0000 </r>
       <r>   15.2816    0.0000 </r>
       <r>   15.3450    0.0000 </r>
       <r>   15.5501    0.0000 </r>
       <r>   16.0614    0.0000 </r>
       <r>   16.2675    0.0000 </r>
       <r>   16.8031    0.0000 </r>
       <r>   17.2092    0.0000 </r>
       <r>   17.2213    0.0000 </r>
      </set>
      <set comment="kpoint 3">
       <r>  -13.6297    1.0000 </r>
       <r>  -12.7619    1.0000 </r>
       <r>  -12.5511    1.0000 </r>
       <r>  -12.5282    1.0000 </r>
       <r>  -12.5117    1.0000 </r>
       <r>  -12.2879    1.0000 </r>
       <r>  -12.2754    1.0000 </r>
       <r>  -12.2654    1.0000 </r>
       <r>   -1.1662    1.0000 </r>
       <r>   -0.8737    1.0000 </r>
       <r>   -0.8495    1.0000 </r>
       <r>   -0.7328    1.0000 </r>
       <r>   -0.5894    1.0000 </r>
       <r>   -0.3375    1.0000 </r>
       <r>   -0.3309    1.0000 </r>
       <r>    1.4710    1.0000 </r>
       <r>    1.6659    1.0000 </r>
       <r>    1.6799    1.0000 </r>
       <r>    2.0306    1.0000 </r>
       <r>    2.0820    1.0000 </r>
       <r>    2.0893    1.0000 </r>
       <r>    2.3097    1.0000 </r>
       <r>    2.3185    1.0000 </r>
       <r>    2.3338    1.0000 </r>
       <r>    2.4137    1.0000 </r>
       <r>    2.5398    1.0000 </r>
       <r>    2.5451    1.0000 </r>
       <r>    2.8210    1.0000 </r>
       <r>    2.9025    1.0000 </r>
       <r>    2.9226    1.0000 </r>
       <r>    3.2674    1.0000 </r>
       <r>    3.2951    1.0000 </r>
       <r>    8.2715    1.0000 </r>
       <r>    9.7275    1.0000 </r>
       <r>   10.8614    0.0000 </r>
       <r>   11.2126    0.0000 </r>
       <r>   11.3585    0.0000 </r>
       <r>   12.0533    0.0000 </r>
       <r>   12.1971    0.0000 </r>
       <r>   12.2758    0.0000 </r>
       <r>   12.7892    0.0000 </r>
       <r>   12.8297    0.0000 </r>
       <r>   13.4756    0.0000 </r>
       <r>   15.2447    0.0000 </r>
       <r>   15.2795    0.0000 </r>
       <r>   15.3436    0.0000 </r>
       <r>   15.5736    0.0000 </r>
       <r>   16.0503    0.0000 </r>
       <r>   16.2680    0.0000 </r>
       <r>   16.8045    0.0000 </r>
       <r>   17.2051    0.0000 </r>
       <r>   17.2223    0.0000 </r>
      </set>
      <set comment="kpoint 4">
       <r>  -13.6288    1.0000 </r>
       <r>  -12.7716    1.0000 </r>
       <r>  -12.5528    1.0000 </r>
       <r>  -12.5218    1.0000 </r>
       <r>  -12.5074    1.0000 </r>
       <r>  -12.2901    1.0000 </r>
       <r>  -12.2743    1.0000 </r>
       <r>  -12.2643    1.0000 </r>
       <r>   -1.1486    1.0000 </r>
       <r>   -0.8799    1.0000 </r>
       <r>   -0.8725    1.0000 </r>
       <r>   -0.7392    1.0000 </r>
       <r>   -0.5648    1.0000 </r>
       <r>   -0.3391    1.0000 </r>
       <r>   -0.3364    1.0000 </r>
       <r>    1.4576    1.0000 </r>
       <r>    1.6752    1.0000 </r>
       <r>    1.6818    1.0000 </r>
       <r>    2.0174    1.0000 </r>
       <r>    2.0929    1.0000 </r>
       <r>    2.0953    1.0000 </r>
       <r>    2.3068    1.0000 </r>
       <r>    2.3300    1.0000 </r>
       <r>    2.3347    1.0000 </r>
       <r>    2.4427    1.0000 </r>
       <r>    2.5395    1.0000 </r>
       <r>    2.5497    1.0000 </r>
       <r>    2.8185    1.0000 </r>
       <r>    2.8993    1.0000 </r>
       <r>    2.9105    1.0000 </r>
       <r>    3.2564    1.0000 </r>
       <r>    3.2719    1.0000 </r>
       <r>    8.2716    1.0000 </r>
       <r>    9.7136    1.0000 </r>
       <r>   10.8577    0.0000 </r>
       <r>   11.2490    0.0000 </r>
       <r>   11.3538    0.0000 </r>
       <r>   11.9976    0.0000 </r>
       <r>   12.1508    0.0000 </r>
       <r>   12.2295    0.0000 </r>
       <r>   12.8599    0.0000 </r>
       <r>   12.8950    0.0000 </r>
       <r>   13.5009    0.0000 </r>
       <r>   15.2733    0.0000 </r>
       <r>   15.2843    0.0000 </r>
       <r>   15.3602    0.0000 </r>
       <r>   15.8753    0.0000 </r>
       <r>   15.9559    0.0000 </r>
       <r>   16.0869    0.0000 </r>
       <r>   16.8401    0.0000 </r>
       <r>   17.1529    0.0000 </r>
       <r>   17.1579    0.0000 </r>
      </set>
      <set comment="kpoint 5">
       <r>  -13.2725    1.0000 </r>
       <r>  -12.9574    1.0000 </r>
       <r>  -12.7335    1.0000 </r>
       <r>  -12.5686    1.0000 </r>
       <r>  -12.5249    1.0000 </r>
       <r>  -12.3741    1.0000 </r>
       <r>  -12.2522    1.0000 </r>
       <r>  -12.2331    1.0000 </r>
       <r>   -0.5520    1.0000 </r>
       <r>   -0.3324    1.0000 </r>
       <r>   -0.2550    1.0000 </r>
       <r>   -0.2046    1.0000 </r>
       <r>    0.0193    1.0000 </r>
       <r>    0.0840    1.0000 </r>
       <r>    0.2071    1.0000 </r>
       <r>    0.7319    1.0000 </r>
       <r>    0.9911    1.0000 </r>
       <r>    1.0375    1.0000 </r>
       <r>    1.1529    1.0000 </r>
       <r>    1.6133    1.0000 </r>
       <r>    1.6959    1.0000 </r>
       <r>    1.8778    1.0000 </r>
       <r>    2.0157    1.0000 </r>
       <r>    2.2003    1.0000 </r>
       <r>    2.3537    1.0000 </r>
       <r>    2.4045    1.0000 </r>
       <r>    2.5434    1.0000 </r>
       <r>    2.5795    1.0000 </r>
       <r>    2.6762    1.0000 </r>
       <r>    2.9244    1.0000 </r>
       <r>    2.9392    1.0000 </r>
       <r>    3.0735    1.0000 </r>
       <r>    9.4722    1.0000 </r>
       <r>   10.2772    0.0000 </r>
       <r>   11.1747    0.0000 </r>
       <r>   11.6851    0.0000 </r>
       <r>   11.9256    0.0000 </r>
       <r>   12.8767    0.0000 </r>
       <r>   13.1228    0.0000 </r>
       <r>   13.2768    0.0000 </r>
       <r>   13.4926    0.0000 </r>
       <r>   13.7300    0.0000 </r>
       <r>   13.8908    0.0000 </r>
       <r>   14.4243    0.0000 </r>
       <r>   14.8360    0.0000 </r>
       <r>   14.9142    0.0000 </r>
       <r>   15.1858    0.0000 </r>
       <r>   15.4577    0.0000 </r>
       <r>   15.8061    0.0000 </r>
       <r>   16.2719    0.0000 </r>
       <r>   16.5105    0.0000 </r>
       <r>   16.9426    0.0000 </r>
      </set>
      <set comment="kpoint 6">
       <r>  -13.2656    1.0000 </r>
       <r>  -12.9722    1.0000 </r>
       <r>  -12.7460    1.0000 </r>
       <r>  -12.5445    1.0000 </r>
       <r>  -12.5135    1.0000 </r>
       <r>  -12.3934    1.0000 </r>
       <r>  -12.2469    1.0000 </r>
       <r>  -12.2336    1.0000 </r>
       <r>   -0.5258    1.0000 </r>
       <r>   -0.3317    1.0000 </r>
       <r>   -0.2564    1.0000 </r>
       <r>   -0.2361    1.0000 </r>
       <r>    0.0080    1.0000 </r>
       <r>    0.0861    1.0000 </r>
       <r>    0.2118    1.0000 </r>
       <r>    0.7037    1.0000 </r>
       <r>    1.0203    1.0000 </r>
       <r>    1.0448    1.0000 </r>
       <r>    1.1592    1.0000 </r>
       <r>    1.6634    1.0000 </r>
       <r>    1.6809    1.0000 </r>
       <r>    1.8639    1.0000 </r>
       <r>    2.0035    1.0000 </r>
       <r>    2.1996    1.0000 </r>
       <r>    2.3647    1.0000 </r>
       <r>    2.4307    1.0000 </r>
       <r>    2.5091    1.0000 </r>
       <r>    2.5744    1.0000 </r>
       <r>    2.6934    1.0000 </r>
       <r>    2.9229    1.0000 </r>
       <r>    2.9439    1.0000 </r>
       <r>    3.0363    1.0000 </r>
       <r>    9.4857    1.0000 </r>
       <r>   10.2041    0.0000 </r>
       <r>   11.1684    0.0000 </r>
       <r>   11.7100    0.0000 </r>
       <r>   11.9880    0.0000 </r>
       <r>   12.7978    0.0000 </r>
       <r>   13.0974    0.0000 </r>
       <r>   13.3134    0.0000 </r>
       <r>   13.4820    0.0000 </r>
       <r>   13.7427    0.0000 </r>
       <r>   13.9627    0.0000 </r>
       <r>   14.3926    0.0000 </r>
       <r>   14.8805    0.0000 </r>
       <r>   14.9498    0.0000 </r>
       <r>   15.3471    0.0000 </r>
       <r>   15.4239    0.0000 </r>
       <r>   15.7613    0.0000 </r>
       <r>   16.2956    0.0000 </r>
       <r>   16.4892    0.0000 </r>
       <r>   16.8904    0.0000 </r>
      </set>
      <set comment="kpoint 7">
       <r>  -13.2713    1.0000 </r>
       <r>  -12.9596    1.0000 </r>
       <r>  -12.7352    1.0000 </r>
       <r>  -12.5687    1.0000 </r>
       <r>  -12.5202    1.0000 </r>
       <r>  -12.3759    1.0000 </r>
       <r>  -12.2534    1.0000 </r>
       <r>  -12.2319    1.0000 </r>
       <r>   -0.5522    1.0000 </r>
       <r>   -0.3303    1.0000 </r>
       <r>   -0.2599    1.0000 </r>
       <r>   -0.2010    1.0000 </r>
       <r>    0.0179    1.0000 </r>
       <r>    0.0850    1.0000 </r>
       <r>    0.2066    1.0000 </r>
       <r>    0.7299    1.0000 </r>
       <r>    0.9840    1.0000 </r>
       <r>    1.0448    1.0000 </r>
       <r>    1.1544    1.0000 </r>
       <r>    1.6069    1.0000 </r>
       <r>    1.7068    1.0000 </r>
       <r>    1.8777    1.0000 </r>
       <r>    2.0150    1.0000 </r>
       <r>    2.1987    1.0000 </r>
       <r>    2.3532    1.0000 </r>
       <r>    2.4057    1.0000 </r>
       <r>    2.5408    1.0000 </r>
       <r>    2.5797    1.0000 </r>
       <r>    2.6772    1.0000 </r>
       <r>    2.9266    1.0000 </r>
       <r>    2.9387    1.0000 </r>
       <r>    3.0721    1.0000 </r>
       <r>    9.4738    1.0000 </r>
       <r>   10.2677    0.0000 </r>
       <r>   11.1646    0.0000 </r>
       <r>   11.6736    0.0000 </r>
       <r>   11.9663    0.0000 </r>
       <r>   12.8671    0.0000 </r>
       <r>   13.1114    0.0000 </r>
       <r>   13.2702    0.0000 </r>
       <r>   13.5011    0.0000 </r>
       <r>   13.7317    0.0000 </r>
       <r>   13.8870    0.0000 </r>
       <r>   14.4313    0.0000 </r>
       <r>   14.8379    0.0000 </r>
       <r>   14.9148    0.0000 </r>
       <r>   15.2001    0.0000 </r>
       <r>   15.4663    0.0000 </r>
       <r>   15.8055    0.0000 </r>
       <r>   16.2688    0.0000 </r>
       <r>   16.5051    0.0000 </r>
       <r>   16.9340    0.0000 </r>
      </set>
      <set comment="kpoint 8">
       <r>  -13.2712    1.0000 </r>
       <r>  -12.9657    1.0000 </r>
       <r>  -12.7165    1.0000 </r>
       <r>  -12.5774    1.0000 </r>
       <r>  -12.5324    1.0000 </r>
       <r>  -12.3667    1.0000 </r>
       <r>  -12.2467    1.0000 </r>
       <r>  -12.2395    1.0000 </r>
       <r>   -0.5467    1.0000 </r>
       <r>   -0.3335    1.0000 </r>
       <r>   -0.2706    1.0000 </r>
       <r>   -0.1996    1.0000 </r>
       <r>    0.0225    1.0000 </r>
       <r>    0.0791    1.0000 </r>
       <r>    0.2112    1.0000 </r>
       <r>    0.7334    1.0000 </r>
       <r>    0.9954    1.0000 </r>
       <r>    1.0287    1.0000 </r>
       <r>    1.1606    1.0000 </r>
       <r>    1.6252    1.0000 </r>
       <r>    1.6836    1.0000 </r>
       <r>    1.8788    1.0000 </r>
       <r>    2.0221    1.0000 </r>
       <r>    2.1937    1.0000 </r>
       <r>    2.3583    1.0000 </r>
       <r>    2.4091    1.0000 </r>
       <r>    2.5426    1.0000 </r>
       <r>    2.5737    1.0000 </r>
       <r>    2.6749    1.0000 </r>
       <r>    2.9231    1.0000 </r>
       <r>    2.9347    1.0000 </r>
       <r>    3.0770    1.0000 </r>
       <r>    9.4763    1.0000 </r>
       <r>   10.2580    0.0000 </r>
       <r>   11.1961    0.0000 </r>
       <r>   11.6932    0.0000 </r>
       <r>   11.8836    0.0000 </r>
       <r>   12.8374    0.0000 </r>
       <r>   13.2215    0.0000 </r>
       <r>   13.2953    0.0000 </r>
       <r>   13.4205    0.0000 </r>
       <r>   13.7312    0.0000 </r>
       <r>   13.9573    0.0000 </r>
       <r>   14.4119    0.0000 </r>
       <r>   14.8222    0.0000 </r>
       <r>   14.8813    0.0000 </r>
       <r>   15.2050    0.0000 </r>
       <r>   15.4582    0.0000 </r>
       <r>   15.8112    0.0000 </r>
       <r>   16.2897    0.0000 </r>
       <r>   16.4291    0.0000 </r>
       <r>   17.0337    0.0000 </r>
      </set>
      <set comment="kpoint 9">
       <r>  -13.2666    1.0000 </r>
       <r>  -12.9739    1.0000 </r>
       <r>  -12.7250    1.0000 </r>
       <r>  -12.5685    1.0000 </r>
       <r>  -12.5218    1.0000 </r>
       <r>  -12.3747    1.0000 </r>
       <r>  -12.2518    1.0000 </r>
       <r>  -12.2338    1.0000 </r>
       <r>   -0.5385    1.0000 </r>
       <r>   -0.3277    1.0000 </r>
       <r>   -0.2744    1.0000 </r>
       <r>   -0.2051    1.0000 </r>
       <r>    0.0152    1.0000 </r>
       <r>    0.0796    1.0000 </r>
       <r>    0.2143    1.0000 </r>
       <r>    0.7273    1.0000 </r>
       <r>    0.9980    1.0000 </r>
       <r>    1.0320    1.0000 </r>
       <r>    1.1638    1.0000 </r>
       <r>    1.6159    1.0000 </r>
       <r>    1.7042    1.0000 </r>
       <r>    1.8762    1.0000 </r>
       <r>    2.0154    1.0000 </r>
       <r>    2.1902    1.0000 </r>
       <r>    2.3636    1.0000 </r>
       <r>    2.4120    1.0000 </r>
       <r>    2.5249    1.0000 </r>
       <r>    2.5754    1.0000 </r>
       <r>    2.6826    1.0000 </r>
       <r>    2.9252    1.0000 </r>
       <r>    2.9403    1.0000 </r>
       <r>    3.0635    1.0000 </r>
       <r>    9.4833    1.0000 </r>
       <r>   10.2155    0.0000 </r>
       <r>   11.1934    0.0000 </r>
       <r>   11.7198    0.0000 </r>
       <r>   11.9480    0.0000 </r>
       <r>   12.7788    0.0000 </r>
       <r>   13.1377    0.0000 </r>
       <r>   13.2781    0.0000 </r>
       <r>   13.5230    0.0000 </r>
       <r>   13.7266    0.0000 </r>
       <r>   13.9373    0.0000 </r>
       <r>   14.4544    0.0000 </r>
       <r>   14.8231    0.0000 </r>
       <r>   14.8897    0.0000 </r>
       <r>   15.3233    0.0000 </r>
       <r>   15.4257    0.0000 </r>
       <r>   15.8036    0.0000 </r>
       <r>   16.2836    0.0000 </r>
       <r>   16.4048    0.0000 </r>
       <r>   16.9395    0.0000 </r>
      </set>
      <set comment="kpoint 10">
       <r>  -13.2642    1.0000 </r>
       <r>  -12.9784    1.0000 </r>
       <r>  -12.7307    1.0000 </r>
       <r>  -12.5568    1.0000 </r>
       <r>  -12.5218    1.0000 </r>
       <r>  -12.3816    1.0000 </r>
       <r>  -12.2441    1.0000 </r>
       <r>  -12.2384    1.0000 </r>
       <r>   -0.5223    1.0000 </r>
       <r>   -0.3357    1.0000 </r>
       <r>   -0.2656    1.0000 </r>
       <r>   -0.2227    1.0000 </r>
       <r>    0.0082    1.0000 </r>
       <r>    0.0793    1.0000 </r>
       <r>    0.2163    1.0000 </r>
       <r>    0.7133    1.0000 </r>
       <r>    0.9965    1.0000 </r>
       <r>    1.0450    1.0000 </r>
       <r>    1.1743    1.0000 </r>
       <r>    1.6418    1.0000 </r>
       <r>    1.6922    1.0000 </r>
       <r>    1.8724    1.0000 </r>
       <r>    2.0110    1.0000 </r>
       <r>    2.1862    1.0000 </r>
       <r>    2.3701    1.0000 </r>
       <r>    2.4217    1.0000 </r>
       <r>    2.5209    1.0000 </r>
       <r>    2.5644    1.0000 </r>
       <r>    2.6926    1.0000 </r>
       <r>    2.9292    1.0000 </r>
       <r>    2.9355    1.0000 </r>
       <r>    3.0466    1.0000 </r>
       <r>    9.4889    1.0000 </r>
       <r>   10.1870    0.0000 </r>
       <r>   11.2088    0.0000 </r>
       <r>   11.7794    0.0000 </r>
       <r>   11.8990    0.0000 </r>
       <r>   12.7376    0.0000 </r>
       <r>   13.1034    0.0000 </r>
       <r>   13.2995    0.0000 </r>
       <r>   13.5349    0.0000 </r>
       <r>   13.7925    0.0000 </r>
       <r>   13.8910    0.0000 </r>
       <r>   14.4556    0.0000 </r>
       <r>   14.8474    0.0000 </r>
       <r>   14.9136    0.0000 </r>
       <r>   15.3847    0.0000 </r>
       <r>   15.4746    0.0000 </r>
       <r>   15.7503    0.0000 </r>
       <r>   16.2883    0.0000 </r>
       <r>   16.4191    0.0000 </r>
       <r>   16.9238    0.0000 </r>
      </set>
      <set comment="kpoint 11">
       <r>  -13.2646    1.0000 </r>
       <r>  -12.9771    1.0000 </r>
       <r>  -12.7336    1.0000 </r>
       <r>  -12.5550    1.0000 </r>
       <r>  -12.5193    1.0000 </r>
       <r>  -12.3842    1.0000 </r>
       <r>  -12.2448    1.0000 </r>
       <r>  -12.2373    1.0000 </r>
       <r>   -0.5232    1.0000 </r>
       <r>   -0.3418    1.0000 </r>
       <r>   -0.2586    1.0000 </r>
       <r>   -0.2212    1.0000 </r>
       <r>    0.0084    1.0000 </r>
       <r>    0.0803    1.0000 </r>
       <r>    0.2134    1.0000 </r>
       <r>    0.7133    1.0000 </r>
       <r>    0.9962    1.0000 </r>
       <r>    1.0430    1.0000 </r>
       <r>    1.1775    1.0000 </r>
       <r>    1.6356    1.0000 </r>
       <r>    1.6982    1.0000 </r>
       <r>    1.8705    1.0000 </r>
       <r>    2.0114    1.0000 </r>
       <r>    2.1876    1.0000 </r>
       <r>    2.3717    1.0000 </r>
       <r>    2.4230    1.0000 </r>
       <r>    2.5225    1.0000 </r>
       <r>    2.5636    1.0000 </r>
       <r>    2.6885    1.0000 </r>
       <r>    2.9313    1.0000 </r>
       <r>    2.9341    1.0000 </r>
       <r>    3.0456    1.0000 </r>
       <r>    9.4879    1.0000 </r>
       <r>   10.1898    0.0000 </r>
       <r>   11.2023    0.0000 </r>
       <r>   11.7563    0.0000 </r>
       <r>   11.9288    0.0000 </r>
       <r>   12.7524    0.0000 </r>
       <r>   13.1037    0.0000 </r>
       <r>   13.2904    0.0000 </r>
       <r>   13.5150    0.0000 </r>
       <r>   13.7983    0.0000 </r>
       <r>   13.8976    0.0000 </r>
       <r>   14.4474    0.0000 </r>
       <r>   14.8343    0.0000 </r>
       <r>   14.9297    0.0000 </r>
       <r>   15.3873    0.0000 </r>
       <r>   15.4810    0.0000 </r>
       <r>   15.7436    0.0000 </r>
       <r>   16.2925    0.0000 </r>
       <r>   16.4476    0.0000 </r>
       <r>   16.8843    0.0000 </r>
      </set>
      <set comment="kpoint 12">
       <r>  -13.2724    1.0000 </r>
       <r>  -12.9624    1.0000 </r>
       <r>  -12.7181    1.0000 </r>
       <r>  -12.5776    1.0000 </r>
       <r>  -12.5330    1.0000 </r>
       <r>  -12.3665    1.0000 </r>
       <r>  -12.2465    1.0000 </r>
       <r>  -12.2397    1.0000 </r>
       <r>   -0.5481    1.0000 </r>
       <r>   -0.3266    1.0000 </r>
       <r>   -0.2754    1.0000 </r>
       <r>   -0.1996    1.0000 </r>
       <r>    0.0228    1.0000 </r>
       <r>    0.0777    1.0000 </r>
       <r>    0.2127    1.0000 </r>
       <r>    0.7326    1.0000 </r>
       <r>    1.0006    1.0000 </r>
       <r>    1.0289    1.0000 </r>
       <r>    1.1551    1.0000 </r>
       <r>    1.6250    1.0000 </r>
       <r>    1.6829    1.0000 </r>
       <r>    1.8781    1.0000 </r>
       <r>    2.0218    1.0000 </r>
       <r>    2.1969    1.0000 </r>
       <r>    2.3536    1.0000 </r>
       <r>    2.4075    1.0000 </r>
       <r>    2.5406    1.0000 </r>
       <r>    2.5759    1.0000 </r>
       <r>    2.6779    1.0000 </r>
       <r>    2.9253    1.0000 </r>
       <r>    2.9329    1.0000 </r>
       <r>    3.0777    1.0000 </r>
       <r>    9.4746    1.0000 </r>
       <r>   10.2689    0.0000 </r>
       <r>   11.2026    0.0000 </r>
       <r>   11.7006    0.0000 </r>
       <r>   11.8513    0.0000 </r>
       <r>   12.8539    0.0000 </r>
       <r>   13.2156    0.0000 </r>
       <r>   13.3026    0.0000 </r>
       <r>   13.4433    0.0000 </r>
       <r>   13.7084    0.0000 </r>
       <r>   13.9505    0.0000 </r>
       <r>   14.4011    0.0000 </r>
       <r>   14.8321    0.0000 </r>
       <r>   14.8968    0.0000 </r>
       <r>   15.1820    0.0000 </r>
       <r>   15.4439    0.0000 </r>
       <r>   15.8091    0.0000 </r>
       <r>   16.2876    0.0000 </r>
       <r>   16.4270    0.0000 </r>
       <r>   16.9970    0.0000 </r>
      </set>
      <set comment="kpoint 13">
       <r>  -13.2666    1.0000 </r>
       <r>  -12.9728    1.0000 </r>
       <r>  -12.7285    1.0000 </r>
       <r>  -12.5682    1.0000 </r>
       <r>  -12.5179    1.0000 </r>
       <r>  -12.3769    1.0000 </r>
       <r>  -12.2527    1.0000 </r>
       <r>  -12.2325    1.0000 </r>
       <r>   -0.5410    1.0000 </r>
       <r>   -0.3266    1.0000 </r>
       <r>   -0.2734    1.0000 </r>
       <r>   -0.2033    1.0000 </r>
       <r>    0.0162    1.0000 </r>
       <r>    0.0791    1.0000 </r>
       <r>    0.2133    1.0000 </r>
       <r>    0.7267    1.0000 </r>
       <r>    0.9972    1.0000 </r>
       <r>    1.0311    1.0000 </r>
       <r>    1.1650    1.0000 </r>
       <r>    1.6073    1.0000 </r>
       <r>    1.7145    1.0000 </r>
       <r>    1.8748    1.0000 </r>
       <r>    2.0138    1.0000 </r>
       <r>    2.1912    1.0000 </r>
       <r>    2.3628    1.0000 </r>
       <r>    2.4118    1.0000 </r>
       <r>    2.5251    1.0000 </r>
       <r>    2.5763    1.0000 </r>
       <r>    2.6819    1.0000 </r>
       <r>    2.9275    1.0000 </r>
       <r>    2.9400    1.0000 </r>
       <r>    3.0631    1.0000 </r>
       <r>    9.4829    1.0000 </r>
       <r>   10.2174    0.0000 </r>
       <r>   11.1891    0.0000 </r>
       <r>   11.7080    0.0000 </r>
       <r>   11.9690    0.0000 </r>
       <r>   12.7843    0.0000 </r>
       <r>   13.1251    0.0000 </r>
       <r>   13.2706    0.0000 </r>
       <r>   13.5242    0.0000 </r>
       <r>   13.7273    0.0000 </r>
       <r>   13.9334    0.0000 </r>
       <r>   14.4550    0.0000 </r>
       <r>   14.8131    0.0000 </r>
       <r>   14.9170    0.0000 </r>
       <r>   15.3126    0.0000 </r>
       <r>   15.4365    0.0000 </r>
       <r>   15.7975    0.0000 </r>
       <r>   16.2808    0.0000 </r>
       <r>   16.4143    0.0000 </r>
       <r>   16.9777    0.0000 </r>
      </set>
      <set comment="kpoint 14">
       <r>  -13.2681    1.0000 </r>
       <r>  -12.9646    1.0000 </r>
       <r>  -12.7503    1.0000 </r>
       <r>  -12.5441    1.0000 </r>
       <r>  -12.5140    1.0000 </r>
       <r>  -12.3937    1.0000 </r>
       <r>  -12.2472    1.0000 </r>
       <r>  -12.2338    1.0000 </r>
       <r>   -0.5436    1.0000 </r>
       <r>   -0.3419    1.0000 </r>
       <r>   -0.2327    1.0000 </r>
       <r>   -0.2280    1.0000 </r>
       <r>    0.0071    1.0000 </r>
       <r>    0.0998    1.0000 </r>
       <r>    0.2027    1.0000 </r>
       <r>    0.7153    1.0000 </r>
       <r>    1.0162    1.0000 </r>
       <r>    1.0392    1.0000 </r>
       <r>    1.1471    1.0000 </r>
       <r>    1.6604    1.0000 </r>
       <r>    1.6687    1.0000 </r>
       <r>    1.8663    1.0000 </r>
       <r>    2.0054    1.0000 </r>
       <r>    2.2015    1.0000 </r>
       <r>    2.3585    1.0000 </r>
       <r>    2.4217    1.0000 </r>
       <r>    2.5239    1.0000 </r>
       <r>    2.5831    1.0000 </r>
       <r>    2.6853    1.0000 </r>
       <r>    2.9189    1.0000 </r>
       <r>    2.9544    1.0000 </r>
       <r>    3.0442    1.0000 </r>
       <r>    9.4770    1.0000 </r>
       <r>   10.2470    0.0000 </r>
       <r>   11.1088    0.0000 </r>
       <r>   11.7204    0.0000 </r>
       <r>   12.0244    0.0000 </r>
       <r>   12.8787    0.0000 </r>
       <r>   13.0712    0.0000 </r>
       <r>   13.2560    0.0000 </r>
       <r>   13.4385    0.0000 </r>
       <r>   13.7578    0.0000 </r>
       <r>   13.9668    0.0000 </r>
       <r>   14.3877    0.0000 </r>
       <r>   14.8818    0.0000 </r>
       <r>   14.9245    0.0000 </r>
       <r>   15.3081    0.0000 </r>
       <r>   15.3904    0.0000 </r>
       <r>   15.7736    0.0000 </r>
       <r>   16.2807    0.0000 </r>
       <r>   16.6324    0.0000 </r>
       <r>   16.8027    0.0000 </r>
      </set>
      <set comment="kpoint 15">
       <r>  -13.2718    1.0000 </r>
       <r>  -12.9561    1.0000 </r>
       <r>  -12.7449    1.0000 </r>
       <r>  -12.5548    1.0000 </r>
       <r>  -12.5232    1.0000 </r>
       <r>  -12.3822    1.0000 </r>
       <r>  -12.2450    1.0000 </r>
       <r>  -12.2381    1.0000 </r>
       <r>   -0.5526    1.0000 </r>
       <r>   -0.3253    1.0000 </r>
       <r>   -0.2501    1.0000 </r>
       <r>   -0.2176    1.0000 </r>
       <r>    0.0098    1.0000 </r>
       <r>    0.0965    1.0000 </r>
       <r>    0.2062    1.0000 </r>
       <r>    0.7188    1.0000 </r>
       <r>    1.0148    1.0000 </r>
       <r>    1.0419    1.0000 </r>
       <r>    1.1349    1.0000 </r>
       <r>    1.6287    1.0000 </r>
       <r>    1.6882    1.0000 </r>
       <r>    1.8743    1.0000 </r>
       <r>    2.0125    1.0000 </r>
       <r>    2.2048    1.0000 </r>
       <r>    2.3448    1.0000 </r>
       <r>    2.4071    1.0000 </r>
       <r>    2.5340    1.0000 </r>
       <r>    2.5854    1.0000 </r>
       <r>    2.6927    1.0000 </r>
       <r>    2.9128    1.0000 </r>
       <r>    2.9536    1.0000 </r>
       <r>    3.0612    1.0000 </r>
       <r>    9.4715    1.0000 </r>
       <r>   10.2813    0.0000 </r>
       <r>   11.1196    0.0000 </r>
       <r>   11.6991    0.0000 </r>
       <r>   11.9855    0.0000 </r>
       <r>   12.9060    0.0000 </r>
       <r>   13.0743    0.0000 </r>
       <r>   13.2625    0.0000 </r>
       <r>   13.4967    0.0000 </r>
       <r>   13.7076    0.0000 </r>
       <r>   13.9305    0.0000 </r>
       <r>   14.3962    0.0000 </r>
       <r>   14.8503    0.0000 </r>
       <r>   14.9480    0.0000 </r>
       <r>   15.1745    0.0000 </r>
       <r>   15.4195    0.0000 </r>
       <r>   15.8156    0.0000 </r>
       <r>   16.2665    0.0000 </r>
       <r>   16.5998    0.0000 </r>
       <r>   16.8657    0.0000 </r>
      </set>
      <set comment="kpoint 16">
       <r>  -13.2726    1.0000 </r>
       <r>  -12.9542    1.0000 </r>
       <r>  -12.7436    1.0000 </r>
       <r>  -12.5561    1.0000 </r>
       <r>  -12.5262    1.0000 </r>
       <r>  -12.3804    1.0000 </r>
       <r>  -12.2445    1.0000 </r>
       <r>  -12.2387    1.0000 </r>
       <r>   -0.5540    1.0000 </r>
       <r>   -0.3280    1.0000 </r>
       <r>   -0.2433    1.0000 </r>
       <r>   -0.2194    1.0000 </r>
       <r>    0.0113    1.0000 </r>
       <r>    0.0953    1.0000 </r>
       <r>    0.2062    1.0000 </r>
       <r>    0.7229    1.0000 </r>
       <r>    1.0163    1.0000 </r>
       <r>    1.0329    1.0000 </r>
       <r>    1.1376    1.0000 </r>
       <r>    1.6314    1.0000 </r>
       <r>    1.6808    1.0000 </r>
       <r>    1.8755    1.0000 </r>
       <r>    2.0123    1.0000 </r>
       <r>    2.2041    1.0000 </r>
       <r>    2.3460    1.0000 </r>
       <r>    2.4049    1.0000 </r>
       <r>    2.5401    1.0000 </r>
       <r>    2.5837    1.0000 </r>
       <r>    2.6904    1.0000 </r>
       <r>    2.9139    1.0000 </r>
       <r>    2.9529    1.0000 </r>
       <r>    3.0640    1.0000 </r>
       <r>    9.4700    1.0000 </r>
       <r>   10.2905    0.0000 </r>
       <r>   11.1292    0.0000 </r>
       <r>   11.7139    0.0000 </r>
       <r>   11.9499    0.0000 </r>
       <r>   12.9006    0.0000 </r>
       <r>   13.0909    0.0000 </r>
       <r>   13.2432    0.0000 </r>
       <r>   13.4996    0.0000 </r>
       <r>   13.7253    0.0000 </r>
       <r>   13.9130    0.0000 </r>
       <r>   14.4010    0.0000 </r>
       <r>   14.8558    0.0000 </r>
       <r>   14.9482    0.0000 </r>
       <r>   15.1624    0.0000 </r>
       <r>   15.4294    0.0000 </r>
       <r>   15.8032    0.0000 </r>
       <r>   16.2624    0.0000 </r>
       <r>   16.6130    0.0000 </r>
       <r>   16.8682    0.0000 </r>
      </set>
     </set>
     <set comment="spin 2">
      <set comment="kpoint 1">
       <r>  -13.6090    1.0000 </r>
       <r>  -12.7518    1.0000 </r>
       <r>  -12.5544    1.0000 </r>
       <r>  -12.5157    1.0000 </r>
       <r>  -12.5039    1.0000 </r>
       <r>  -12.2209    1.0000 </r>
       <r>  -12.2151    1.0000 </r>
       <r>  -12.2113    1.0000 </r>
       <r>   -1.0789    1.0000 </r>
       <r>   -0.8722    1.0000 </r>
       <r>   -0.8563    1.0000 </r>
       <r>   -0.6781    1.0000 </r>
       <r>   -0.4325    1.0000 </r>
       <r>   -0.3414    1.0000 </r>
       <r>   -0.3357    1.0000 </r>
       <r>    1.5050    1.0000 </r>
       <r>    1.6899    1.0000 </r>
       <r>    1.6985    1.0000 </r>
       <r>    2.0680    1.0000 </r>
       <r>    2.1050    1.0000 </r>
       <r>    2.1141    1.0000 </r>
       <r>    2.3067    1.0000 </r>
       <r>    2.3583    1.0000 </r>
       <r>    2.3622    1.0000 </r>
       <r>    2.4968    1.0000 </r>
       <r>    2.5767    1.0000 </r>
       <r>    2.5867    1.0000 </r>
       <r>    2.8291    1.0000 </r>
       <r>    2.9195    1.0000 </r>
       <r>    2.9437    1.0000 </r>
       <r>    3.2940    1.0000 </r>
       <r>    3.3249    1.0000 </r>
       <r>    8.4516    1.0000 </r>
       <r>   10.4835    0.0000 </r>
       <r>   11.0770    0.0000 </r>
       <r>   11.2079    0.0000 </r>
       <r>   11.3434    0.0000 </r>
       <r>   12.0649    0.0000 </r>
       <r>   12.1994    0.0000 </r>
       <r>   12.2764    0.0000 </r>
       <r>   12.8191    0.0000 </r>
       <r>   12.8446    0.0000 </r>
       <r>   13.5540    0.0000 </r>
       <r>   15.2356    0.0000 </r>
       <r>   15.2525    0.0000 </r>
       <r>   15.3396    0.0000 </r>
       <r>   15.7140    0.0000 </r>
       <r>   15.9558    0.0000 </r>
       <r>   16.2399    0.0000 </r>
       <r>   17.1325    0.0000 </r>
       <r>   17.2125    0.0000 </r>
       <r>   17.2182    0.0000 </r>
      </set>
      <set comment="kpoint 2">
       <r>  -13.6099    1.0000 </r>
       <r>  -12.7426    1.0000 </r>
       <r>  -12.5549    1.0000 </r>
       <r>  -12.5286    1.0000 </r>
       <r>  -12.4981    1.0000 </r>
       <r>  -12.2324    1.0000 </r>
       <r>  -12.2133    1.0000 </r>
       <r>  -12.2025    1.0000 </r>
       <r>   -1.0845    1.0000 </r>
       <r>   -0.8695    1.0000 </r>
       <r>   -0.8512    1.0000 </r>
       <r>   -0.6760    1.0000 </r>
       <r>   -0.4374    1.0000 </r>
       <r>   -0.3409    1.0000 </r>
       <r>   -0.3343    1.0000 </r>
       <r>    1.5182    1.0000 </r>
       <r>    1.6816    1.0000 </r>
       <r>    1.6947    1.0000 </r>
       <r>    2.0744    1.0000 </r>
       <r>    2.0920    1.0000 </r>
       <r>    2.1035    1.0000 </r>
       <r>    2.3131    1.0000 </r>
       <r>    2.3533    1.0000 </r>
       <r>    2.3626    1.0000 </r>
       <r>    2.4782    1.0000 </r>
       <r>    2.5868    1.0000 </r>
       <r>    2.5897    1.0000 </r>
       <r>    2.8364    1.0000 </r>
       <r>    2.9189    1.0000 </r>
       <r>    2.9375    1.0000 </r>
       <r>    3.3072    1.0000 </r>
       <r>    3.3323    1.0000 </r>
       <r>    8.4567    1.0000 </r>
       <r>   10.5451    0.0000 </r>
       <r>   11.0622    0.0000 </r>
       <r>   11.1916    0.0000 </r>
       <r>   11.3072    0.0000 </r>
       <r>   12.0564    0.0000 </r>
       <r>   12.2099    0.0000 </r>
       <r>   12.3497    0.0000 </r>
       <r>   12.7775    0.0000 </r>
       <r>   12.8091    0.0000 </r>
       <r>   13.5335    0.0000 </r>
       <r>   15.2218    0.0000 </r>
       <r>   15.2600    0.0000 </r>
       <r>   15.3298    0.0000 </r>
       <r>   15.5645    0.0000 </r>
       <r>   16.0610    0.0000 </r>
       <r>   16.2655    0.0000 </r>
       <r>   17.1205    0.0000 </r>
       <r>   17.2296    0.0000 </r>
       <r>   17.2412    0.0000 </r>
      </set>
      <set comment="kpoint 3">
       <r>  -13.6097    1.0000 </r>
       <r>  -12.7446    1.0000 </r>
       <r>  -12.5554    1.0000 </r>
       <r>  -12.5270    1.0000 </r>
       <r>  -12.4973    1.0000 </r>
       <r>  -12.2308    1.0000 </r>
       <r>  -12.2147    1.0000 </r>
       <r>  -12.2029    1.0000 </r>
       <r>   -1.0845    1.0000 </r>
       <r>   -0.8692    1.0000 </r>
       <r>   -0.8514    1.0000 </r>
       <r>   -0.6777    1.0000 </r>
       <r>   -0.4366    1.0000 </r>
       <r>   -0.3406    1.0000 </r>
       <r>   -0.3345    1.0000 </r>
       <r>    1.5108    1.0000 </r>
       <r>    1.6823    1.0000 </r>
       <r>    1.7001    1.0000 </r>
       <r>    2.0804    1.0000 </r>
       <r>    2.0921    1.0000 </r>
       <r>    2.1023    1.0000 </r>
       <r>    2.3135    1.0000 </r>
       <r>    2.3523    1.0000 </r>
       <r>    2.3633    1.0000 </r>
       <r>    2.4816    1.0000 </r>
       <r>    2.5821    1.0000 </r>
       <r>    2.5912    1.0000 </r>
       <r>    2.8352    1.0000 </r>
       <r>    2.9199    1.0000 </r>
       <r>    2.9385    1.0000 </r>
       <r>    3.3034    1.0000 </r>
       <r>    3.3326    1.0000 </r>
       <r>    8.4552    1.0000 </r>
       <r>   10.5330    0.0000 </r>
       <r>   11.0550    0.0000 </r>
       <r>   11.1841    0.0000 </r>
       <r>   11.3279    0.0000 </r>
       <r>   12.0591    0.0000 </r>
       <r>   12.2259    0.0000 </r>
       <r>   12.3303    0.0000 </r>
       <r>   12.7747    0.0000 </r>
       <r>   12.8184    0.0000 </r>
       <r>   13.5383    0.0000 </r>
       <r>   15.2187    0.0000 </r>
       <r>   15.2573    0.0000 </r>
       <r>   15.3310    0.0000 </r>
       <r>   15.5863    0.0000 </r>
       <r>   16.0499    0.0000 </r>
       <r>   16.2658    0.0000 </r>
       <r>   17.1203    0.0000 </r>
       <r>   17.2287    0.0000 </r>
       <r>   17.2406    0.0000 </r>
      </set>
      <set comment="kpoint 4">
       <r>  -13.6087    1.0000 </r>
       <r>  -12.7579    1.0000 </r>
       <r>  -12.5360    1.0000 </r>
       <r>  -12.5173    1.0000 </r>
       <r>  -12.5150    1.0000 </r>
       <r>  -12.2298    1.0000 </r>
       <r>  -12.2148    1.0000 </r>
       <r>  -12.2025    1.0000 </r>
       <r>   -1.0715    1.0000 </r>
       <r>   -0.8737    1.0000 </r>
       <r>   -0.8692    1.0000 </r>
       <r>   -0.6754    1.0000 </r>
       <r>   -0.4258    1.0000 </r>
       <r>   -0.3413    1.0000 </r>
       <r>   -0.3398    1.0000 </r>
       <r>    1.4958    1.0000 </r>
       <r>    1.6955    1.0000 </r>
       <r>    1.7017    1.0000 </r>
       <r>    2.0858    1.0000 </r>
       <r>    2.0983    1.0000 </r>
       <r>    2.1051    1.0000 </r>
       <r>    2.3114    1.0000 </r>
       <r>    2.3637    1.0000 </r>
       <r>    2.3667    1.0000 </r>
       <r>    2.5106    1.0000 </r>
       <r>    2.5739    1.0000 </r>
       <r>    2.5872    1.0000 </r>
       <r>    2.8334    1.0000 </r>
       <r>    2.9192    1.0000 </r>
       <r>    2.9288    1.0000 </r>
       <r>    3.2916    1.0000 </r>
       <r>    3.3093    1.0000 </r>
       <r>    8.4499    1.0000 </r>
       <r>   10.4450    0.0000 </r>
       <r>   11.1400    0.0000 </r>
       <r>   11.2199    0.0000 </r>
       <r>   11.3182    0.0000 </r>
       <r>   12.0195    0.0000 </r>
       <r>   12.1774    0.0000 </r>
       <r>   12.2637    0.0000 </r>
       <r>   12.8559    0.0000 </r>
       <r>   12.8856    0.0000 </r>
       <r>   13.5557    0.0000 </r>
       <r>   15.2531    0.0000 </r>
       <r>   15.2627    0.0000 </r>
       <r>   15.3410    0.0000 </r>
       <r>   15.8844    0.0000 </r>
       <r>   15.9530    0.0000 </r>
       <r>   16.0852    0.0000 </r>
       <r>   17.1507    0.0000 </r>
       <r>   17.1801    0.0000 </r>
       <r>   17.1911    0.0000 </r>
      </set>
      <set comment="kpoint 5">
       <r>  -13.2593    1.0000 </r>
       <r>  -12.9384    1.0000 </r>
       <r>  -12.7242    1.0000 </r>
       <r>  -12.5694    1.0000 </r>
       <r>  -12.4870    1.0000 </r>
       <r>  -12.3414    1.0000 </r>
       <r>  -12.1944    1.0000 </r>
       <r>  -12.1723    1.0000 </r>
       <r>   -0.5115    1.0000 </r>
       <r>   -0.2919    1.0000 </r>
       <r>   -0.2112    1.0000 </r>
       <r>   -0.1008    1.0000 </r>
       <r>    0.0201    1.0000 </r>
       <r>    0.0906    1.0000 </r>
       <r>    0.2296    1.0000 </r>
       <r>    0.7894    1.0000 </r>
       <r>    1.0164    1.0000 </r>
       <r>    1.0620    1.0000 </r>
       <r>    1.2022    1.0000 </r>
       <r>    1.6336    1.0000 </r>
       <r>    1.7351    1.0000 </r>
       <r>    1.8912    1.0000 </r>
       <r>    2.0592    1.0000 </r>
       <r>    2.2314    1.0000 </r>
       <r>    2.3988    1.0000 </r>
       <r>    2.4207    1.0000 </r>
       <r>    2.5784    1.0000 </r>
       <r>    2.6085    1.0000 </r>
       <r>    2.7004    1.0000 </r>
       <r>    2.9445    1.0000 </r>
       <r>    2.9789    1.0000 </r>
       <r>    3.1133    1.0000 </r>
       <r>    9.8647    0.6772 </r>
       <r>   10.6911    0.0000 </r>
       <r>   11.2729    0.0000 </r>
       <r>   11.8019    0.0000 </r>
       <r>   12.0646    0.0000 </r>
       <r>   12.9492    0.0000 </r>
       <r>   13.1201    0.0000 </r>
       <r>   13.2775    0.0000 </r>
       <r>   13.5039    0.0000 </r>
       <r>   13.7199    0.0000 </r>
       <r>   13.9623    0.0000 </r>
       <r>   14.4166    0.0000 </r>
       <r>   14.8271    0.0000 </r>
       <r>   14.9272    0.0000 </r>
       <r>   15.1978    0.0000 </r>
       <r>   15.4566    0.0000 </r>
       <r>   15.8079    0.0000 </r>
       <r>   16.4034    0.0000 </r>
       <r>   16.5957    0.0000 </r>
       <r>   16.9115    0.0000 </r>
      </set>
      <set comment="kpoint 6">
       <r>  -13.2521    1.0000 </r>
       <r>  -12.9554    1.0000 </r>
       <r>  -12.7348    1.0000 </r>
       <r>  -12.5467    1.0000 </r>
       <r>  -12.4765    1.0000 </r>
       <r>  -12.3565    1.0000 </r>
       <r>  -12.1934    1.0000 </r>
       <r>  -12.1705    1.0000 </r>
       <r>   -0.4928    1.0000 </r>
       <r>   -0.3009    1.0000 </r>
       <r>   -0.2348    1.0000 </r>
       <r>   -0.0999    1.0000 </r>
       <r>    0.0119    1.0000 </r>
       <r>    0.0933    1.0000 </r>
       <r>    0.2309    1.0000 </r>
       <r>    0.7648    1.0000 </r>
       <r>    1.0462    1.0000 </r>
       <r>    1.0822    1.0000 </r>
       <r>    1.2021    1.0000 </r>
       <r>    1.6756    1.0000 </r>
       <r>    1.7306    1.0000 </r>
       <r>    1.8750    1.0000 </r>
       <r>    2.0484    1.0000 </r>
       <r>    2.2332    1.0000 </r>
       <r>    2.4176    1.0000 </r>
       <r>    2.4287    1.0000 </r>
       <r>    2.5445    1.0000 </r>
       <r>    2.6063    1.0000 </r>
       <r>    2.7158    1.0000 </r>
       <r>    2.9470    1.0000 </r>
       <r>    2.9847    1.0000 </r>
       <r>    3.0741    1.0000 </r>
       <r>    9.8639    0.6850 </r>
       <r>   10.5579    0.0000 </r>
       <r>   11.2814    0.0000 </r>
       <r>   11.9707    0.0000 </r>
       <r>   12.0803    0.0000 </r>
       <r>   12.8117    0.0000 </r>
       <r>   13.1238    0.0000 </r>
       <r>   13.3274    0.0000 </r>
       <r>   13.4913    0.0000 </r>
       <r>   13.7437    0.0000 </r>
       <r>   13.9928    0.0000 </r>
       <r>   14.3954    0.0000 </r>
       <r>   14.8605    0.0000 </r>
       <r>   14.9845    0.0000 </r>
       <r>   15.3481    0.0000 </r>
       <r>   15.4274    0.0000 </r>
       <r>   15.7553    0.0000 </r>
       <r>   16.4081    0.0000 </r>
       <r>   16.5839    0.0000 </r>
       <r>   16.8419    0.0000 </r>
      </set>
      <set comment="kpoint 7">
       <r>  -13.2581    1.0000 </r>
       <r>  -12.9407    1.0000 </r>
       <r>  -12.7260    1.0000 </r>
       <r>  -12.5680    1.0000 </r>
       <r>  -12.4841    1.0000 </r>
       <r>  -12.3425    1.0000 </r>
       <r>  -12.1960    1.0000 </r>
       <r>  -12.1710    1.0000 </r>
       <r>   -0.5127    1.0000 </r>
       <r>   -0.2918    1.0000 </r>
       <r>   -0.2099    1.0000 </r>
       <r>   -0.1014    1.0000 </r>
       <r>    0.0184    1.0000 </r>
       <r>    0.0919    1.0000 </r>
       <r>    0.2291    1.0000 </r>
       <r>    0.7859    1.0000 </r>
       <r>    1.0169    1.0000 </r>
       <r>    1.0649    1.0000 </r>
       <r>    1.2032    1.0000 </r>
       <r>    1.6299    1.0000 </r>
       <r>    1.7438    1.0000 </r>
       <r>    1.8910    1.0000 </r>
       <r>    2.0580    1.0000 </r>
       <r>    2.2302    1.0000 </r>
       <r>    2.3964    1.0000 </r>
       <r>    2.4230    1.0000 </r>
       <r>    2.5757    1.0000 </r>
       <r>    2.6092    1.0000 </r>
       <r>    2.7014    1.0000 </r>
       <r>    2.9464    1.0000 </r>
       <r>    2.9789    1.0000 </r>
       <r>    3.1114    1.0000 </r>
       <r>    9.8639    0.6854 </r>
       <r>   10.6736    0.0000 </r>
       <r>   11.2622    0.0000 </r>
       <r>   11.8200    0.0000 </r>
       <r>   12.0889    0.0000 </r>
       <r>   12.9388    0.0000 </r>
       <r>   13.1099    0.0000 </r>
       <r>   13.2699    0.0000 </r>
       <r>   13.5141    0.0000 </r>
       <r>   13.7232    0.0000 </r>
       <r>   13.9513    0.0000 </r>
       <r>   14.4245    0.0000 </r>
       <r>   14.8320    0.0000 </r>
       <r>   14.9258    0.0000 </r>
       <r>   15.2125    0.0000 </r>
       <r>   15.4649    0.0000 </r>
       <r>   15.8066    0.0000 </r>
       <r>   16.3985    0.0000 </r>
       <r>   16.5923    0.0000 </r>
       <r>   16.9493    0.0000 </r>
      </set>
      <set comment="kpoint 8">
       <r>  -13.2579    1.0000 </r>
       <r>  -12.9475    1.0000 </r>
       <r>  -12.7071    1.0000 </r>
       <r>  -12.5782    1.0000 </r>
       <r>  -12.4928    1.0000 </r>
       <r>  -12.3356    1.0000 </r>
       <r>  -12.1874    1.0000 </r>
       <r>  -12.1798    1.0000 </r>
       <r>   -0.5105    1.0000 </r>
       <r>   -0.2964    1.0000 </r>
       <r>   -0.2064    1.0000 </r>
       <r>   -0.1106    1.0000 </r>
       <r>    0.0229    1.0000 </r>
       <r>    0.0884    1.0000 </r>
       <r>    0.2326    1.0000 </r>
       <r>    0.7907    1.0000 </r>
       <r>    1.0197    1.0000 </r>
       <r>    1.0547    1.0000 </r>
       <r>    1.2100    1.0000 </r>
       <r>    1.6401    1.0000 </r>
       <r>    1.7269    1.0000 </r>
       <r>    1.8955    1.0000 </r>
       <r>    2.0683    1.0000 </r>
       <r>    2.2258    1.0000 </r>
       <r>    2.4029    1.0000 </r>
       <r>    2.4236    1.0000 </r>
       <r>    2.5757    1.0000 </r>
       <r>    2.6010    1.0000 </r>
       <r>    2.7000    1.0000 </r>
       <r>    2.9519    1.0000 </r>
       <r>    2.9637    1.0000 </r>
       <r>    3.1192    1.0000 </r>
       <r>    9.8667    0.6565 </r>
       <r>   10.6425    0.0000 </r>
       <r>   11.3990    0.0000 </r>
       <r>   11.6729    0.0000 </r>
       <r>   12.0720    0.0000 </r>
       <r>   12.9321    0.0000 </r>
       <r>   13.2266    0.0000 </r>
       <r>   13.2922    0.0000 </r>
       <r>   13.4228    0.0000 </r>
       <r>   13.7259    0.0000 </r>
       <r>   14.0221    0.0000 </r>
       <r>   14.4104    0.0000 </r>
       <r>   14.8002    0.0000 </r>
       <r>   14.9061    0.0000 </r>
       <r>   15.2159    0.0000 </r>
       <r>   15.4512    0.0000 </r>
       <r>   15.8158    0.0000 </r>
       <r>   16.3686    0.0000 </r>
       <r>   16.5587    0.0000 </r>
       <r>   16.9895    0.0000 </r>
      </set>
      <set comment="kpoint 9">
       <r>  -13.2533    1.0000 </r>
       <r>  -12.9560    1.0000 </r>
       <r>  -12.7148    1.0000 </r>
       <r>  -12.5691    1.0000 </r>
       <r>  -12.4842    1.0000 </r>
       <r>  -12.3416    1.0000 </r>
       <r>  -12.1941    1.0000 </r>
       <r>  -12.1730    1.0000 </r>
       <r>   -0.5015    1.0000 </r>
       <r>   -0.2974    1.0000 </r>
       <r>   -0.2118    1.0000 </r>
       <r>   -0.1104    1.0000 </r>
       <r>    0.0160    1.0000 </r>
       <r>    0.0878    1.0000 </r>
       <r>    0.2348    1.0000 </r>
       <r>    0.7845    1.0000 </r>
       <r>    1.0239    1.0000 </r>
       <r>    1.0633    1.0000 </r>
       <r>    1.2109    1.0000 </r>
       <r>    1.6349    1.0000 </r>
       <r>    1.7454    1.0000 </r>
       <r>    1.8929    1.0000 </r>
       <r>    2.0608    1.0000 </r>
       <r>    2.2222    1.0000 </r>
       <r>    2.4051    1.0000 </r>
       <r>    2.4264    1.0000 </r>
       <r>    2.5578    1.0000 </r>
       <r>    2.6052    1.0000 </r>
       <r>    2.7075    1.0000 </r>
       <r>    2.9553    1.0000 </r>
       <r>    2.9700    1.0000 </r>
       <r>    3.1030    1.0000 </r>
       <r>    9.8705    0.6167 </r>
       <r>   10.5679    0.0000 </r>
       <r>   11.3864    0.0000 </r>
       <r>   11.7797    0.0000 </r>
       <r>   12.1229    0.0000 </r>
       <r>   12.8494    0.0000 </r>
       <r>   13.1451    0.0000 </r>
       <r>   13.2774    0.0000 </r>
       <r>   13.5312    0.0000 </r>
       <r>   13.7244    0.0000 </r>
       <r>   13.9860    0.0000 </r>
       <r>   14.4532    0.0000 </r>
       <r>   14.8191    0.0000 </r>
       <r>   14.8998    0.0000 </r>
       <r>   15.3321    0.0000 </r>
       <r>   15.4223    0.0000 </r>
       <r>   15.8043    0.0000 </r>
       <r>   16.3511    0.0000 </r>
       <r>   16.5442    0.0000 </r>
       <r>   16.9252    0.0000 </r>
      </set>
      <set comment="kpoint 10">
       <r>  -13.2506    1.0000 </r>
       <r>  -12.9620    1.0000 </r>
       <r>  -12.7185    1.0000 </r>
       <r>  -12.5582    1.0000 </r>
       <r>  -12.4845    1.0000 </r>
       <r>  -12.3479    1.0000 </r>
       <r>  -12.1865    1.0000 </r>
       <r>  -12.1777    1.0000 </r>
       <r>   -0.4906    1.0000 </r>
       <r>   -0.3048    1.0000 </r>
       <r>   -0.2275    1.0000 </r>
       <r>   -0.1002    1.0000 </r>
       <r>    0.0106    1.0000 </r>
       <r>    0.0876    1.0000 </r>
       <r>    0.2349    1.0000 </r>
       <r>    0.7739    1.0000 </r>
       <r>    1.0381    1.0000 </r>
       <r>    1.0654    1.0000 </r>
       <r>    1.2178    1.0000 </r>
       <r>    1.6585    1.0000 </r>
       <r>    1.7366    1.0000 </r>
       <r>    1.8870    1.0000 </r>
       <r>    2.0565    1.0000 </r>
       <r>    2.2178    1.0000 </r>
       <r>    2.4098    1.0000 </r>
       <r>    2.4344    1.0000 </r>
       <r>    2.5547    1.0000 </r>
       <r>    2.5955    1.0000 </r>
       <r>    2.7154    1.0000 </r>
       <r>    2.9560    1.0000 </r>
       <r>    2.9694    1.0000 </r>
       <r>    3.0877    1.0000 </r>
       <r>    9.8728    0.5917 </r>
       <r>   10.5183    0.0000 </r>
       <r>   11.4111    0.0000 </r>
       <r>   11.8184    0.0000 </r>
       <r>   12.1385    0.0000 </r>
       <r>   12.7673    0.0000 </r>
       <r>   13.1182    0.0000 </r>
       <r>   13.3077    0.0000 </r>
       <r>   13.5460    0.0000 </r>
       <r>   13.7918    0.0000 </r>
       <r>   13.9292    0.0000 </r>
       <r>   14.4578    0.0000 </r>
       <r>   14.8218    0.0000 </r>
       <r>   14.9470    0.0000 </r>
       <r>   15.3893    0.0000 </r>
       <r>   15.4753    0.0000 </r>
       <r>   15.7454    0.0000 </r>
       <r>   16.3654    0.0000 </r>
       <r>   16.5488    0.0000 </r>
       <r>   16.8963    0.0000 </r>
      </set>
      <set comment="kpoint 11">
       <r>  -13.2510    1.0000 </r>
       <r>  -12.9606    1.0000 </r>
       <r>  -12.7218    1.0000 </r>
       <r>  -12.5555    1.0000 </r>
       <r>  -12.4831    1.0000 </r>
       <r>  -12.3500    1.0000 </r>
       <r>  -12.1879    1.0000 </r>
       <r>  -12.1760    1.0000 </r>
       <r>   -0.4912    1.0000 </r>
       <r>   -0.3065    1.0000 </r>
       <r>   -0.2270    1.0000 </r>
       <r>   -0.0972    1.0000 </r>
       <r>    0.0113    1.0000 </r>
       <r>    0.0877    1.0000 </r>
       <r>    0.2329    1.0000 </r>
       <r>    0.7734    1.0000 </r>
       <r>    1.0404    1.0000 </r>
       <r>    1.0623    1.0000 </r>
       <r>    1.2201    1.0000 </r>
       <r>    1.6551    1.0000 </r>
       <r>    1.7401    1.0000 </r>
       <r>    1.8848    1.0000 </r>
       <r>    2.0564    1.0000 </r>
       <r>    2.2190    1.0000 </r>
       <r>    2.4115    1.0000 </r>
       <r>    2.4361    1.0000 </r>
       <r>    2.5577    1.0000 </r>
       <r>    2.5945    1.0000 </r>
       <r>    2.7108    1.0000 </r>
       <r>    2.9543    1.0000 </r>
       <r>    2.9714    1.0000 </r>
       <r>    3.0868    1.0000 </r>
       <r>    9.8705    0.6165 </r>
       <r>   10.5257    0.0000 </r>
       <r>   11.3844    0.0000 </r>
       <r>   11.8487    0.0000 </r>
       <r>   12.1328    0.0000 </r>
       <r>   12.7779    0.0000 </r>
       <r>   13.1200    0.0000 </r>
       <r>   13.3006    0.0000 </r>
       <r>   13.5268    0.0000 </r>
       <r>   13.7970    0.0000 </r>
       <r>   13.9351    0.0000 </r>
       <r>   14.4500    0.0000 </r>
       <r>   14.8100    0.0000 </r>
       <r>   14.9614    0.0000 </r>
       <r>   15.3934    0.0000 </r>
       <r>   15.4809    0.0000 </r>
       <r>   15.7375    0.0000 </r>
       <r>   16.3899    0.0000 </r>
       <r>   16.5589    0.0000 </r>
       <r>   16.8786    0.0000 </r>
      </set>
      <set comment="kpoint 12">
       <r>  -13.2592    1.0000 </r>
       <r>  -12.9438    1.0000 </r>
       <r>  -12.7089    1.0000 </r>
       <r>  -12.5783    1.0000 </r>
       <r>  -12.4936    1.0000 </r>
       <r>  -12.3353    1.0000 </r>
       <r>  -12.1873    1.0000 </r>
       <r>  -12.1799    1.0000 </r>
       <r>   -0.5107    1.0000 </r>
       <r>   -0.2942    1.0000 </r>
       <r>   -0.2057    1.0000 </r>
       <r>   -0.1117    1.0000 </r>
       <r>    0.0231    1.0000 </r>
       <r>    0.0869    1.0000 </r>
       <r>    0.2341    1.0000 </r>
       <r>    0.7902    1.0000 </r>
       <r>    1.0197    1.0000 </r>
[...]
        <r>  0.0043  0.0006  0.0007  0.0003  0.0058  0.0010  0.0000  0.0002  0.0000 </r>
        <r>  0.0002  0.0010  0.0019  0.0028  0.0090  0.0017  0.0000  0.0004  0.0001 </r>
        <r>  0.0008  0.0033  0.0006  0.0008  0.0089  0.0011  0.0001  0.0006  0.0001 </r>
        <r>  0.0006  0.0180  0.0002  0.0007  0.0000  0.0000  0.0000  0.0000  0.0000 </r>
        <r>  0.0006  0.0047  0.0001  0.0132  0.0000  0.0000  0.0000  0.0000  0.0000 </r>
        <r>  0.0019  0.0184  0.0042  0.0171  0.0000  0.0000  0.0000  0.0000  0.0000 </r>
        <r>  0.0036  0.0009  0.0033  0.0022  0.0000  0.0000  0.0000  0.0000  0.0000 </r>
        <r>  0.0003  0.0025  0.0022  0.0005  0.0000  0.0000  0.0000  0.0000  0.0000 </r>
        <r>  0.0026  0.0096  0.0058  0.0053  0.0000  0.0000  0.0000  0.0000  0.0000 </r>
        <r>  0.0004  0.0003  0.0033  0.0024  0.0000  0.0000  0.0000  0.0000  0.0000 </r>
        <r>  0.0032  0.0037  0.0017  0.0017  0.0000  0.0000  0.0000  0.0000  0.0000 </r>
       </set>
       <set comment="band 42">
        <r>  0.0003  0.0028  0.0004  0.0021  0.0001  0.0016  0.0005  0.0018  0.0122 </r>
        <r>  0.0034  0.0041  0.0021  0.0010  0.0006  0.0060  0.0000  0.0119  0.0003 </r>
        <r>  0.0033  0.0022  0.0017  0.0067  0.0006  0.0090  0.0000  0.0048  0.0003 </r>
        <r>  0.0004  0.0017  0.0000  0.0016  0.0002  0.0063  0.0000  0.0101  0.0003 </r>
        <r>  0.0002  0.0001  0.0001  0.0001  0.0002  0.0059  0.0000  0.0057  0.0006 </r>
        <r>  0.0000  0.0121  0.0000  0.0140  0.0002  0.0013  0.0000  0.0029  0.0015 </r>
        <r>  0.0000  0.0048  0.0002  0.0042  0.0002  0.0011  0.0000  0.0009  0.0002 </r>
        <r>  0.0003  0.0003  0.0053  0.0005  0.0002  0.0019  0.0000  0.0027  0.0000 </r>
        <r>  0.0006  0.0002  0.0058  0.0013  0.0007  0.0012  0.0000  0.0016  0.0000 </r>
        <r>  0.0026  0.0140  0.0159  0.0153  0.0000  0.0000  0.0000  0.0000  0.0000 </r>
        <r>  0.0022  0.0144  0.0166  0.0120  0.0000  0.0000  0.0000  0.0000  0.0000 </r>
        <r>  0.0000  0.0076  0.0001  0.0092  0.0000  0.0000  0.0000  0.0000  0.0000 </r>
        <r>  0.0004  0.0064  0.0003  0.0094  0.0000  0.0000  0.0000  0.0000  0.0000 </r>
        <r>  0.0002  0.0061  0.0003  0.0043  0.0000  0.0000  0.0000  0.0000  0.0000 </r>
        <r>  0.0001  0.0025  0.0003  0.0062  0.0000  0.0000  0.0000  0.0000  0.0000 </r>
        <r>  0.0026  0.0146  0.0034  0.0117  0.0000  0.0000  0.0000  0.0000  0.0000 </r>
        <r>  0.0032  0.0080  0.0040  0.0130  0.0000  0.0000  0.0000  0.0000  0.0000 </r>
       </set>
       <set comment="band 43">
        <r>  0.0282  0.0006  0.0043  0.0012  0.0005  0.0023  0.0061  0.0021  0.0002 </r>
        <r>  0.0004  0.0004  0.0045  0.0030  0.0085  0.0041  0.0006  0.0045  0.0003 </r>
        <r>  0.0006  0.0018  0.0042  0.0010  0.0084  0.0025  0.0005  0.0062  0.0001 </r>
        <r>  0.0037  0.0001  0.0003  0.0000  0.0091  0.0043  0.0005  0.0046  0.0000 </r>
        <r>  0.0196  0.0007  0.0002  0.0008  0.0068  0.0005  0.0001  0.0017  0.0000 </r>
        <r>  0.0122  0.0023  0.0135  0.0029  0.0030  0.0023  0.0003  0.0017  0.0000 </r>
        <r>  0.0021  0.0020  0.0009  0.0029  0.0043  0.0002  0.0002  0.0004  0.0000 </r>
        <r>  0.0012  0.0077  0.0006  0.0003  0.0035  0.0000  0.0000  0.0014  0.0001 </r>
        <r>  0.0006  0.0005  0.0012  0.0067  0.0033  0.0020  0.0000  0.0001  0.0002 </r>
        <r>  0.0013  0.0071  0.0027  0.0259  0.0000  0.0000  0.0000  0.0000  0.0000 </r>
        <r>  0.0022  0.0239  0.0008  0.0080  0.0000  0.0000  0.0000  0.0000  0.0000 </r>
        <r>  0.0017  0.0005  0.0412  0.0023  0.0000  0.0000  0.0000  0.0000  0.0000 </r>
        <r>  0.0074  0.0013  0.0034  0.0007  0.0000  0.0000  0.0000  0.0000  0.0000 </r>
        <r>  0.0055  0.0170  0.0001  0.0181  0.0000  0.0000  0.0000  0.0000  0.0000 </r>
        <r>  0.0043  0.0008  0.0059  0.0010  0.0000  0.0000  0.0000  0.0000  0.0000 </r>
        <r>  0.0042  0.0000  0.0039  0.0055  0.0000  0.0000  0.0000  0.0000  0.0000 </r>
        <r>  0.0042  0.0053  0.0037  0.0008  0.0000  0.0000  0.0000  0.0000  0.0000 </r>
       </set>
       <set comment="band 44">
        <r>  0.0164  0.0016  0.0222  0.0030  0.0132  0.0029  0.0144  0.0014  0.0002 </r>
        <r>  0.0014  0.0004  0.0040  0.0001  0.0073  0.0013  0.0006  0.0070  0.0000 </r>
        <r>  0.0039  0.0003  0.0059  0.0011  0.0081  0.0094  0.0005  0.0011  0.0000 </r>
        <r>  0.0040  0.0003  0.0065  0.0008  0.0042  0.0073  0.0016  0.0041  0.0000 </r>
        <r>  0.0084  0.0003  0.0006  0.0007  0.0024  0.0006  0.0001  0.0003  0.0000 </r>
        <r>  0.0031  0.0011  0.0048  0.0024  0.0142  0.0027  0.0004  0.0018  0.0000 </r>
        <r>  0.0024  0.0009  0.0076  0.0004  0.0054  0.0003  0.0000  0.0002  0.0000 </r>
        <r>  0.0049  0.0071  0.0024  0.0010  0.0012  0.0014  0.0000  0.0002  0.0000 </r>
        <r>  0.0044  0.0009  0.0016  0.0061  0.0015  0.0003  0.0000  0.0014  0.0000 </r>
        <r>  0.0010  0.0005  0.0109  0.0040  0.0000  0.0000  0.0000  0.0000  0.0000 </r>
        <r>  0.0014  0.0052  0.0084  0.0017  0.0000  0.0000  0.0000  0.0000  0.0000 </r>
        <r>  0.0000  0.0006  0.0124  0.0007  0.0000  0.0000  0.0000  0.0000  0.0000 </r>
        <r>  0.0049  0.0043  0.0042  0.0025  0.0000  0.0000  0.0000  0.0000  0.0000 </r>
        <r>  0.0034  0.0145  0.0380  0.0101  0.0000  0.0000  0.0000  0.0000  0.0000 </r>
        <r>  0.0012  0.0047  0.0083  0.0017  0.0000  0.0000  0.0000  0.0000  0.0000 </r>
        <r>  0.0017  0.0004  0.0059  0.0085  0.0000  0.0000  0.0000  0.0000  0.0000 </r>
        <r>  0.0031  0.0077  0.0039  0.0007  0.0000  0.0000  0.0000  0.0000  0.0000 </r>
       </set>
       <set comment="band 45">
        <r>  0.0013  0.0012  0.0003  0.0010  0.0036  0.0004  0.0006  0.0020  0.0174 </r>
        <r>  0.0049  0.0164  0.0011  0.0015  0.0001  0.0015  0.0001  0.0000  0.0018 </r>
        <r>  0.0004  0.0080  0.0041  0.0031  0.0018  0.0021  0.0000  0.0038  0.0009 </r>
        <r>  0.0003  0.0077  0.0014  0.0012  0.0023  0.0019  0.0001  0.0025  0.0016 </r>
        <r>  0.0028  0.0021  0.0015  0.0005  0.0019  0.0037  0.0003  0.0021  0.0001 </r>
        <r>  0.0116  0.0041  0.0006  0.0003  0.0015  0.0041  0.0001  0.0127  0.0000 </r>
        <r>  0.0009  0.0005  0.0005  0.0003  0.0013  0.0074  0.0000  0.0013  0.0003 </r>
        <r>  0.0121  0.0017  0.0065  0.0000  0.0009  0.0011  0.0000  0.0026  0.0000 </r>
        <r>  0.0006  0.0010  0.0007  0.0003  0.0017  0.0020  0.0000  0.0003  0.0001 </r>
        <r>  0.0025  0.0114  0.0244  0.0026  0.0000  0.0000  0.0000  0.0000  0.0000 </r>
        <r>  0.0004  0.0129  0.0006  0.0023  0.0000  0.0000  0.0000  0.0000  0.0000 </r>
        <r>  0.0010  0.0240  0.0023  0.0032  0.0000  0.0000  0.0000  0.0000  0.0000 </r>
        <r>  0.0001  0.0084  0.0013  0.0067  0.0000  0.0000  0.0000  0.0000  0.0000 </r>
        <r>  0.0012  0.0428  0.0020  0.0066  0.0000  0.0000  0.0000  0.0000  0.0000 </r>
        <r>  0.0005  0.0210  0.0065  0.0168  0.0000  0.0000  0.0000  0.0000  0.0000 </r>
        <r>  0.0004  0.0017  0.0065  0.0012  0.0000  0.0000  0.0000  0.0000  0.0000 </r>
        <r>  0.0005  0.0096  0.0146  0.0091  0.0000  0.0000  0.0000  0.0000  0.0000 </r>
       </set>
       <set comment="band 46">
        <r>  0.0046  0.0012  0.0003  0.0023  0.0082  0.0026  0.0010  0.0010  0.0094 </r>
        <r>  0.0011  0.0003  0.0044  0.0062  0.0013  0.0056  0.0002  0.0028  0.0007 </r>
        <r>  0.0059  0.0008  0.0014  0.0164  0.0001  0.0011  0.0001  0.0022  0.0007 </r>
        <r>  0.0014  0.0017  0.0059  0.0043  0.0043  0.0016  0.0001  0.0009  0.0010 </r>
        <r>  0.0030  0.0004  0.0011  0.0012  0.0031  0.0034  0.0003  0.0056  0.0000 </r>
        <r>  0.0217  0.0006  0.0003  0.0038  0.0011  0.0099  0.0001  0.0019  0.0001 </r>
        <r>  0.0029  0.0006  0.0021  0.0006  0.0013  0.0003  0.0000  0.0066  0.0001 </r>
        <r>  0.0061  0.0004  0.0007  0.0016  0.0015  0.0020  0.0001  0.0023  0.0002 </r>
        <r>  0.0129  0.0001  0.0054  0.0021  0.0010  0.0026  0.0000  0.0021  0.0000 </r>
        <r>  0.0006  0.0044  0.0010  0.0117  0.0000  0.0000  0.0000  0.0000  0.0000 </r>
        <r>  0.0033  0.0036  0.0213  0.0103  0.0000  0.0000  0.0000  0.0000  0.0000 </r>
        <r>  0.0011  0.0017  0.0024  0.0292  0.0000  0.0000  0.0000  0.0000  0.0000 </r>
        <r>  0.0002  0.0061  0.0081  0.0075  0.0000  0.0000  0.0000  0.0000  0.0000 </r>
        <r>  0.0035  0.0009  0.0119  0.0349  0.0000  0.0000  0.0000  0.0000  0.0000 </r>
        <r>  0.0014  0.0068  0.0072  0.0134  0.0000  0.0000  0.0000  0.0000  0.0000 </r>
        <r>  0.0003  0.0123  0.0104  0.0044  0.0000  0.0000  0.0000  0.0000  0.0000 </r>
        <r>  0.0001  0.0013  0.0037  0.0030  0.0000  0.0000  0.0000  0.0000  0.0000 </r>
       </set>
       <set comment="band 47">
        <r>  0.0003  0.0003  0.0009  0.0003  0.0012  0.0008  0.0064  0.0001  0.0000 </r>
        <r>  0.0001  0.0019  0.0052  0.0059  0.0026  0.0090  0.0009  0.0029  0.0003 </r>
        <r>  0.0008  0.0058  0.0048  0.0019  0.0016  0.0041  0.0002  0.0111  0.0003 </r>
        <r>  0.0010  0.0011  0.0182  0.0020  0.0066  0.0018  0.0043  0.0001  0.0000 </r>
        <r>  0.0293  0.0022  0.0102  0.0036  0.0024  0.0001  0.0001  0.0001  0.0000 </r>
        <r>  0.0106  0.0007  0.0004  0.0006  0.0002  0.0006  0.0002  0.0000  0.0000 </r>
        <r>  0.0044  0.0006  0.0034  0.0002  0.0009  0.0005  0.0001  0.0006  0.0000 </r>
        <r>  0.0044  0.0010  0.0001  0.0017  0.0035  0.0052  0.0000  0.0011  0.0000 </r>
        <r>  0.0021  0.0009  0.0003  0.0003  0.0030  0.0014  0.0000  0.0043  0.0001 </r>
        <r>  0.0003  0.0009  0.0048  0.0156  0.0000  0.0000  0.0000  0.0000  0.0000 </r>
        <r>  0.0000  0.0157  0.0085  0.0019  0.0000  0.0000  0.0000  0.0000  0.0000 </r>
        <r>  0.0003  0.0021  0.0240  0.0039  0.0000  0.0000  0.0000  0.0000  0.0000 </r>
        <r>  0.0020  0.0037  0.0407  0.0053  0.0000  0.0000  0.0000  0.0000  0.0000 </r>
        <r>  0.0000  0.0055  0.0206  0.0053  0.0000  0.0000  0.0000  0.0000  0.0000 </r>
        <r>  0.0012  0.0004  0.0167  0.0015  0.0000  0.0000  0.0000  0.0000  0.0000 </r>
        <r>  0.0009  0.0082  0.0064  0.0053  0.0000  0.0000  0.0000  0.0000  0.0000 </r>
        <r>  0.0012  0.0057  0.0018  0.0071  0.0000  0.0000  0.0000  0.0000  0.0000 </r>
       </set>
       <set comment="band 48">
        <r>  0.0001  0.0015  0.0001  0.0022  0.0000  0.0045  0.0000  0.0041  0.0022 </r>
        <r>  0.0131  0.0027  0.0047  0.0097  0.0011  0.0009  0.0015  0.0003  0.0007 </r>
        <r>  0.0141  0.0096  0.0045  0.0038  0.0032  0.0001  0.0021  0.0001  0.0006 </r>
        <r>  0.0000  0.0006  0.0003  0.0004  0.0000  0.0071  0.0001  0.0102  0.0006 </r>
        <r>  0.0004  0.0016  0.0001  0.0003  0.0000  0.0042  0.0000  0.0033  0.0009 </r>
        <r>  0.0002  0.0092  0.0000  0.0096  0.0000  0.0050  0.0000  0.0055  0.0034 </r>
        <r>  0.0003  0.0052  0.0002  0.0056  0.0001  0.0026  0.0000  0.0018  0.0002 </r>
        <r>  0.0209  0.0023  0.0007  0.0023  0.0001  0.0006  0.0003  0.0026  0.0004 </r>
        <r>  0.0217  0.0043  0.0009  0.0037  0.0006  0.0018  0.0003  0.0021  0.0002 </r>
        <r>  0.0040  0.0059  0.0091  0.0089  0.0000  0.0000  0.0000  0.0000  0.0000 </r>
        <r>  0.0044  0.0056  0.0084  0.0037  0.0000  0.0000  0.0000  0.0000  0.0000 </r>
        <r>  0.0000  0.0171  0.0002  0.0114  0.0000  0.0000  0.0000  0.0000  0.0000 </r>
        <r>  0.0001  0.0193  0.0009  0.0174  0.0000  0.0000  0.0000  0.0000  0.0000 </r>
        <r>  0.0000  0.0003  0.0008  0.0015  0.0000  0.0000  0.0000  0.0000  0.0000 </r>
        <r>  0.0001  0.0026  0.0001  0.0024  0.0000  0.0000  0.0000  0.0000  0.0000 </r>
        <r>  0.0034  0.0078  0.0263  0.0047  0.0000  0.0000  0.0000  0.0000  0.0000 </r>
        <r>  0.0021  0.0019  0.0292  0.0099  0.0000  0.0000  0.0000  0.0000  0.0000 </r>
       </set>
       <set comment="band 49">
        <r>  0.0001  0.0010  0.0086  0.0006  0.0136  0.0014  0.0026  0.0021  0.0000 </r>
        <r>  0.0013  0.0006  0.0026  0.0051  0.0075  0.0010  0.0018  0.0095  0.0010 </r>
        <r>  0.0022  0.0062  0.0032  0.0005  0.0069  0.0108  0.0016  0.0011  0.0011 </r>
        <r>  0.0113  0.0049  0.0129  0.0059  0.0002  0.0018  0.0025  0.0021  0.0000 </r>
        <r>  0.0011  0.0013  0.0032  0.0016  0.0001  0.0010  0.0005  0.0013  0.0000 </r>
        <r>  0.0017  0.0051  0.0184  0.0048  0.0018  0.0007  0.0031  0.0012  0.0000 </r>
        <r>  0.0091  0.0033  0.0067  0.0023  0.0012  0.0008  0.0008  0.0013  0.0000 </r>
        <r>  0.0026  0.0092  0.0056  0.0014  0.0030  0.0006  0.0008  0.0028  0.0000 </r>
        <r>  0.0044  0.0010  0.0050  0.0086  0.0028  0.0031  0.0006  0.0009  0.0001 </r>
        <r>  0.0011  0.0027  0.0014  0.0070  0.0000  0.0000  0.0000  0.0000  0.0000 </r>
        <r>  0.0013  0.0075  0.0017  0.0018  0.0000  0.0000  0.0000  0.0000  0.0000 </r>
        <r>  0.0057  0.0001  0.0019  0.0004  0.0000  0.0000  0.0000  0.0000  0.0000 </r>
        <r>  0.0037  0.0059  0.0167  0.0068  0.0000  0.0000  0.0000  0.0000  0.0000 </r>
        <r>  0.0012  0.0012  0.0050  0.0019  0.0000  0.0000  0.0000  0.0000  0.0000 </r>
        <r>  0.0046  0.0047  0.0172  0.0052  0.0000  0.0000  0.0000  0.0000  0.0000 </r>
        <r>  0.0003  0.0098  0.0088  0.0021  0.0000  0.0000  0.0000  0.0000  0.0000 </r>
        <r>  0.0005  0.0027  0.0077  0.0081  0.0000  0.0000  0.0000  0.0000  0.0000 </r>
       </set>
       <set comment="band 50">
        <r>  0.0016  0.0004  0.0011  0.0004  0.0002  0.0004  0.0087  0.0005  0.0000 </r>
        <r>  0.0022  0.0014  0.0033  0.0026  0.0006  0.0007  0.0055  0.0017  0.0028 </r>
        <r>  0.0017  0.0026  0.0038  0.0018  0.0007  0.0020  0.0048  0.0007  0.0022 </r>
        <r>  0.0032  0.0023  0.0001  0.0024  0.0029  0.0006  0.0096  0.0006  0.0000 </r>
        <r>  0.0266  0.0056  0.0068  0.0051  0.0006  0.0009  0.0000  0.0010  0.0000 </r>
        <r>  0.0058  0.0004  0.0060  0.0002  0.0011  0.0002  0.0049  0.0003  0.0000 </r>
        <r>  0.0409  0.0021  0.0018  0.0017  0.0064  0.0035  0.0000  0.0033  0.0000 </r>
        <r>  0.0135  0.0008  0.0001  0.0032  0.0010  0.0027  0.0000  0.0083  0.0001 </r>
        <r>  0.0145  0.0028  0.0001  0.0009  0.0009  0.0084  0.0000  0.0028  0.0001 </r>
        <r>  0.0003  0.0032  0.0047  0.0004  0.0000  0.0000  0.0000  0.0000  0.0000 </r>
        <r>  0.0003  0.0007  0.0039  0.0035  0.0000  0.0000  0.0000  0.0000  0.0000 </r>
        <r>  0.0013  0.0010  0.0176  0.0008  0.0000  0.0000  0.0000  0.0000  0.0000 </r>
        <r>  0.0060  0.0051  0.0016  0.0053  0.0000  0.0000  0.0000  0.0000  0.0000 </r>
        <r>  0.0019  0.0002  0.0001  0.0002  0.0000  0.0000  0.0000  0.0000  0.0000 </r>
        <r>  0.0095  0.0150  0.0154  0.0151  0.0000  0.0000  0.0000  0.0000  0.0000 </r>
        <r>  0.0057  0.0236  0.0059  0.0089  0.0000  0.0000  0.0000  0.0000  0.0000 </r>
        <r>  0.0059  0.0105  0.0065  0.0238  0.0000  0.0000  0.0000  0.0000  0.0000 </r>
       </set>
       <set comment="band 51">
        <r>  0.0234  0.0000  0.0003  0.0003  0.0008  0.0000  0.0037  0.0000  0.0000 </r>
        <r>  0.0037  0.0005  0.0053  0.0033  0.0021  0.0004  0.0014  0.0002  0.0016 </r>
        <r>  0.0046  0.0017  0.0067  0.0012  0.0023  0.0002  0.0015  0.0005  0.0013 </r>
        <r>  0.0031  0.0010  0.0068  0.0001  0.0047  0.0002  0.0019  0.0003  0.0000 </r>
        <r>  0.0221  0.0018  0.0006  0.0022  0.0040  0.0016  0.0001  0.0018  0.0000 </r>
        <r>  0.0038  0.0010  0.0000  0.0008  0.0052  0.0004  0.0004  0.0006  0.0000 </r>
        <r>  0.1182  0.0036  0.0033  0.0024  0.0036  0.0035  0.0000  0.0032  0.0000 </r>
        <r>  0.0114  0.0062  0.0007  0.0013  0.0040  0.0048  0.0000  0.0007  0.0001 </r>
        <r>  0.0052  0.0008  0.0007  0.0071  0.0040  0.0006  0.0000  0.0045  0.0000 </r>
        <r>  0.0011  0.0206  0.0039  0.0029  0.0000  0.0000  0.0000  0.0000  0.0000 </r>
        <r>  0.0010  0.0033  0.0045  0.0217  0.0000  0.0000  0.0000  0.0000  0.0000 </r>
        <r>  0.0015  0.0016  0.0042  0.0029  0.0000  0.0000  0.0000  0.0000  0.0000 </r>
        <r>  0.0081  0.0017  0.0143  0.0016  0.0000  0.0000  0.0000  0.0000  0.0000 </r>
        <r>  0.0001  0.0012  0.0069  0.0012  0.0000  0.0000  0.0000  0.0000  0.0000 </r>
        <r>  0.0005  0.0006  0.0062  0.0004  0.0000  0.0000  0.0000  0.0000  0.0000 </r>
        <r>  0.0024  0.0050  0.0027  0.0176  0.0000  0.0000  0.0000  0.0000  0.0000 </r>
        <r>  0.0023  0.0160  0.0049  0.0062  0.0000  0.0000  0.0000  0.0000  0.0000 </r>
       </set>
       <set comment="band 52">
        <r>  0.0022  0.0034  0.0001  0.0023  0.0001  0.0019  0.0000  0.0025  0.0035 </r>
        <r>  0.0038  0.0035  0.0073  0.0084  0.0020  0.0014  0.0009  0.0006  0.0001 </r>
        <r>  0.0024  0.0106  0.0047  0.0022  0.0016  0.0000  0.0007  0.0007  0.0000 </r>
        <r>  0.0001  0.0099  0.0002  0.0081  0.0001  0.0011  0.0000  0.0012  0.0032 </r>
        <r>  0.0008  0.0046  0.0002  0.0047  0.0001  0.0007  0.0000  0.0003  0.0007 </r>
        <r>  0.0003  0.0063  0.0001  0.0057  0.0000  0.0007  0.0000  0.0002  0.0014 </r>
        <r>  0.0032  0.0051  0.0004  0.0047  0.0001  0.0004  0.0000  0.0002  0.0001 </r>
        <r>  0.1301  0.0034  0.0014  0.0018  0.0002  0.0003  0.0002  0.0002  0.0002 </r>
        <r>  0.1244  0.0025  0.0007  0.0028  0.0001  0.0004  0.0004  0.0001  0.0003 </r>
        <r>  0.0017  0.0026  0.0076  0.0014  0.0000  0.0000  0.0000  0.0000  0.0000 </r>
        <r>  0.0025  0.0011  0.0081  0.0009  0.0000  0.0000  0.0000  0.0000  0.0000 </r>
        <r>  0.0001  0.0072  0.0000  0.0110  0.0000  0.0000  0.0000  0.0000  0.0000 </r>
        <r>  0.0001  0.0035  0.0004  0.0047  0.0000  0.0000  0.0000  0.0000  0.0000 </r>
        <r>  0.0000  0.0075  0.0005  0.0075  0.0000  0.0000  0.0000  0.0000  0.0000 </r>
        <r>  0.0000  0.0053  0.0008  0.0071  0.0000  0.0000  0.0000  0.0000  0.0000 </r>
        <r>  0.0016  0.0056  0.0072  0.0056  0.0000  0.0000  0.0000  0.0000  0.0000 </r>
        <r>  0.0022  0.0039  0.0094  0.0061  0.0000  0.0000  0.0000  0.0000  0.0000 </r>
       </set>
      </set>
     </set>
    </set>
   </array>
  </projected>
 </calculation>
 <structure name="finalpos" >
  <crystal>
   <varray name="basis" >
    <v>       0.00000000       4.24689300       4.24689300 </v>
    <v>       4.24689300       0.00000000       4.24689300 </v>
    <v>       4.24689300       4.24689300       0.00000000 </v>
   </varray>
   <i name="volume">    153.19477498 </i>
   <varray name="rec_basis" >
    <v>      -0.11773313       0.11773313       0.11773313 </v>
    <v>       0.11773313      -0.11773313       0.11773313 </v>
    <v>       0.11773313       0.11773313      -0.11773313 </v>
   </varray>
  </crystal>
  <varray name="positions" >
   <v>       0.11927644       0.13079177       0.11977704 </v>
   <v>       0.97653959       0.97567445       0.97580128 </v>
   <v>       0.98213815       0.97127805       0.56366556 </v>
   <v>       0.97727131       0.57100388       0.97835332 </v>
   <v>       0.00064349       0.49463961       0.50228659 </v>
   <v>       0.56386730       0.97477093       0.97774593 </v>
   <v>       0.50428897       0.98906985       0.50220010 </v>
   <v>       0.50367000       0.49533144       0.99841889 </v>
   <v>       0.50417513       0.49535842       0.50222639 </v>
   <v>       0.25708237       0.24209838       0.25445436 </v>
   <v>       0.26336114       0.24159158       0.73829823 </v>
   <v>       0.25408539       0.74475488       0.25342711 </v>
   <v>       0.27863121       0.73666690       0.74233551 </v>
   <v>       0.73785699       0.24377117       0.26008213 </v>
   <v>       0.74351899       0.27079379       0.74071304 </v>
   <v>       0.74290583       0.73750945       0.27704444 </v>
   <v>       0.74422569       0.73512746       0.74239208 </v>
  </varray>
 </structure>
</modeling>
