 vasp.5.4.4.18Apr17-6-g9f103f2a35 (build Apr 25 2017 10:43:04) complex          
  
 executed on             LinuxIFC date 2019.08.24  15:43:54
 running on   36 total cores
 distrk:  each k-point on   36 cores,    1 groups
 distr:  one band on NCORES_PER_BAND=   1 cores,   36 groups


--------------------------------------------------------------------------------------------------------


 INCAR:
 POTCAR:    PAW_PBE Mg 13Apr2007                  
 POTCAR:    PAW_PBE O 08Apr2002                   

 ----------------------------------------------------------------------------- 
|                                                                             |
|           W    W    AA    RRRRR   N    N  II  N    N   GGGG   !!!           |
|           W    W   A  A   R    R  NN   N  II  NN   N  G    G  !!!           |
|           W    W  A    A  R    R  N N  N  II  N N  N  G       !!!           |
|           W WW W  AAAAAA  RRRRR   N  N N  II  N  N N  G  GGG   !            |
|           WW  WW  A    A  R   R   N   NN  II  N   NN  G    G                |
|           W    W  A    A  R    R  N    N  II  N    N   GGGG   !!!           |
|                                                                             |
|      For optimal performance we recommend to set                            |
|        NCORE= 4 - approx SQRT( number of cores)                             |
|      NCORE specifies how many cores store one orbital (NPAR=cpu/NCORE).     |
|      This setting can  greatly improve the performance of VASP for DFT.     |
|      The default,   NCORE=1            might be grossly inefficient         |
|      on modern multi-core architectures or massively parallel machines.     |
|      Do your own testing !!!!                                               |
|      Unfortunately you need to use the default for GW and RPA calculations. |
|      (for HF NCORE is supported but not extensively tested yet)             |
|                                                                             |
 ----------------------------------------------------------------------------- 

 POTCAR:    PAW_PBE Mg 13Apr2007                  
   VRHFIN =Mg: s2p0                                                             
   LEXCH  = PE                                                                  
   EATOM  =    23.0369 eV,    1.6932 Ry                                         
                                                                                
   TITEL  = PAW_PBE Mg 13Apr2007                                                
   LULTRA =        F    use ultrasoft PP ?                                      
   IUNSCR =        1    unscreen: 0-lin 1-nonlin 2-no                           
   RPACOR =    1.500    partial core radius                                     
   POMASS =   24.305; ZVAL   =    2.000    mass and valenz                      
   RCORE  =    2.000    outmost cutoff radius                                   
   RWIGS  =    2.880; RWIGS  =    1.524    wigner-seitz radius (au A)           
   ENMAX  =  200.000; ENMIN  =  100.000 eV                                      
   RCLOC  =    1.506    cutoff for local pot                                    
   LCOR   =        T    correct aug charges                                     
   LPAW   =        T    paw PP                                                  
   EAUG   =  454.734                                                            
   DEXC   =    0.000                                                            
   RMAX   =    2.045    core radius for proj-oper                               
   RAUG   =    1.300    factor for augmentation sphere                          
   RDEP   =    2.025    radius for radial grids                                 
   RDEPT  =    1.942    core radius for aug-charge                              
                                                                                
   Atomic configuration                                                         
    6 entries                                                                   
     n  l   j            E        occ.                                          
     1  0  0.50     -1259.6230   2.0000                                         
     2  0  0.50       -79.8442   2.0000                                         
     2  1  1.50       -46.6121   6.0000                                         
     3  0  0.50        -4.7055   2.0000                                         
     3  1  0.50        -1.3660   0.0000                                         
     3  2  1.50        -1.3606   0.0000                                         
   Description                                                                  
     l       E           TYP  RCUT    TYP  RCUT                                 
     0     -4.7054661     23  2.000                                             
     0     27.2116520     23  2.000                                             
     1      1.3605826     23  2.000                                             
     1     27.2116520     23  2.000                                             
     2     -1.3605826     23  2.000                                             
  local pseudopotential read in
  partial core-charges read in
  partial kinetic energy density read in
  atomic valenz-charges read in
  non local Contribution for L=           0  read in
    real space projection operators read in
  non local Contribution for L=           0  read in
    real space projection operators read in
  non local Contribution for L=           1  read in
    real space projection operators read in
  non local Contribution for L=           1  read in
    real space projection operators read in
  non local Contribution for L=           2  read in
    real space projection operators read in
    PAW grid and wavefunctions read in
 
   number of l-projection  operators is LMAX  =           5
   number of lm-projection operators is LMMAX =          13
 
 POTCAR:    PAW_PBE O 08Apr2002                   
   VRHFIN =O: s2p4                                                              
   LEXCH  = PE                                                                  
   EATOM  =   432.3788 eV,   31.7789 Ry                                         
                                                                                
   TITEL  = PAW_PBE O 08Apr2002                                                 
   LULTRA =        F    use ultrasoft PP ?                                      
   IUNSCR =        1    unscreen: 0-lin 1-nonlin 2-no                           
   RPACOR =    1.200    partial core radius                                     
   POMASS =   16.000; ZVAL   =    6.000    mass and valenz                      
   RCORE  =    1.520    outmost cutoff radius                                   
   RWIGS  =    1.550; RWIGS  =    0.820    wigner-seitz radius (au A)           
   ENMAX  =  400.000; ENMIN  =  300.000 eV                                      
   ICORE  =        2    local potential                                         
   LCOR   =        T    correct aug charges                                     
   LPAW   =        T    paw PP                                                  
   EAUG   =  605.392                                                            
   DEXC   =    0.000                                                            
   RMAX   =    1.553    core radius for proj-oper                               
   RAUG   =    1.300    factor for augmentation sphere                          
   RDEP   =    1.550    radius for radial grids                                 
   RDEPT  =    1.329    core radius for aug-charge                              
                                                                                
   Atomic configuration                                                         
    4 entries                                                                   
     n  l   j            E        occ.                                          
     1  0  0.50      -514.6923   2.0000                                         
     2  0  0.50       -23.9615   2.0000                                         
     2  1  0.50        -9.0305   4.0000                                         
     3  2  1.50        -9.5241   0.0000                                         
   Description                                                                  
     l       E           TYP  RCUT    TYP  RCUT                                 
     0    -23.9615318     23  1.200                                             
     0     -9.5240782     23  1.200                                             
     1     -9.0304911     23  1.520                                             
     1      8.1634956     23  1.520                                             
     2     -9.5240782      7  1.500                                             
  local pseudopotential read in
  partial core-charges read in
  partial kinetic energy density read in
  kinetic energy density of atom read in
  atomic valenz-charges read in
  non local Contribution for L=           0  read in
    real space projection operators read in
  non local Contribution for L=           0  read in
    real space projection operators read in
  non local Contribution for L=           1  read in
    real space projection operators read in
  non local Contribution for L=           1  read in
    real space projection operators read in
    PAW grid and wavefunctions read in
 
   number of l-projection  operators is LMAX  =           4
   number of lm-projection operators is LMMAX =           8
 
 Optimization of the real space projectors (new method)

 maximal supplied QI-value         = 18.90
 optimisation between [QCUT,QGAM] = [ 10.20, 20.41] = [ 29.16,116.64] Ry 
 Optimized for a Real-space Cutoff    1.30 Angstroem

   l    n(q)    QCUT    max X(q) W(low)/X(q) W(high)/X(q)  e(spline) 
   0      8    10.205    28.265    0.22E-03    0.17E-03    0.53E-07
   0      8    10.205    10.429    0.17E-03    0.15E-03    0.43E-07
   1      7    10.205    13.073    0.71E-04    0.41E-03    0.76E-07
   1      7    10.205     9.625    0.71E-04    0.33E-03    0.63E-07
   2      7    10.205     4.652    0.24E-03    0.41E-03    0.55E-07
 Optimization of the real space projectors (new method)

 maximal supplied QI-value         = 24.76
 optimisation between [QCUT,QGAM] = [ 10.15, 20.30] = [ 28.85,115.39] Ry 
 Optimized for a Real-space Cutoff    1.38 Angstroem

   l    n(q)    QCUT    max X(q) W(low)/X(q) W(high)/X(q)  e(spline) 
   0      8    10.150    20.381    0.22E-03    0.32E-03    0.29E-06
   0      8    10.150    15.268    0.23E-03    0.35E-03    0.30E-06
   1      8    10.150     5.964    0.46E-03    0.53E-03    0.21E-06
   1      8    10.150     5.382    0.38E-03    0.45E-03    0.19E-06

 ----------------------------------------------------------------------------- 
|                                                                             |
|  ADVICE TO THIS USER RUNNING 'VASP/VAMP'   (HEAR YOUR MASTER'S VOICE ...):  |
|                                                                             |
|      You enforced a specific xc-type in the INCAR file,                     |
|      a different type was found on the POTCAR file                          |
|          I HOPE YOU KNOW, WHAT YOU ARE  DOING                               |
|                                                                             |
 ----------------------------------------------------------------------------- 

  PAW_PBE Mg 13Apr2007                  :
 energy of atom  1       EATOM=  -23.0369
 kinetic energy error for atom=    0.0001 (will be added to EATOM!!)
  PAW_PBE O 08Apr2002                   :
 energy of atom  2       EATOM= -432.3788
 kinetic energy error for atom=    0.1156 (will be added to EATOM!!)
 
 
 POSCAR: Mg32 O33                                
  positions in direct lattice
  velocities in cartesian coordinates
 exchange correlation table for  LEXCH =       14
   RHO(1)=    0.500       N(1)  =     2000
   RHO(2)=  100.500       N(2)  =     4000
 


--------------------------------------------------------------------------------------------------------


 ion  position               nearest neighbor table
   1  0.996  0.996  0.996-  33 1.88  38 2.08  51 2.08  60 2.08  34 2.38  58 2.38  50 2.38  22 2.94
                            31 2.94  12 2.94  27 3.02  29 3.02  21 3.02  11 3.02  10 3.02  18 3.02
   2  0.997  0.997  0.504-  50 1.94  51 2.06  39 2.12  61 2.12  59 2.13  35 2.13  12 2.93  22 2.93
                            32 2.94  10 2.96  18 2.96  30 2.98  28 2.98  11 2.99  21 2.99   9 3.02
   3  0.997  0.504  0.997-  58 1.94  60 2.06  40 2.12  53 2.12  36 2.13  52 2.13  12 2.93  31 2.93
                            24 2.94  27 2.96  11 2.96  23 2.98  20 2.98  29 2.99  10 2.99  25 3.02
   4  0.000  0.501  0.501-  53 2.06  61 2.06  37 2.11  41 2.11  59 2.11  52 2.11  10 2.93  11 2.93
                             9 2.94  12 2.95  20 2.96  28 2.96  24 2.97  32 2.97  26 2.98  19 2.98
   5  0.504  0.997  0.997-  34 1.94  38 2.06  55 2.12  64 2.12  62 2.13  54 2.13  22 2.93  31 2.93
                            16 2.94  29 2.96  21 2.96  15 2.98  14 2.98  18 2.99  27 2.99  25 3.02
   6  0.501  0.000  0.501-  39 2.06  55 2.06  63 2.11  65 2.11  54 2.11  35 2.11  18 2.93  21 2.93
                            17 2.94  22 2.95  14 2.96  30 2.96  16 2.97  32 2.97  26 2.98  13 2.98
   7  0.501  0.501  0.000-  40 2.06  64 2.06  56 2.11  57 2.11  62 2.11  36 2.11  27 2.93  29 2.93
                            25 2.94  31 2.95  15 2.96  23 2.96  16 2.97  24 2.97  13 2.98  19 2.98
   8  0.500  0.500  0.500-  56 2.10  37 2.10  63 2.10  57 2.11  41 2.11  65 2.11  26 2.94  19 2.94
                            13 2.94  14 2.97  20 2.97  23 2.97  15 2.97  28 2.97  30 2.97  24 2.98
   9  0.996  0.254  0.254-  33 1.88  46 2.08  52 2.08  59 2.08  42 2.38  58 2.38  50 2.38  23 2.94
                            30 2.94   4 2.94  21 3.02  19 3.02   2 3.02   3 3.02  26 3.02  29 3.02
  10  0.997  0.253  0.746-  58 1.94  59 2.06  47 2.12  53 2.12  51 2.13  43 2.13   4 2.93  30 2.93
                            24 2.94  26 2.96   2 2.96  22 2.98  20 2.98  29 2.99   3 2.99  25 3.02
  11  0.997  0.746  0.253-  50 1.94  52 2.06  48 2.12  61 2.12  44 2.13  60 2.13   4 2.93  23 2.93
                            32 2.94   3 2.96  19 2.96  31 2.98  28 2.98   2 2.99  21 2.99  17 3.02
  12  0.000  0.749  0.749-  53 2.06  61 2.06  45 2.11  49 2.11  60 2.11  51 2.11   2 2.93   3 2.93
                             1 2.94   4 2.95  20 2.96  28 2.96  24 2.97  32 2.97  18 2.98  27 2.98
  13  0.504  0.253  0.253-  42 1.94  46 2.06  56 2.12  63 2.12  54 2.13  62 2.13  23 2.93  30 2.93
                             8 2.94  29 2.96  21 2.96   7 2.98   6 2.98  19 2.99  26 2.99  17 3.02
  14  0.501  0.250  0.749-  47 2.06  63 2.06  55 2.11  57 2.11  62 2.11  43 2.11  26 2.93  29 2.93
                            25 2.94  30 2.95   6 2.96  22 2.96   8 2.97  24 2.97  18 2.98   5 2.98
  15  0.501  0.749  0.250-  48 2.06  56 2.06  64 2.11  65 2.11  54 2.11  44 2.11  19 2.93  21 2.93
                            17 2.94  23 2.95   7 2.96  31 2.96   8 2.97  32 2.97   5 2.98  27 2.98
  16  0.500  0.750  0.750-  64 2.10  55 2.10  45 2.10  57 2.11  49 2.11  65 2.11  18 2.94   5 2.94
                            27 2.94   6 2.97  20 2.97  22 2.97   7 2.97  28 2.97  31 2.97  24 2.98
  17  0.254  0.996  0.254-  33 1.88  35 2.08  44 2.08  54 2.08  34 2.38  50 2.38  42 2.38  15 2.94
                            28 2.94   6 2.94  13 3.02  11 3.02   2 3.02   5 3.02  26 3.02  27 3.02
  18  0.253  0.997  0.746-  34 1.94  35 2.06  45 2.12  55 2.12  51 2.13  43 2.13   6 2.93  28 2.93
                            16 2.94  26 2.96   2 2.96  14 2.98  12 2.98  27 2.99   5 2.99  25 3.02
  19  0.253  0.504  0.253-  42 1.94  44 2.06  37 2.12  56 2.12  52 2.13  36 2.13  15 2.93  28 2.93
                             8 2.94  27 2.96  11 2.96   7 2.98   4 2.98  13 2.99  26 2.99   9 3.02
  20  0.250  0.501  0.749-  37 2.06  45 2.06  53 2.11  57 2.11  43 2.11  36 2.11  26 2.93  27 2.93
                            25 2.94  28 2.95   4 2.96  12 2.96   8 2.97  16 2.97  10 2.98   3 2.98
  21  0.746  0.997  0.253-  50 1.94  54 2.06  39 2.12  48 2.12  46 2.13  38 2.13   6 2.93  15 2.93
                            32 2.94   5 2.96  13 2.96  31 2.98  30 2.98  11 2.99   2 2.99   9 3.02
  22  0.749  0.000  0.749-  39 2.06  55 2.06  47 2.11  49 2.11  51 2.11  38 2.11   2 2.93   5 2.93
                             1 2.94   6 2.95  14 2.96  30 2.96  16 2.97  32 2.97  10 2.98  29 2.98
  23  0.749  0.501  0.250-  48 2.06  56 2.06  40 2.11  41 2.11  52 2.11  46 2.11  11 2.93  13 2.93
                             9 2.94  15 2.95   7 2.96  31 2.96   8 2.97  32 2.97   3 2.98  29 2.98
  24  0.750  0.500  0.750-  40 2.10  47 2.10  53 2.10  49 2.11  41 2.11  57 2.11  10 2.94   3 2.94
                            29 2.94   4 2.97  12 2.97  14 2.97   7 2.97  30 2.97  31 2.97  16 2.98
  25  0.254  0.254  0.996-  33 1.88  36 2.08  43 2.08  62 2.08  34 2.38  58 2.38  42 2.38  14 2.94
                            20 2.94   7 2.94   3 3.02   5 3.02  13 3.02  10 3.02  18 3.02  19 3.02
  26  0.253  0.253  0.504-  42 1.94  43 2.06  37 2.12  63 2.12  59 2.13  35 2.13  14 2.93  20 2.93
                             8 2.94  18 2.96  10 2.96   6 2.98   4 2.98  19 2.99  13 2.99  17 3.02
  27  0.253  0.746  0.997-  34 1.94  36 2.06  45 2.12  64 2.12  60 2.13  44 2.13   7 2.93  20 2.93
                            16 2.94  19 2.96   3 2.96  15 2.98  12 2.98   5 2.99  18 2.99   1 3.02
  28  0.250  0.749  0.501-  37 2.06  45 2.06  61 2.11  65 2.11  44 2.11  35 2.11  18 2.93  19 2.93
                            17 2.94  20 2.95   4 2.96  12 2.96   8 2.97  16 2.97   2 2.98  11 2.98
  29  0.746  0.253  0.997-  58 1.94  62 2.06  40 2.12  47 2.12  38 2.13  46 2.13   7 2.93  14 2.93
                            24 2.94   5 2.96  13 2.96  23 2.98  22 2.98  10 2.99   3 2.99   1 3.02
  30  0.749  0.250  0.501-  47 2.06  63 2.06  39 2.11  41 2.11  59 2.11  46 2.11  10 2.93  13 2.93
                             9 2.94  14 2.95   6 2.96  22 2.96   8 2.97  24 2.97   2 2.98  21 2.98
  31  0.749  0.749  0.000-  40 2.06  64 2.06  48 2.11  49 2.11  60 2.11  38 2.11   3 2.93   5 2.93
                             1 2.94   7 2.95  15 2.96  23 2.96  16 2.97  24 2.97  11 2.98  21 2.98
  32  0.750  0.750  0.500-  48 2.10  39 2.10  61 2.10  49 2.11  41 2.11  65 2.11   2 2.94  11 2.94
                            21 2.94   4 2.97  12 2.97  15 2.97   6 2.97  22 2.97  23 2.97  16 2.98
  33  0.125  0.125  0.125-   1 1.88   9 1.88  17 1.88  25 1.88
  34  0.277  0.973  0.973-   5 1.94  18 1.94  27 1.94   1 2.38  25 2.38  17 2.38
  35  0.251  0.999  0.501-  18 2.06  17 2.08   6 2.11  28 2.11  26 2.13   2 2.13
  36  0.251  0.501  0.999-  27 2.06  25 2.08   7 2.11  20 2.11   3 2.13  19 2.13
  37  0.250  0.505  0.505-  20 2.06  28 2.06   8 2.10   4 2.11  26 2.12  19 2.12
  38  0.749  0.999  0.999-   5 2.06   1 2.08  22 2.11  31 2.11  29 2.13  21 2.13
  39  0.745  1.000  0.505-   6 2.06  22 2.06  32 2.10  30 2.11  21 2.12   2 2.12
  40  0.745  0.505  1.000-   7 2.06  31 2.06  24 2.10  23 2.11  29 2.12   3 2.12
  41  0.750  0.500  0.500-   8 2.11  24 2.11  32 2.11   4 2.11  30 2.11  23 2.11
  42  0.277  0.277  0.277-  13 1.94  19 1.94  26 1.94   9 2.38  25 2.38  17 2.38
  43  0.251  0.251  0.749-  26 2.06  25 2.08  14 2.11  20 2.11  18 2.13  10 2.13
  44  0.251  0.749  0.251-  19 2.06  17 2.08  15 2.11  28 2.11  11 2.13  27 2.13
  45  0.250  0.745  0.745-  20 2.06  28 2.06  16 2.10  12 2.11  27 2.12  18 2.12
  46  0.749  0.251  0.251-  13 2.06   9 2.08  23 2.11  30 2.11  21 2.13  29 2.13
  47  0.745  0.250  0.745-  14 2.06  30 2.06  24 2.10  22 2.11  29 2.12  10 2.12
  48  0.745  0.745  0.250-  15 2.06  23 2.06  32 2.10  31 2.11  21 2.12  11 2.12
  49  0.750  0.750  0.750-  16 2.11  24 2.11  32 2.11  12 2.11  31 2.11  22 2.11
  50  0.973  0.973  0.277-   2 1.94  11 1.94  21 1.94   1 2.38  17 2.38   9 2.38
  51  0.999  0.999  0.749-   2 2.06   1 2.08  12 2.11  22 2.11  18 2.13  10 2.13
  52  0.999  0.501  0.251-  11 2.06   9 2.08   4 2.11  23 2.11  19 2.13   3 2.13
  53  1.000  0.505  0.745-   4 2.06  12 2.06  24 2.10  20 2.11  10 2.12   3 2.12
  54  0.501  0.999  0.251-  21 2.06  17 2.08   6 2.11  15 2.11  13 2.13   5 2.13
  55  0.505  1.000  0.745-   6 2.06  22 2.06  16 2.10  14 2.11  18 2.12   5 2.12
  56  0.505  0.505  0.250-  15 2.06  23 2.06   8 2.10   7 2.11  19 2.12  13 2.12
  57  0.500  0.500  0.750-   8 2.11  16 2.11  24 2.11   7 2.11  20 2.11  14 2.11
  58  0.973  0.277  0.973-   3 1.94  10 1.94  29 1.94   1 2.38  25 2.38   9 2.38
  59  0.999  0.251  0.501-  10 2.06   9 2.08   4 2.11  30 2.11  26 2.13   2 2.13
  60  0.999  0.749  0.999-   3 2.06   1 2.08  12 2.11  31 2.11  27 2.13  11 2.13
  61  1.000  0.745  0.505-   4 2.06  12 2.06  32 2.10  28 2.11  11 2.12   2 2.12
  62  0.501  0.251  0.999-  29 2.06  25 2.08   7 2.11  14 2.11   5 2.13  13 2.13
  63  0.505  0.250  0.505-  14 2.06  30 2.06   8 2.10   6 2.11  26 2.12  13 2.12
  64  0.505  0.745  1.000-   7 2.06  31 2.06  16 2.10  15 2.11  27 2.12   5 2.12
  65  0.500  0.750  0.500-   8 2.11  16 2.11  32 2.11   6 2.11  28 2.11  15 2.11
 
  LATTYP: Found a simple cubic cell.
 ALAT       =     8.4194560000
  
  Lattice vectors:
  
 A1 = (   8.4194560000,   0.0000000000,   0.0000000000)
 A2 = (   0.0000000000,   8.4194560000,   0.0000000000)
 A3 = (   0.0000000000,   0.0000000000,   8.4194560000)


Analysis of symmetry for initial positions (statically):
=====================================================================
 Subroutine PRICEL returns:
 Original cell was already a primitive cell.
 

 Routine SETGRP: Setting up the symmetry group for a 
 simple cubic supercell.


 Subroutine GETGRP returns: Found 24 space group operations
 (whereof  6 operations were pure point group operations)
 out of a pool of 48 trial point group operations.


The static configuration has the point symmetry C_3v.
 The point group associated with its full space group is T_d .


Analysis of symmetry for dynamics (positions and initial velocities):
=====================================================================
 Subroutine PRICEL returns:
 Original cell was already a primitive cell.
 

 Routine SETGRP: Setting up the symmetry group for a 
 simple cubic supercell.


 Subroutine GETGRP returns: Found 24 space group operations
 (whereof  6 operations were pure point group operations)
 out of a pool of 48 trial point group operations.


The dynamic configuration has the point symmetry C_3v.
 The point group associated with its full space group is T_d .


Analysis of structural, dynamic, and magnetic symmetry:
=====================================================================
 Subroutine PRICEL returns:
 Original cell was already a primitive cell.
 

 Routine SETGRP: Setting up the symmetry group for a 
 simple cubic supercell.


 Subroutine GETGRP returns: Found 24 space group operations
 (whereof  6 operations were pure point group operations)
 out of a pool of 48 trial point group operations.


The magnetic configuration has the point symmetry C_3v.
 The point group associated with its full space group is T_d .


 Subroutine INISYM returns: Found 24 space group operations
 (whereof  6 operations are pure point group operations),
 and found     1 'primitive' translations

 
 
 KPOINTS: mode: manual_set, kpt density: 2, factor

Automatic generation of k-mesh.
Space group operators:
 irot       det(A)        alpha          n_x          n_y          n_z        tau_x        tau_y        tau_z
    1     1.000000     0.000001     1.000000     0.000000     0.000000     0.000000     0.000000     0.000000
    2     1.000000   120.000000    -0.577350    -0.577350    -0.577350     0.000000     0.000000     0.000000
    3     1.000000   120.000000     0.577350     0.577350     0.577350     0.000000     0.000000     0.000000
    4    -1.000000   180.000000     0.000000    -0.707107     0.707107     0.000000     0.000000     0.000000
    5    -1.000000   180.000000     0.707107    -0.707107     0.000000     0.000000     0.000000     0.000000
    6    -1.000000   180.000000     0.707107     0.000000    -0.707107     0.000000     0.000000     0.000000
    7    -1.000000    90.000000     0.000000     0.000000    -1.000000     0.000000     0.250000     0.250000
    8    -1.000000   180.000000     0.000000     0.707107     0.707107     0.000000     0.250000     0.250000
    9    -1.000000    90.000000     0.000000     1.000000     0.000000     0.000000     0.250000     0.250000
   10     1.000000   180.000000     0.000000     0.000000     1.000000     0.250000     0.250000     0.000000
   11     1.000000   120.000000    -0.577350     0.577350     0.577350     0.250000     0.250000     0.000000
   12     1.000000   120.000000    -0.577350     0.577350    -0.577350     0.250000     0.250000     0.000000
   13    -1.000000    90.000000     0.000000     0.000000     1.000000     0.250000     0.000000     0.250000
   14    -1.000000    90.000000    -1.000000     0.000000     0.000000     0.250000     0.000000     0.250000
   15    -1.000000   180.000000     0.707107     0.000000     0.707107     0.250000     0.000000     0.250000
   16     1.000000   120.000000     0.577350    -0.577350     0.577350     0.000000     0.250000     0.250000
   17     1.000000   120.000000    -0.577350    -0.577350     0.577350     0.000000     0.250000     0.250000
   18     1.000000   180.000000     1.000000     0.000000     0.000000     0.000000     0.250000     0.250000
   19    -1.000000    90.000000     0.000000    -1.000000     0.000000     0.250000     0.250000     0.000000
   20    -1.000000   180.000000     0.707107     0.707107     0.000000     0.250000     0.250000     0.000000
   21    -1.000000    90.000000     1.000000     0.000000     0.000000     0.250000     0.250000     0.000000
   22     1.000000   120.000000     0.577350    -0.577350    -0.577350     0.250000     0.000000     0.250000
   23     1.000000   180.000000     0.000000     1.000000     0.000000     0.250000     0.000000     0.250000
   24     1.000000   120.000000     0.577350     0.577350    -0.577350     0.250000     0.000000     0.250000
 
 Subroutine IBZKPT returns following result:
 ===========================================
 
 Found      1 irreducible k-points:
 
 Following reciprocal coordinates:
            Coordinates               Weight
  0.250000  0.250000  0.250000      8.000000
 
 Following cartesian coordinates:
            Coordinates               Weight
  0.029693  0.029693  0.029693      8.000000
 


--------------------------------------------------------------------------------------------------------




 Dimension of arrays:
   k-points           NKPTS =      1   k-points in BZ     NKDIM =      1   number of bands    NBANDS=    216
   number of dos      NEDOS =    301   number of ions     NIONS =     65
   non local maximal  LDIM  =      5   non local SUM 2l+1 LMDIM =     13
   total plane-waves  NPLWV =  74088
   max r-space proj   IRMAX =   1418   max aug-charges    IRDMAX=   5472
   dimension x,y,z NGX =    42 NGY =   42 NGZ =   42
   dimension x,y,z NGXF=    84 NGYF=   84 NGZF=   84
   support grid    NGXF=    84 NGYF=   84 NGZF=   84
   ions per type =              32  33
   NGX,Y,Z   is equivalent  to a cutoff of   8.29,  8.29,  8.29 a.u.
   NGXF,Y,Z  is equivalent  to a cutoff of  16.59, 16.59, 16.59 a.u.

 SYSTEM =  unknown system                          
 POSCAR =  Mg32 O33                                

 Startparameter for this run:
   NWRITE =      2    write-flag & timer
   PREC   = n         normal or accurate (medium, high low for compatibility)
   ISTART =      1    job   : 0-new  1-cont  2-samecut
   ICHARG =      0    charge: 1-file 2-atom 10-const
   ISPIN  =      2    spin polarized calculation?
   LNONCOLLINEAR =      F non collinear calculations
   LSORBIT =      F    spin-orbit coupling
   INIWAV =      1    electr: 0-lowe 1-rand  2-diag
   LASPH  =      T    aspherical Exc in radial PAW
   METAGGA=      F    non-selfconsistent MetaGGA calc.

 Electronic Relaxation 1
   ENCUT  =  400.0 eV  29.40 Ry    5.42 a.u.  13.73 13.73 13.73*2*pi/ulx,y,z
   ENINI  =  400.0     initial cutoff
   ENAUG  =  605.4 eV  augmentation charge cutoff
   NELM   =    100;   NELMIN=  2; NELMDL=  0     # of ELM steps 
   EDIFF  = 0.1E-05   stopping-criterion for ELM
   LREAL  =      T    real-space projection
   NLSPLINE    = F    spline interpolate recip. space projectors
   LCOMPAT=      F    compatible to vasp.4.4
   GGA_COMPAT  = T    GGA compatible to vasp.4.4-vasp.4.6
   LMAXPAW     = -100 max onsite density
   LMAXMIX     =    2 max onsite mixed and CHGCAR
   VOSKOWN=      0    Vosko Wilk Nusair interpolation
   ROPT   =   -0.00050  -0.00050
 Ionic relaxation
   EDIFFG = -.4E-01   stopping-criterion for IOM
   NSW    =     50    number of steps for IOM
   NBLOCK =      1;   KBLOCK =     50    inner block; outer block 
   IBRION =      2    ionic relax: 0-MD 1-quasi-New 2-CG
   NFREE  =      1    steps in history (QN), initial steepest desc. (CG)
   ISIF   =      2    stress and relaxation
   IWAVPR =     11    prediction:  0-non 1-charg 2-wave 3-comb
   ISYM   =      2    0-nonsym 1-usesym 2-fastsym
   LCORR  =      T    Harris-Foulkes like correction to forces

   POTIM  = 0.5000    time-step for ionic-motion
   TEIN   =    0.0    initial temperature
   TEBEG  =    0.0;   TEEND  =   0.0 temperature during run
   SMASS  =  -3.00    Nose mass-parameter (am)
   estimated Nose-frequenzy (Omega)   =  0.10E-29 period in steps =****** mass=  -0.162E-26a.u.
   SCALEE = 1.0000    scale energy and forces
   NPACO  =    256;   APACO  = 16.0  distance and # of slots for P.C.
   PSTRESS=    0.0 pullay stress

  Mass of Ions in am
   POMASS =  24.30 16.00
  Ionic Valenz
   ZVAL   =   2.00  6.00
  Atomic Wigner-Seitz radii
   RWIGS  =  -1.00 -1.00
  virtual crystal weights 
   VCA    =   1.00  1.00
   NELECT =     263.0000    total number of electrons
   NUPDOWN=      -1.0000    fix difference up-down

 DOS related values:
   EMIN   =  10.00;   EMAX   =-10.00  energy-range for DOS
   EFERMI =   0.00
   ISMEAR =     0;   SIGMA  =   0.10  broadening in eV -4-tet -1-fermi 0-gaus

 Electronic relaxation 2 (details)
   IALGO  =     38    algorithm
   LDIAG  =      T    sub-space diagonalisation (order eigenvalues)
   LSUBROT=      F    optimize rotation matrix (better conditioning)
   TURBO    =      0    0=normal 1=particle mesh
   IRESTART =      0    0=no restart 2=restart with 2 vectors
   NREBOOT  =      0    no. of reboots
   NMIN     =      0    reboot dimension
   EREF     =   0.00    reference energy to select bands
   IMIX   =      4    mixing-type and parameters
     AMIX     =   0.40;   BMIX     =  1.00
     AMIX_MAG =   1.60;   BMIX_MAG =  1.00
     AMIN     =   0.10
     WC   =   100.;   INIMIX=   1;  MIXPRE=   1;  MAXMIX= -45

 Intra band minimization:
   WEIMIN = 0.0010     energy-eigenvalue tresh-hold
   EBREAK =  0.12E-08  absolut break condition
   DEPER  =   0.30     relativ break condition  

   TIME   =   0.40     timestep for ELM

  volume/ion in A,a.u.               =       9.18        61.96
  Fermi-wavevector in a.u.,A,eV,Ry     =   1.245784  2.354190 21.115936  1.551978
  Thomas-Fermi vector in A             =   2.379991
 
 Write flags
   LWAVE        =      T    write WAVECAR
   LDOWNSAMPLE  =      F    k-point downsampling of WAVECAR
   LCHARG       =      F    write CHGCAR
   LVTOT        =      F    write LOCPOT, total local potential
   LVHAR        =      F    write LOCPOT, Hartree potential only
   LELF         =      F    write electronic localiz. function (ELF)
   LORBIT       =     12    0 simple, 1 ext, 2 COOP (PROOUT), +10 PAW based schemes


 Dipole corrections
   LMONO  =      F    monopole corrections only (constant potential shift)
   LDIPOL =      F    correct potential (dipole corrections)
   IDIPOL =      0    1-x, 2-y, 3-z, 4-all directions 
   EPSILON=  1.0000000 bulk dielectric constant

 Exchange correlation treatment:
   GGA     =    PS    GGA type
   LEXCH   =    14    internal setting for exchange type
   VOSKOWN=      0    Vosko Wilk Nusair interpolation
   LHFCALC =     F    Hartree Fock is set to
   LHFONE  =     F    Hartree Fock one center treatment
   AEXX    =    0.0000 exact exchange contribution

 Linear response parameters
   LEPSILON=     F    determine dielectric tensor
   LRPA    =     F    only Hartree local field effects (RPA)
   LNABLA  =     F    use nabla operator in PAW spheres
   LVEL    =     F    velocity operator in full k-point grid
   LINTERFAST=   F  fast interpolation
   KINTER  =     0    interpolate to denser k-point grid
   CSHIFT  =0.1000    complex shift for real part using Kramers Kronig
   OMEGAMAX=  -1.0    maximum frequency
   DEG_THRESHOLD= 0.2000000E-02 threshold for treating states as degnerate
   RTIME   =   -0.100 relaxation time in fs
  (WPLASMAI=    0.000 imaginary part of plasma frequency in eV, 0.658/RTIME)
   DFIELD  = 0.0000000 0.0000000 0.0000000 field for delta impulse in time
 
 Orbital magnetization related:
   ORBITALMAG=     F  switch on orbital magnetization
   LCHIMAG   =     F  perturbation theory with respect to B field
   DQ        =  0.001000  dq finite difference perturbation B field
   LLRAUG    =     F  two centre corrections for induced B field



--------------------------------------------------------------------------------------------------------


 conjugate gradient relaxation of ions
 charge density and potential will be updated during run
 spin polarized calculation
 Variant of blocked Davidson
 Davidson routine will perform the subspace rotation
 perform sub-space diagonalisation
    after iterative eigenvector-optimisation
 modified Broyden-mixing scheme, WC =      100.0
 initial mixing is a Kerker type mixing with AMIX =  0.4000 and BMIX =      1.0000
 Hartree-type preconditioning will be used
 using additional bands           84
 real space projection scheme for non local part
 use partial core corrections
 calculate Harris-corrections to forces 
   (improved forces if not selfconsistent)
 use gradient corrections 
 use of overlap-Matrix (Vanderbilt PP)
 Gauss-broadening in eV      SIGMA  =   0.10


--------------------------------------------------------------------------------------------------------


  energy-cutoff  :      400.00
  volume of cell :      596.83
      direct lattice vectors                 reciprocal lattice vectors
     8.419456000  0.000000000  0.000000000     0.118772519  0.000000000  0.000000000
     0.000000000  8.419456000  0.000000000     0.000000000  0.118772519  0.000000000
     0.000000000  0.000000000  8.419456000     0.000000000  0.000000000  0.118772519

  length of vectors
     8.419456000  8.419456000  8.419456000     0.118772519  0.118772519  0.118772519


 
 old parameters found on file WAVECAR:
  energy-cutoff  :      400.00
  volume of cell :      596.83
      direct lattice vectors                 reciprocal lattice vectors
     8.419456000  0.000000000  0.000000000     0.118772519  0.000000000  0.000000000
     0.000000000  8.419456000  0.000000000     0.000000000  0.118772519  0.000000000
     0.000000000  0.000000000  8.419456000     0.000000000  0.000000000  0.118772519

  length of vectors

 
 k-points in units of 2pi/SCALE and weight: mode: manual_set, kpt density: 2, factor
   0.02969313  0.02969313  0.02969313       1.000
 
 k-points in reciprocal lattice and weights: mode: manual_set, kpt density: 2, factor
   0.25000000  0.25000000  0.25000000       1.000
 
 position of ions in fractional coordinates (direct lattice) 
   0.99613931  0.99613931  0.99613931
   0.99714061  0.99714061  0.50429867
   0.99714061  0.50429867  0.99714061
   0.00040141  0.50106035  0.50106035
   0.50429867  0.99714061  0.99714061
   0.50106035  0.00040141  0.50106035
   0.50106035  0.50106035  0.00040141
   0.49995140  0.49995140  0.49995140
   0.99613931  0.25386069  0.25386069
   0.99714061  0.25285939  0.74570133
   0.99714061  0.74570133  0.25285939
   0.00040141  0.74893965  0.74893965
   0.50429867  0.25285939  0.25285939
   0.50106035  0.24959859  0.74893965
   0.50106035  0.74893965  0.24959859
   0.49995140  0.75004860  0.75004860
   0.25386069  0.99613931  0.25386069
   0.25285939  0.99714061  0.74570133
   0.25285939  0.50429867  0.25285939
   0.24959859  0.50106035  0.74893965
   0.74570133  0.99714061  0.25285939
   0.74893965  0.00040141  0.74893965
   0.74893965  0.50106035  0.24959859
   0.75004860  0.49995140  0.75004860
   0.25386069  0.25386069  0.99613931
   0.25285939  0.25285939  0.50429867
   0.25285939  0.74570133  0.99714061
   0.24959859  0.74893965  0.50106035
   0.74570133  0.25285939  0.99714061
   0.74893965  0.24959859  0.50106035
   0.74893965  0.74893965  0.00040141
   0.75004860  0.75004860  0.49995140
   0.12500000  0.12500000  0.12500000
   0.27669630  0.97330370  0.97330370
   0.25059702  0.99940298  0.50064294
   0.25059702  0.50064294  0.99940298
   0.25038705  0.50450461  0.50450461
   0.74935706  0.99940298  0.99940298
   0.74549539  0.99961295  0.50450461
   0.74549539  0.50450461  0.99961295
   0.75001921  0.49998079  0.49998079
   0.27669630  0.27669630  0.27669630
   0.25059702  0.25059702  0.74935706
   0.25059702  0.74935706  0.25059702
   0.25038705  0.74549539  0.74549539
   0.74935706  0.25059702  0.25059702
   0.74549539  0.25038705  0.74549539
   0.74549539  0.74549539  0.25038705
   0.75001921  0.75001921  0.75001921
   0.97330370  0.97330370  0.27669630
   0.99940298  0.99940298  0.74935706
   0.99940298  0.50064294  0.25059702
   0.99961295  0.50450461  0.74549539
   0.50064294  0.99940298  0.25059702
   0.50450461  0.99961295  0.74549539
   0.50450461  0.50450461  0.25038705
   0.49998079  0.49998079  0.75001921
   0.97330370  0.27669630  0.97330370
   0.99940298  0.25059702  0.50064294
   0.99940298  0.74935706  0.99940298
   0.99961295  0.74549539  0.50450461
   0.50064294  0.25059702  0.99940298
   0.50450461  0.25038705  0.50450461
   0.50450461  0.74549539  0.99961295
   0.49998079  0.75001921  0.49998079
 
 position of ions in cartesian coordinates  (Angst):
   8.38695113  8.38695113  8.38695113
   8.39538152  8.39538152  4.24592049
   8.39538152  4.24592049  8.39538152
   0.00337961  4.21865558  4.21865558
   4.24592049  8.39538152  8.39538152
   4.21865558  0.00337961  4.21865558
   4.21865558  4.21865558  0.00337961
   4.20931883  4.20931883  4.20931883
   8.38695113  2.13736887  2.13736887
   8.39538152  2.12893848  6.27839951
   8.39538152  6.27839951  2.12893848
   0.00337961  6.30566442  6.30566442
   4.24592049  2.12893848  2.12893848
   4.21865558  2.10148439  6.30566442
   4.21865558  6.30566442  2.10148439
   4.20931883  6.31500117  6.31500117
   2.13736887  8.38695113  2.13736887
   2.12893848  8.39538152  6.27839951
   2.12893848  4.24592049  2.12893848
   2.10148439  4.21865558  6.30566442
   6.27839951  8.39538152  2.12893848
   6.30566442  0.00337961  6.30566442
   6.30566442  4.21865558  2.10148439
   6.31500117  4.20931883  6.31500117
   2.13736887  2.13736887  8.38695113
   2.12893848  2.12893848  4.24592049
   2.12893848  6.27839951  8.39538152
   2.10148439  6.30566442  4.21865558
   6.27839951  2.12893848  8.39538152
   6.30566442  2.10148439  4.21865558
   6.30566442  6.30566442  0.00337961
   6.31500117  6.31500117  4.20931883
   1.05243200  1.05243200  1.05243200
   2.32963232  8.19468768  8.19468768
   2.10989058  8.41442942  4.21514117
   2.10989058  4.21514117  8.41442942
   2.10812277  4.24765435  4.24765435
   6.30917883  8.41442942  8.41442942
   6.27666565  8.41619723  4.24765435
   6.27666565  4.24765435  8.41619723
   6.31475371  4.20956629  4.20956629
   2.32963232  2.32963232  2.32963232
   2.10989058  2.10989058  6.30917883
   2.10989058  6.30917883  2.10989058
   2.10812277  6.27666565  6.27666565
   6.30917883  2.10989058  2.10989058
   6.27666565  2.10812277  6.27666565
   6.27666565  6.27666565  2.10812277
   6.31475371  6.31475371  6.31475371
   8.19468768  8.19468768  2.32963232
   8.41442942  8.41442942  6.30917883
   8.41442942  4.21514117  2.10989058
   8.41619723  4.24765435  6.27666565
   4.21514117  8.41442942  2.10989058
   4.24765435  8.41619723  6.27666565
   4.24765435  4.24765435  2.10812277
   4.20956629  4.20956629  6.31475371
   8.19468768  2.32963232  8.19468768
   8.41442942  2.10989058  4.21514117
   8.41442942  6.30917883  8.41442942
   8.41619723  6.27666565  4.24765435
   4.21514117  2.10989058  8.41442942
   4.24765435  2.10812277  4.24765435
   4.24765435  6.27666565  8.41619723
   4.20956629  6.31475371  4.20956629
 


--------------------------------------------------------------------------------------------------------


 k-point  1 :   0.2500 0.2500 0.2500  plane waves:   10834

 maximum and minimum number of plane-waves per node :     10834    10834

 maximum number of plane-waves:     10834
 maximum index in each direction: 
   IXMAX=   13   IYMAX=   13   IZMAX=   13
   IXMIN=  -13   IYMIN=  -13   IZMIN=  -13


 serial   3D FFT for wavefunctions
 parallel 3D FFT for charge:
    minimum data exchange during FFTs selected (reduces bandwidth)


 total amount of memory used by VASP MPI-rank0    50657. kBytes
=======================================================================

   base      :      30000. kBytes
   nonlr-proj:       8676. kBytes
   fftplans  :       1007. kBytes
   grid      :       7709. kBytes
   one-center:       1054. kBytes
   wavefun   :       2211. kBytes
 
     INWAV:  cpu time    0.2120: real time    0.3244
 Broyden mixing: mesh for mixing (old mesh)
   NGX = 27   NGY = 27   NGZ = 27
  (NGX  = 84   NGY  = 84   NGZ  = 84)
  gives a total of  19683 points

 charge density for first step will be calculated from the start-wavefunctions


--------------------------------------------------------------------------------------------------------


 Maximum index for non-local projection operator         1343
 Maximum index for augmentation-charges          359 (set IRDMAX)


--------------------------------------------------------------------------------------------------------


 initial charge from wavefunction
 First call to EWALD:  gamma=   0.211
 Maximum number of real-space cells 3x 3x 3
 Maximum number of reciprocal cells 3x 3x 3

    FEWALD:  cpu time    0.0040: real time    0.0034


--------------------------------------- Iteration      1(   1)  ---------------------------------------


    POTLOK:  cpu time    0.0320: real time    0.0358
    SETDIJ:  cpu time    0.5120: real time    0.5124
     EDDAV:  cpu time    0.7640: real time    0.7640
       DOS:  cpu time    0.0000: real time    0.0006
    CHARGE:  cpu time    0.0400: real time    0.0408
    MIXING:  cpu time    0.0040: real time    0.0006
    --------------------------------------------
      LOOP:  cpu time    1.3520: real time    1.3540

 eigenvalue-minimisations  :   972
 total energy-change (2. order) :-0.3958682E+03  (-0.3206221E-06)
 number of electron     263.0001307 magnetization       0.9999982
 augmentation part       21.9350968 magnetization       0.2372568

 Broyden mixing:
  rms(total) = 0.46483E-03    rms(broyden)= 0.46448E-03
  rms(prec ) = 0.68855E-03
  weight for this iteration     100.00

 Free energy of the ion-electron system (eV)
  ---------------------------------------------------
  alpha Z        PSCENC =       651.60264910
  Ewald energy   TEWEN  =    -11824.98072890
  -Hartree energ DENC   =     -4594.37338760
  -exchange      EXHF   =         0.00000000
  -V(xc)+E(xc)   XCENC  =      -524.53137056
  PAW double counting   =     18361.90645830   -16789.35922015
  entropy T*S    EENTRO =        -0.07425584
  eigenvalues    EBANDS =      -612.83525016
  atomic energy  EATOM  =     14936.77695065
  Solvation  Ediel_sol  =         0.00000000
  ---------------------------------------------------
  free energy    TOTEN  =      -395.86815516 eV

  energy without entropy =     -395.79389932  energy(sigma->0) =     -395.83102724


--------------------------------------------------------------------------------------------------------




--------------------------------------- Iteration      1(   2)  ---------------------------------------


    POTLOK:  cpu time    0.0320: real time    0.0322
    SETDIJ:  cpu time    0.5120: real time    0.5124
     EDDAV:  cpu time    0.5680: real time    0.5689
       DOS:  cpu time    0.0000: real time    0.0007
    --------------------------------------------
      LOOP:  cpu time    1.1120: real time    1.1141

 eigenvalue-minimisations  :   720
 total energy-change (2. order) : 0.5289330E-06  (-0.1998172E-06)
 number of electron     263.0001307 magnetization       0.9999982
 augmentation part       21.9350968 magnetization       0.2372568

 Free energy of the ion-electron system (eV)
  ---------------------------------------------------
  alpha Z        PSCENC =       651.60264910
  Ewald energy   TEWEN  =    -11824.98072890
  -Hartree energ DENC   =     -4594.37340215
  -exchange      EXHF   =         0.00000000
  -V(xc)+E(xc)   XCENC  =      -524.53141550
  PAW double counting   =     18361.90414430   -16789.35689431
  entropy T*S    EENTRO =        -0.07425878
  eigenvalues    EBANDS =      -612.83519905
  atomic energy  EATOM  =     14936.77695065
  Solvation  Ediel_sol  =         0.00000000
  ---------------------------------------------------
  free energy    TOTEN  =      -395.86815463 eV

  energy without entropy =     -395.79389586  energy(sigma->0) =     -395.83102524


--------------------------------------------------------------------------------------------------------




 average (electrostatic) potential at core
  the test charge radii are     1.0714  0.7215
  (the norm of the test charge is              1.0000)
       1 -34.4612       2 -34.4258       3 -34.4258       4 -34.6373       5 -34.4258
       6 -34.6373       7 -34.6373       8 -34.7183       9 -34.4612      10 -34.4258
      11 -34.4258      12 -34.6373      13 -34.4258      14 -34.6373      15 -34.6373
      16 -34.7183      17 -34.4612      18 -34.4258      19 -34.4258      20 -34.6373
      21 -34.4258      22 -34.6373      23 -34.6373      24 -34.7183      25 -34.4612
      26 -34.4258      27 -34.4258      28 -34.6373      29 -34.4258      30 -34.6373
      31 -34.6373      32 -34.7183      33 -68.6111      34 -68.8165      35 -69.7364
      36 -69.7364      37 -69.5141      38 -69.7364      39 -69.5141      40 -69.5141
      41 -69.6268      42 -68.8165      43 -69.7364      44 -69.7364      45 -69.5141
      46 -69.7364      47 -69.5141      48 -69.5141      49 -69.6268      50 -68.8165
      51 -69.7364      52 -69.7364      53 -69.5141      54 -69.7364      55 -69.5141
      56 -69.5141      57 -69.6268      58 -68.8165      59 -69.7364      60 -69.7364
      61 -69.5141      62 -69.7364      63 -69.5141      64 -69.5141      65 -69.6268
 
 
 
 E-fermi :   4.9602     XC(G=0): -11.4013     alpha+bet :-13.3175


 spin component 1

 k-point     1 :       0.2500    0.2500    0.2500
  band No.  band energies     occupation 
      1     -14.0388      1.00000
      2     -13.6549      1.00000
      3     -13.6331      1.00000
      4     -13.6331      1.00000
      5     -13.3499      1.00000
      6     -13.3156      1.00000
      7     -13.3156      1.00000
      8     -13.1220      1.00000
      9     -13.0632      1.00000
     10     -13.0632      1.00000
     11     -13.0560      1.00000
     12     -12.9144      1.00000
     13     -12.9015      1.00000
     14     -12.8927      1.00000
     15     -12.8927      1.00000
     16     -12.8374      1.00000
     17     -12.8374      1.00000
     18     -12.8245      1.00000
     19     -12.8219      1.00000
     20     -12.8219      1.00000
     21     -12.7027      1.00000
     22     -12.7027      1.00000
     23     -12.6889      1.00000
     24     -12.5912      1.00000
     25     -12.5843      1.00000
     26     -12.5843      1.00000
     27     -12.5764      1.00000
     28     -12.5705      1.00000
     29     -12.5705      1.00000
     30     -12.1393      1.00000
     31     -12.1375      1.00000
     32     -12.1375      1.00000
     33     -11.3087      1.00000
     34      -1.3640      1.00000
     35      -1.3640      1.00000
     36      -1.3572      1.00000
     37      -1.0775      1.00000
     38      -0.8941      1.00000
     39      -0.8941      1.00000
     40      -0.8923      1.00000
     41      -0.8406      1.00000
     42      -0.8406      1.00000
     43      -0.7760      1.00000
     44      -0.7412      1.00000
     45      -0.7412      1.00000
     46      -0.7281      1.00000
     47      -0.6789      1.00000
     48      -0.6789      1.00000
     49      -0.6713      1.00000
     50      -0.5790      1.00000
     51      -0.5790      1.00000
     52      -0.5487      1.00000
     53      -0.4623      1.00000
     54      -0.4623      1.00000
     55      -0.3640      1.00000
     56      -0.3122      1.00000
     57      -0.3122      1.00000
     58      -0.1500      1.00000
     59      -0.1209      1.00000
     60      -0.1209      1.00000
     61       0.0798      1.00000
     62       0.2878      1.00000
     63       0.2878      1.00000
     64       0.4689      1.00000
     65       0.4944      1.00000
     66       0.5340      1.00000
     67       0.5340      1.00000
     68       0.6366      1.00000
     69       0.6366      1.00000
     70       0.7249      1.00000
     71       0.8838      1.00000
     72       0.8838      1.00000
     73       0.9465      1.00000
     74       1.0963      1.00000
     75       1.0963      1.00000
     76       1.1074      1.00000
     77       1.2685      1.00000
     78       1.2952      1.00000
     79       1.2952      1.00000
     80       1.3541      1.00000
     81       1.3541      1.00000
     82       1.4753      1.00000
     83       1.5521      1.00000
     84       1.5521      1.00000
     85       1.6048      1.00000
     86       1.6076      1.00000
     87       1.6076      1.00000
     88       1.6991      1.00000
     89       1.7288      1.00000
     90       1.7288      1.00000
     91       1.8071      1.00000
     92       1.8239      1.00000
     93       1.8457      1.00000
     94       1.8457      1.00000
     95       1.9461      1.00000
     96       1.9461      1.00000
     97       1.9742      1.00000
     98       2.0069      1.00000
     99       2.0069      1.00000
    100       2.0324      1.00000
    101       2.0483      1.00000
    102       2.0483      1.00000
    103       2.0905      1.00000
    104       2.1218      1.00000
    105       2.1482      1.00000
    106       2.1482      1.00000
    107       2.1738      1.00000
    108       2.1955      1.00000
    109       2.1955      1.00000
    110       2.2192      1.00000
    111       2.2836      1.00000
    112       2.2836      1.00000
    113       2.3773      1.00000
    114       2.3843      1.00000
    115       2.3843      1.00000
    116       2.5019      1.00000
    117       2.5019      1.00000
    118       2.5464      1.00000
    119       2.5772      1.00000
    120       2.5772      1.00000
    121       2.6702      1.00000
    122       2.6702      1.00000
    123       2.6846      1.00000
    124       2.8476      1.00000
    125       2.8476      1.00000
    126       2.8818      1.00000
    127       3.0742      1.00000
    128       3.0742      1.00000
    129       3.1451      1.00000
    130       4.4444      1.00000
    131       4.4937      1.00000
    132       4.4937      1.00000
    133       8.7851      0.00000
    134      10.3123      0.00000
    135      10.3123      0.00000
    136      10.4120      0.00000
    137      10.8933      0.00000
    138      11.1228      0.00000
    139      11.1228      0.00000
    140      11.2854      0.00000
    141      11.5645      0.00000
    142      11.5645      0.00000
    143      11.7746      0.00000
    144      12.1376      0.00000
    145      12.1376      0.00000
    146      12.3076      0.00000
    147      12.4496      0.00000
    148      12.4949      0.00000
    149      12.4949      0.00000
    150      12.5142      0.00000
    151      12.5142      0.00000
    152      12.6639      0.00000
    153      12.6639      0.00000
    154      12.7169      0.00000
    155      12.9314      0.00000
    156      12.9843      0.00000
    157      12.9843      0.00000
    158      13.1854      0.00000
    159      13.3506      0.00000
    160      13.3506      0.00000
    161      13.4194      0.00000
    162      13.6017      0.00000
    163      13.6198      0.00000
    164      13.6198      0.00000
    165      13.7364      0.00000
    166      13.7584      0.00000
    167      13.7584      0.00000
    168      14.0323      0.00000
    169      14.0323      0.00000
    170      14.3418      0.00000
    171      14.3503      0.00000
    172      14.3503      0.00000
    173      14.5150      0.00000
    174      14.5150      0.00000
    175      14.6005      0.00000
    176      14.6961      0.00000
    177      14.8061      0.00000
    178      14.8061      0.00000
    179      14.8212      0.00000
    180      14.8633      0.00000
    181      14.9080      0.00000
    182      14.9080      0.00000
    183      15.0233      0.00000
    184      15.0233      0.00000
    185      15.1605      0.00000
    186      15.1632      0.00000
    187      15.1632      0.00000
    188      15.3084      0.00000
    189      15.3252      0.00000
    190      15.3252      0.00000
    191      15.5283      0.00000
    192      15.5283      0.00000
    193      15.5353      0.00000
    194      15.5985      0.00000
    195      15.5996      0.00000
    196      15.5996      0.00000
    197      15.8256      0.00000
    198      15.8256      0.00000
    199      15.8641      0.00000
    200      15.8759      0.00000
    201      16.0278      0.00000
    202      16.0278      0.00000
    203      16.2749      0.00000
    204      16.5085      0.00000
    205      16.5085      0.00000
    206      16.6577      0.00000
    207      16.9840      0.00000
    208      16.9840      0.00000
    209      17.0175      0.00000
    210      17.0558      0.00000
    211      17.1853      0.00000
    212      17.1853      0.00000
    213      17.2380      0.00000
    214      17.5642      0.00000
    215      17.5883      0.00000
    216      17.5883      0.00000

 spin component 2

 k-point     1 :       0.2500    0.2500    0.2500
  band No.  band energies     occupation 
      1     -14.0076      1.00000
      2     -13.6257      1.00000
      3     -13.6257      1.00000
      4     -13.5783      1.00000
      5     -13.3091      1.00000
      6     -13.3091      1.00000
      7     -13.2474      1.00000
      8     -13.0756      1.00000
      9     -13.0584      1.00000
     10     -13.0584      1.00000
     11     -13.0002      1.00000
     12     -12.9002      1.00000
     13     -12.8873      1.00000
     14     -12.8873      1.00000
     15     -12.8397      1.00000
     16     -12.8335      1.00000
     17     -12.8335      1.00000
     18     -12.8150      1.00000
     19     -12.8150      1.00000
     20     -12.7923      1.00000
     21     -12.6968      1.00000
     22     -12.6968      1.00000
     23     -12.6593      1.00000
     24     -12.5831      1.00000
     25     -12.5781      1.00000
     26     -12.5781      1.00000
     27     -12.5699      1.00000
     28     -12.5636      1.00000
     29     -12.5636      1.00000
     30     -11.9754      1.00000
     31     -11.9730      1.00000
     32     -11.9730      1.00000
     33     -10.9149      1.00000
     34      -1.3496      1.00000
     35      -1.3496      1.00000
     36      -1.3435      1.00000
     37      -1.0678      1.00000
     38      -0.8840      1.00000
     39      -0.8840      1.00000
     40      -0.8561      1.00000
     41      -0.8202      1.00000
     42      -0.8202      1.00000
     43      -0.7712      1.00000
     44      -0.7206      1.00000
     45      -0.7206      1.00000
     46      -0.6938      1.00000
     47      -0.6576      1.00000
     48      -0.6576      1.00000
     49      -0.6533      1.00000
     50      -0.5466      1.00000
     51      -0.5466      1.00000
     52      -0.5454      1.00000
     53      -0.4569      1.00000
     54      -0.4569      1.00000
     55      -0.3480      1.00000
     56      -0.2930      1.00000
     57      -0.2930      1.00000
     58      -0.1265      1.00000
     59      -0.1012      1.00000
     60      -0.1012      1.00000
     61       0.1451      1.00000
     62       0.3846      1.00000
     63       0.3846      1.00000
     64       0.5034      1.00000
     65       0.5059      1.00000
     66       0.5454      1.00000
     67       0.5454      1.00000
     68       0.6440      1.00000
     69       0.6440      1.00000
     70       0.7383      1.00000
     71       0.9109      1.00000
     72       0.9109      1.00000
     73       1.0093      1.00000
     74       1.1745      1.00000
     75       1.1745      1.00000
     76       1.1834      1.00000
     77       1.2797      1.00000
     78       1.3100      1.00000
     79       1.3100      1.00000
     80       1.3650      1.00000
     81       1.3650      1.00000
     82       1.5439      1.00000
     83       1.5885      1.00000
     84       1.5885      1.00000
     85       1.6141      1.00000
     86       1.6298      1.00000
     87       1.6298      1.00000
     88       1.7202      1.00000
     89       1.7406      1.00000
     90       1.7406      1.00000
     91       1.8115      1.00000
     92       1.8373      1.00000
     93       1.8548      1.00000
     94       1.8548      1.00000
     95       1.9542      1.00000
     96       1.9542      1.00000
     97       2.0073      1.00000
     98       2.0178      1.00000
     99       2.0178      1.00000
    100       2.0369      1.00000
    101       2.0683      1.00000
    102       2.0683      1.00000
    103       2.0979      1.00000
    104       2.1270      1.00000
    105       2.1608      1.00000
    106       2.1608      1.00000
    107       2.1780      1.00000
    108       2.2103      1.00000
    109       2.2103      1.00000
    110       2.2555      1.00000
    111       2.3000      1.00000
    112       2.3000      1.00000
    113       2.3863      1.00000
    114       2.4119      1.00000
    115       2.4119      1.00000
    116       2.5225      1.00000
    117       2.5225      1.00000
    118       2.5566      1.00000
    119       2.6095      1.00000
    120       2.6095      1.00000
    121       2.7071      1.00000
    122       2.7071      1.00000
    123       2.7499      1.00000
    124       2.8924      1.00000
    125       2.8924      1.00000
    126       2.9278      1.00000
    127       3.1214      1.00000
    128       3.1214      1.00000
    129       3.3830      1.00000
    130       4.8997      0.80413
    131       4.9427      0.59794
    132       4.9427      0.59794
    133       8.7954      0.00000
    134      10.3226      0.00000
    135      10.3226      0.00000
    136      10.4250      0.00000
    137      10.9030      0.00000
    138      11.1284      0.00000
    139      11.1284      0.00000
    140      11.3037      0.00000
    141      11.5703      0.00000
    142      11.5703      0.00000
    143      11.7795      0.00000
    144      12.1446      0.00000
    145      12.1446      0.00000
    146      12.3270      0.00000
    147      12.4520      0.00000
    148      12.4963      0.00000
    149      12.4963      0.00000
    150      12.5186      0.00000
    151      12.5186      0.00000
    152      12.6767      0.00000
    153      12.6767      0.00000
    154      12.7333      0.00000
    155      12.9423      0.00000
    156      12.9877      0.00000
    157      12.9877      0.00000
    158      13.1992      0.00000
    159      13.3603      0.00000
    160      13.3603      0.00000
    161      13.4201      0.00000
    162      13.6120      0.00000
    163      13.6218      0.00000
    164      13.6218      0.00000
    165      13.7464      0.00000
    166      13.7638      0.00000
    167      13.7638      0.00000
    168      14.0449      0.00000
    169      14.0449      0.00000
    170      14.3543      0.00000
    171      14.3606      0.00000
    172      14.3606      0.00000
    173      14.5296      0.00000
    174      14.5296      0.00000
    175      14.6015      0.00000
    176      14.7065      0.00000
    177      14.8090      0.00000
    178      14.8090      0.00000
    179      14.8246      0.00000
    180      14.8757      0.00000
    181      14.9128      0.00000
    182      14.9128      0.00000
    183      15.0262      0.00000
    184      15.0262      0.00000
    185      15.1660      0.00000
    186      15.1660      0.00000
    187      15.1696      0.00000
    188      15.3115      0.00000
    189      15.3302      0.00000
    190      15.3302      0.00000
    191      15.5338      0.00000
    192      15.5338      0.00000
    193      15.5384      0.00000
    194      15.6050      0.00000
    195      15.6050      0.00000
    196      15.6078      0.00000
    197      15.8305      0.00000
    198      15.8305      0.00000
    199      15.8730      0.00000
    200      15.8897      0.00000
    201      16.0428      0.00000
    202      16.0428      0.00000
    203      16.2829      0.00000
    204      16.5200      0.00000
    205      16.5200      0.00000
    206      16.6799      0.00000
    207      16.9866      0.00000
    208      16.9866      0.00000
    209      17.0290      0.00000
    210      17.0579      0.00000
    211      17.1951      0.00000
    212      17.1951      0.00000
    213      17.2412      0.00000
    214      17.5783      0.00000
    215      17.5970      0.00000
    216      17.5970      0.00000


--------------------------------------------------------------------------------------------------------


 soft charge-density along one line, spin component           1
         0         1         2         3         4         5         6         7         8         9
 total charge-density along one line
 
 soft charge-density along one line, spin component           2
         0         1         2         3         4         5         6         7         8         9
 total charge-density along one line
 
 pseudopotential strength for first ion, spin component:           1
  2.992   9.481  -0.001  -0.001  -0.001  -0.004  -0.004  -0.004
  9.481  29.895  -0.007  -0.007  -0.007  -0.015  -0.015  -0.015
 -0.001  -0.007   7.393  -0.000  -0.000  10.666  -0.001  -0.001
 -0.001  -0.007  -0.000   7.393  -0.000  -0.001  10.666  -0.001
 -0.001  -0.007  -0.000  -0.000   7.393  -0.001  -0.001  10.666
 -0.004  -0.015  10.666  -0.001  -0.001  14.617  -0.003  -0.003
 -0.004  -0.015  -0.001  10.666  -0.001  -0.003  14.617  -0.003
 -0.004  -0.015  -0.001  -0.001  10.666  -0.003  -0.003  14.617
 -0.001  -0.003  -0.004   0.000  -0.004  -0.005  -0.000  -0.005
 -0.001  -0.003  -0.004  -0.004   0.000  -0.005  -0.005  -0.000
 -0.000  -0.000   0.003  -0.006   0.003   0.003  -0.006   0.003
 -0.001  -0.003   0.000  -0.004  -0.004  -0.000  -0.005  -0.005
 -0.000  -0.000   0.005  -0.000  -0.005   0.005  -0.000  -0.005
 pseudopotential strength for first ion, spin component:           2
  2.992   9.481  -0.001  -0.001  -0.001  -0.004  -0.004  -0.004
  9.481  29.894  -0.007  -0.007  -0.007  -0.016  -0.016  -0.016
 -0.001  -0.007   7.393  -0.000  -0.000  10.666  -0.002  -0.002
 -0.001  -0.007  -0.000   7.393  -0.000  -0.002  10.666  -0.002
 -0.001  -0.007  -0.000  -0.000   7.393  -0.002  -0.002  10.666
 -0.004  -0.016  10.666  -0.002  -0.002  14.617  -0.004  -0.004
 -0.004  -0.016  -0.002  10.666  -0.002  -0.004  14.617  -0.004
 -0.004  -0.016  -0.002  -0.002  10.666  -0.004  -0.004  14.617
 -0.001  -0.003  -0.005   0.000  -0.005  -0.005  -0.000  -0.005
 -0.001  -0.003  -0.005  -0.005   0.000  -0.005  -0.005  -0.000
 -0.000  -0.000   0.003  -0.006   0.003   0.003  -0.006   0.003
 -0.001  -0.003   0.000  -0.005  -0.005  -0.000  -0.005  -0.005
 -0.000  -0.000   0.005  -0.000  -0.005   0.005  -0.000  -0.005
 total augmentation occupancy for first ion, spin component:           1
  1.102  -0.055   0.027   0.027   0.027  -0.004  -0.004  -0.004   0.045   0.045  -0.000   0.045   0.000
 -0.055   0.003  -0.001  -0.001  -0.001   0.000   0.000   0.000  -0.002  -0.002   0.000  -0.002   0.000
  0.027  -0.001   0.127   0.024   0.024  -0.014  -0.003  -0.003   0.017   0.017   0.008   0.017   0.014
  0.027  -0.001   0.024   0.127   0.024  -0.003  -0.014  -0.003   0.017   0.017  -0.017   0.017   0.000
  0.027  -0.001   0.024   0.024   0.127  -0.003  -0.003  -0.014   0.017   0.017   0.008   0.017  -0.014
 -0.004   0.000  -0.014  -0.003  -0.003   0.002   0.000   0.000  -0.002  -0.002  -0.001  -0.002  -0.001
 -0.004   0.000  -0.003  -0.014  -0.003   0.000   0.002   0.000  -0.002  -0.002   0.002  -0.002  -0.000
 -0.004   0.000  -0.003  -0.003  -0.014   0.000   0.000   0.002  -0.002  -0.002  -0.001  -0.002   0.001
  0.045  -0.002   0.017   0.017   0.017  -0.002  -0.002  -0.002   0.024   0.012  -0.000   0.012  -0.000
  0.045  -0.002   0.017   0.017   0.017  -0.002  -0.002  -0.002   0.012   0.024   0.000   0.012  -0.000
 -0.000   0.000   0.008  -0.017   0.008  -0.001   0.002  -0.001  -0.000   0.000   0.041   0.000  -0.000
  0.045  -0.002   0.017   0.017   0.017  -0.002  -0.002  -0.002   0.012   0.012   0.000   0.024   0.000
 -0.000  -0.000   0.014   0.000  -0.014  -0.001   0.000   0.001   0.000  -0.000  -0.000   0.000   0.041
 total augmentation occupancy for first ion, spin component:           2
  0.003  -0.000   0.003   0.003   0.003  -0.000  -0.000  -0.000   0.003   0.003  -0.000   0.003   0.000
 -0.000   0.000  -0.000  -0.000  -0.000   0.000   0.000   0.000  -0.000  -0.000  -0.000  -0.000  -0.000
  0.003  -0.000   0.001   0.001   0.001  -0.000  -0.000  -0.000   0.001   0.001   0.000   0.001   0.000
  0.003  -0.000   0.001   0.001   0.001  -0.000  -0.000  -0.000   0.001   0.001  -0.000   0.001  -0.000
  0.003  -0.000   0.001   0.001   0.001  -0.000  -0.000  -0.000   0.001   0.001   0.000   0.001  -0.000
 -0.000   0.000  -0.000  -0.000  -0.000   0.000   0.000   0.000  -0.000  -0.000  -0.000  -0.000  -0.000
 -0.000   0.000  -0.000  -0.000  -0.000   0.000   0.000   0.000  -0.000  -0.000   0.000  -0.000  -0.000
 -0.000   0.000  -0.000  -0.000  -0.000   0.000   0.000   0.000  -0.000  -0.000  -0.000  -0.000   0.000
  0.003  -0.000   0.001   0.001   0.001  -0.000  -0.000  -0.000   0.001   0.001   0.000   0.001   0.000
  0.003  -0.000   0.001   0.001   0.001  -0.000  -0.000  -0.000   0.001   0.001  -0.000   0.001   0.000
  0.000   0.000   0.000  -0.000   0.000  -0.000   0.000  -0.000   0.000  -0.000  -0.000  -0.000   0.000
  0.003  -0.000   0.001   0.001   0.001  -0.000  -0.000  -0.000   0.001   0.001  -0.000   0.001  -0.000
  0.000   0.000   0.000   0.000  -0.000  -0.000   0.000   0.000   0.000   0.000   0.000  -0.000  -0.000


------------------------ aborting loop because EDIFF is reached ----------------------------------------


 


 total charge     
 
# of ion       s       p       d       tot
------------------------------------------
    1        0.159   0.189   0.086   0.433
    2        0.158   0.196   0.089   0.443
    3        0.158   0.196   0.089   0.443
    4        0.155   0.190   0.085   0.430
    5        0.158   0.196   0.089   0.443
    6        0.155   0.190   0.085   0.430
    7        0.155   0.190   0.085   0.430
    8        0.152   0.184   0.081   0.417
    9        0.157   0.187   0.084   0.429
   10        0.158   0.196   0.089   0.443
   11        0.158   0.196   0.089   0.443
   12        0.155   0.190   0.085   0.430
   13        0.158   0.196   0.089   0.443
   14        0.155   0.190   0.085   0.430
   15        0.155   0.190   0.085   0.430
   16        0.152   0.184   0.081   0.417
   17        0.157   0.187   0.084   0.429
   18        0.158   0.196   0.089   0.443
   19        0.158   0.196   0.089   0.443
   20        0.155   0.190   0.085   0.430
   21        0.158   0.196   0.089   0.443
   22        0.155   0.190   0.085   0.430
   23        0.155   0.190   0.085   0.430
   24        0.152   0.184   0.081   0.417
   25        0.157   0.187   0.084   0.429
   26        0.158   0.196   0.089   0.443
   27        0.158   0.196   0.089   0.443
   28        0.155   0.190   0.085   0.430
   29        0.158   0.196   0.089   0.443
   30        0.155   0.190   0.085   0.430
   31        0.155   0.190   0.085   0.430
   32        0.152   0.184   0.081   0.417
   33        1.620   3.572   0.000   5.193
   34        1.580   3.543   0.000   5.123
   35        1.564   3.560   0.000   5.124
   36        1.564   3.560   0.000   5.124
   37        1.565   3.571   0.000   5.136
   38        1.563   3.560   0.000   5.124
   39        1.565   3.570   0.000   5.134
   40        1.565   3.570   0.000   5.134
   41        1.564   3.560   0.000   5.124
   42        1.581   3.586   0.000   5.167
   43        1.564   3.560   0.000   5.123
   44        1.564   3.560   0.000   5.123
   45        1.565   3.570   0.000   5.134
   46        1.564   3.560   0.000   5.123
   47        1.565   3.570   0.000   5.134
   48        1.565   3.570   0.000   5.134
   49        1.564   3.560   0.000   5.124
   50        1.580   3.543   0.000   5.123
   51        1.563   3.560   0.000   5.124
   52        1.564   3.560   0.000   5.124
   53        1.565   3.570   0.000   5.134
   54        1.564   3.560   0.000   5.124
   55        1.565   3.570   0.000   5.134
   56        1.565   3.571   0.000   5.136
   57        1.564   3.560   0.000   5.124
   58        1.580   3.543   0.000   5.123
   59        1.564   3.560   0.000   5.124
   60        1.563   3.560   0.000   5.124
   61        1.565   3.570   0.000   5.134
   62        1.564   3.560   0.000   5.124
   63        1.565   3.571   0.000   5.136
   64        1.565   3.570   0.000   5.134
   65        1.564   3.560   0.000   5.124
--------------------------------------------------
tot         56.721 123.707   2.759 183.188
 


 magnetization (x)
 
# of ion       s       p       d       tot
------------------------------------------
    1       -0.001   0.000   0.001   0.000
    2       -0.000   0.000   0.000   0.000
    3       -0.000   0.000   0.000   0.000
    4        0.000   0.000   0.000   0.000
    5       -0.000   0.000   0.000   0.000
    6        0.000   0.000   0.000   0.000
    7        0.000   0.000   0.000   0.000
    8       -0.000  -0.000  -0.000  -0.000
    9        0.001   0.002   0.002   0.004
   10       -0.000   0.000   0.000   0.001
   11       -0.000   0.000   0.000   0.001
   12        0.000   0.000   0.000   0.000
   13       -0.000  -0.000   0.000  -0.000
   14       -0.000   0.000   0.000   0.000
   15       -0.000   0.000   0.000   0.000
   16       -0.000  -0.000  -0.000  -0.000
   17        0.001   0.002   0.002   0.004
   18       -0.000   0.000   0.000   0.001
   19       -0.000  -0.000   0.000  -0.000
   20       -0.000   0.000   0.000   0.000
   21       -0.000   0.000   0.000   0.001
   22        0.000   0.000   0.000   0.000
   23       -0.000   0.000   0.000   0.000
   24       -0.000  -0.000  -0.000  -0.000
   25        0.001   0.002   0.002   0.004
   26       -0.000  -0.000   0.000  -0.000
   27       -0.000   0.000   0.000   0.001
   28       -0.000   0.000   0.000   0.000
   29       -0.000   0.000   0.000   0.001
   30       -0.000   0.000   0.000   0.000
   31        0.000   0.000   0.000   0.000
   32       -0.000  -0.000  -0.000  -0.000
   33        0.003   0.359   0.000   0.363
   34        0.003   0.118   0.000   0.121
   35       -0.000  -0.000   0.000  -0.000
   36       -0.000  -0.000   0.000  -0.000
   37        0.000   0.004   0.000   0.004
   38       -0.000  -0.000   0.000  -0.000
   39        0.000   0.005   0.000   0.005
   40        0.000   0.005   0.000   0.005
   41       -0.000   0.000   0.000   0.000
   42        0.002   0.076   0.000   0.079
   43       -0.000  -0.000   0.000  -0.000
   44       -0.000  -0.000   0.000  -0.000
   45        0.000   0.006   0.000   0.006
   46       -0.000  -0.000   0.000  -0.000
   47        0.000   0.006   0.000   0.006
   48        0.000   0.006   0.000   0.006
   49       -0.000   0.000   0.000   0.000
   50        0.003   0.118   0.000   0.121
   51       -0.000  -0.000   0.000  -0.000
   52       -0.000  -0.000   0.000  -0.000
   53        0.000   0.005   0.000   0.005
   54       -0.000  -0.000   0.000  -0.000
   55        0.000   0.005   0.000   0.005
   56        0.000   0.004   0.000   0.004
   57       -0.000   0.000   0.000   0.000
   58        0.003   0.118   0.000   0.121
   59       -0.000  -0.000   0.000  -0.000
   60       -0.000  -0.000   0.000  -0.000
   61        0.000   0.005   0.000   0.005
   62       -0.000  -0.000   0.000  -0.000
   63        0.000   0.004   0.000   0.004
   64        0.000   0.005   0.000   0.005
   65       -0.000   0.000   0.000   0.000
--------------------------------------------------
tot          0.017   0.851   0.009   0.877
 
    CHARGE:  cpu time    0.0400: real time    0.0396
    FORLOC:  cpu time    0.0040: real time    0.0041
    FORNL :  cpu time    0.1560: real time    0.1579
    STRESS:  cpu time    0.5120: real time    0.5130
    FORCOR:  cpu time    0.0240: real time    0.0247
    FORHAR:  cpu time    0.0080: real time    0.0063
    MIXING:  cpu time    0.0000: real time    0.0012
    OFIELD:  cpu time    0.0000: real time    0.0000

  FORCE on cell =-STRESS in cart. coord.  units (eV):
  Direction    XX          YY          ZZ          XY          YZ          ZX
  --------------------------------------------------------------------------------------
  Alpha Z   651.60265   651.60265   651.60265
  Ewald   -3941.68119 -3941.68119 -3941.68119     0.00000     0.00000     0.00000
  Hartree  1531.45815  1531.45815  1531.45815    -0.00000    -0.00000    -0.00000
  E(xc)   -1190.46500 -1190.46500 -1190.46500    -0.00000     0.00000     0.00000
  Local   -1335.05888 -1335.05888 -1335.05888    -0.00000    -0.00000     0.00000
  n-local  -617.12545  -617.12545  -617.12545    -0.24170    -0.24170    -0.24170
  augment   225.95389   225.95389   225.95389     0.00000     0.00000     0.00000
  Kinetic  4684.09736  4684.09736  4684.09735    -0.33806    -0.33806    -0.33805
  Fock        0.00000     0.00000     0.00000     0.00000     0.00000     0.00000
  -------------------------------------------------------------------------------------
  Total       8.78153     8.78153     8.78153    -0.00000    -0.00000    -0.00000
  in kB      23.57375    23.57375    23.57375    -0.00000    -0.00000    -0.00000
  external pressure =       23.57 kB  Pullay stress =        0.00 kB


 VOLUME and BASIS-vectors are now :
 -----------------------------------------------------------------------------
  energy-cutoff  :      400.00
  volume of cell :      596.83
      direct lattice vectors                 reciprocal lattice vectors
     8.419456000  0.000000000  0.000000000     0.118772519  0.000000000  0.000000000
     0.000000000  8.419456000  0.000000000     0.000000000  0.118772519  0.000000000
     0.000000000  0.000000000  8.419456000     0.000000000  0.000000000  0.118772519

  length of vectors
     8.419456000  8.419456000  8.419456000     0.118772519  0.118772519  0.118772519


 FORCES acting on ions
    electron-ion (+dipol)            ewald-force                    non-local-force                 convergence-correction
 -----------------------------------------------------------------------------------------------
   0.102E+02 0.102E+02 0.102E+02   -.922E+01 -.922E+01 -.922E+01   -.945E+00 -.945E+00 -.945E+00   0.256E-03 0.256E-03 0.256E-03
   -.363E+01 -.363E+01 -.974E+01   0.319E+01 0.319E+01 0.822E+01   0.436E+00 0.436E+00 0.151E+01   0.198E-03 0.198E-03 -.851E-04
   -.363E+01 -.974E+01 -.363E+01   0.319E+01 0.822E+01 0.319E+01   0.436E+00 0.151E+01 0.436E+00   0.198E-03 -.851E-04 0.198E-03
   0.917E+00 0.306E+01 0.306E+01   -.900E+00 -.257E+01 -.257E+01   -.117E-01 -.488E+00 -.488E+00   0.182E-03 -.165E-03 -.165E-03
   -.974E+01 -.363E+01 -.363E+01   0.822E+01 0.319E+01 0.319E+01   0.151E+01 0.436E+00 0.436E+00   -.851E-04 0.198E-03 0.198E-03
   0.306E+01 0.917E+00 0.306E+01   -.257E+01 -.900E+00 -.257E+01   -.488E+00 -.117E-01 -.488E+00   -.165E-03 0.182E-03 -.165E-03
   0.306E+01 0.306E+01 0.917E+00   -.257E+01 -.257E+01 -.900E+00   -.488E+00 -.488E+00 -.117E-01   -.165E-03 -.165E-03 0.182E-03
   -.107E+01 -.107E+01 -.107E+01   0.108E+01 0.108E+01 0.108E+01   -.438E-02 -.438E-02 -.438E-02   -.167E-03 -.167E-03 -.167E-03
   0.102E+02 -.102E+02 -.102E+02   -.922E+01 0.922E+01 0.922E+01   -.945E+00 0.945E+00 0.945E+00   0.256E-03 -.256E-03 -.256E-03
   -.363E+01 0.363E+01 0.974E+01   0.319E+01 -.319E+01 -.822E+01   0.436E+00 -.436E+00 -.151E+01   0.198E-03 -.198E-03 0.851E-04
   -.363E+01 0.974E+01 0.363E+01   0.319E+01 -.822E+01 -.319E+01   0.436E+00 -.151E+01 -.436E+00   0.198E-03 0.851E-04 -.198E-03
   0.917E+00 -.306E+01 -.306E+01   -.900E+00 0.257E+01 0.257E+01   -.117E-01 0.488E+00 0.488E+00   0.182E-03 0.165E-03 0.165E-03
   -.974E+01 0.363E+01 0.363E+01   0.822E+01 -.319E+01 -.319E+01   0.151E+01 -.436E+00 -.436E+00   -.851E-04 -.198E-03 -.198E-03
   0.306E+01 -.917E+00 -.306E+01   -.257E+01 0.900E+00 0.257E+01   -.488E+00 0.117E-01 0.488E+00   -.165E-03 -.182E-03 0.165E-03
   0.306E+01 -.306E+01 -.917E+00   -.257E+01 0.257E+01 0.900E+00   -.488E+00 0.488E+00 0.117E-01   -.165E-03 0.165E-03 -.182E-03
   -.107E+01 0.107E+01 0.107E+01   0.108E+01 -.108E+01 -.108E+01   -.438E-02 0.438E-02 0.438E-02   -.167E-03 0.167E-03 0.167E-03
   -.102E+02 0.102E+02 -.102E+02   0.922E+01 -.922E+01 0.922E+01   0.945E+00 -.945E+00 0.945E+00   -.256E-03 0.256E-03 -.256E-03
   0.363E+01 -.363E+01 0.974E+01   -.319E+01 0.319E+01 -.822E+01   -.436E+00 0.436E+00 -.151E+01   -.198E-03 0.198E-03 0.851E-04
   0.363E+01 -.974E+01 0.363E+01   -.319E+01 0.822E+01 -.319E+01   -.436E+00 0.151E+01 -.436E+00   -.198E-03 -.851E-04 -.198E-03
   -.917E+00 0.306E+01 -.306E+01   0.900E+00 -.257E+01 0.257E+01   0.117E-01 -.488E+00 0.488E+00   -.182E-03 -.165E-03 0.165E-03
   0.974E+01 -.363E+01 0.363E+01   -.822E+01 0.319E+01 -.319E+01   -.151E+01 0.436E+00 -.436E+00   0.851E-04 0.198E-03 -.198E-03
   -.306E+01 0.917E+00 -.306E+01   0.257E+01 -.900E+00 0.257E+01   0.488E+00 -.117E-01 0.488E+00   0.165E-03 0.182E-03 0.165E-03
   -.306E+01 0.306E+01 -.917E+00   0.257E+01 -.257E+01 0.900E+00   0.488E+00 -.488E+00 0.117E-01   0.165E-03 -.165E-03 -.182E-03
   0.107E+01 -.107E+01 0.107E+01   -.108E+01 0.108E+01 -.108E+01   0.438E-02 -.438E-02 0.438E-02   0.167E-03 -.167E-03 0.167E-03
   -.102E+02 -.102E+02 0.102E+02   0.922E+01 0.922E+01 -.922E+01   0.945E+00 0.945E+00 -.945E+00   -.256E-03 -.256E-03 0.256E-03
   0.363E+01 0.363E+01 -.974E+01   -.319E+01 -.319E+01 0.822E+01   -.436E+00 -.436E+00 0.151E+01   -.198E-03 -.198E-03 -.851E-04
   0.363E+01 0.974E+01 -.363E+01   -.319E+01 -.822E+01 0.319E+01   -.436E+00 -.151E+01 0.436E+00   -.198E-03 0.851E-04 0.198E-03
   -.917E+00 -.306E+01 0.306E+01   0.900E+00 0.257E+01 -.257E+01   0.117E-01 0.488E+00 -.488E+00   -.182E-03 0.165E-03 -.165E-03
   0.974E+01 0.363E+01 -.363E+01   -.822E+01 -.319E+01 0.319E+01   -.151E+01 -.436E+00 0.436E+00   0.851E-04 -.198E-03 0.198E-03
   -.306E+01 -.917E+00 0.306E+01   0.257E+01 0.900E+00 -.257E+01   0.488E+00 0.117E-01 -.488E+00   0.165E-03 -.182E-03 -.165E-03
   -.306E+01 -.306E+01 0.917E+00   0.257E+01 0.257E+01 -.900E+00   0.488E+00 0.488E+00 -.117E-01   0.165E-03 0.165E-03 0.182E-03
   0.107E+01 0.107E+01 -.107E+01   -.108E+01 -.108E+01 0.108E+01   0.438E-02 0.438E-02 -.438E-02   0.167E-03 0.167E-03 -.167E-03
   0.353E-06 0.353E-06 -.151E-06   0.258E-13 0.293E-13 0.178E-13   0.867E-18 0.000E+00 0.867E-18   0.478E-13 0.189E-14 -.884E-14
   -.114E+02 0.114E+02 0.114E+02   0.802E+01 -.802E+01 -.802E+01   0.340E+01 -.340E+01 -.340E+01   -.939E-03 0.939E-03 0.939E-03
   -.601E+00 0.601E+00 -.288E+01   0.234E-01 -.234E-01 0.237E+01   0.581E+00 -.581E+00 0.511E+00   -.733E-03 0.733E-03 -.369E-03
   -.601E+00 -.288E+01 0.601E+00   0.234E-01 0.237E+01 -.234E-01   0.581E+00 0.511E+00 -.581E+00   -.733E-03 -.369E-03 0.733E-03
   0.131E+00 -.312E+01 -.312E+01   -.215E+00 0.231E+01 0.231E+01   0.871E-01 0.809E+00 0.809E+00   -.115E-02 -.530E-03 -.530E-03
   0.288E+01 0.601E+00 0.601E+00   -.237E+01 -.234E-01 -.234E-01   -.511E+00 -.581E+00 -.581E+00   0.369E-03 0.733E-03 0.733E-03
   0.312E+01 -.131E+00 -.312E+01   -.231E+01 0.215E+00 0.231E+01   -.809E+00 -.871E-01 0.809E+00   0.530E-03 0.115E-02 -.530E-03
   0.312E+01 -.312E+01 -.131E+00   -.231E+01 0.231E+01 0.215E+00   -.809E+00 0.809E+00 -.871E-01   0.530E-03 -.530E-03 0.115E-02
   0.610E+00 -.610E+00 -.610E+00   -.541E+00 0.541E+00 0.541E+00   -.713E-01 0.713E-01 0.713E-01   0.970E-03 -.970E-03 -.970E-03
   -.114E+02 -.114E+02 -.114E+02   0.802E+01 0.802E+01 0.802E+01   0.340E+01 0.340E+01 0.340E+01   -.939E-03 -.939E-03 -.939E-03
   -.601E+00 -.601E+00 0.288E+01   0.234E-01 0.234E-01 -.237E+01   0.581E+00 0.581E+00 -.511E+00   -.733E-03 -.733E-03 0.369E-03
   -.601E+00 0.288E+01 -.601E+00   0.234E-01 -.237E+01 0.234E-01   0.581E+00 -.511E+00 0.581E+00   -.733E-03 0.369E-03 -.733E-03
   0.131E+00 0.312E+01 0.312E+01   -.215E+00 -.231E+01 -.231E+01   0.871E-01 -.809E+00 -.809E+00   -.115E-02 0.530E-03 0.530E-03
   0.288E+01 -.601E+00 -.601E+00   -.237E+01 0.234E-01 0.234E-01   -.511E+00 0.581E+00 0.581E+00   0.369E-03 -.733E-03 -.733E-03
   0.312E+01 0.131E+00 0.312E+01   -.231E+01 -.215E+00 -.231E+01   -.809E+00 0.871E-01 -.809E+00   0.530E-03 -.115E-02 0.530E-03
   0.312E+01 0.312E+01 0.131E+00   -.231E+01 -.231E+01 -.215E+00   -.809E+00 -.809E+00 0.871E-01   0.530E-03 0.530E-03 -.115E-02
   0.610E+00 0.610E+00 0.610E+00   -.541E+00 -.541E+00 -.541E+00   -.713E-01 -.713E-01 -.713E-01   0.970E-03 0.970E-03 0.970E-03
   0.114E+02 0.114E+02 -.114E+02   -.802E+01 -.802E+01 0.802E+01   -.340E+01 -.340E+01 0.340E+01   0.939E-03 0.939E-03 -.939E-03
   0.601E+00 0.601E+00 0.288E+01   -.234E-01 -.234E-01 -.237E+01   -.581E+00 -.581E+00 -.511E+00   0.733E-03 0.733E-03 0.369E-03
   0.601E+00 -.288E+01 -.601E+00   -.234E-01 0.237E+01 0.234E-01   -.581E+00 0.511E+00 0.581E+00   0.733E-03 -.369E-03 -.733E-03
   -.131E+00 -.312E+01 0.312E+01   0.215E+00 0.231E+01 -.231E+01   -.871E-01 0.809E+00 -.809E+00   0.115E-02 -.530E-03 0.530E-03
   -.288E+01 0.601E+00 -.601E+00   0.237E+01 -.234E-01 0.234E-01   0.511E+00 -.581E+00 0.581E+00   -.369E-03 0.733E-03 -.733E-03
   -.312E+01 -.131E+00 0.312E+01   0.231E+01 0.215E+00 -.231E+01   0.809E+00 -.871E-01 -.809E+00   -.530E-03 0.115E-02 0.530E-03
   -.312E+01 -.312E+01 0.131E+00   0.231E+01 0.231E+01 -.215E+00   0.809E+00 0.809E+00 0.871E-01   -.530E-03 -.530E-03 -.115E-02
   -.610E+00 -.610E+00 0.610E+00   0.541E+00 0.541E+00 -.541E+00   0.713E-01 0.713E-01 -.713E-01   -.970E-03 -.970E-03 0.970E-03
   0.114E+02 -.114E+02 0.114E+02   -.802E+01 0.802E+01 -.802E+01   -.340E+01 0.340E+01 -.340E+01   0.939E-03 -.939E-03 0.939E-03
   0.601E+00 -.601E+00 -.288E+01   -.234E-01 0.234E-01 0.237E+01   -.581E+00 0.581E+00 0.511E+00   0.733E-03 -.733E-03 -.369E-03
   0.601E+00 0.288E+01 0.601E+00   -.234E-01 -.237E+01 -.234E-01   -.581E+00 -.511E+00 -.581E+00   0.733E-03 0.369E-03 0.733E-03
   -.131E+00 0.312E+01 -.312E+01   0.215E+00 -.231E+01 0.231E+01   -.871E-01 -.809E+00 0.809E+00   0.115E-02 0.530E-03 -.530E-03
   -.288E+01 -.601E+00 0.601E+00   0.237E+01 0.234E-01 -.234E-01   0.511E+00 0.581E+00 -.581E+00   -.369E-03 -.733E-03 0.733E-03
   -.312E+01 0.131E+00 -.312E+01   0.231E+01 -.215E+00 0.231E+01   0.809E+00 0.871E-01 0.809E+00   -.530E-03 -.115E-02 -.530E-03
   -.312E+01 0.312E+01 -.131E+00   0.231E+01 -.231E+01 0.215E+00   0.809E+00 -.809E+00 -.871E-01   -.530E-03 0.530E-03 0.115E-02
   -.610E+00 0.610E+00 -.610E+00   0.541E+00 -.541E+00 0.541E+00   0.713E-01 -.713E-01 0.713E-01   -.970E-03 0.970E-03 -.970E-03
 -----------------------------------------------------------------------------------------------
   -.581E-05 -.581E-05 -.475E-06   -.699E-13 -.449E-13 0.155E-13   -.791E-15 0.652E-15 0.278E-16   -.146E-12 0.102E-12 0.271E-12
 
 
 POSITION                                       TOTAL-FORCE (eV/Angst)
 -----------------------------------------------------------------------------------
      8.38695      8.38695      8.38695         0.006798      0.006798      0.006798
      8.39538      8.39538      4.24592        -0.001162     -0.001162     -0.004697
      8.39538      4.24592      8.39538        -0.001162     -0.004697     -0.001162
      0.00338      4.21866      4.21866         0.004772      0.001737      0.001737
      4.24592      8.39538      8.39538        -0.004697     -0.001162     -0.001162
      4.21866      0.00338      4.21866         0.001737      0.004772      0.001737
      4.21866      4.21866      0.00338         0.001737      0.001737      0.004772
      4.20932      4.20932      4.20932         0.005472      0.005472      0.005472
      8.38695      2.13737      2.13737         0.006798     -0.006798     -0.006798
      8.39538      2.12894      6.27840        -0.001162      0.001162      0.004697
      8.39538      6.27840      2.12894        -0.001162      0.004697      0.001162
      0.00338      6.30566      6.30566         0.004772     -0.001737     -0.001737
      4.24592      2.12894      2.12894        -0.004697      0.001162      0.001162
      4.21866      2.10148      6.30566         0.001737     -0.004772     -0.001737
      4.21866      6.30566      2.10148         0.001737     -0.001737     -0.004772
      4.20932      6.31500      6.31500         0.005472     -0.005472     -0.005472
      2.13737      8.38695      2.13737        -0.006798      0.006798     -0.006798
      2.12894      8.39538      6.27840         0.001162     -0.001162      0.004697
      2.12894      4.24592      2.12894         0.001162     -0.004697      0.001162
      2.10148      4.21866      6.30566        -0.004772      0.001737     -0.001737
      6.27840      8.39538      2.12894         0.004697     -0.001162      0.001162
      6.30566      0.00338      6.30566        -0.001737      0.004772     -0.001737
      6.30566      4.21866      2.10148        -0.001737      0.001737     -0.004772
      6.31500      4.20932      6.31500        -0.005472      0.005472     -0.005472
      2.13737      2.13737      8.38695        -0.006798     -0.006798      0.006798
      2.12894      2.12894      4.24592         0.001162      0.001162     -0.004697
      2.12894      6.27840      8.39538         0.001162      0.004697     -0.001162
      2.10148      6.30566      4.21866        -0.004772     -0.001737      0.001737
      6.27840      2.12894      8.39538         0.004697      0.001162     -0.001162
      6.30566      2.10148      4.21866        -0.001737     -0.004772      0.001737
      6.30566      6.30566      0.00338        -0.001737     -0.001737      0.004772
      6.31500      6.31500      4.20932        -0.005472     -0.005472      0.005472
      1.05243      1.05243      1.05243         0.000000     -0.000000     -0.000000
      2.32963      8.19469      8.19469        -0.002901      0.002901      0.002901
      2.10989      8.41443      4.21514         0.002148     -0.002148      0.002166
      2.10989      4.21514      8.41443         0.002148      0.002166     -0.002148
      2.10812      4.24765      4.24765         0.002058      0.002913      0.002913
      6.30918      8.41443      8.41443        -0.002166     -0.002148     -0.002148
      6.27667      8.41620      4.24765        -0.002913     -0.002058      0.002913
      6.27667      4.24765      8.41620        -0.002913      0.002913     -0.002058
      6.31475      4.20957      4.20957        -0.001701      0.001701      0.001701
      2.32963      2.32963      2.32963        -0.002901     -0.002901     -0.002901
      2.10989      2.10989      6.30918         0.002148      0.002148     -0.002166
      2.10989      6.30918      2.10989         0.002148     -0.002166      0.002148
      2.10812      6.27667      6.27667         0.002058     -0.002913     -0.002913
      6.30918      2.10989      2.10989        -0.002166      0.002148      0.002148
      6.27667      2.10812      6.27667        -0.002913      0.002058     -0.002913
      6.27667      6.27667      2.10812        -0.002913     -0.002913      0.002058
      6.31475      6.31475      6.31475        -0.001701     -0.001701     -0.001701
      8.19469      8.19469      2.32963         0.002901      0.002901     -0.002901
      8.41443      8.41443      6.30918        -0.002148     -0.002148     -0.002166
      8.41443      4.21514      2.10989        -0.002148      0.002166      0.002148
      8.41620      4.24765      6.27667        -0.002058      0.002913     -0.002913
      4.21514      8.41443      2.10989         0.002166     -0.002148      0.002148
      4.24765      8.41620      6.27667         0.002913     -0.002058     -0.002913
      4.24765      4.24765      2.10812         0.002913      0.002913      0.002058
      4.20957      4.20957      6.31475         0.001701      0.001701     -0.001701
      8.19469      2.32963      8.19469         0.002901     -0.002901      0.002901
      8.41443      2.10989      4.21514        -0.002148      0.002148      0.002166
      8.41443      6.30918      8.41443        -0.002148     -0.002166     -0.002148
      8.41620      6.27667      4.24765        -0.002058     -0.002913      0.002913
      4.21514      2.10989      8.41443         0.002166      0.002148     -0.002148
      4.24765      2.10812      4.24765         0.002913      0.002058      0.002913
      4.24765      6.27667      8.41620         0.002913     -0.002913     -0.002058
      4.20957      6.31475      4.20957         0.001701     -0.001701      0.001701
 -----------------------------------------------------------------------------------
    total drift:                               -0.000006     -0.000006     -0.000000


--------------------------------------------------------------------------------------------------------



  FREE ENERGIE OF THE ION-ELECTRON SYSTEM (eV)
  ---------------------------------------------------
  free  energy   TOTEN  =      -395.86815463 eV

  energy  without entropy=     -395.79389586  energy(sigma->0) =     -395.83102524
 


--------------------------------------------------------------------------------------------------------


    POTLOK:  cpu time    0.5440: real time    0.5459


--------------------------------------------------------------------------------------------------------




--------------------------------------------------------------------------------------------------------


  
 reached required accuracy - stopping structural energy minimisation
 writing wavefunctions
     LOOP+:  cpu time    4.7440: real time    5.1064
    4ORBIT:  cpu time    0.0000: real time    0.0000
 


 total charge     
 
# of ion       s       p       d       tot
------------------------------------------
    1        0.159   0.189   0.086   0.433
    2        0.158   0.196   0.089   0.443
    3        0.158   0.196   0.089   0.443
    4        0.155   0.190   0.085   0.430
    5        0.158   0.196   0.089   0.443
    6        0.155   0.190   0.085   0.430
    7        0.155   0.190   0.085   0.430
    8        0.152   0.184   0.081   0.417
    9        0.157   0.187   0.084   0.429
   10        0.158   0.196   0.089   0.443
   11        0.158   0.196   0.089   0.443
   12        0.155   0.190   0.085   0.430
   13        0.158   0.196   0.089   0.443
   14        0.155   0.190   0.085   0.430
   15        0.155   0.190   0.085   0.430
   16        0.152   0.184   0.081   0.417
   17        0.157   0.187   0.084   0.429
   18        0.158   0.196   0.089   0.443
   19        0.158   0.196   0.089   0.443
   20        0.155   0.190   0.085   0.430
   21        0.158   0.196   0.089   0.443
   22        0.155   0.190   0.085   0.430
   23        0.155   0.190   0.085   0.430
   24        0.152   0.184   0.081   0.417
   25        0.157   0.187   0.084   0.429
   26        0.158   0.196   0.089   0.443
   27        0.158   0.196   0.089   0.443
   28        0.155   0.190   0.085   0.430
   29        0.158   0.196   0.089   0.443
   30        0.155   0.190   0.085   0.430
   31        0.155   0.190   0.085   0.430
   32        0.152   0.184   0.081   0.417
   33        1.620   3.572   0.000   5.193
   34        1.580   3.543   0.000   5.123
   35        1.564   3.560   0.000   5.124
   36        1.564   3.560   0.000   5.124
   37        1.565   3.571   0.000   5.136
   38        1.563   3.560   0.000   5.124
   39        1.565   3.570   0.000   5.134
   40        1.565   3.570   0.000   5.134
   41        1.564   3.560   0.000   5.124
   42        1.581   3.586   0.000   5.167
   43        1.564   3.560   0.000   5.123
   44        1.564   3.560   0.000   5.123
   45        1.565   3.570   0.000   5.134
   46        1.564   3.560   0.000   5.123
   47        1.565   3.570   0.000   5.134
   48        1.565   3.570   0.000   5.134
   49        1.564   3.560   0.000   5.124
   50        1.580   3.543   0.000   5.123
   51        1.563   3.560   0.000   5.124
   52        1.564   3.560   0.000   5.124
   53        1.565   3.570   0.000   5.134
   54        1.564   3.560   0.000   5.124
   55        1.565   3.570   0.000   5.134
   56        1.565   3.571   0.000   5.136
   57        1.564   3.560   0.000   5.124
   58        1.580   3.543   0.000   5.123
   59        1.564   3.560   0.000   5.124
   60        1.563   3.560   0.000   5.124
   61        1.565   3.570   0.000   5.134
   62        1.564   3.560   0.000   5.124
   63        1.565   3.571   0.000   5.136
   64        1.565   3.570   0.000   5.134
   65        1.564   3.560   0.000   5.124
--------------------------------------------------
tot         56.721 123.707   2.759 183.188
 


 magnetization (x)
 
# of ion       s       p       d       tot
------------------------------------------
    1       -0.001   0.000   0.001   0.000
    2       -0.000   0.000   0.000   0.000
    3       -0.000   0.000   0.000   0.000
    4        0.000   0.000   0.000   0.000
    5       -0.000   0.000   0.000   0.000
    6        0.000   0.000   0.000   0.000
    7        0.000   0.000   0.000   0.000
    8       -0.000  -0.000  -0.000  -0.000
    9        0.001   0.002   0.002   0.004
   10       -0.000   0.000   0.000   0.001
   11       -0.000   0.000   0.000   0.001
   12        0.000   0.000   0.000   0.000
   13       -0.000  -0.000   0.000  -0.000
   14       -0.000   0.000   0.000   0.000
   15       -0.000   0.000   0.000   0.000
   16       -0.000  -0.000  -0.000  -0.000
   17        0.001   0.002   0.002   0.004
   18       -0.000   0.000   0.000   0.001
   19       -0.000  -0.000   0.000  -0.000
   20       -0.000   0.000   0.000   0.000
   21       -0.000   0.000   0.000   0.001
   22        0.000   0.000   0.000   0.000
   23       -0.000   0.000   0.000   0.000
   24       -0.000  -0.000  -0.000  -0.000
   25        0.001   0.002   0.002   0.004
   26       -0.000  -0.000   0.000  -0.000
   27       -0.000   0.000   0.000   0.001
   28       -0.000   0.000   0.000   0.000
   29       -0.000   0.000   0.000   0.001
   30       -0.000   0.000   0.000   0.000
   31        0.000   0.000   0.000   0.000
   32       -0.000  -0.000  -0.000  -0.000
   33        0.003   0.359   0.000   0.363
   34        0.003   0.118   0.000   0.121
   35       -0.000  -0.000   0.000  -0.000
   36       -0.000  -0.000   0.000  -0.000
   37        0.000   0.004   0.000   0.004
   38       -0.000  -0.000   0.000  -0.000
   39        0.000   0.005   0.000   0.005
   40        0.000   0.005   0.000   0.005
   41       -0.000   0.000   0.000   0.000
   42        0.002   0.076   0.000   0.079
   43       -0.000  -0.000   0.000  -0.000
   44       -0.000  -0.000   0.000  -0.000
   45        0.000   0.006   0.000   0.006
   46       -0.000  -0.000   0.000  -0.000
   47        0.000   0.006   0.000   0.006
   48        0.000   0.006   0.000   0.006
   49       -0.000   0.000   0.000   0.000
   50        0.003   0.118   0.000   0.121
   51       -0.000  -0.000   0.000  -0.000
   52       -0.000  -0.000   0.000  -0.000
   53        0.000   0.005   0.000   0.005
   54       -0.000  -0.000   0.000  -0.000
   55        0.000   0.005   0.000   0.005
   56        0.000   0.004   0.000   0.004
   57       -0.000   0.000   0.000   0.000
   58        0.003   0.118   0.000   0.121
   59       -0.000  -0.000   0.000  -0.000
   60       -0.000  -0.000   0.000  -0.000
   61        0.000   0.005   0.000   0.005
   62       -0.000  -0.000   0.000  -0.000
   63        0.000   0.004   0.000   0.004
   64        0.000   0.005   0.000   0.005
   65       -0.000   0.000   0.000   0.000
--------------------------------------------------
tot          0.017   0.851   0.009   0.877
 

 total amount of memory used by VASP MPI-rank0    50657. kBytes
=======================================================================

   base      :      30000. kBytes
   nonlr-proj:       8676. kBytes
   fftplans  :       1007. kBytes
   grid      :       7709. kBytes
   one-center:       1054. kBytes
   wavefun   :       2211. kBytes
 
  
  
 General timing and accounting informations for this job:
 ========================================================
  
                  Total CPU time used (sec):        6.464
                            User time (sec):        6.044
                          System time (sec):        0.420
                         Elapsed time (sec):        7.254
  
                   Maximum memory used (kb):      101092.
                   Average memory used (kb):           0.
  
                          Minor page faults:        29722
                          Major page faults:           10
                 Voluntary context switches:         2095
