 vasp.5.4.1 05Feb16 (build Mar 31 2016 13:39:20) complex                        
  
 executed on           IFC91_ompi date 2018.02.25  13:48:03
 running on   16 total cores
 distrk:  each k-point on   16 cores,    1 groups
 distr:  one band on NCORES_PER_BAND=   4 cores,    4 groups


--------------------------------------------------------------------------------------------------------


 INCAR:
 POTCAR:    PAW_PBE Mg 13Apr2007                  
 POTCAR:    PAW_PBE O 08Apr2002                   
 POTCAR:    PAW_PBE Mg 13Apr2007                  
   VRHFIN =Mg: s2p0                                                             
   LEXCH  = PE                                                                  
   EATOM  =    23.0369 eV,    1.6932 Ry                                         
                                                                                
   TITEL  = PAW_PBE Mg 13Apr2007                                                
   LULTRA =        F    use ultrasoft PP ?                                      
   IUNSCR =        1    unscreen: 0-lin 1-nonlin 2-no                           
   RPACOR =    1.500    partial core radius                                     
   POMASS =   24.305; ZVAL   =    2.000    mass and valenz                      
   RCORE  =    2.000    outmost cutoff radius                                   
   RWIGS  =    2.880; RWIGS  =    1.524    wigner-seitz radius (au A)           
   ENMAX  =  126.143; ENMIN  =   94.607 eV                                      
   RCLOC  =    1.506    cutoff for local pot                                    
   LCOR   =        T    correct aug charges                                     
   LPAW   =        T    paw PP                                                  
   EAUG   =  454.734                                                            
   DEXC   =    0.000                                                            
   RMAX   =    2.045    core radius for proj-oper                               
   RAUG   =    1.300    factor for augmentation sphere                          
   RDEP   =    2.025    radius for radial grids                                 
   RDEPT  =    1.942    core radius for aug-charge                              
                                                                                
   Atomic configuration                                                         
    6 entries                                                                   
     n  l   j            E        occ.                                          
     1  0  0.50     -1259.6230   2.0000                                         
     2  0  0.50       -79.8442   2.0000                                         
     2  1  1.50       -46.6121   6.0000                                         
     3  0  0.50        -4.7055   2.0000                                         
     3  1  0.50        -1.3660   0.0000                                         
     3  2  1.50        -1.3606   0.0000                                         
   Description                                                                  
     l       E           TYP  RCUT    TYP  RCUT                                 
     0     -4.7054661     23  2.000                                             
     0     27.2116520     23  2.000                                             
     1      1.3605826     23  2.000                                             
     1     27.2116520     23  2.000                                             
     2     -1.3605826     23  2.000                                             
  local pseudopotential read in
  partial core-charges read in
  partial kinetic energy density read in
  atomic valenz-charges read in
  non local Contribution for L=           0  read in
    real space projection operators read in
  non local Contribution for L=           0  read in
    real space projection operators read in
  non local Contribution for L=           1  read in
    real space projection operators read in
  non local Contribution for L=           1  read in
    real space projection operators read in
  non local Contribution for L=           2  read in
    real space projection operators read in
    PAW grid and wavefunctions read in
 
   number of l-projection  operators is LMAX  =           5
   number of lm-projection operators is LMMAX =          13
 
 POTCAR:    PAW_PBE O 08Apr2002                   
   VRHFIN =O: s2p4                                                              
   LEXCH  = PE                                                                  
   EATOM  =   432.3788 eV,   31.7789 Ry                                         
                                                                                
   TITEL  = PAW_PBE O 08Apr2002                                                 
   LULTRA =        F    use ultrasoft PP ?                                      
   IUNSCR =        1    unscreen: 0-lin 1-nonlin 2-no                           
   RPACOR =    1.200    partial core radius                                     
   POMASS =   16.000; ZVAL   =    6.000    mass and valenz                      
   RCORE  =    1.520    outmost cutoff radius                                   
   RWIGS  =    1.550; RWIGS  =    0.820    wigner-seitz radius (au A)           
   ENMAX  =  400.000; ENMIN  =  300.000 eV                                      
   ICORE  =        2    local potential                                         
   LCOR   =        T    correct aug charges                                     
   LPAW   =        T    paw PP                                                  
   EAUG   =  605.392                                                            
   DEXC   =    0.000                                                            
   RMAX   =    1.553    core radius for proj-oper                               
   RAUG   =    1.300    factor for augmentation sphere                          
   RDEP   =    1.550    radius for radial grids                                 
   RDEPT  =    1.329    core radius for aug-charge                              
                                                                                
   Atomic configuration                                                         
    4 entries                                                                   
     n  l   j            E        occ.                                          
     1  0  0.50      -514.6923   2.0000                                         
     2  0  0.50       -23.9615   2.0000                                         
     2  1  0.50        -9.0305   4.0000                                         
     3  2  1.50        -9.5241   0.0000                                         
   Description                                                                  
     l       E           TYP  RCUT    TYP  RCUT                                 
     0    -23.9615318     23  1.200                                             
     0     -9.5240782     23  1.200                                             
     1     -9.0304911     23  1.520                                             
     1      8.1634956     23  1.520                                             
     2     -9.5240782      7  1.500                                             
  local pseudopotential read in
  partial core-charges read in
  partial kinetic energy density read in
  kinetic energy density of atom read in
  atomic valenz-charges read in
  non local Contribution for L=           0  read in
    real space projection operators read in
  non local Contribution for L=           0  read in
    real space projection operators read in
  non local Contribution for L=           1  read in
    real space projection operators read in
  non local Contribution for L=           1  read in
    real space projection operators read in
    PAW grid and wavefunctions read in
 
   number of l-projection  operators is LMAX  =           4
   number of lm-projection operators is LMMAX =           8
 
 Optimization of the real space projectors (new method)

 maximal supplied QI-value         = 18.90
 optimisation between [QCUT,QGAM] = [ 10.20, 20.41] = [ 29.16,116.64] Ry 
 Optimized for a Real-space Cutoff    1.30 Angstroem

   l    n(q)    QCUT    max X(q) W(low)/X(q) W(high)/X(q)  e(spline) 
   0      8    10.205    28.265    0.22E-03    0.17E-03    0.53E-07
   0      8    10.205    10.429    0.17E-03    0.15E-03    0.43E-07
   1      7    10.205    13.073    0.71E-04    0.41E-03    0.76E-07
   1      7    10.205     9.625    0.71E-04    0.33E-03    0.63E-07
   2      7    10.205     4.652    0.24E-03    0.41E-03    0.55E-07
 Optimization of the real space projectors (new method)

 maximal supplied QI-value         = 24.76
 optimisation between [QCUT,QGAM] = [ 10.15, 20.30] = [ 28.85,115.39] Ry 
 Optimized for a Real-space Cutoff    1.38 Angstroem

   l    n(q)    QCUT    max X(q) W(low)/X(q) W(high)/X(q)  e(spline) 
   0      8    10.150    20.381    0.22E-03    0.32E-03    0.29E-06
   0      8    10.150    15.268    0.23E-03    0.35E-03    0.30E-06
   1      8    10.150     5.964    0.46E-03    0.53E-03    0.21E-06
   1      8    10.150     5.382    0.38E-03    0.45E-03    0.19E-06
  PAW_PBE Mg 13Apr2007                  :
 energy of atom  1       EATOM=  -23.0369
 kinetic energy error for atom=    0.0001 (will be added to EATOM!!)
  PAW_PBE O 08Apr2002                   :
 energy of atom  2       EATOM= -432.3788
 kinetic energy error for atom=    0.1156 (will be added to EATOM!!)
 
 
 POSCAR: Mg O                                    
  positions in direct lattice
  No initial velocities read in
 exchange correlation table for  LEXCH =        8
   RHO(1)=    0.500       N(1)  =     2000
   RHO(2)=  100.500       N(2)  =     4000
 


--------------------------------------------------------------------------------------------------------


 ion  position               nearest neighbor table
   1  0.000  0.000  0.000-   9 2.12  10 2.12  12 2.12  11 2.12  13 2.12  14 2.12   2 3.00   3 3.00
                             5 3.00   2 3.00   4 3.00   6 3.00   3 3.00   4 3.00   7 3.00   5 3.00
   2  0.000  0.000  0.500-  10 2.12  11 2.12  12 2.12  13 2.12  15 2.12   6 3.00   1 3.00   4 3.00
                             1 3.00   3 3.00   5 3.00   3 3.00   4 3.00   8 3.00   5 3.00   6 3.00
   3  0.000  0.500  0.000-  11 2.12  14 2.12  12 2.12   9 2.12  15 2.12   7 3.00   1 3.00   4 3.00
                             2 3.00   4 3.00   8 3.00   1 3.00   2 3.00   5 3.00   5 3.00   7 3.00
   4  0.000  0.500  0.500-  15 2.12  10 2.12   9 2.12  14 2.12  13 2.12   8 3.00   2 3.00   3 3.00
                             1 3.00   3 3.00   7 3.00   1 3.00   2 3.00   6 3.00   6 3.00   7 3.00
   5  0.500  0.000  0.000-  13 2.12  14 2.12   9 2.12  10 2.12  15 2.12   7 3.00   1 3.00   6 3.00
                             2 3.00   6 3.00   8 3.00   3 3.00   7 3.00   8 3.00   1 3.00   2 3.00
   6  0.500  0.000  0.500-  15 2.12  12 2.12   9 2.12  14 2.12  11 2.12   8 3.00   2 3.00   5 3.00
                             1 3.00   5 3.00   7 3.00   4 3.00   7 3.00   8 3.00   1 3.00   2 3.00
   7  0.500  0.500  0.000-  15 2.12  11 2.12  12 2.12  13 2.12  10 2.12   8 3.00   3 3.00   5 3.00
                             4 3.00   6 3.00   8 3.00   1 3.00   5 3.00   6 3.00   1 3.00   3 3.00
   8  0.500  0.500  0.500-  14 2.12  13 2.12  11 2.12  12 2.12  10 2.12   9 2.12   4 3.00   6 3.00
                             7 3.00   3 3.00   5 3.00   7 3.00   2 3.00   5 3.00   6 3.00   2 3.00
   9  0.250  0.250  0.750-   1 2.12   3 2.12   4 2.12   5 2.12   6 2.12   8 2.12
  10  0.250  0.750  0.250-   1 2.12   2 2.12   4 2.12   5 2.12   7 2.12   8 2.12
  11  0.250  0.750  0.750-   3 2.12   8 2.12   7 2.12   2 2.12   1 2.12   6 2.12
  12  0.750  0.250  0.250-   1 2.12   2 2.12   3 2.12   6 2.12   7 2.12   8 2.12
  13  0.750  0.250  0.750-   5 2.12   8 2.12   7 2.12   2 2.12   4 2.12   1 2.12
  14  0.750  0.750  0.250-   8 2.12   5 2.12   3 2.12   6 2.12   4 2.12   1 2.12
  15  0.750  0.750  0.750-   4 2.12   6 2.12   7 2.12   5 2.12   3 2.12   2 2.12
 
  LATTYP: Found a face centered cubic cell.
 ALAT       =     8.4937860393
  
  Lattice vectors:
  
 A1 = (   0.0000000000,   4.2468930196,   4.2468930196)
 A2 = (   4.2468930196,   0.0000000000,   4.2468930196)
 A3 = (   4.2468930196,   4.2468930196,   0.0000000000)


Analysis of symmetry for initial positions (statically):
=====================================================================
 Subroutine PRICEL returns:
 Original cell was already a primitive cell.
 

 Routine SETGRP: Setting up the symmetry group for a 
 face centered cubic supercell.


 Subroutine GETGRP returns: Found 48 space group operations
 (whereof 24 operations were pure point group operations)
 out of a pool of 48 trial point group operations.


The static configuration has the point symmetry T_d .
 The point group associated with its full space group is O_h .


Analysis of symmetry for dynamics (positions and initial velocities):
=====================================================================
 Subroutine PRICEL returns:
 Original cell was already a primitive cell.
 

 Routine SETGRP: Setting up the symmetry group for a 
 face centered cubic supercell.


 Subroutine GETGRP returns: Found 48 space group operations
 (whereof 24 operations were pure point group operations)
 out of a pool of 48 trial point group operations.


The dynamic configuration has the point symmetry T_d .
 The point group associated with its full space group is O_h .


 Subroutine INISYM returns: Found 48 space group operations
 (whereof 24 operations are pure point group operations),
 and found     1 'primitive' translations

 
 
 KPOINTS: k-point mesh                            

Automatic generation of k-mesh.
Space group operators:
 irot       det(A)        alpha          n_x          n_y          n_z        tau_x        tau_y        tau_z
    1     1.000000     0.000000     1.000000     0.000000     0.000000     0.000000     0.000000     0.000000
    2     1.000000   120.000000    -0.577350    -0.577350    -0.577350     0.000000     0.000000     0.000000
    3     1.000000   120.000000     0.577350     0.577350     0.577350     0.000000     0.000000     0.000000
    4    -1.000000    90.000000     0.000000     0.000000    -1.000000     0.000000     0.000000     0.000000
    5    -1.000000   180.000000     0.000000     0.707107     0.707107     0.000000     0.000000     0.000000
    6    -1.000000    90.000000     0.000000     1.000000     0.000000     0.000000     0.000000     0.000000
    7     1.000000   180.000000     0.000000     0.000000     1.000000     0.000000     0.000000     0.000000
    8     1.000000   120.000000    -0.577350     0.577350     0.577350     0.000000     0.000000     0.000000
    9     1.000000   120.000000    -0.577350     0.577350    -0.577350     0.000000     0.000000     0.000000
   10    -1.000000    90.000000     0.000000     0.000000     1.000000     0.000000     0.000000     0.000000
   11    -1.000000    90.000000    -1.000000     0.000000     0.000000     0.000000     0.000000     0.000000
   12    -1.000000   180.000000     0.707107     0.000000     0.707107     0.000000     0.000000     0.000000
   13     1.000000   120.000000     0.577350    -0.577350     0.577350     0.000000     0.000000     0.000000
   14     1.000000   120.000000    -0.577350    -0.577350     0.577350     0.000000     0.000000     0.000000
   15     1.000000   180.000000     1.000000     0.000000     0.000000     0.000000     0.000000     0.000000
   16    -1.000000    90.000000     0.000000    -1.000000     0.000000     0.000000     0.000000     0.000000
   17    -1.000000   180.000000     0.707107     0.707107     0.000000     0.000000     0.000000     0.000000
   18    -1.000000    90.000000     1.000000     0.000000     0.000000     0.000000     0.000000     0.000000
   19     1.000000   120.000000     0.577350    -0.577350    -0.577350     0.000000     0.000000     0.000000
   20     1.000000   180.000000     0.000000     1.000000     0.000000     0.000000     0.000000     0.000000
   21     1.000000   120.000000     0.577350     0.577350    -0.577350     0.000000     0.000000     0.000000
   22    -1.000000   180.000000     0.000000    -0.707107     0.707107     0.000000     0.000000     0.000000
   23    -1.000000   180.000000     0.707107    -0.707107     0.000000     0.000000     0.000000     0.000000
   24    -1.000000   180.000000     0.707107     0.000000    -0.707107     0.000000     0.000000     0.000000
   25    -1.000000     0.000000     1.000000     0.000000     0.000000     0.500000     0.500000     0.500000
   26    -1.000000   120.000000    -0.577350    -0.577350    -0.577350     0.500000     0.500000     0.500000
   27    -1.000000   120.000000     0.577350     0.577350     0.577350     0.500000     0.500000     0.500000
   28     1.000000    90.000000     0.000000     0.000000    -1.000000     0.500000     0.500000     0.500000
   29     1.000000   180.000000     0.000000     0.707107     0.707107     0.500000     0.500000     0.500000
   30     1.000000    90.000000     0.000000     1.000000     0.000000     0.500000     0.500000     0.500000
   31    -1.000000   180.000000     0.000000     0.000000     1.000000     0.500000     0.500000     0.500000
   32    -1.000000   120.000000    -0.577350     0.577350     0.577350     0.500000     0.500000     0.500000
   33    -1.000000   120.000000    -0.577350     0.577350    -0.577350     0.500000     0.500000     0.500000
   34     1.000000    90.000000     0.000000     0.000000     1.000000     0.500000     0.500000     0.500000
   35     1.000000    90.000000    -1.000000     0.000000     0.000000     0.500000     0.500000     0.500000
   36     1.000000   180.000000     0.707107     0.000000     0.707107     0.500000     0.500000     0.500000
   37    -1.000000   120.000000     0.577350    -0.577350     0.577350     0.500000     0.500000     0.500000
   38    -1.000000   120.000000    -0.577350    -0.577350     0.577350     0.500000     0.500000     0.500000
   39    -1.000000   180.000000     1.000000     0.000000     0.000000     0.500000     0.500000     0.500000
   40     1.000000    90.000000     0.000000    -1.000000     0.000000     0.500000     0.500000     0.500000
   41     1.000000   180.000000     0.707107     0.707107     0.000000     0.500000     0.500000     0.500000
   42     1.000000    90.000000     1.000000     0.000000     0.000000     0.500000     0.500000     0.500000
   43    -1.000000   120.000000     0.577350    -0.577350    -0.577350     0.500000     0.500000     0.500000
   44    -1.000000   180.000000     0.000000     1.000000     0.000000     0.500000     0.500000     0.500000
   45    -1.000000   120.000000     0.577350     0.577350    -0.577350     0.500000     0.500000     0.500000
   46     1.000000   180.000000     0.000000    -0.707107     0.707107     0.500000     0.500000     0.500000
   47     1.000000   180.000000     0.707107    -0.707107     0.000000     0.500000     0.500000     0.500000
   48     1.000000   180.000000     0.707107     0.000000    -0.707107     0.500000     0.500000     0.500000
 
 Subroutine IBZKPT returns following result:
 ===========================================
 
 Found      2 irreducible k-points:
 
 Following reciprocal coordinates:
            Coordinates               Weight
  0.250000  0.250000  0.250000     96.000000
 -0.250000  0.250000  0.250000    288.000000
 
 Following cartesian coordinates:
            Coordinates               Weight
  0.029433  0.029433  0.029433     96.000000
  0.088300 -0.029433 -0.029433    288.000000
 


--------------------------------------------------------------------------------------------------------




 Dimension of arrays:
   k-points           NKPTS =      2   k-points in BZ     NKDIM =      2   number of bands    NBANDS=     36
   number of dos      NEDOS =    301   number of ions     NIONS =     15
   non local maximal  LDIM  =      5   non local SUM 2l+1 LMDIM =     13
   total plane-waves  NPLWV =  27000
   max r-space proj   IRMAX =   1992   max aug-charges    IRDMAX=   7686
   dimension x,y,z NGX =    30 NGY =   30 NGZ =   30
   dimension x,y,z NGXF=    60 NGYF=   60 NGZF=   60
   support grid    NGXF=    60 NGYF=   60 NGZF=   60
   ions per type =               8   7
 NGX,Y,Z   is equivalent  to a cutoff of   8.30,  8.30,  8.30 a.u.
 NGXF,Y,Z  is equivalent  to a cutoff of  16.61, 16.61, 16.61 a.u.


 I would recommend the setting:
   dimension x,y,z NGX =    29 NGY =   29 NGZ =   29
 SYSTEM =  unknown system                          
 POSCAR =  Mg O                                    

 Startparameter for this run:
   NWRITE =      2    write-flag & timer
   PREC   = n         normal or accurate (medium, high low for compatibility)
   ISTART =      0    job   : 0-new  1-cont  2-samecut
   ICHARG =      2    charge: 1-file 2-atom 10-const
   ISPIN  =      1    spin polarized calculation?
   LNONCOLLINEAR =      F non collinear calculations
   LSORBIT =      F    spin-orbit coupling
   INIWAV =      1    electr: 0-lowe 1-rand  2-diag
   LASPH  =      T    aspherical Exc in radial PAW
   METAGGA=      F    non-selfconsistent MetaGGA calc.

 Electronic Relaxation 1
   ENCUT  =  400.0 eV  29.40 Ry    5.42 a.u.   9.79  9.79  9.79*2*pi/ulx,y,z
   ENINI  =  400.0     initial cutoff
   ENAUG  =  605.4 eV  augmentation charge cutoff
   NELM   =    100;   NELMIN=  4; NELMDL= -5     # of ELM steps 
   EDIFF  = 0.1E-05   stopping-criterion for ELM
   LREAL  =      T    real-space projection
   NLSPLINE    = F    spline interpolate recip. space projectors
   LCOMPAT=      F    compatible to vasp.4.4
   GGA_COMPAT  = T    GGA compatible to vasp.4.4-vasp.4.6
   LMAXPAW     = -100 max onsite density
   LMAXMIX     =    2 max onsite mixed and CHGCAR
   VOSKOWN=      0    Vosko Wilk Nusair interpolation
   ROPT   =   -0.00050  -0.00050
 Ionic relaxation
   EDIFFG = -.5E-01   stopping-criterion for IOM
   NSW    =     20    number of steps for IOM
   NBLOCK =      1;   KBLOCK =     20    inner block; outer block 
   IBRION =      2    ionic relax: 0-MD 1-quasi-New 2-CG
   NFREE  =      1    steps in history (QN), initial steepest desc. (CG)
   ISIF   =      2    stress and relaxation
   IWAVPR =     11    prediction:  0-non 1-charg 2-wave 3-comb
   ISYM   =      2    0-nonsym 1-usesym 2-fastsym
   LCORR  =      T    Harris-Foulkes like correction to forces

   POTIM  = 0.5000    time-step for ionic-motion
   TEIN   =    0.0    initial temperature
   TEBEG  =    0.0;   TEEND  =   0.0 temperature during run
   SMASS  =  -3.00    Nose mass-parameter (am)
   estimated Nose-frequenzy (Omega)   =  0.10E-29 period in steps =****** mass=  -0.824E-27a.u.
   SCALEE = 1.0000    scale energy and forces
   NPACO  =    256;   APACO  = 16.0  distance and # of slots for P.C.
   PSTRESS=    0.0 pullay stress

  Mass of Ions in am
   POMASS =  24.30 16.00
  Ionic Valenz
   ZVAL   =   2.00  6.00
  Atomic Wigner-Seitz radii
   RWIGS  =  -1.00 -1.00
  virtual crystal weights 
   VCA    =   1.00  1.00
   NELECT =      56.0000    total number of electrons
   NUPDOWN=      -1.0000    fix difference up-down

 DOS related values:
   EMIN   =  10.00;   EMAX   =-10.00  energy-range for DOS
   EFERMI =   0.00
   ISMEAR =     0;   SIGMA  =   0.05  broadening in eV -4-tet -1-fermi 0-gaus

 Electronic relaxation 2 (details)
   IALGO  =     38    algorithm
   LDIAG  =      T    sub-space diagonalisation (order eigenvalues)
   LSUBROT=      F    optimize rotation matrix (better conditioning)
   TURBO    =      0    0=normal 1=particle mesh
   IRESTART =      0    0=no restart 2=restart with 2 vectors
   NREBOOT  =      0    no. of reboots
   NMIN     =      0    reboot dimension
   EREF     =   0.00    reference energy to select bands
   IMIX   =      4    mixing-type and parameters
     AMIX     =   0.40;   BMIX     =  1.00
     AMIX_MAG =   1.60;   BMIX_MAG =  1.00
     AMIN     =   0.10
     WC   =   100.;   INIMIX=   1;  MIXPRE=   1;  MAXMIX= -45

 Intra band minimization:
   WEIMIN = 0.0010     energy-eigenvalue tresh-hold
   EBREAK =  0.69E-08  absolut break condition
   DEPER  =   0.30     relativ break condition  

   TIME   =   0.40     timestep for ELM

  volume/ion in A,a.u.               =      10.21        68.92
  Fermi-wavevector in a.u.,A,eV,Ry     =   1.170549  2.212016 18.642491  1.370184
  Thomas-Fermi vector in A             =   2.307006
 
 Write flags
   LWAVE  =      F    write WAVECAR
   LCHARG =      F    write CHGCAR
   LVTOT  =      F    write LOCPOT, total local potential
   LVHAR  =      F    write LOCPOT, Hartree potential only
   LELF   =      F    write electronic localiz. function (ELF)
   LORBIT =     12    0 simple, 1 ext, 2 COOP (PROOUT)


 Dipole corrections
   LMONO  =      F    monopole corrections only (constant potential shift)
   LDIPOL =      F    correct potential (dipole corrections)
   IDIPOL =      0    1-x, 2-y, 3-z, 4-all directions 
   EPSILON=  1.0000000 bulk dielectric constant

 Exchange correlation treatment:
   GGA     =    --    GGA type
   LEXCH   =     8    internal setting for exchange type
   VOSKOWN=      0    Vosko Wilk Nusair interpolation
   LHFCALC =     F    Hartree Fock is set to
   LHFONE  =     F    Hartree Fock one center treatment
   AEXX    =    0.0000 exact exchange contribution

 Linear response parameters
   LEPSILON=     F    determine dielectric tensor
   LRPA    =     F    only Hartree local field effects (RPA)
   LNABLA  =     F    use nabla operator in PAW spheres
   LVEL    =     F    velocity operator in full k-point grid
   LINTERFAST=   F  fast interpolation
   KINTER  =     0    interpolate to denser k-point grid
   CSHIFT  =0.1000    complex shift for real part using Kramers Kronig
   OMEGAMAX=  -1.0    maximum frequency
   DEG_THRESHOLD= 0.2000000E-02 threshold for treating states as degnerate
   RTIME   =    0.100 relaxation time in fs

 Orbital magnetization related:
   ORBITALMAG=     F  switch on orbital magnetization
   LCHIMAG   =     F  perturbation theory with respect to B field
   DQ        =  0.001000  dq finite difference perturbation B field



--------------------------------------------------------------------------------------------------------


 conjugate gradient relaxation of ions
 charge density and potential will be updated during run
 non-spin polarized calculation
 Variant of blocked Davidson
 Davidson routine will perform the subspace rotation
 perform sub-space diagonalisation
    after iterative eigenvector-optimisation
 modified Broyden-mixing scheme, WC =      100.0
 initial mixing is a Kerker type mixing with AMIX =  0.4000 and BMIX =      1.0000
 Hartree-type preconditioning will be used
 using additional bands            8
 real space projection scheme for non local part
 use partial core corrections
 calculate Harris-corrections to forces 
   (improved forces if not selfconsistent)
 use gradient corrections 
 use of overlap-Matrix (Vanderbilt PP)
 Gauss-broadening in eV      SIGMA  =   0.05


--------------------------------------------------------------------------------------------------------


  energy-cutoff  :      400.00
  volume of cell :      153.19
      direct lattice vectors                 reciprocal lattice vectors
     0.000000000  4.246893020  4.246893020    -0.117733128  0.117733128  0.117733128
     4.246893020  0.000000000  4.246893020     0.117733128 -0.117733128  0.117733128
     4.246893020  4.246893020  0.000000000     0.117733128  0.117733128 -0.117733128

  length of vectors
     6.006013706  6.006013706  6.006013706     0.203919760  0.203919760  0.203919760


 
 k-points in units of 2pi/SCALE and weight: k-point mesh                            
   0.02943328  0.02943328  0.02943328       0.250
   0.08829985 -0.02943328 -0.02943328       0.750
 
 k-points in reciprocal lattice and weights: k-point mesh                            
   0.25000000  0.25000000  0.25000000       0.250
  -0.25000000  0.25000000  0.25000000       0.750
 
 position of ions in fractional coordinates (direct lattice) 
   0.00000000  0.00000000  0.00000000
   0.00000000  0.00000000  0.50000000
   0.00000000  0.50000000  0.00000000
   0.00000000  0.50000000  0.50000000
   0.50000000  0.00000000  0.00000000
   0.50000000  0.00000000  0.50000000
   0.50000000  0.50000000  0.00000000
   0.50000000  0.50000000  0.50000000
   0.25000000  0.25000000  0.75000000
   0.25000000  0.75000000  0.25000000
   0.25000000  0.75000000  0.75000000
   0.75000000  0.25000000  0.25000000
   0.75000000  0.25000000  0.75000000
   0.75000000  0.75000000  0.25000000
   0.75000000  0.75000000  0.75000000
 
 position of ions in cartesian coordinates  (Angst):
   0.00000000  0.00000000  0.00000000
   2.12344651  2.12344651  0.00000000
   2.12344651  0.00000000  2.12344651
   4.24689302  2.12344651  2.12344651
   0.00000000  2.12344651  2.12344651
   2.12344651  4.24689302  2.12344651
   2.12344651  2.12344651  4.24689302
   4.24689302  4.24689302  4.24689302
   4.24689302  4.24689302  2.12344651
   4.24689302  2.12344651  4.24689302
   6.37033953  4.24689302  4.24689302
   2.12344651  4.24689302  4.24689302
   4.24689302  6.37033953  4.24689302
   4.24689302  4.24689302  6.37033953
   6.37033953  6.37033953  6.37033953
 


--------------------------------------------------------------------------------------------------------


 k-point  1 :   0.2500 0.2500 0.2500  plane waves:    2782
 k-point  2 :  -0.2500 0.2500 0.2500  plane waves:    2788

 maximum and minimum number of plane-waves per node :       700      691

 maximum number of plane-waves:      2788
 maximum index in each direction: 
   IXMAX=   10   IYMAX=    9   IZMAX=    9
   IXMIN=  -10   IYMIN=  -10   IZMIN=  -10

 WARNING: aliasing errors must be expected set NGX to  42 to avoid them
 WARNING: aliasing errors must be expected set NGY to  40 to avoid them
 WARNING: aliasing errors must be expected set NGZ to  40 to avoid them
 aliasing errors are usually negligible using standard VASP settings
 and one can safely disregard these warnings

 real space projection operators:
  total allocation   :       2104.44 KBytes
  max/ min on nodes  :        568.62        483.59


 parallel 3D FFT for wavefunctions:
    minimum data exchange during FFTs selected (reduces bandwidth)
 parallel 3D FFT for charge:
    minimum data exchange during FFTs selected (reduces bandwidth)


 total amount of memory used by VASP on root node    33273. kBytes
========================================================================

   base      :      30000. kBytes
   nonlr-proj:       1204. kBytes
   fftplans  :        706. kBytes
   grid      :       1117. kBytes
   one-center:         32. kBytes
   wavefun   :        214. kBytes
 
     INWAV:  cpu time    0.0000: real time    0.0001
 Broyden mixing: mesh for mixing (old mesh)
   NGX = 19   NGY = 19   NGZ = 19
  (NGX  = 60   NGY  = 60   NGZ  = 60)
  gives a total of   6859 points

 initial charge density was supplied:
 charge density of overlapping atoms calculated
 number of electron      58.0000000 magnetization 
 keeping initial charge density in first step


--------------------------------------------------------------------------------------------------------


 Maximum index for non-local projection operator          527
 Maximum index for augmentation-charges          482 (set IRDMAX)


--------------------------------------------------------------------------------------------------------


 First call to EWALD:  gamma=   0.331
 Maximum number of real-space cells 3x 3x 3
 Maximum number of reciprocal cells 3x 3x 3

 FEWALD executed in parallel
    FEWALD:  cpu time    0.0040: real time    0.0014


----------------------------------------- Iteration    1(   1)  ---------------------------------------


    POTLOK:  cpu time    0.0080: real time    0.0076
    SETDIJ:  cpu time    0.1360: real time    0.1353
     EDDAV:  cpu time    0.0440: real time    0.0455
       DOS:  cpu time    0.0000: real time    0.0001
    --------------------------------------------
      LOOP:  cpu time    0.1880: real time    0.1916

 eigenvalue-minimisations  :   144
 total energy-change (2. order) : 0.2708820E+03  (-0.2403377E+04)
 number of electron      58.0000000 magnetization 
 augmentation part       58.0000000 magnetization 

 Free energy of the ion-electron system (eV)
  ---------------------------------------------------
  alpha Z        PSCENC =       129.53385195
  Ewald energy   TEWEN  =     -2377.95490330
  -Hartree energ DENC   =      -970.18536838
  -exchange      EXHF   =         0.00000000
  -V(xc)+E(xc)   XCENC  =      -192.36529597
  PAW double counting   =      2948.29990038    -2545.98870278
  entropy T*S    EENTRO =        -0.00000002
  eigenvalues    EBANDS =        69.40591069
  atomic energy  EATOM  =      3210.13655998
  Solvation  Ediel_sol  =         0.00000000
  ---------------------------------------------------
  free energy    TOTEN  =       270.88195253 eV

  energy without entropy =      270.88195256  energy(sigma->0) =      270.88195255


--------------------------------------------------------------------------------------------------------




----------------------------------------- Iteration    1(   2)  ---------------------------------------


     EDDAV:  cpu time    0.0440: real time    0.0451
       DOS:  cpu time    0.0040: real time    0.0001
    --------------------------------------------
      LOOP:  cpu time    0.0480: real time    0.0493

 eigenvalue-minimisations  :   192
 total energy-change (2. order) :-0.3509225E+03  (-0.3422702E+03)
 number of electron      58.0000000 magnetization 
 augmentation part       58.0000000 magnetization 

 Free energy of the ion-electron system (eV)
  ---------------------------------------------------
  alpha Z        PSCENC =       129.53385195
  Ewald energy   TEWEN  =     -2377.95490330
  -Hartree energ DENC   =      -970.18536838
  -exchange      EXHF   =         0.00000000
  -V(xc)+E(xc)   XCENC  =      -192.36529597
  PAW double counting   =      2948.29990038    -2545.98870278
  entropy T*S    EENTRO =        -0.00000000
  eigenvalues    EBANDS =      -281.51656213
  atomic energy  EATOM  =      3210.13655998
  Solvation  Ediel_sol  =         0.00000000
  ---------------------------------------------------
  free energy    TOTEN  =       -80.04052026 eV

  energy without entropy =      -80.04052026  energy(sigma->0) =      -80.04052026


--------------------------------------------------------------------------------------------------------




----------------------------------------- Iteration    1(   3)  ---------------------------------------


     EDDAV:  cpu time    0.0400: real time    0.0401
       DOS:  cpu time    0.0000: real time    0.0000
    --------------------------------------------
      LOOP:  cpu time    0.0400: real time    0.0430

 eigenvalue-minimisations  :   160
 total energy-change (2. order) :-0.2431451E+02  (-0.2424666E+02)
 number of electron      58.0000000 magnetization 
 augmentation part       58.0000000 magnetization 

 Free energy of the ion-electron system (eV)
  ---------------------------------------------------
  alpha Z        PSCENC =       129.53385195
  Ewald energy   TEWEN  =     -2377.95490330
  -Hartree energ DENC   =      -970.18536838
  -exchange      EXHF   =         0.00000000
  -V(xc)+E(xc)   XCENC  =      -192.36529597
  PAW double counting   =      2948.29990038    -2545.98870278
  entropy T*S    EENTRO =        -0.00000000
  eigenvalues    EBANDS =      -305.83106929
  atomic energy  EATOM  =      3210.13655998
  Solvation  Ediel_sol  =         0.00000000
  ---------------------------------------------------
  free energy    TOTEN  =      -104.35502742 eV

  energy without entropy =     -104.35502742  energy(sigma->0) =     -104.35502742


--------------------------------------------------------------------------------------------------------




----------------------------------------- Iteration    1(   4)  ---------------------------------------


     EDDAV:  cpu time    0.0440: real time    0.0441
       DOS:  cpu time    0.0000: real time    0.0001
    --------------------------------------------
      LOOP:  cpu time    0.0440: real time    0.0471

 eigenvalue-minimisations  :   176
 total energy-change (2. order) :-0.2225120E+00  (-0.2223268E+00)
 number of electron      58.0000000 magnetization 
 augmentation part       58.0000000 magnetization 

 Free energy of the ion-electron system (eV)
  ---------------------------------------------------
  alpha Z        PSCENC =       129.53385195
  Ewald energy   TEWEN  =     -2377.95490330
  -Hartree energ DENC   =      -970.18536838
  -exchange      EXHF   =         0.00000000
  -V(xc)+E(xc)   XCENC  =      -192.36529597
  PAW double counting   =      2948.29990038    -2545.98870278
  entropy T*S    EENTRO =        -0.00000000
  eigenvalues    EBANDS =      -306.05358129
  atomic energy  EATOM  =      3210.13655998
  Solvation  Ediel_sol  =         0.00000000
  ---------------------------------------------------
  free energy    TOTEN  =      -104.57753942 eV

  energy without entropy =     -104.57753942  energy(sigma->0) =     -104.57753942


--------------------------------------------------------------------------------------------------------




----------------------------------------- Iteration    1(   5)  ---------------------------------------


     EDDAV:  cpu time    0.0400: real time    0.0421
       DOS:  cpu time    0.0000: real time    0.0001
    CHARGE:  cpu time    0.0080: real time    0.0066
    MIXING:  cpu time    0.0000: real time    0.0005
    --------------------------------------------
      LOOP:  cpu time    0.0480: real time    0.0523

 eigenvalue-minimisations  :   172
 total energy-change (2. order) :-0.2137736E-02  (-0.2137500E-02)
 number of electron      55.9999822 magnetization 
 augmentation part        5.5170485 magnetization 

 Broyden mixing:
  rms(total) = 0.18571E+01    rms(broyden)= 0.18493E+01
  rms(prec ) = 0.42614E+01
  weight for this iteration     100.00

 Free energy of the ion-electron system (eV)
  ---------------------------------------------------
  alpha Z        PSCENC =       129.53385195
  Ewald energy   TEWEN  =     -2377.95490330
  -Hartree energ DENC   =      -970.18536838
  -exchange      EXHF   =         0.00000000
  -V(xc)+E(xc)   XCENC  =      -192.36529597
  PAW double counting   =      2948.29990038    -2545.98870278
  entropy T*S    EENTRO =        -0.00000000
  eigenvalues    EBANDS =      -306.05571902
  atomic energy  EATOM  =      3210.13655998
  Solvation  Ediel_sol  =         0.00000000
  ---------------------------------------------------
  free energy    TOTEN  =      -104.57967716 eV

  energy without entropy =     -104.57967716  energy(sigma->0) =     -104.57967716


--------------------------------------------------------------------------------------------------------




----------------------------------------- Iteration    1(   6)  ---------------------------------------


    POTLOK:  cpu time    0.0080: real time    0.0071
    SETDIJ:  cpu time    0.1360: real time    0.1372
     EDDAV:  cpu time    0.0440: real time    0.0451
       DOS:  cpu time    0.0000: real time    0.0003
    CHARGE:  cpu time    0.0040: real time    0.0069
    MIXING:  cpu time    0.0040: real time    0.0003
    --------------------------------------------
      LOOP:  cpu time    0.1960: real time    0.2000

 eigenvalue-minimisations  :   148
 total energy-change (2. order) : 0.1137086E+02  (-0.4926871E+01)
 number of electron      55.9999857 magnetization 
 augmentation part        4.5169024 magnetization 

 Broyden mixing:
  rms(total) = 0.65725E+00    rms(broyden)= 0.65553E+00
  rms(prec ) = 0.11819E+01
  weight for this iteration     100.00

 eigenvalues of (default mixing * dielectric matrix)
  average eigenvalue GAMMA=   0.8354
  0.8354

 Free energy of the ion-electron system (eV)
  ---------------------------------------------------
  alpha Z        PSCENC =       129.53385195
  Ewald energy   TEWEN  =     -2377.95490330
  -Hartree energ DENC   =     -1110.83822477
  -exchange      EXHF   =         0.00000000
  -V(xc)+E(xc)   XCENC  =      -188.99514427
  PAW double counting   =      3462.05131501    -3061.89340552
  entropy T*S    EENTRO =        -0.00000000
  eigenvalues    EBANDS =      -155.24886159
  atomic energy  EATOM  =      3210.13655998
  Solvation  Ediel_sol  =         0.00000000
  ---------------------------------------------------
  free energy    TOTEN  =       -93.20881252 eV

  energy without entropy =      -93.20881252  energy(sigma->0) =      -93.20881252


--------------------------------------------------------------------------------------------------------




----------------------------------------- Iteration    1(   7)  ---------------------------------------


    POTLOK:  cpu time    0.0040: real time    0.0070
    SETDIJ:  cpu time    0.1280: real time    0.1274
     EDDAV:  cpu time    0.0400: real time    0.0397
       DOS:  cpu time    0.0000: real time    0.0001
    CHARGE:  cpu time    0.0080: real time    0.0061
    MIXING:  cpu time    0.0000: real time    0.0003
    --------------------------------------------
      LOOP:  cpu time    0.1800: real time    0.1836

 eigenvalue-minimisations  :   176
 total energy-change (2. order) : 0.5436023E+00  (-0.8033382E-01)
 number of electron      55.9999856 magnetization 
 augmentation part        4.5284608 magnetization 

 Broyden mixing:
  rms(total) = 0.38201E+00    rms(broyden)= 0.38189E+00
  rms(prec ) = 0.71267E+00
  weight for this iteration     100.00

 eigenvalues of (default mixing * dielectric matrix)
  average eigenvalue GAMMA=   1.6486
  0.9913  2.3059

 Free energy of the ion-electron system (eV)
  ---------------------------------------------------
  alpha Z        PSCENC =       129.53385195
  Ewald energy   TEWEN  =     -2377.95490330
  -Hartree energ DENC   =     -1114.80420971
  -exchange      EXHF   =         0.00000000
  -V(xc)+E(xc)   XCENC  =      -188.74033932
  PAW double counting   =      3630.47376649    -3229.93245204
  entropy T*S    EENTRO =        -0.00000000
  eigenvalues    EBANDS =      -151.37748425
  atomic energy  EATOM  =      3210.13655998
  Solvation  Ediel_sol  =         0.00000000
  ---------------------------------------------------
  free energy    TOTEN  =       -92.66521020 eV

  energy without entropy =      -92.66521020  energy(sigma->0) =      -92.66521020


--------------------------------------------------------------------------------------------------------




----------------------------------------- Iteration    1(   8)  ---------------------------------------


    POTLOK:  cpu time    0.0040: real time    0.0068
    SETDIJ:  cpu time    0.1280: real time    0.1269
     EDDAV:  cpu time    0.0400: real time    0.0382
       DOS:  cpu time    0.0000: real time    0.0001
    CHARGE:  cpu time    0.0040: real time    0.0063
    MIXING:  cpu time    0.0000: real time    0.0003
    --------------------------------------------
      LOOP:  cpu time    0.1760: real time    0.1816

 eigenvalue-minimisations  :   176
 total energy-change (2. order) : 0.2467788E+00  (-0.1092226E+00)
 number of electron      55.9999858 magnetization 
 augmentation part        4.4748833 magnetization 

 Broyden mixing:
  rms(total) = 0.17337E+00    rms(broyden)= 0.17327E+00
  rms(prec ) = 0.52375E+00
  weight for this iteration     100.00

 eigenvalues of (default mixing * dielectric matrix)
  average eigenvalue GAMMA=   1.1586
  2.2389  1.0005  0.2364

 Free energy of the ion-electron system (eV)
  ---------------------------------------------------
  alpha Z        PSCENC =       129.53385195
  Ewald energy   TEWEN  =     -2377.95490330
  -Hartree energ DENC   =     -1124.86237279
  -exchange      EXHF   =         0.00000000
  -V(xc)+E(xc)   XCENC  =      -187.95785962
  PAW double counting   =      3881.35279911    -3480.45829821
  entropy T*S    EENTRO =        -0.01562189
  eigenvalues    EBANDS =      -142.19258667
  atomic energy  EATOM  =      3210.13655998
  Solvation  Ediel_sol  =         0.00000000
  ---------------------------------------------------
  free energy    TOTEN  =       -92.41843144 eV

  energy without entropy =      -92.40280955  energy(sigma->0) =      -92.41062049


--------------------------------------------------------------------------------------------------------




----------------------------------------- Iteration    1(   9)  ---------------------------------------


    POTLOK:  cpu time    0.0080: real time    0.0067
    SETDIJ:  cpu time    0.1280: real time    0.1284
     EDDAV:  cpu time    0.0360: real time    0.0365
       DOS:  cpu time    0.0000: real time    0.0001
    CHARGE:  cpu time    0.0080: real time    0.0064
    MIXING:  cpu time    0.0000: real time    0.0004
    --------------------------------------------
      LOOP:  cpu time    0.1800: real time    0.1816

 eigenvalue-minimisations  :   168
 total energy-change (2. order) : 0.1930889E-01  (-0.2365323E-02)
 number of electron      55.9999857 magnetization 
 augmentation part        4.4878046 magnetization 

 Broyden mixing:
  rms(total) = 0.13693E+00    rms(broyden)= 0.13692E+00
  rms(prec ) = 0.40336E+00
  weight for this iteration     100.00

 eigenvalues of (default mixing * dielectric matrix)
  average eigenvalue GAMMA=   1.2376
  2.2834  1.4177  1.0123  0.2370

 Free energy of the ion-electron system (eV)
  ---------------------------------------------------
  alpha Z        PSCENC =       129.53385195
  Ewald energy   TEWEN  =     -2377.95490330
  -Hartree energ DENC   =     -1124.33061841
  -exchange      EXHF   =         0.00000000
  -V(xc)+E(xc)   XCENC  =      -187.98802877
  PAW double counting   =      3875.64917550    -3474.75791961
  entropy T*S    EENTRO =        -0.01892058
  eigenvalues    EBANDS =      -142.66831931
  atomic energy  EATOM  =      3210.13655998
  Solvation  Ediel_sol  =         0.00000000
  ---------------------------------------------------
  free energy    TOTEN  =       -92.39912254 eV

  energy without entropy =      -92.38020196  energy(sigma->0) =      -92.38966225


--------------------------------------------------------------------------------------------------------




----------------------------------------- Iteration    1(  10)  ---------------------------------------


    POTLOK:  cpu time    0.0080: real time    0.0069
    SETDIJ:  cpu time    0.1280: real time    0.1277
     EDDAV:  cpu time    0.0320: real time    0.0351
       DOS:  cpu time    0.0000: real time    0.0001
    CHARGE:  cpu time    0.0080: real time    0.0066
    MIXING:  cpu time    0.0000: real time    0.0004
    --------------------------------------------
      LOOP:  cpu time    0.1760: real time    0.1800

 eigenvalue-minimisations  :   160
 total energy-change (2. order) : 0.1793258E-01  (-0.1290212E-01)
 number of electron      55.9999856 magnetization 
 augmentation part        4.5262101 magnetization 

 Broyden mixing:
  rms(total) = 0.44062E-01    rms(broyden)= 0.43652E-01
  rms(prec ) = 0.85553E-01
  weight for this iteration     100.00

 eigenvalues of (default mixing * dielectric matrix)
  average eigenvalue GAMMA=   1.0663
  2.2955  1.2549  0.9665  0.5178  0.2969

 Free energy of the ion-electron system (eV)
  ---------------------------------------------------
  alpha Z        PSCENC =       129.53385195
  Ewald energy   TEWEN  =     -2377.95490330
  -Hartree energ DENC   =     -1124.04574569
  -exchange      EXHF   =         0.00000000
  -V(xc)+E(xc)   XCENC  =      -187.94480960
  PAW double counting   =      3855.40197060    -3454.54035881
  entropy T*S    EENTRO =        -0.00520247
  eigenvalues    EBANDS =      -142.96255262
  atomic energy  EATOM  =      3210.13655998
  Solvation  Ediel_sol  =         0.00000000
  ---------------------------------------------------
  free energy    TOTEN  =       -92.38118996 eV

  energy without entropy =      -92.37598749  energy(sigma->0) =      -92.37858873


--------------------------------------------------------------------------------------------------------




----------------------------------------- Iteration    1(  11)  ---------------------------------------


    POTLOK:  cpu time    0.0080: real time    0.0068
    SETDIJ:  cpu time    0.1280: real time    0.1271
     EDDAV:  cpu time    0.0360: real time    0.0376
       DOS:  cpu time    0.0000: real time    0.0001
    CHARGE:  cpu time    0.0080: real time    0.0063
    MIXING:  cpu time    0.0000: real time    0.0004
    --------------------------------------------
      LOOP:  cpu time    0.1800: real time    0.1813

 eigenvalue-minimisations  :   176
 total energy-change (2. order) :-0.1089593E-02  (-0.2073337E-02)
 number of electron      55.9999856 magnetization 
 augmentation part        4.5117283 magnetization 

 Broyden mixing:
  rms(total) = 0.47476E-01    rms(broyden)= 0.47451E-01
  rms(prec ) = 0.13896E+00
  weight for this iteration     100.00

 eigenvalues of (default mixing * dielectric matrix)
  average eigenvalue GAMMA=   1.2761
  2.6768  2.0565  1.0329  0.8103  0.8103  0.2699

 Free energy of the ion-electron system (eV)
  ---------------------------------------------------
  alpha Z        PSCENC =       129.53385195
  Ewald energy   TEWEN  =     -2377.95490330
  -Hartree energ DENC   =     -1124.03269886
  -exchange      EXHF   =         0.00000000
  -V(xc)+E(xc)   XCENC  =      -187.93619442
  PAW double counting   =      3856.97179030    -3456.10541063
  entropy T*S    EENTRO =        -0.01554688
  eigenvalues    EBANDS =      -142.97972768
  atomic energy  EATOM  =      3210.13655998
  Solvation  Ediel_sol  =         0.00000000
  ---------------------------------------------------
  free energy    TOTEN  =       -92.38227955 eV

  energy without entropy =      -92.36673267  energy(sigma->0) =      -92.37450611


--------------------------------------------------------------------------------------------------------




----------------------------------------- Iteration    1(  12)  ---------------------------------------


    POTLOK:  cpu time    0.0080: real time    0.0068
    SETDIJ:  cpu time    0.1240: real time    0.1271
     EDDAV:  cpu time    0.0360: real time    0.0362
       DOS:  cpu time    0.0000: real time    0.0001
    CHARGE:  cpu time    0.0080: real time    0.0063
    MIXING:  cpu time    0.0000: real time    0.0004
    --------------------------------------------
      LOOP:  cpu time    0.1760: real time    0.1800

 eigenvalue-minimisations  :   168
 total energy-change (2. order) : 0.1936378E-02  (-0.2967311E-03)
 number of electron      55.9999856 magnetization 
 augmentation part        4.5203034 magnetization 

 Broyden mixing:
  rms(total) = 0.16305E-01    rms(broyden)= 0.16284E-01
  rms(prec ) = 0.44274E-01
  weight for this iteration     100.00

 eigenvalues of (default mixing * dielectric matrix)
  average eigenvalue GAMMA=   1.3319
  2.6940  2.3540  1.1315  1.1315  0.8717  0.8717  0.2691

 Free energy of the ion-electron system (eV)
  ---------------------------------------------------
  alpha Z        PSCENC =       129.53385195
  Ewald energy   TEWEN  =     -2377.95490330
  -Hartree energ DENC   =     -1124.19453762
  -exchange      EXHF   =         0.00000000
  -V(xc)+E(xc)   XCENC  =      -187.86844705
  PAW double counting   =      3845.39263788    -3444.54431677
  entropy T*S    EENTRO =        -0.01094826
  eigenvalues    EBANDS =      -142.87023998
  atomic energy  EATOM  =      3210.13655998
  Solvation  Ediel_sol  =         0.00000000
  ---------------------------------------------------
  free energy    TOTEN  =       -92.38034318 eV

  energy without entropy =      -92.36939491  energy(sigma->0) =      -92.37486904


--------------------------------------------------------------------------------------------------------




----------------------------------------- Iteration    1(  13)  ---------------------------------------


    POTLOK:  cpu time    0.0080: real time    0.0068
    SETDIJ:  cpu time    0.1280: real time    0.1271
     EDDAV:  cpu time    0.0360: real time    0.0373
       DOS:  cpu time    0.0000: real time    0.0001
    CHARGE:  cpu time    0.0080: real time    0.0063
    MIXING:  cpu time    0.0000: real time    0.0004
    --------------------------------------------
      LOOP:  cpu time    0.1800: real time    0.1809

 eigenvalue-minimisations  :   176
 total energy-change (2. order) : 0.2078117E-03  (-0.2298624E-03)
 number of electron      55.9999856 magnetization 
 augmentation part        4.5252329 magnetization 

 Broyden mixing:
  rms(total) = 0.94561E-02    rms(broyden)= 0.94048E-02
  rms(prec ) = 0.20541E-01
  weight for this iteration     100.00

 eigenvalues of (default mixing * dielectric matrix)
  average eigenvalue GAMMA=   1.3516
  2.6300  2.3507  2.0856  0.9734  0.9734  0.7654  0.7654  0.2690

 Free energy of the ion-electron system (eV)
  ---------------------------------------------------
  alpha Z        PSCENC =       129.53385195
  Ewald energy   TEWEN  =     -2377.95490330
  -Hartree energ DENC   =     -1124.15232398
  -exchange      EXHF   =         0.00000000
  -V(xc)+E(xc)   XCENC  =      -187.86722176
  PAW double counting   =      3843.28461691    -3442.43935976
  entropy T*S    EENTRO =        -0.00742582
  eigenvalues    EBANDS =      -142.91392957
  atomic energy  EATOM  =      3210.13655998
  Solvation  Ediel_sol  =         0.00000000
  ---------------------------------------------------
  free energy    TOTEN  =       -92.38013536 eV

  energy without entropy =      -92.37270954  energy(sigma->0) =      -92.37642245


--------------------------------------------------------------------------------------------------------




----------------------------------------- Iteration    1(  14)  ---------------------------------------


    POTLOK:  cpu time    0.0040: real time    0.0067
    SETDIJ:  cpu time    0.1280: real time    0.1270
     EDDAV:  cpu time    0.0360: real time    0.0354
       DOS:  cpu time    0.0000: real time    0.0001
    CHARGE:  cpu time    0.0080: real time    0.0063
    MIXING:  cpu time    0.0000: real time    0.0005
    --------------------------------------------
      LOOP:  cpu time    0.1760: real time    0.1792

 eigenvalue-minimisations  :   164
 total energy-change (2. order) : 0.9228721E-04  (-0.2450908E-04)
 number of electron      55.9999856 magnetization 
 augmentation part        4.5247123 magnetization 

 Broyden mixing:
  rms(total) = 0.34889E-02    rms(broyden)= 0.34886E-02
  rms(prec ) = 0.76807E-02
  weight for this iteration     100.00

 eigenvalues of (default mixing * dielectric matrix)
  average eigenvalue GAMMA=   1.3308
  2.8048  2.4120  1.9902  0.2690  0.8231  0.8231  0.9919  0.9919  0.8714

 Free energy of the ion-electron system (eV)
  ---------------------------------------------------
  alpha Z        PSCENC =       129.53385195
  Ewald energy   TEWEN  =     -2377.95490330
  -Hartree energ DENC   =     -1124.11941851
  -exchange      EXHF   =         0.00000000
  -V(xc)+E(xc)   XCENC  =      -187.87024781
  PAW double counting   =      3843.04104951    -3442.19646423
  entropy T*S    EENTRO =        -0.00808902
  eigenvalues    EBANDS =      -142.94238163
  atomic energy  EATOM  =      3210.13655998
  Solvation  Ediel_sol  =         0.00000000
  ---------------------------------------------------
  free energy    TOTEN  =       -92.38004308 eV

  energy without entropy =      -92.37195406  energy(sigma->0) =      -92.37599857


--------------------------------------------------------------------------------------------------------




----------------------------------------- Iteration    1(  15)  ---------------------------------------


    POTLOK:  cpu time    0.0040: real time    0.0067
    SETDIJ:  cpu time    0.1280: real time    0.1269
     EDDAV:  cpu time    0.0360: real time    0.0350
       DOS:  cpu time    0.0000: real time    0.0001
    CHARGE:  cpu time    0.0080: real time    0.0063
    MIXING:  cpu time    0.0000: real time    0.0005
    --------------------------------------------
      LOOP:  cpu time    0.1760: real time    0.1785

 eigenvalue-minimisations  :   156
 total energy-change (2. order) : 0.9136467E-05  (-0.5753671E-05)
 number of electron      55.9999856 magnetization 
 augmentation part        4.5242809 magnetization 

 Broyden mixing:
  rms(total) = 0.70987E-03    rms(broyden)= 0.70625E-03
  rms(prec ) = 0.20554E-02
  weight for this iteration     100.00

 eigenvalues of (default mixing * dielectric matrix)
  average eigenvalue GAMMA=   1.4165
  2.6317  2.3956  2.3956  1.8635  0.2690  0.8279  0.8279  0.9899  0.9899  0.9743

 Free energy of the ion-electron system (eV)
  ---------------------------------------------------
  alpha Z        PSCENC =       129.53385195
  Ewald energy   TEWEN  =     -2377.95490330
  -Hartree energ DENC   =     -1124.13840133
  -exchange      EXHF   =         0.00000000
  -V(xc)+E(xc)   XCENC  =      -187.86886486
  PAW double counting   =      3842.75427027    -3441.91084598
  entropy T*S    EENTRO =        -0.00833136
  eigenvalues    EBANDS =      -142.92336932
  atomic energy  EATOM  =      3210.13655998
  Solvation  Ediel_sol  =         0.00000000
  ---------------------------------------------------
  free energy    TOTEN  =       -92.38003394 eV

  energy without entropy =      -92.37170258  energy(sigma->0) =      -92.37586826


--------------------------------------------------------------------------------------------------------




----------------------------------------- Iteration    1(  16)  ---------------------------------------


    POTLOK:  cpu time    0.0040: real time    0.0067
    SETDIJ:  cpu time    0.1280: real time    0.1269
     EDDAV:  cpu time    0.0320: real time    0.0294
       DOS:  cpu time    0.0000: real time    0.0001
    --------------------------------------------
      LOOP:  cpu time    0.1640: real time    0.1660

 eigenvalue-minimisations  :   124
 total energy-change (2. order) :-0.7184567E-06  (-0.1143247E-06)
 number of electron      55.9999856 magnetization 
 augmentation part        4.5242809 magnetization 

 Free energy of the ion-electron system (eV)
  ---------------------------------------------------
  alpha Z        PSCENC =       129.53385195
  Ewald energy   TEWEN  =     -2377.95490330
  -Hartree energ DENC   =     -1124.12932903
  -exchange      EXHF   =         0.00000000
  -V(xc)+E(xc)   XCENC  =      -187.86961437
  PAW double counting   =      3842.64452275    -3441.80121630
  entropy T*S    EENTRO =        -0.00829654
  eigenvalues    EBANDS =      -142.93160980
  atomic energy  EATOM  =      3210.13655998
  Solvation  Ediel_sol  =         0.00000000
  ---------------------------------------------------
  free energy    TOTEN  =       -92.38003466 eV

  energy without entropy =      -92.37173812  energy(sigma->0) =      -92.37588639


--------------------------------------------------------------------------------------------------------




 average (electrostatic) potential at core
  the test charge radii are     1.0714  0.7215
  (the norm of the test charge is              1.0000)
       1 -34.7552       2 -35.5856       3 -35.5856       4 -35.5856       5 -35.5856
       6 -35.5856       7 -35.5856       8 -34.7552       9 -70.2630      10 -70.2630
      11 -70.2630      12 -70.2630      13 -70.2630      14 -70.2630      15 -69.2232
 
 
 
 E-fermi :   3.0160     XC(G=0): -10.4797     alpha+bet :-12.2710


 k-point     1 :       0.2500    0.2500    0.2500
  band No.  band energies     occupation 
      1     -13.9591      2.00000
      2     -13.2779      2.00000
      3     -13.1009      2.00000
      4     -13.1009      2.00000
      5     -12.9321      2.00000
      6     -12.9321      2.00000
      7     -12.1552      2.00000
      8      -1.3232      2.00000
      9      -1.0744      2.00000
     10      -0.9688      2.00000
     11      -0.9688      2.00000
     12      -0.6750      2.00000
     13      -0.5658      2.00000
     14      -0.5658      2.00000
     15       1.1067      2.00000
     16       1.1067      2.00000
     17       1.3176      2.00000
     18       1.4729      2.00000
     19       1.7405      2.00000
     20       1.7405      2.00000
     21       2.0602      2.00000
     22       2.0631      2.00000
     23       2.0631      2.00000
     24       2.2248      2.00000
     25       2.2248      2.00000
     26       2.3114      2.00000
     27       2.9627      1.86841
     28       2.9627      1.86841
     29       3.0556      0.26318
     30       8.3719      0.00000
     31       9.6883      0.00000
     32       9.6883      0.00000
     33       9.9443      0.00000
     34      11.4726      0.00000
     35      11.4726      0.00000
     36      11.5460      0.00000

 k-point     2 :      -0.2500    0.2500    0.2500
  band No.  band energies     occupation 
      1     -13.6701      2.00000
      2     -13.4334      2.00000
      3     -13.1721      2.00000
      4     -13.1439      2.00000
      5     -13.0338      2.00000
      6     -12.8971      2.00000
      7     -12.1814      2.00000
      8      -1.4386      2.00000
      9      -0.5861      2.00000
     10      -0.4256      2.00000
     11      -0.2852      2.00000
     12      -0.2234      2.00000
     13      -0.1961      2.00000
     14       0.0382      2.00000
     15       0.4709      2.00000
     16       0.5746      2.00000
     17       0.7211      2.00000
     18       0.9958      2.00000
     19       1.1587      2.00000
     20       1.4291      2.00000
     21       1.6159      2.00000
     22       1.9109      2.00000
     23       1.9729      2.00000
     24       2.0842      2.00000
     25       2.1685      2.00000
     26       2.2163      2.00000
     27       2.6535      2.00000
     28       2.7984      2.00000
     29       4.0264      0.00000
     30       7.6744      0.00000
     31       8.5996      0.00000
     32       9.0201      0.00000
     33      11.3140      0.00000
     34      12.0070      0.00000
     35      12.4456      0.00000
     36      13.0134      0.00000


--------------------------------------------------------------------------------------------------------


 soft charge-density along one line, spin component           1
         0         1         2         3         4         5         6         7         8         9
 total charge-density along one line
 
 pseudopotential strength for first ion, spin component:           1
  2.967   9.417  -0.000  -0.000  -0.000  -0.000  -0.000  -0.000
  9.417  29.740  -0.000  -0.000  -0.000  -0.000  -0.000  -0.000
 -0.000  -0.000   7.310  -0.000  -0.000  10.568  -0.000  -0.000
 -0.000  -0.000  -0.000   7.310  -0.000  -0.000  10.568  -0.000
 -0.000  -0.000  -0.000  -0.000   7.310  -0.000  -0.000  10.568
 -0.000  -0.000  10.568  -0.000  -0.000  14.506  -0.000  -0.000
 -0.000  -0.000  -0.000  10.568  -0.000  -0.000  14.506  -0.000
 -0.000  -0.000  -0.000  -0.000  10.568  -0.000  -0.000  14.506
 -0.000  -0.000  -0.000   0.000  -0.000  -0.000   0.000  -0.000
 -0.000  -0.000  -0.000  -0.000   0.000  -0.000  -0.000   0.000
 -0.000  -0.000  -0.000   0.000  -0.000  -0.000   0.000  -0.000
 -0.000  -0.000   0.000  -0.000  -0.000   0.000  -0.000  -0.000
  0.000   0.000   0.000  -0.000  -0.000   0.000  -0.000  -0.000
 total augmentation occupancy for first ion, spin component:           1
  0.931  -0.044   0.000   0.000   0.000   0.000   0.000   0.000   0.000   0.000   0.000   0.000   0.000
 -0.044   0.002   0.000   0.000   0.000   0.000   0.000   0.000   0.000   0.000   0.000   0.000   0.000
  0.000   0.000   0.108   0.000   0.000  -0.012   0.000   0.000  -0.000   0.000   0.000  -0.000  -0.000
  0.000   0.000   0.000   0.108   0.000  -0.000  -0.012  -0.000  -0.000  -0.000  -0.000  -0.000   0.000
  0.000   0.000   0.000  -0.000   0.108   0.000  -0.000  -0.012  -0.000  -0.000   0.000  -0.000  -0.000
  0.000   0.000  -0.012   0.000   0.000   0.001  -0.000   0.000  -0.000   0.000   0.000  -0.000   0.000
  0.000   0.000   0.000  -0.012   0.000  -0.000   0.001   0.000  -0.000   0.000   0.000   0.000   0.000
  0.000   0.000   0.000   0.000  -0.012   0.000   0.000   0.001   0.000  -0.000   0.000   0.000   0.000
  0.000   0.000  -0.000  -0.000  -0.000  -0.000  -0.000   0.000   0.011   0.000   0.000   0.000  -0.000
  0.000   0.000   0.000  -0.000  -0.000   0.000   0.000  -0.000   0.000   0.011   0.000   0.000  -0.000
 -0.000   0.000   0.000  -0.000   0.000   0.000   0.000   0.000   0.000  -0.000   0.046  -0.000   0.000
  0.000   0.000  -0.000  -0.000  -0.000  -0.000   0.000   0.000   0.000   0.000  -0.000   0.011  -0.000
  0.000   0.000  -0.000  -0.000   0.000   0.000  -0.000  -0.000   0.000   0.000   0.000   0.000   0.046


------------------------ aborting loop because EDIFF is reached ----------------------------------------


 


 total charge     
 
# of ion     s       p       d       tot
----------------------------------------
  1        0.134   0.160   0.069   0.363
  2        0.146   0.152   0.059   0.357
  3        0.146   0.152   0.059   0.357
  4        0.139   0.149   0.061   0.348
  5        0.139   0.149   0.061   0.348
  6        0.146   0.152   0.059   0.357
  7        0.146   0.152   0.059   0.357
  8        0.134   0.160   0.069   0.363
  9        1.571   3.504   0.000   5.075
 10        1.571   3.504   0.000   5.075
 11        1.575   3.479   0.000   5.054
 12        1.571   3.477   0.000   5.048
 13        1.570   3.498   0.000   5.067
 14        1.570   3.498   0.000   5.067
 15        1.565   3.515   0.000   5.080
------------------------------------------------
tot       12.126  25.698   0.494  38.318
 
    CHARGE:  cpu time    0.0080: real time    0.0063
    FORLOC:  cpu time    0.0000: real time    0.0012
    FORNL :  cpu time    0.0160: real time    0.0175
    STRESS:  cpu time    0.0520: real time    0.0529
    FORCOR:  cpu time    0.0080: real time    0.0078
    FORHAR:  cpu time    0.0040: real time    0.0024
    MIXING:  cpu time    0.0000: real time    0.0006
    OFIELD:  cpu time    0.0000: real time    0.0000

  FORCE on cell =-STRESS in cart. coord.  units (eV):
  Direction    XX          YY          ZZ          XY          YZ          ZX
  --------------------------------------------------------------------------------------
  Alpha Z   129.53385   129.53385   129.53385
  Ewald    -792.65326  -792.65326  -792.65326    -0.00000     0.00000    -0.00000
  Hartree   374.74969   374.74969   374.74969     0.00000     0.00000     0.00000
  E(xc)    -251.83535  -251.83535  -251.83535    -0.00069    -0.00069    -0.00069
  Local    -377.87010  -377.87010  -377.87009     0.00652     0.00652     0.00652
  n-local  -124.79017  -127.41689  -127.41689    -0.14286     0.76436    -0.14276
  augment    46.87814    46.87814    46.87814     0.00002     0.00002     0.00002
  Kinetic   973.28470   983.17950   983.17951     2.44273    -7.25400     2.44273
  Fock        0.00000     0.00000     0.00000     0.00000     0.00000     0.00000
  -------------------------------------------------------------------------------------
  Total     -17.85709   -17.85709   -17.85709     0.00000     0.00000    -0.00000
  in kB    -186.75722  -186.75722  -186.75722     0.00000     0.00000    -0.00000
  external pressure =     -186.76 kB  Pullay stress =        0.00 kB


 VOLUME and BASIS-vectors are now :
 -----------------------------------------------------------------------------
  energy-cutoff  :      400.00
  volume of cell :      153.19
      direct lattice vectors                 reciprocal lattice vectors
     0.000000000  4.246893020  4.246893020    -0.117733128  0.117733128  0.117733128
     4.246893020  0.000000000  4.246893020     0.117733128 -0.117733128  0.117733128
     4.246893020  4.246893020  0.000000000     0.117733128  0.117733128 -0.117733128

  length of vectors
     6.006013706  6.006013706  6.006013706     0.203919760  0.203919760  0.203919760


 FORCES acting on ions
    electron-ion (+dipol)            ewald-force                    non-local-force                 convergence-correction
 -----------------------------------------------------------------------------------------------
   -.484E-06 -.484E-06 -.353E-06   -.107E-13 -.178E-13 -.134E-13   -.108E-18 -.813E-19 -.108E-18   0.217E-07 0.217E-07 0.217E-07
   -.162E-04 -.162E-04 -.340E+02   0.186E-13 0.648E-14 0.297E+02   -.520E-17 0.000E+00 0.124E+01   -.746E-07 -.746E-07 0.598E-02
   -.162E-04 -.340E+02 -.163E-04   0.153E-13 0.297E+02 0.115E-13   0.000E+00 0.124E+01 -.694E-17   -.746E-07 0.598E-02 -.746E-07
   0.340E+02 0.162E-04 0.163E-04   -.297E+02 0.778E-14 0.858E-14   -.124E+01 0.173E-17 0.347E-17   -.598E-02 0.746E-07 0.746E-07
   -.340E+02 -.162E-04 -.163E-04   0.297E+02 0.846E-14 0.946E-14   0.124E+01 0.347E-17 0.520E-17   0.598E-02 -.746E-07 -.746E-07
   0.162E-04 0.340E+02 0.163E-04   0.151E-13 -.297E+02 0.867E-14   -.347E-17 -.124E+01 0.347E-17   0.746E-07 -.598E-02 0.746E-07
   0.162E-04 0.162E-04 0.340E+02   0.145E-13 0.971E-14 -.297E+02   0.694E-17 0.000E+00 -.124E+01   0.746E-07 0.746E-07 -.598E-02
   0.484E-06 0.484E-06 0.353E-06   -.793E-14 -.152E-13 -.102E-13   0.108E-18 0.813E-19 0.949E-19   -.217E-07 -.217E-07 -.217E-07
   -.191E-10 -.190E-10 -.153E-10   -.383E-13 -.283E-13 -.287E-12   -.869E-23 0.112E-22 0.662E-23   -.239E-14 -.292E-13 0.986E-13
   -.186E-10 -.244E-10 -.152E-10   0.121E-12 -.286E-12 -.320E-13   0.662E-23 0.199E-22 -.298E-22   0.167E-13 0.111E-12 0.207E-14
   0.248E-10 -.165E-10 0.276E-10   0.370E-12 -.112E-12 -.463E-13   0.331E-23 0.000E+00 0.165E-22   -.114E-12 -.771E-15 0.325E-13
   -.216E-10 -.172E-10 -.157E-10   -.294E-12 0.132E-12 -.350E-13   -.662E-23 0.199E-22 -.662E-23   0.109E-12 0.178E-13 0.253E-13
   -.194E-10 0.220E-10 0.285E-10   -.120E-12 0.376E-12 -.537E-13   0.496E-23 0.331E-23 0.827E-23   0.106E-13 -.125E-12 0.403E-13
   0.124E-10 0.104E-10 0.606E-10   0.249E-13 0.336E-13 0.405E-12   0.141E-22 0.356E-22 -.331E-23   0.527E-13 0.325E-13 -.742E-13
   0.555E-10 0.555E-10 0.597E-10   -.874E-13 -.834E-13 0.812E-13   0.119E-23 0.362E-24 0.827E-24   -.367E-13 -.495E-13 0.406E-14
 -----------------------------------------------------------------------------------------------
   0.203E-10 0.170E-10 0.147E-09   -.239E-14 -.232E-14 0.151E-13   0.670E-15 0.666E-15 0.888E-15   0.362E-13 -.432E-13 0.128E-12
 
 
 POSITION                                       TOTAL-FORCE (eV/Angst)
 -----------------------------------------------------------------------------------
      0.00000      0.00000      0.00000         0.000000      0.000000      0.000000
      2.12345      2.12345      0.00000         0.000000      0.000000     -3.059971
      2.12345      0.00000      2.12345         0.000000     -3.059971      0.000000
      4.24689      2.12345      2.12345         3.059971      0.000000      0.000000
      0.00000      2.12345      2.12345        -3.059971      0.000000      0.000000
      2.12345      4.24689      2.12345         0.000000      3.059971      0.000000
      2.12345      2.12345      4.24689         0.000000      0.000000      3.059971
      4.24689      4.24689      4.24689         0.000000      0.000000      0.000000
      4.24689      4.24689      2.12345         0.000000      0.000000      0.000000
      4.24689      2.12345      4.24689         0.000000      0.000000      0.000000
      6.37034      4.24689      4.24689         0.000000      0.000000      0.000000
      2.12345      4.24689      4.24689         0.000000      0.000000      0.000000
      4.24689      6.37034      4.24689         0.000000      0.000000      0.000000
      4.24689      4.24689      6.37034         0.000000      0.000000      0.000000
      6.37034      6.37034      6.37034         0.000000      0.000000      0.000000
 -----------------------------------------------------------------------------------
    total drift:                                0.000000      0.000000      0.000000


--------------------------------------------------------------------------------------------------------



  FREE ENERGIE OF THE ION-ELECTRON SYSTEM (eV)
  ---------------------------------------------------
  free  energy   TOTEN  =       -92.38003466 eV

  energy  without entropy=      -92.37173812  energy(sigma->0) =      -92.37588639
 


--------------------------------------------------------------------------------------------------------


    POTLOK:  cpu time    0.1360: real time    0.1369


--------------------------------------------------------------------------------------------------------




--------------------------------------------------------------------------------------------------------


    WAVPRE:  cpu time    0.0040: real time    0.0032
 FEWALD executed in parallel
    FEWALD:  cpu time    0.0000: real time    0.0006

 real space projection operators:
  total allocation   :       2129.42 KBytes
  max/ min on nodes  :        573.80        490.91

    ORTHCH:  cpu time    0.0040: real time    0.0062
     LOOP+:  cpu time    2.6920: real time    2.7511


----------------------------------------- Iteration    2(   1)  ---------------------------------------


    POTLOK:  cpu time    0.0120: real time    0.0091
    SETDIJ:  cpu time    0.1280: real time    0.1289
     EDDAV:  cpu time    0.0400: real time    0.0418
       DOS:  cpu time    0.0000: real time    0.0001
    CHARGE:  cpu time    0.0080: real time    0.0064
    MIXING:  cpu time    0.0000: real time    0.0003
    --------------------------------------------
      LOOP:  cpu time    0.1880: real time    0.1882

 eigenvalue-minimisations  :   160
 total energy-change (2. order) :-0.1382499E+01  (-0.7764157E+00)
 number of electron      55.9999853 magnetization 
 augmentation part        4.6088026 magnetization 

 Broyden mixing:
  rms(total) = 0.11784E+00    rms(broyden)= 0.11699E+00
  rms(prec ) = 0.25798E+00
  weight for this iteration     100.00

 Free energy of the ion-electron system (eV)
  ---------------------------------------------------
  alpha Z        PSCENC =       129.53385195
  Ewald energy   TEWEN  =     -2349.24849686
  -Hartree energ DENC   =     -1142.97133513
  -exchange      EXHF   =         0.00000000
  -V(xc)+E(xc)   XCENC  =      -187.45076572
  PAW double counting   =      3842.69104052    -3441.84794582
  entropy T*S    EENTRO =        -0.00000000
  eigenvalues    EBANDS =      -154.60544172
  atomic energy  EATOM  =      3210.13655998
  Solvation  Ediel_sol  =         0.00000000
  ---------------------------------------------------
  free energy    TOTEN  =       -93.76253280 eV

  energy without entropy =      -93.76253280  energy(sigma->0) =      -93.76253280


--------------------------------------------------------------------------------------------------------




----------------------------------------- Iteration    2(   2)  ---------------------------------------


    POTLOK:  cpu time    0.0080: real time    0.0073
    SETDIJ:  cpu time    0.1240: real time    0.1271
     EDDAV:  cpu time    0.0440: real time    0.0439
       DOS:  cpu time    0.0000: real time    0.0001
    CHARGE:  cpu time    0.0080: real time    0.0063
    MIXING:  cpu time    0.0000: real time    0.0003
    --------------------------------------------
      LOOP:  cpu time    0.1840: real time    0.1879

 eigenvalue-minimisations  :   184
 total energy-change (2. order) :-0.1094373E-01  (-0.5495291E-01)
 number of electron      55.9999855 magnetization 
 augmentation part        4.5746702 magnetization 

 Broyden mixing:
  rms(total) = 0.93656E-01    rms(broyden)= 0.93496E-01
  rms(prec ) = 0.17304E+00
  weight for this iteration     100.00

 eigenvalues of (default mixing * dielectric matrix)
  average eigenvalue GAMMA=   0.7085
  0.7085

 Free energy of the ion-electron system (eV)
  ---------------------------------------------------
  alpha Z        PSCENC =       129.53385195
  Ewald energy   TEWEN  =     -2349.24849686
  -Hartree energ DENC   =     -1148.28430038
  -exchange      EXHF   =         0.00000000
  -V(xc)+E(xc)   XCENC  =      -187.05565730
  PAW double counting   =      3868.73098184    -3467.99079804
  entropy T*S    EENTRO =        -0.00000000
  eigenvalues    EBANDS =      -149.59561772
  atomic energy  EATOM  =      3210.13655998
  Solvation  Ediel_sol  =         0.00000000
  ---------------------------------------------------
  free energy    TOTEN  =       -93.77347653 eV

  energy without entropy =      -93.77347653  energy(sigma->0) =      -93.77347653


--------------------------------------------------------------------------------------------------------




----------------------------------------- Iteration    2(   3)  ---------------------------------------


    POTLOK:  cpu time    0.0080: real time    0.0071
    SETDIJ:  cpu time    0.1280: real time    0.1276
     EDDAV:  cpu time    0.0400: real time    0.0399
       DOS:  cpu time    0.0000: real time    0.0001
    CHARGE:  cpu time    0.0040: real time    0.0064
    MIXING:  cpu time    0.0000: real time    0.0003
    --------------------------------------------
      LOOP:  cpu time    0.1800: real time    0.1842

 eigenvalue-minimisations  :   184
 total energy-change (2. order) : 0.1253523E-01  (-0.2791440E-02)
 number of electron      55.9999855 magnetization 
 augmentation part        4.5741927 magnetization 

 Broyden mixing:
  rms(total) = 0.45240E-01    rms(broyden)= 0.45221E-01
  rms(prec ) = 0.93415E-01
  weight for this iteration     100.00

 eigenvalues of (default mixing * dielectric matrix)
  average eigenvalue GAMMA=   1.3193
  0.8623  1.7762

 Free energy of the ion-electron system (eV)
  ---------------------------------------------------
  alpha Z        PSCENC =       129.53385195
  Ewald energy   TEWEN  =     -2349.24849686
  -Hartree energ DENC   =     -1148.27900508
  -exchange      EXHF   =         0.00000000
  -V(xc)+E(xc)   XCENC  =      -187.03040440
  PAW double counting   =      3876.42377164    -3475.69121019
  entropy T*S    EENTRO =        -0.00000000
  eigenvalues    EBANDS =      -149.60600833
  atomic energy  EATOM  =      3210.13655998
  Solvation  Ediel_sol  =         0.00000000
  ---------------------------------------------------
  free energy    TOTEN  =       -93.76094130 eV

  energy without entropy =      -93.76094130  energy(sigma->0) =      -93.76094130


--------------------------------------------------------------------------------------------------------




----------------------------------------- Iteration    2(   4)  ---------------------------------------


    POTLOK:  cpu time    0.0040: real time    0.0068
    SETDIJ:  cpu time    0.1280: real time    0.1269
     EDDAV:  cpu time    0.0360: real time    0.0367
       DOS:  cpu time    0.0000: real time    0.0001
    CHARGE:  cpu time    0.0080: real time    0.0063
    MIXING:  cpu time    0.0000: real time    0.0003
    --------------------------------------------
      LOOP:  cpu time    0.1800: real time    0.1802

 eigenvalue-minimisations  :   168
 total energy-change (2. order) : 0.3241929E-02  (-0.2030770E-02)
 number of electron      55.9999855 magnetization 
 augmentation part        4.5751940 magnetization 

 Broyden mixing:
  rms(total) = 0.19999E-01    rms(broyden)= 0.19973E-01
  rms(prec ) = 0.44530E-01
  weight for this iteration     100.00

 eigenvalues of (default mixing * dielectric matrix)
  average eigenvalue GAMMA=   1.5958
  2.6397  1.0739  1.0739

 Free energy of the ion-electron system (eV)
  ---------------------------------------------------
  alpha Z        PSCENC =       129.53385195
  Ewald energy   TEWEN  =     -2349.24849686
[...]
  alpha Z        PSCENC =       129.53385195
  Ewald energy   TEWEN  =     -2351.61486547
  -Hartree energ DENC   =     -1146.51665892
  -exchange      EXHF   =         0.00000000
  -V(xc)+E(xc)   XCENC  =      -187.03005994
  PAW double counting   =      3886.84427953    -3486.12099817
  entropy T*S    EENTRO =        -0.00000000
  eigenvalues    EBANDS =      -149.00115172
  atomic energy  EATOM  =      3210.13655998
  Solvation  Ediel_sol  =         0.00000000
  ---------------------------------------------------
  free energy    TOTEN  =       -93.76904276 eV

  energy without entropy =      -93.76904276  energy(sigma->0) =      -93.76904276


--------------------------------------------------------------------------------------------------------




----------------------------------------- Iteration    3(   6)  ---------------------------------------


    POTLOK:  cpu time    0.0040: real time    0.0067
    SETDIJ:  cpu time    0.1280: real time    0.1274
     EDDAV:  cpu time    0.0360: real time    0.0354
       DOS:  cpu time    0.0000: real time    0.0001
    CHARGE:  cpu time    0.0080: real time    0.0066
    MIXING:  cpu time    0.0000: real time    0.0004
    --------------------------------------------
      LOOP:  cpu time    0.1760: real time    0.1794

 eigenvalue-minimisations  :   160
 total energy-change (2. order) :-0.4642979E-05  (-0.4553802E-05)
 number of electron      55.9999855 magnetization 
 augmentation part        4.5712490 magnetization 

 Broyden mixing:
  rms(total) = 0.32087E-03    rms(broyden)= 0.31978E-03
  rms(prec ) = 0.57953E-03
  weight for this iteration     100.00

 eigenvalues of (default mixing * dielectric matrix)
  average eigenvalue GAMMA=   1.5562
  3.0564  1.7681  0.9223  1.0170  1.0170

 Free energy of the ion-electron system (eV)
  ---------------------------------------------------
  alpha Z        PSCENC =       129.53385195
  Ewald energy   TEWEN  =     -2351.61486547
  -Hartree energ DENC   =     -1146.52591060
  -exchange      EXHF   =         0.00000000
  -V(xc)+E(xc)   XCENC  =      -187.03081246
  PAW double counting   =      3886.74342257    -3486.01976524
  entropy T*S    EENTRO =        -0.00000000
  eigenvalues    EBANDS =      -148.99152813
  atomic energy  EATOM  =      3210.13655998
  Solvation  Ediel_sol  =         0.00000000
  ---------------------------------------------------
  free energy    TOTEN  =       -93.76904740 eV

  energy without entropy =      -93.76904740  energy(sigma->0) =      -93.76904740


--------------------------------------------------------------------------------------------------------




----------------------------------------- Iteration    3(   7)  ---------------------------------------


    POTLOK:  cpu time    0.0080: real time    0.0068
    SETDIJ:  cpu time    0.1240: real time    0.1271
     EDDAV:  cpu time    0.0320: real time    0.0299
       DOS:  cpu time    0.0000: real time    0.0000
    --------------------------------------------
      LOOP:  cpu time    0.1640: real time    0.1667

 eigenvalue-minimisations  :   128
 total energy-change (2. order) : 0.2062393E-06  (-0.9660896E-07)
 number of electron      55.9999855 magnetization 
 augmentation part        4.5712490 magnetization 

 Free energy of the ion-electron system (eV)
  ---------------------------------------------------
  alpha Z        PSCENC =       129.53385195
  Ewald energy   TEWEN  =     -2351.61486547
  -Hartree energ DENC   =     -1146.53387539
  -exchange      EXHF   =         0.00000000
  -V(xc)+E(xc)   XCENC  =      -187.03049075
  PAW double counting   =      3886.80649958    -3486.08304508
  entropy T*S    EENTRO =        -0.00000000
  eigenvalues    EBANDS =      -148.98368202
  atomic energy  EATOM  =      3210.13655998
  Solvation  Ediel_sol  =         0.00000000
  ---------------------------------------------------
  free energy    TOTEN  =       -93.76904720 eV

  energy without entropy =      -93.76904720  energy(sigma->0) =      -93.76904720


--------------------------------------------------------------------------------------------------------




 average (electrostatic) potential at core
  the test charge radii are     1.0714  0.7215
  (the norm of the test charge is              1.0000)
       1 -34.5900       2 -35.5244       3 -35.5244       4 -35.5244       5 -35.5244
       6 -35.5244       7 -35.5244       8 -34.5900       9 -70.0739      10 -70.0739
      11 -70.0739      12 -70.0739      13 -70.0739      14 -70.0739      15 -70.4981
 
 
 
 E-fermi :   2.8605     XC(G=0): -10.4005     alpha+bet :-12.2710


 k-point     1 :       0.2500    0.2500    0.2500
  band No.  band energies     occupation 
      1     -14.2806      2.00000
      2     -13.4696      2.00000
      3     -13.1066      2.00000
      4     -12.9398      2.00000
      5     -12.9398      2.00000
      6     -12.7681      2.00000
      7     -12.7681      2.00000
      8      -1.4322      2.00000
      9      -1.4322      2.00000
     10      -1.2961      2.00000
     11      -0.9877      2.00000
     12      -0.6670      2.00000
     13      -0.3208      2.00000
     14      -0.3208      2.00000
     15       0.9452      2.00000
     16       1.2223      2.00000
     17       1.2223      2.00000
     18       1.4722      2.00000
     19       1.4722      2.00000
     20       1.6674      2.00000
     21       1.7079      2.00000
     22       1.8786      2.00000
     23       1.8786      2.00000
     24       2.1577      2.00000
     25       2.3723      2.00000
     26       2.3723      2.00000
     27       2.5667      2.00000
     28       2.5667      2.00000
     29       4.3061      0.00000
     30       8.9622      0.00000
     31      10.0048      0.00000
     32      10.5871      0.00000
     33      10.5871      0.00000
     34      11.3740      0.00000
     35      11.6060      0.00000
     36      11.6060      0.00000

 k-point     2 :      -0.2500    0.2500    0.2500
  band No.  band energies     occupation 
      1     -14.1444      2.00000
      2     -13.4227      2.00000
      3     -13.2385      2.00000
      4     -12.9832      2.00000
      5     -12.9615      2.00000
      6     -12.8634      2.00000
      7     -12.7333      2.00000
      8      -0.9824      2.00000
      9      -0.9814      2.00000
     10      -0.8391      2.00000
     11      -0.5031      2.00000
     12      -0.3256      2.00000
     13      -0.1488      2.00000
     14       0.1553      2.00000
     15       0.4080      2.00000
     16       0.6119      2.00000
     17       0.6527      2.00000
     18       1.0225      2.00000
     19       1.2301      2.00000
     20       1.2880      2.00000
     21       1.5418      2.00000
     22       1.5436      2.00000
     23       1.7448      2.00000
     24       1.9201      2.00000
     25       2.0783      2.00000
     26       2.2655      2.00000
     27       2.3217      2.00000
     28       2.4294      2.00000
     29       5.3997      0.00000
     30       8.5505      0.00000
     31       9.4856      0.00000
     32       9.9455      0.00000
     33      11.0490      0.00000
     34      11.9159      0.00000
     35      12.5617      0.00000
     36      12.8315      0.00000


--------------------------------------------------------------------------------------------------------


 soft charge-density along one line, spin component           1
         0         1         2         3         4         5         6         7         8         9
 total charge-density along one line
 
 pseudopotential strength for first ion, spin component:           1
  2.966   9.411   0.000   0.000   0.000   0.000   0.000   0.000
  9.411  29.712   0.000   0.000   0.000   0.000   0.000   0.000
  0.000   0.000   7.320  -0.000  -0.000  10.575  -0.000  -0.000
  0.000   0.000  -0.000   7.320  -0.000  -0.000  10.575  -0.000
  0.000   0.000  -0.000  -0.000   7.320  -0.000  -0.000  10.575
  0.000   0.000  10.575  -0.000  -0.000  14.506  -0.000  -0.000
  0.000   0.000  -0.000  10.575  -0.000  -0.000  14.506  -0.000
  0.000   0.000  -0.000  -0.000  10.575  -0.000  -0.000  14.506
 -0.000  -0.000   0.000  -0.000   0.000   0.000  -0.000   0.000
 -0.000  -0.000   0.000   0.000  -0.000   0.000   0.000  -0.000
 -0.000  -0.000   0.000  -0.000   0.000   0.000  -0.000   0.000
 -0.000  -0.000  -0.000   0.000   0.000  -0.000   0.000   0.000
  0.000   0.000   0.000  -0.000  -0.000   0.000  -0.000  -0.000
 total augmentation occupancy for first ion, spin component:           1
  0.939  -0.045   0.000   0.000   0.000   0.000   0.000   0.000   0.000   0.000  -0.000   0.000  -0.000
 -0.045   0.002   0.000   0.000   0.000   0.000   0.000   0.000   0.000   0.000   0.000   0.000  -0.000
  0.000   0.000   0.108  -0.000   0.000  -0.012   0.000   0.000  -0.000   0.000   0.000  -0.000  -0.000
  0.000   0.000   0.000   0.108  -0.000   0.000  -0.012   0.000  -0.000   0.000  -0.000   0.000  -0.000
  0.000   0.000   0.000   0.000   0.108   0.000   0.000  -0.012  -0.000  -0.000   0.000   0.000   0.000
  0.000   0.000  -0.012   0.000   0.000   0.001   0.000   0.000   0.000   0.000  -0.000   0.000   0.000
  0.000   0.000   0.000  -0.012   0.000   0.000   0.001   0.000   0.000   0.000  -0.000   0.000   0.000
  0.000   0.000   0.000   0.000  -0.012   0.000   0.000   0.001   0.000   0.000   0.000   0.000   0.000
  0.000   0.000  -0.000  -0.000  -0.000   0.000   0.000   0.000   0.011   0.000   0.000   0.000  -0.000
  0.000   0.000   0.000   0.000  -0.000   0.000   0.000   0.000   0.000   0.011  -0.000   0.000  -0.000
 -0.000   0.000   0.000  -0.000  -0.000   0.000   0.000  -0.000   0.000   0.000   0.046   0.000   0.000
  0.000   0.000  -0.000   0.000   0.000   0.000   0.000   0.000   0.000   0.000   0.000   0.011  -0.000
 -0.000   0.000   0.000  -0.000   0.000  -0.000  -0.000  -0.000   0.000  -0.000   0.000   0.000   0.046


------------------------ aborting loop because EDIFF is reached ----------------------------------------


 


 total charge     
 
# of ion     s       p       d       tot
----------------------------------------
  1        0.136   0.160   0.069   0.365
  2        0.147   0.162   0.066   0.376
  3        0.147   0.162   0.066   0.376
  4        0.141   0.159   0.067   0.367
  5        0.141   0.159   0.067   0.367
  6        0.147   0.162   0.066   0.376
  7        0.147   0.162   0.066   0.376
  8        0.136   0.160   0.069   0.365
  9        1.567   3.510   0.000   5.077
 10        1.567   3.510   0.000   5.077
 11        1.571   3.481   0.000   5.053
 12        1.568   3.488   0.000   5.056
 13        1.566   3.513   0.000   5.079
 14        1.566   3.513   0.000   5.079
 15        1.569   3.631   0.000   5.200
------------------------------------------------
tot       12.117  25.934   0.537  38.589
 
    CHARGE:  cpu time    0.0040: real time    0.0065
    FORLOC:  cpu time    0.0000: real time    0.0012
    FORNL :  cpu time    0.0200: real time    0.0176
    STRESS:  cpu time    0.0560: real time    0.0537
    FORCOR:  cpu time    0.0080: real time    0.0079
    FORHAR:  cpu time    0.0000: real time    0.0025
    MIXING:  cpu time    0.0040: real time    0.0004
    OFIELD:  cpu time    0.0000: real time    0.0000

  FORCE on cell =-STRESS in cart. coord.  units (eV):
  Direction    XX          YY          ZZ          XY          YZ          ZX
  --------------------------------------------------------------------------------------
  Alpha Z   129.53385   129.53385   129.53385
  Ewald    -783.87328  -783.87328  -783.87328    -0.00000     0.00000    -0.00000
  Hartree   382.17808   382.17808   382.17808     0.00000     0.00000     0.00000
  E(xc)    -253.02422  -253.02422  -253.02422    -0.00064    -0.00064    -0.00064
  Local    -394.36589  -394.36589  -394.36588     0.00647     0.00647     0.00647
  n-local  -124.73867  -127.08475  -127.08473    -0.14471     0.53334    -0.14473
  augment    47.21559    47.21559    47.21559     0.00003     0.00003     0.00003
  Kinetic   977.29559   985.98145   985.98141     2.37290    -6.63009     2.37279
  Fock        0.00000     0.00000     0.00000     0.00000     0.00000     0.00000
  -------------------------------------------------------------------------------------
  Total     -15.55244   -15.55244   -15.55244     0.00000     0.00000    -0.00000
  in kB    -162.65410  -162.65410  -162.65410     0.00000     0.00000    -0.00000
  external pressure =     -162.65 kB  Pullay stress =        0.00 kB


 VOLUME and BASIS-vectors are now :
 -----------------------------------------------------------------------------
  energy-cutoff  :      400.00
  volume of cell :      153.19
      direct lattice vectors                 reciprocal lattice vectors
     0.000000000  4.246893020  4.246893020    -0.117733128  0.117733128  0.117733128
     4.246893020  0.000000000  4.246893020     0.117733128 -0.117733128  0.117733128
     4.246893020  4.246893020  0.000000000     0.117733128  0.117733128 -0.117733128

  length of vectors
     6.006013706  6.006013706  6.006013706     0.203919760  0.203919760  0.203919760


 FORCES acting on ions
    electron-ion (+dipol)            ewald-force                    non-local-force                 convergence-correction
 -----------------------------------------------------------------------------------------------
   0.232E-05 0.232E-05 0.258E-05   -.107E-13 -.178E-13 -.134E-13   0.108E-18 0.271E-19 0.949E-19   -.579E-08 -.579E-08 -.579E-08
   -.212E-04 -.212E-04 -.376E+02   0.211E-11 0.211E-11 0.349E+02   0.347E-17 0.347E-17 0.270E+01   0.142E-07 0.142E-07 -.111E-03
   -.212E-04 -.376E+02 -.213E-04   0.858E-13 0.349E+02 0.831E-12   -.694E-17 0.270E+01 0.347E-17   0.142E-07 -.111E-03 0.142E-07
   0.376E+02 0.212E-04 0.213E-04   -.349E+02 0.821E-13 0.818E-12   -.270E+01 0.694E-17 0.000E+00   0.111E-03 -.142E-07 -.142E-07
   -.376E+02 -.212E-04 -.213E-04   0.349E+02 0.858E-13 0.826E-12   0.270E+01 0.694E-17 0.000E+00   -.111E-03 0.142E-07 0.142E-07
   0.212E-04 0.376E+02 0.213E-04   0.788E-13 -.349E+02 0.814E-12   -.347E-17 -.270E+01 -.694E-17   -.142E-07 0.111E-03 -.142E-07
   0.212E-04 0.212E-04 0.376E+02   0.208E-11 0.208E-11 -.349E+02   -.694E-17 0.347E-17 -.270E+01   -.142E-07 -.142E-07 0.111E-03
   -.232E-05 -.232E-05 -.258E-05   -.793E-14 -.152E-13 -.102E-13   -.136E-18 -.813E-19 -.108E-18   0.579E-08 0.579E-08 0.579E-08
   -.192E-10 -.191E-10 -.155E-10   -.358E-13 -.343E-13 -.287E-12   -.717E-22 -.982E-22 0.265E-22   -.342E-13 -.536E-13 0.317E-13
   -.188E-10 -.246E-10 -.154E-10   0.118E-12 -.286E-12 -.297E-13   0.000E+00 0.529E-22 0.106E-21   0.288E-13 0.405E-13 -.218E-13
   0.250E-10 -.166E-10 0.277E-10   -.198E-11 0.929E-12 0.369E-11   0.794E-22 -.185E-21 -.529E-22   -.267E-13 -.358E-13 0.357E-13
   -.218E-10 -.173E-10 -.159E-10   -.294E-12 0.121E-12 -.426E-13   0.000E+00 0.159E-21 0.000E+00   0.652E-13 0.118E-13 -.510E-14
   -.196E-10 0.223E-10 0.287E-10   0.931E-12 -.197E-11 0.369E-11   0.000E+00 -.529E-22 -.159E-21   -.108E-13 -.570E-13 0.367E-13
   0.122E-10 0.102E-10 0.608E-10   0.480E-11 0.479E-11 -.429E-11   0.191E-21 0.165E-21 0.000E+00   0.638E-13 0.268E-13 -.272E-14
   0.561E-10 0.561E-10 0.603E-10   0.342E-11 0.337E-11 0.353E-11   0.257E-22 -.801E-22 0.000E+00   -.142E-13 -.517E-13 0.384E-13
 -----------------------------------------------------------------------------------------------
   0.200E-10 0.177E-10 0.148E-09   -.105E-13 -.147E-13 -.444E-14   0.132E-14 0.134E-14 0.888E-15   0.701E-13 -.122E-12 0.114E-12
 
 
 POSITION                                       TOTAL-FORCE (eV/Angst)
 -----------------------------------------------------------------------------------
      0.00000      0.00000      0.00000        -0.000000      0.000000     -0.000000
      2.12345      2.12345     -0.13641        -0.000000      0.000000      0.029497
      2.12345     -0.13641      2.12345        -0.000000      0.029497     -0.000000
      4.38330      2.12345      2.12345        -0.029497      0.000000     -0.000000
     -0.13641      2.12345      2.12345         0.029497      0.000000     -0.000000
      2.12345      4.38330      2.12345        -0.000000     -0.029497     -0.000000
      2.12345      2.12345      4.38330        -0.000000      0.000000     -0.029497
      4.24689      4.24689      4.24689        -0.000000      0.000000     -0.000000
      4.24689      4.24689      2.12345        -0.000000      0.000000     -0.000000
      4.24689      2.12345      4.24689        -0.000000     -0.000000     -0.000000
      6.37034      4.24689      4.24689        -0.000000      0.000000     -0.000000
      2.12345      4.24689      4.24689        -0.000000      0.000000     -0.000000
      4.24689      6.37034      4.24689        -0.000000     -0.000000     -0.000000
      4.24689      4.24689      6.37034        -0.000000      0.000000     -0.000000
      6.37034      6.37034      6.37034        -0.000000     -0.000000     -0.000000
 -----------------------------------------------------------------------------------
    total drift:                                0.000000      0.000000      0.000000


--------------------------------------------------------------------------------------------------------



  FREE ENERGIE OF THE ION-ELECTRON SYSTEM (eV)
  ---------------------------------------------------
  free  energy   TOTEN  =       -93.76904720 eV

  energy  without entropy=      -93.76904720  energy(sigma->0) =      -93.76904720
 
 d Force = 0.1243912E-01[ 0.199E-02, 0.229E-01]  d Energy = 0.1242029E-01 0.188E-04
 d Force = 0.2366438E+01[ 0.235E+01, 0.238E+01]  d Ewald  = 0.2366369E+01 0.696E-04


--------------------------------------------------------------------------------------------------------


    POTLOK:  cpu time    0.1360: real time    0.1367


--------------------------------------------------------------------------------------------------------




--------------------------------------------------------------------------------------------------------


  
 reached required accuracy - stopping structural energy minimisation
     LOOP+:  cpu time    1.6040: real time    1.6330
    4ORBIT:  cpu time    0.0000: real time    0.0000
 


 total charge     
 
# of ion     s       p       d       tot
----------------------------------------
  1        0.136   0.160   0.069   0.365
  2        0.147   0.162   0.066   0.376
  3        0.147   0.162   0.066   0.376
  4        0.141   0.159   0.067   0.367
  5        0.141   0.159   0.067   0.367
  6        0.147   0.162   0.066   0.376
  7        0.147   0.162   0.066   0.376
  8        0.136   0.160   0.069   0.365
  9        1.567   3.510   0.000   5.077
 10        1.567   3.510   0.000   5.077
 11        1.571   3.481   0.000   5.053
 12        1.568   3.488   0.000   5.056
 13        1.566   3.513   0.000   5.079
 14        1.566   3.513   0.000   5.079
 15        1.569   3.631   0.000   5.200
------------------------------------------------
tot       12.117  25.934   0.537  38.589
 

 total amount of memory used by VASP on root node    33273. kBytes
========================================================================

   base      :      30000. kBytes
   nonlr-proj:       1204. kBytes
   fftplans  :        706. kBytes
   grid      :       1117. kBytes
   one-center:         32. kBytes
   wavefun   :        214. kBytes
 
  
  
 General timing and accounting informations for this job:
 ========================================================
  
                  Total CPU time used (sec):        7.204
                            User time (sec):        7.060
                          System time (sec):        0.144
                         Elapsed time (sec):        7.481
  
                   Maximum memory used (kb):       65776.
                   Average memory used (kb):           0.
  
                          Minor page faults:        11369
                          Major page faults:            8
                 Voluntary context switches:         1972
