<?xml version="1.0" encoding="ISO-8859-1"?>
<modeling>
 <generator>
  <i name="program" type="string">vasp </i>
  <i name="version" type="string">5.4.1  </i>
  <i name="subversion" type="string">05Feb16 (build Mar 31 2016 13:39:20) complex                          parallel </i>
  <i name="platform" type="string">IFC91_ompi </i>
  <i name="date" type="string">2018 02 25 </i>
  <i name="time" type="string">13:48:03 </i>
 </generator>
 <incar>
  <i type="string" name="PREC">n</i>
  <i type="string" name="ALGO"> N</i>
  <i type="int" name="NELM">   100</i>
  <i type="int" name="NELMIN">     4</i>
  <i type="int" name="IBRION">     2</i>
  <i name="EDIFF">      0.00000100</i>
  <i name="EDIFFG">     -0.05000000</i>
  <i type="int" name="NSW">    20</i>
  <i type="int" name="ISIF">     2</i>
  <i name="ENCUT">    400.00000000</i>
  <i name="NELECT">     56.00000000</i>
  <i type="string" name="LREAL"> A</i>
  <i type="int" name="ISMEAR">     0</i>
  <i name="SIGMA">      0.05000000</i>
  <i type="logical" name="LWAVE"> F  </i>
  <i type="logical" name="LCHARG"> F  </i>
  <i type="logical" name="LORBIT"> F  </i>
  <i type="logical" name="LASPH"> T  </i>
  <v type="int" name="KPOINT_BSE">    -1     0     0     0</v>
  <i type="int" name="NELM">   100</i>
  <i type="logical" name="LASPH"> T  </i>
 </incar>
 <kpoints>
  <generation param="Monkhorst-Pack">
   <v type="int" name="divisions">       2        2        2 </v>
   <v name="usershift">      0.00000000       0.00000000       0.00000000 </v>
   <v name="genvec1">      0.50000000       0.00000000       0.00000000 </v>
   <v name="genvec2">      0.00000000       0.50000000       0.00000000 </v>
   <v name="genvec3">      0.00000000       0.00000000       0.50000000 </v>
   <v name="shift">      0.50000000       0.50000000       0.50000000 </v>
  </generation>
  <varray name="kpointlist" >
   <v>       0.25000000       0.25000000       0.25000000 </v>
   <v>      -0.25000000       0.25000000       0.25000000 </v>
  </varray>
  <varray name="weights" >
   <v>       0.25000000 </v>
   <v>       0.75000000 </v>
  </varray>
 </kpoints>
 <parameters>
  <separator name="general" >
   <i type="string" name="SYSTEM">unknown system</i>
   <i type="logical" name="LCOMPAT"> F  </i>
  </separator>
  <separator name="electronic" >
   <i type="string" name="PREC">n</i>
   <i name="ENMAX">    400.00000000</i>
   <i name="ENAUG">    605.39200000</i>
   <i name="EDIFF">      0.00000100</i>
   <i type="int" name="IALGO">    38</i>
   <i type="int" name="IWAVPR">    11</i>
   <i type="int" name="NBANDS">    36</i>
   <i name="NELECT">     56.00000000</i>
   <i type="int" name="TURBO">     0</i>
   <i type="int" name="IRESTART">     0</i>
   <i type="int" name="NREBOOT">     0</i>
   <i type="int" name="NMIN">     0</i>
   <i name="EREF">      0.00000000</i>
   <separator name="electronic smearing" >
    <i type="int" name="ISMEAR">     0</i>
    <i name="SIGMA">      0.05000000</i>
    <i name="KSPACING">      0.50000000</i>
    <i type="logical" name="KGAMMA"> T  </i>
   </separator>
   <separator name="electronic projectors" >
    <i type="logical" name="LREAL"> T  </i>
    <v name="ROPT">     -0.00050000     -0.00050000</v>
    <i type="int" name="LMAXPAW">  -100</i>
    <i type="int" name="LMAXMIX">     2</i>
    <i type="logical" name="NLSPLINE"> F  </i>
   </separator>
   <separator name="electronic startup" >
    <i type="int" name="ISTART">     0</i>
    <i type="int" name="ICHARG">     2</i>
    <i type="int" name="INIWAV">     1</i>
   </separator>
   <separator name="electronic spin" >
    <i type="int" name="ISPIN">     1</i>
    <i type="logical" name="LNONCOLLINEAR"> F  </i>
    <v name="MAGMOM">      1.00000000      1.00000000      1.00000000      1.00000000      1.00000000      1.00000000      1.00000000      1.00000000      1.00000000      1.00000000      1.00000000      1.00000000      1.00000000      1.00000000      1.00000000</v>
    <i name="NUPDOWN">     -1.00000000</i>
    <i type="logical" name="LSORBIT"> F  </i>
    <v name="SAXIS">      0.00000000      0.00000000      1.00000000</v>
    <i type="logical" name="LSPIRAL"> F  </i>
    <v name="QSPIRAL">      0.00000000      0.00000000      0.00000000</v>
    <i type="logical" name="LZEROZ"> F  </i>
   </separator>
   <separator name="electronic exchange-correlation" >
    <i type="logical" name="LASPH"> T  </i>
    <i type="logical" name="LMETAGGA"> F  </i>
   </separator>
   <separator name="electronic convergence" >
    <i type="int" name="NELM">   100</i>
    <i type="int" name="NELMDL">    -5</i>
    <i type="int" name="NELMIN">     4</i>
    <i name="ENINI">    400.00000000</i>
    <separator name="electronic convergence detail" >
     <i type="logical" name="LDIAG"> T  </i>
     <i type="logical" name="LSUBROT"> F  </i>
     <i name="WEIMIN">      0.00100000</i>
     <i name="EBREAK">      0.00000001</i>
     <i name="DEPER">      0.30000000</i>
     <i type="int" name="NRMM">     4</i>
     <i name="TIME">      0.40000000</i>
    </separator>
   </separator>
   <separator name="electronic mixer" >
    <i name="AMIX">      0.40000000</i>
    <i name="BMIX">      1.00000000</i>
    <i name="AMIN">      0.10000000</i>
    <i name="AMIX_MAG">      1.60000000</i>
    <i name="BMIX_MAG">      1.00000000</i>
    <separator name="electronic mixer details" >
     <i type="int" name="IMIX">     4</i>
     <i type="logical" name="MIXFIRST"> F  </i>
     <i type="int" name="MAXMIX">   -45</i>
     <i name="WC">    100.00000000</i>
     <i type="int" name="INIMIX">     1</i>
     <i type="int" name="MIXPRE">     1</i>
     <i type="int" name="MREMOVE">     5</i>
    </separator>
   </separator>
   <separator name="electronic dipolcorrection" >
    <i type="logical" name="LDIPOL"> F  </i>
    <i type="logical" name="LMONO"> F  </i>
    <i type="int" name="IDIPOL">     0</i>
    <i name="EPSILON">      1.00000000</i>
    <v name="DIPOL">   -100.00000000   -100.00000000   -100.00000000</v>
    <i name="EFIELD">      0.00000000</i>
   </separator>
  </separator>
  <separator name="grids" >
   <i type="int" name="NGX">    30</i>
   <i type="int" name="NGY">    30</i>
   <i type="int" name="NGZ">    30</i>
   <i type="int" name="NGXF">    60</i>
   <i type="int" name="NGYF">    60</i>
   <i type="int" name="NGZF">    60</i>
   <i type="logical" name="ADDGRID"> F  </i>
  </separator>
  <separator name="ionic" >
   <i type="int" name="NSW">    20</i>
   <i type="int" name="IBRION">     2</i>
   <i type="int" name="ISIF">     2</i>
   <i name="PSTRESS">      0.00000000</i>
   <i name="EDIFFG">     -0.05000000</i>
   <i type="int" name="NFREE">     1</i>
   <i name="POTIM">      0.50000000</i>
   <i name="SMASS">     -3.00000000</i>
   <i name="SCALEE">      1.00000000</i>
  </separator>
  <separator name="ionic md" >
   <i name="TEBEG">      0.00010000</i>
   <i name="TEEND">      0.00010000</i>
   <i type="int" name="NBLOCK">     1</i>
   <i type="int" name="KBLOCK">    20</i>
   <i type="int" name="NPACO">   256</i>
   <i name="APACO">     16.00000000</i>
  </separator>
  <separator name="symmetry" >
   <i type="int" name="ISYM">     2</i>
   <i name="SYMPREC">      0.00001000</i>
  </separator>
  <separator name="dos" >
   <i type="logical" name="LORBIT"> F  </i>
   <v name="RWIGS">     -1.00000000     -1.00000000</v>
   <i type="int" name="NEDOS">   301</i>
   <i name="EMIN">     10.00000000</i>
   <i name="EMAX">    -10.00000000</i>
   <i name="EFERMI">      0.00000000</i>
  </separator>
  <separator name="writing" >
   <i type="int" name="NWRITE">     2</i>
   <i type="logical" name="LWAVE"> F  </i>
   <i type="logical" name="LCHARG"> F  </i>
   <i type="logical" name="LPARD"> F  </i>
   <i type="logical" name="LVTOT"> F  </i>
   <i type="logical" name="LVHAR"> F  </i>
   <i type="logical" name="LELF"> F  </i>
   <i type="logical" name="LOPTICS"> F  </i>
   <v name="STM">      0.00000000      0.00000000      0.00000000      0.00000000      0.00000000      0.00000000      0.00000000</v>
  </separator>
  <separator name="performance" >
   <i type="int" name="NPAR">     4</i>
   <i type="int" name="NSIM">     4</i>
   <i type="int" name="NBLK">    -1</i>
   <i type="logical" name="LPLANE"> T  </i>
   <i type="logical" name="LSCALAPACK"> T  </i>
   <i type="logical" name="LSCAAWARE"> F  </i>
   <i type="logical" name="LSCALU"> F  </i>
   <i type="logical" name="LASYNC"> F  </i>
   <i type="logical" name="LORBITALREAL"> F  </i>
  </separator>
  <separator name="miscellaneous" >
   <i type="int" name="IDIOT">     3</i>
   <i type="logical" name="LMUSIC"> F  </i>
   <v name="POMASS">     24.30500000     16.00000000</v>
   <v name="DARWINR">      0.00000000      0.00000000</v>
   <v name="DARWINV">      1.00000000      1.00000000</v>
   <i type="logical" name="LCORR"> T  </i>
  </separator>
  <i type="logical" name="GGA_COMPAT"> T  </i>
  <i type="logical" name="LBERRY"> F  </i>
  <i type="int" name="ICORELEVEL">     0</i>
  <i type="logical" name="LDAU"> F  </i>
  <i type="int" name="I_CONSTRAINED_M">     0</i>
  <separator name="electronic exchange-correlation" >
   <i type="string" name="GGA">--</i>
   <i type="int" name="VOSKOWN">     0</i>
   <i type="logical" name="LHFCALC"> F  </i>
   <i type="string" name="PRECFOCK"></i>
   <i type="logical" name="LSYMGRAD"> F  </i>
   <i type="logical" name="LHFONE"> F  </i>
   <i type="logical" name="LRHFCALC"> F  </i>
   <i type="logical" name="LTHOMAS"> F  </i>
   <i type="logical" name="LMODELHF"> F  </i>
   <i name="ENCUT4O">     -1.00000000</i>
   <i type="int" name="EXXOEP">     0</i>
   <i type="int" name="FOURORBIT">     0</i>
   <i name="AEXX">      0.00000000</i>
   <i name="HFALPHA">      0.00000000</i>
   <i name="MCALPHA">      0.00000000</i>
   <i name="ALDAX">      1.00000000</i>
   <i name="AGGAX">      1.00000000</i>
   <i name="ALDAC">      1.00000000</i>
   <i name="AGGAC">      1.00000000</i>
   <i type="int" name="NKREDX">     1</i>
   <i type="int" name="NKREDY">     1</i>
   <i type="int" name="NKREDZ">     1</i>
   <i type="logical" name="SHIFTRED"> F  </i>
   <i type="logical" name="ODDONLY"> F  </i>
   <i type="logical" name="EVENONLY"> F  </i>
   <i type="int" name="LMAXFOCK">     0</i>
   <i type="int" name="NMAXFOCKAE">     0</i>
   <i type="logical" name="LFOCKAEDFT"> F  </i>
   <i name="HFSCREEN">      0.00000000</i>
   <i name="HFSCREENC">      0.00000000</i>
   <i type="int" name="NBANDSGWLOW">     0</i>
  </separator>
  <separator name="vdW DFT" >
   <i type="logical" name="LUSE_VDW"> F  </i>
   <i name="Zab_VDW">     -0.84910000</i>
   <i name="PARAM1">      0.12340000</i>
   <i name="PARAM2">      1.00000000</i>
   <i name="PARAM3">      0.00000000</i>
  </separator>
  <separator name="model GW" >
   <i type="int" name="MODEL_GW">     0</i>
   <i name="MODEL_EPS0">      6.12779108</i>
   <i name="MODEL_ALPHA">      1.00000000</i>
  </separator>
  <separator name="linear response parameters" >
   <i type="logical" name="LEPSILON"> F  </i>
   <i type="logical" name="LRPA"> F  </i>
   <i type="logical" name="LNABLA"> F  </i>
   <i type="logical" name="LVEL"> F  </i>
   <i type="int" name="KINTER">     0</i>
   <i name="CSHIFT">      0.10000000</i>
   <i name="OMEGAMAX">     -1.00000000</i>
   <i name="DEG_THRESHOLD">      0.00200000</i>
  </separator>
  <separator name="orbital magnetization" >
   <i type="logical" name="NUCIND"> F  </i>
   <v name="MAGPOS">      0.00000000      0.00000000      0.00000000</v>
   <i type="logical" name="LNICSALL"> T  </i>
   <i type="logical" name="ORBITALMAG"> F  </i>
   <i type="logical" name="LMAGBLOCH"> F  </i>
   <i type="logical" name="LCHIMAG"> F  </i>
   <i type="logical" name="LGAUGE"> T  </i>
   <i type="int" name="MAGATOM">     0</i>
   <v name="MAGDIPOL">      0.00000000      0.00000000      0.00000000</v>
   <v name="AVECCONST">      0.00000000      0.00000000      0.00000000</v>
  </separator>
  <separator name="response functions" >
   <i type="logical" name="LADDER"> F  </i>
   <i type="logical" name="LFXC"> F  </i>
   <i type="logical" name="LHARTREE"> T  </i>
   <i type="int" name="IBSE">     0</i>
   <v type="int" name="KPOINT">    -1     0     0     0</v>
   <i type="logical" name="LTCTE"> F  </i>
   <i type="logical" name="LTETE"> F  </i>
   <i type="logical" name="LTRIPLET"> F  </i>
   <i type="logical" name="LFXCEPS"> F  </i>
   <i type="logical" name="LFXHEG"> F  </i>
   <i type="int" name="NATURALO">     0</i>
   <i type="logical" name="L2ORDER"> F  </i>
   <i type="logical" name="LUSEW"> F  </i>
   <i name="ENCUTGW">     -2.00000000</i>
   <i name="ENCUTGWSOFT">     -2.00000000</i>
   <i name="ENCUTLF">     -1.00000000</i>
   <i type="int" name="LMAXMP2">    -1</i>
   <i name="SCISSOR">      0.00000000</i>
   <i type="int" name="NOMEGA">     0</i>
   <i type="int" name="NOMEGAR">     0</i>
   <i type="int" name="NBANDSGW">    -1</i>
   <i type="int" name="NBANDSO">    -1</i>
   <i type="int" name="NBANDSV">    -1</i>
   <i type="int" name="NELM">   100</i>
   <i type="int" name="NELMHF">     1</i>
   <i type="int" name="DIM">     3</i>
   <i type="int" name="ANTIRES">     0</i>
   <i name="OMEGAMAX">    -30.00000000</i>
   <i name="OMEGAMIN">    -30.00000000</i>
   <i name="OMEGATL">   -200.00000000</i>
   <i type="int" name="OMEGAGRID">     0</i>
   <i name="CSHIFT">     -0.10000000</i>
   <i type="logical" name="SELFENERGY"> F  </i>
   <i type="logical" name="LSPECTRAL"> F  </i>
   <i type="logical" name="LSPECTRALGW"> F  </i>
   <i type="logical" name="LSINGLES"> F  </i>
   <i type="logical" name="LFERMIGW"> F  </i>
   <i type="logical" name="ODDONLYGW"> F  </i>
   <i type="logical" name="EVENONLYGW"> F  </i>
   <i type="int" name="NKREDLFX">     1</i>
   <i type="int" name="NKREDLFY">     1</i>
   <i type="int" name="NKREDLFZ">     1</i>
   <i type="int" name="MAXMEM">  1800</i>
   <i type="int" name="TELESCOPE">     0</i>
   <i type="int" name="TAUPAR">     1</i>
   <i type="int" name="OMEGAPAR">    -1</i>
   <i name="LAMBDA">      1.00000000</i>
  </separator>
  <separator name="External order field" >
   <i name="OFIELD_KAPPA">      0.00000000</i>
   <v name="OFIELD_K">      0.00000000      0.00000000      0.00000000</v>
   <i name="OFIELD_Q6_NEAR">      0.00000000</i>
   <i name="OFIELD_Q6_FAR">      0.00000000</i>
   <i name="OFIELD_A">      0.00000000</i>
  </separator>
 </parameters>
 <atominfo>
  <atoms>      15 </atoms>
  <types>       2 </types>
  <array name="atoms" >
   <dimension dim="1">ion</dimension>
   <field type="string">element</field>
   <field type="int">atomtype</field>
   <set>
    <rc><c>Mg</c><c>   1</c></rc>
    <rc><c>Mg</c><c>   1</c></rc>
    <rc><c>Mg</c><c>   1</c></rc>
    <rc><c>Mg</c><c>   1</c></rc>
    <rc><c>Mg</c><c>   1</c></rc>
    <rc><c>Mg</c><c>   1</c></rc>
    <rc><c>Mg</c><c>   1</c></rc>
    <rc><c>Mg</c><c>   1</c></rc>
    <rc><c>O </c><c>   2</c></rc>
    <rc><c>O </c><c>   2</c></rc>
    <rc><c>O </c><c>   2</c></rc>
    <rc><c>O </c><c>   2</c></rc>
    <rc><c>O </c><c>   2</c></rc>
    <rc><c>O </c><c>   2</c></rc>
    <rc><c>O </c><c>   2</c></rc>
   </set>
  </array>
  <array name="atomtypes" >
   <dimension dim="1">type</dimension>
   <field type="int">atomspertype</field>
   <field type="string">element</field>
   <field>mass</field>
   <field>valence</field>
   <field type="string">pseudopotential</field>
   <set>
    <rc><c>   8</c><c>Mg</c><c>     24.30500000</c><c>      2.00000000</c><c>  PAW_PBE Mg 13Apr2007                  </c></rc>
    <rc><c>   7</c><c>O </c><c>     16.00000000</c><c>      6.00000000</c><c>  PAW_PBE O 08Apr2002                   </c></rc>
   </set>
  </array>
 </atominfo>
 <structure name="initialpos" >
  <crystal>
   <varray name="basis" >
    <v>       0.00000000       4.24689302       4.24689302 </v>
    <v>       4.24689302       0.00000000       4.24689302 </v>
    <v>       4.24689302       4.24689302       0.00000000 </v>
   </varray>
   <i name="volume">    153.19477710 </i>
   <varray name="rec_basis" >
    <v>      -0.11773313       0.11773313       0.11773313 </v>
    <v>       0.11773313      -0.11773313       0.11773313 </v>
    <v>       0.11773313       0.11773313      -0.11773313 </v>
   </varray>
  </crystal>
  <varray name="positions" >
   <v>       0.00000000       0.00000000       0.00000000 </v>
   <v>       0.00000000       0.00000000       0.50000000 </v>
   <v>       0.00000000       0.50000000       0.00000000 </v>
   <v>       0.00000000       0.50000000       0.50000000 </v>
   <v>       0.50000000       0.00000000       0.00000000 </v>
   <v>       0.50000000       0.00000000       0.50000000 </v>
   <v>       0.50000000       0.50000000       0.00000000 </v>
   <v>       0.50000000       0.50000000       0.50000000 </v>
   <v>       0.25000000       0.25000000       0.75000000 </v>
   <v>       0.25000000       0.75000000       0.25000000 </v>
   <v>       0.25000000       0.75000000       0.75000000 </v>
   <v>       0.75000000       0.25000000       0.25000000 </v>
   <v>       0.75000000       0.25000000       0.75000000 </v>
   <v>       0.75000000       0.75000000       0.25000000 </v>
   <v>       0.75000000       0.75000000       0.75000000 </v>
  </varray>
 </structure>
 <calculation>
  <scstep>
   <time name="dav">    0.04    0.05</time>
   <time name="total">    0.19    0.19</time>
   <energy>
    <i name="alphaZ">    129.53385195 </i>
    <i name="ewald">  -2377.95490330 </i>
    <i name="hartreedc">   -970.18536838 </i>
    <i name="XCdc">   -192.36529597 </i>
    <i name="pawpsdc">   2948.29990038 </i>
    <i name="pawaedc">  -2545.98870278 </i>
    <i name="eentropy">     -0.00000002 </i>
    <i name="bandstr">     69.40591069 </i>
    <i name="atom">   3210.13655998 </i>
    <i name="e_fr_energy">    270.88195253 </i>
    <i name="e_wo_entrp">    270.88195256 </i>
    <i name="e_0_energy">    270.88195255 </i>
   </energy>
  </scstep>
  <scstep>
   <time name="dav">    0.04    0.05</time>
   <time name="total">    0.05    0.05</time>
   <energy>
    <i name="e_fr_energy">    -80.04052026 </i>
    <i name="e_wo_entrp">    -80.04052026 </i>
    <i name="e_0_energy">    -80.04052026 </i>
   </energy>
  </scstep>
  <scstep>
   <time name="dav">    0.04    0.04</time>
   <time name="total">    0.04    0.04</time>
   <energy>
    <i name="e_fr_energy">   -104.35502742 </i>
    <i name="e_wo_entrp">   -104.35502742 </i>
    <i name="e_0_energy">   -104.35502742 </i>
   </energy>
  </scstep>
  <scstep>
   <time name="dav">    0.04    0.04</time>
   <time name="total">    0.04    0.05</time>
   <energy>
    <i name="e_fr_energy">   -104.57753942 </i>
    <i name="e_wo_entrp">   -104.57753942 </i>
    <i name="e_0_energy">   -104.57753942 </i>
   </energy>
  </scstep>
  <scstep>
   <time name="dav">    0.04    0.04</time>
   <time name="total">    0.05    0.05</time>
   <energy>
    <i name="e_fr_energy">   -104.57967716 </i>
    <i name="e_wo_entrp">   -104.57967716 </i>
    <i name="e_0_energy">   -104.57967716 </i>
   </energy>
  </scstep>
  <scstep>
   <time name="dav">    0.04    0.05</time>
   <time name="total">    0.20    0.20</time>
   <energy>
    <i name="e_fr_energy">    -93.20881252 </i>
    <i name="e_wo_entrp">    -93.20881252 </i>
    <i name="e_0_energy">    -93.20881252 </i>
   </energy>
  </scstep>
  <scstep>
   <time name="dav">    0.04    0.04</time>
   <time name="total">    0.18    0.18</time>
   <energy>
    <i name="e_fr_energy">    -92.66521020 </i>
    <i name="e_wo_entrp">    -92.66521020 </i>
    <i name="e_0_energy">    -92.66521020 </i>
   </energy>
  </scstep>
  <scstep>
   <time name="dav">    0.04    0.04</time>
   <time name="total">    0.18    0.18</time>
   <energy>
    <i name="e_fr_energy">    -92.41843144 </i>
    <i name="e_wo_entrp">    -92.40280955 </i>
    <i name="e_0_energy">    -92.41062049 </i>
   </energy>
  </scstep>
  <scstep>
   <time name="dav">    0.04    0.04</time>
   <time name="total">    0.18    0.18</time>
   <energy>
    <i name="e_fr_energy">    -92.39912254 </i>
    <i name="e_wo_entrp">    -92.38020196 </i>
    <i name="e_0_energy">    -92.38966225 </i>
   </energy>
  </scstep>
  <scstep>
   <time name="dav">    0.03    0.04</time>
   <time name="total">    0.18    0.18</time>
   <energy>
    <i name="e_fr_energy">    -92.38118996 </i>
    <i name="e_wo_entrp">    -92.37598749 </i>
    <i name="e_0_energy">    -92.37858873 </i>
   </energy>
  </scstep>
  <scstep>
   <time name="dav">    0.04    0.04</time>
   <time name="total">    0.18    0.18</time>
   <energy>
    <i name="e_fr_energy">    -92.38227955 </i>
    <i name="e_wo_entrp">    -92.36673267 </i>
    <i name="e_0_energy">    -92.37450611 </i>
   </energy>
  </scstep>
  <scstep>
   <time name="dav">    0.04    0.04</time>
   <time name="total">    0.18    0.18</time>
   <energy>
    <i name="e_fr_energy">    -92.38034318 </i>
    <i name="e_wo_entrp">    -92.36939491 </i>
    <i name="e_0_energy">    -92.37486904 </i>
   </energy>
  </scstep>
  <scstep>
   <time name="dav">    0.04    0.04</time>
   <time name="total">    0.18    0.18</time>
   <energy>
    <i name="e_fr_energy">    -92.38013536 </i>
    <i name="e_wo_entrp">    -92.37270954 </i>
    <i name="e_0_energy">    -92.37642245 </i>
   </energy>
  </scstep>
  <scstep>
   <time name="dav">    0.04    0.04</time>
   <time name="total">    0.18    0.18</time>
   <energy>
    <i name="e_fr_energy">    -92.38004308 </i>
    <i name="e_wo_entrp">    -92.37195406 </i>
    <i name="e_0_energy">    -92.37599857 </i>
   </energy>
  </scstep>
  <scstep>
   <time name="dav">    0.04    0.04</time>
   <time name="total">    0.18    0.18</time>
   <energy>
    <i name="e_fr_energy">    -92.38003394 </i>
    <i name="e_wo_entrp">    -92.37170258 </i>
    <i name="e_0_energy">    -92.37586826 </i>
   </energy>
  </scstep>
  <scstep>
   <time name="dav">    0.03    0.03</time>
   <time name="total">    0.16    0.17</time>
   <energy>
    <i name="alphaZ">    129.53385195 </i>
    <i name="ewald">  -2377.95490330 </i>
    <i name="hartreedc">  -1124.12932903 </i>
    <i name="XCdc">   -187.86961437 </i>
    <i name="pawpsdc">   3842.64452275 </i>
    <i name="pawaedc">  -3441.80121630 </i>
    <i name="eentropy">     -0.00829654 </i>
    <i name="bandstr">   -142.93160980 </i>
    <i name="atom">   3210.13655998 </i>
    <i name="e_fr_energy">    -92.38003466 </i>
    <i name="e_wo_entrp">    -92.37173812 </i>
    <i name="e_0_energy">    -92.37588639 </i>
   </energy>
  </scstep>
  <structure>
   <crystal>
    <varray name="basis" >
     <v>       0.00000000       4.24689302       4.24689302 </v>
     <v>       4.24689302       0.00000000       4.24689302 </v>
     <v>       4.24689302       4.24689302       0.00000000 </v>
    </varray>
    <i name="volume">    153.19477710 </i>
    <varray name="rec_basis" >
     <v>      -0.11773313       0.11773313       0.11773313 </v>
     <v>       0.11773313      -0.11773313       0.11773313 </v>
     <v>       0.11773313       0.11773313      -0.11773313 </v>
    </varray>
   </crystal>
   <varray name="positions" >
    <v>       0.00000000       0.00000000       0.00000000 </v>
    <v>       0.00000000       0.00000000       0.50000000 </v>
    <v>       0.00000000       0.50000000       0.00000000 </v>
    <v>       0.00000000       0.50000000       0.50000000 </v>
    <v>       0.50000000       0.00000000       0.00000000 </v>
    <v>       0.50000000       0.00000000       0.50000000 </v>
    <v>       0.50000000       0.50000000       0.00000000 </v>
    <v>       0.50000000       0.50000000       0.50000000 </v>
    <v>       0.25000000       0.25000000       0.75000000 </v>
    <v>       0.25000000       0.75000000       0.25000000 </v>
    <v>       0.25000000       0.75000000       0.75000000 </v>
    <v>       0.75000000       0.25000000       0.25000000 </v>
    <v>       0.75000000       0.25000000       0.75000000 </v>
    <v>       0.75000000       0.75000000       0.25000000 </v>
    <v>       0.75000000       0.75000000       0.75000000 </v>
   </varray>
  </structure>
  <varray name="forces" >
   <v>       0.00000000       0.00000000       0.00000000 </v>
   <v>       0.00000000       0.00000000      -3.05997093 </v>
   <v>       0.00000000      -3.05997093       0.00000000 </v>
   <v>       3.05997093       0.00000000       0.00000000 </v>
   <v>      -3.05997093       0.00000000       0.00000000 </v>
   <v>       0.00000000       3.05997093       0.00000000 </v>
   <v>       0.00000000       0.00000000       3.05997093 </v>
   <v>       0.00000000       0.00000000       0.00000000 </v>
   <v>       0.00000000       0.00000000       0.00000000 </v>
   <v>       0.00000000       0.00000000       0.00000000 </v>
   <v>       0.00000000       0.00000000       0.00000000 </v>
   <v>       0.00000000       0.00000000       0.00000000 </v>
   <v>       0.00000000       0.00000000       0.00000000 </v>
   <v>       0.00000000       0.00000000       0.00000000 </v>
   <v>       0.00000000       0.00000000       0.00000000 </v>
  </varray>
  <varray name="stress" >
   <v>    -186.75722165       0.00000000      -0.00000000 </v>
   <v>       0.00000000    -186.75722165      -0.00000000 </v>
   <v>      -0.00000000       0.00000000    -186.75722165 </v>
  </varray>
  <energy>
   <i name="e_fr_energy">    -92.38003466 </i>
   <i name="e_wo_entrp">    -92.37588639 </i>
   <i name="e_0_energy">     -0.00829654 </i>
  </energy>
  <time name="totalsc">    2.69    2.75</time>
 </calculation>
 <calculation>
  <scstep>
   <time name="dav">    0.04    0.04</time>
   <time name="total">    0.19    0.19</time>
   <energy>
    <i name="alphaZ">    129.53385195 </i>
    <i name="ewald">  -2349.24849686 </i>
    <i name="hartreedc">  -1142.97133513 </i>
    <i name="XCdc">   -187.45076572 </i>
    <i name="pawpsdc">   3842.69104052 </i>
    <i name="pawaedc">  -3441.84794582 </i>
    <i name="eentropy">     -0.00000000 </i>
    <i name="bandstr">   -154.60544172 </i>
    <i name="atom">   3210.13655998 </i>
    <i name="e_fr_energy">    -93.76253280 </i>
    <i name="e_wo_entrp">    -93.76253280 </i>
    <i name="e_0_energy">    -93.76253280 </i>
   </energy>
  </scstep>
  <scstep>
   <time name="dav">    0.04    0.04</time>
   <time name="total">    0.18    0.19</time>
   <energy>
    <i name="e_fr_energy">    -93.77347653 </i>
    <i name="e_wo_entrp">    -93.77347653 </i>
    <i name="e_0_energy">    -93.77347653 </i>
   </energy>
  </scstep>
  <scstep>
   <time name="dav">    0.04    0.04</time>
   <time name="total">    0.18    0.18</time>
   <energy>
    <i name="e_fr_energy">    -93.76094130 </i>
    <i name="e_wo_entrp">    -93.76094130 </i>
    <i name="e_0_energy">    -93.76094130 </i>
   </energy>
  </scstep>
  <scstep>
   <time name="dav">    0.04    0.04</time>
   <time name="total">    0.18    0.18</time>
   <energy>
    <i name="e_fr_energy">    -93.75769937 </i>
    <i name="e_wo_entrp">    -93.75769937 </i>
    <i name="e_0_energy">    -93.75769937 </i>
   </energy>
  </scstep>
  <scstep>
   <time name="dav">    0.05    0.05</time>
   <time name="total">    0.19    0.19</time>
   <energy>
    <i name="e_fr_energy">    -93.75661377 </i>
    <i name="e_wo_entrp">    -93.75661377 </i>
    <i name="e_0_energy">    -93.75661377 </i>
   </energy>
  </scstep>
  <scstep>
   <time name="dav">    0.04    0.04</time>
   <time name="total">    0.18    0.18</time>
   <energy>
    <i name="e_fr_energy">    -93.75663482 </i>
    <i name="e_wo_entrp">    -93.75663482 </i>
    <i name="e_0_energy">    -93.75663482 </i>
   </energy>
  </scstep>
  <scstep>
   <time name="dav">    0.04    0.04</time>
   <time name="total">    0.18    0.18</time>
   <energy>
    <i name="e_fr_energy">    -93.75665940 </i>
    <i name="e_wo_entrp">    -93.75665940 </i>
    <i name="e_0_energy">    -93.75665940 </i>
   </energy>
  </scstep>
  <scstep>
   <time name="dav">    0.20    0.20</time>
   <time name="total">    0.35    0.35</time>
   <energy>
    <i name="e_fr_energy">    -93.75662583 </i>
    <i name="e_wo_entrp">    -93.75662583 </i>
    <i name="e_0_energy">    -93.75662583 </i>
   </energy>
  </scstep>
  <scstep>
   <time name="dav">    0.04    0.04</time>
   <time name="total">    0.20    0.20</time>
   <energy>
    <i name="e_fr_energy">    -93.75662677 </i>
    <i name="e_wo_entrp">    -93.75662677 </i>
    <i name="e_0_energy">    -93.75662677 </i>
   </energy>
  </scstep>
  <scstep>
   <time name="dav">    0.03    0.03</time>
   <time name="total">    0.16    0.17</time>
   <energy>
    <i name="alphaZ">    129.53385195 </i>
    <i name="ewald">  -2349.24849686 </i>
    <i name="hartreedc">  -1148.06200230 </i>
    <i name="XCdc">   -186.97414143 </i>
    <i name="pawpsdc">   3890.24511195 </i>
    <i name="pawaedc">  -3489.53138948 </i>
    <i name="eentropy">     -0.00000000 </i>
    <i name="bandstr">   -149.85612072 </i>
    <i name="atom">   3210.13655998 </i>
    <i name="e_fr_energy">    -93.75662691 </i>
    <i name="e_wo_entrp">    -93.75662691 </i>
    <i name="e_0_energy">    -93.75662691 </i>
   </energy>
  </scstep>
  <structure>
   <crystal>
    <varray name="basis" >
     <v>       0.00000000       4.24689302       4.24689302 </v>
     <v>       4.24689302       0.00000000       4.24689302 </v>
     <v>       4.24689302       4.24689302       0.00000000 </v>
    </varray>
    <i name="volume">    153.19477710 </i>
    <varray name="rec_basis" >
     <v>      -0.11773313       0.11773313       0.11773313 </v>
     <v>       0.11773313      -0.11773313       0.11773313 </v>
     <v>       0.11773313       0.11773313      -0.11773313 </v>
    </varray>
   </crystal>
   <varray name="positions" >
    <v>       0.00000000       0.00000000       0.00000000 </v>
    <v>      -0.01737990      -0.01737990       0.51737990 </v>
    <v>      -0.01737990       0.51737990      -0.01737990 </v>
    <v>      -0.01737990       0.51737990       0.51737990 </v>
    <v>       0.51737990      -0.01737990      -0.01737990 </v>
    <v>       0.51737990      -0.01737990       0.51737990 </v>
    <v>       0.51737990       0.51737990      -0.01737990 </v>
    <v>       0.50000000       0.50000000       0.50000000 </v>
    <v>       0.25000000       0.25000000       0.75000000 </v>
    <v>       0.25000000       0.75000000       0.25000000 </v>
    <v>       0.25000000       0.75000000       0.75000000 </v>
    <v>       0.75000000       0.25000000       0.25000000 </v>
    <v>       0.75000000       0.25000000       0.75000000 </v>
    <v>       0.75000000       0.75000000       0.25000000 </v>
    <v>       0.75000000       0.75000000       0.75000000 </v>
   </varray>
  </structure>
  <varray name="forces" >
   <v>      -0.00000000      -0.00000000      -0.00000000 </v>
   <v>      -0.00000000      -0.00000000       0.34018611 </v>
   <v>      -0.00000000       0.34018611      -0.00000000 </v>
   <v>      -0.34018611      -0.00000000      -0.00000000 </v>
   <v>       0.34018611      -0.00000000      -0.00000000 </v>
   <v>      -0.00000000      -0.34018611      -0.00000000 </v>
   <v>      -0.00000000      -0.00000000      -0.34018611 </v>
   <v>      -0.00000000      -0.00000000      -0.00000000 </v>
   <v>      -0.00000000      -0.00000000      -0.00000000 </v>
   <v>      -0.00000000      -0.00000000      -0.00000000 </v>
   <v>      -0.00000000      -0.00000000      -0.00000000 </v>
   <v>      -0.00000000      -0.00000000      -0.00000000 </v>
   <v>      -0.00000000      -0.00000000      -0.00000000 </v>
   <v>      -0.00000000      -0.00000000      -0.00000000 </v>
   <v>      -0.00000000      -0.00000000      -0.00000000 </v>
  </varray>
  <varray name="stress" >
   <v>    -159.30637967      -0.00000000       0.00000000 </v>
   <v>       0.00000000    -159.30637967      -0.00000000 </v>
   <v>      -0.00000000       0.00000000    -159.30637967 </v>
  </varray>
  <energy>
   <i name="e_fr_energy">    -93.75662691 </i>
   <i name="e_wo_entrp">    -93.75662691 </i>
   <i name="e_0_energy">     -0.00000000 </i>
  </energy>
  <time name="totalsc">    2.35    2.39</time>
 </calculation>
 <calculation>
  <scstep>
   <time name="dav">    0.04    0.03</time>
   <time name="total">    0.18    0.18</time>
   <energy>
    <i name="alphaZ">    129.53385195 </i>
    <i name="ewald">  -2351.61486547 </i>
    <i name="hartreedc">  -1146.63396296 </i>
    <i name="XCdc">   -187.00320082 </i>
    <i name="pawpsdc">   3890.24852526 </i>
    <i name="pawaedc">  -3489.53476865 </i>
    <i name="eentropy">     -0.00000000 </i>
    <i name="bandstr">   -148.90115764 </i>
    <i name="atom">   3210.13655998 </i>
    <i name="e_fr_energy">    -93.76901835 </i>
    <i name="e_wo_entrp">    -93.76901835 </i>
    <i name="e_0_energy">    -93.76901835 </i>
   </energy>
  </scstep>
  <scstep>
   <time name="dav">    0.04    0.04</time>
   <time name="total">    0.18    0.18</time>
   <energy>
    <i name="e_fr_energy">    -93.76931542 </i>
    <i name="e_wo_entrp">    -93.76931542 </i>
    <i name="e_0_energy">    -93.76931542 </i>
   </energy>
  </scstep>
  <scstep>
   <time name="dav">    0.04    0.05</time>
   <time name="total">    0.19    0.19</time>
   <energy>
    <i name="e_fr_energy">    -93.76915708 </i>
    <i name="e_wo_entrp">    -93.76915708 </i>
    <i name="e_0_energy">    -93.76915708 </i>
   </energy>
  </scstep>
  <scstep>
   <time name="dav">    0.04    0.04</time>
   <time name="total">    0.18    0.19</time>
   <energy>
    <i name="e_fr_energy">    -93.76911892 </i>
    <i name="e_wo_entrp">    -93.76911892 </i>
    <i name="e_0_energy">    -93.76911892 </i>
   </energy>
  </scstep>
  <scstep>
   <time name="dav">    0.04    0.04</time>
   <time name="total">    0.18    0.18</time>
   <energy>
    <i name="e_fr_energy">    -93.76904276 </i>
    <i name="e_wo_entrp">    -93.76904276 </i>
    <i name="e_0_energy">    -93.76904276 </i>
   </energy>
  </scstep>
  <scstep>
   <time name="dav">    0.04    0.04</time>
   <time name="total">    0.18    0.18</time>
   <energy>
    <i name="e_fr_energy">    -93.76904740 </i>
    <i name="e_wo_entrp">    -93.76904740 </i>
    <i name="e_0_energy">    -93.76904740 </i>
   </energy>
  </scstep>
  <scstep>
   <time name="dav">    0.03    0.03</time>
   <time name="total">    0.16    0.17</time>
   <energy>
    <i name="alphaZ">    129.53385195 </i>
    <i name="ewald">  -2351.61486547 </i>
    <i name="hartreedc">  -1146.53387539 </i>
    <i name="XCdc">   -187.03049075 </i>
    <i name="pawpsdc">   3886.80649958 </i>
    <i name="pawaedc">  -3486.08304508 </i>
    <i name="eentropy">     -0.00000000 </i>
    <i name="bandstr">   -148.98368202 </i>
    <i name="atom">   3210.13655998 </i>
    <i name="e_fr_energy">    -93.76904720 </i>
    <i name="e_wo_entrp">    -93.76904720 </i>
    <i name="e_0_energy">    -93.76904720 </i>
   </energy>
  </scstep>
  <structure>
   <crystal>
    <varray name="basis" >
     <v>       0.00000000       4.24689302       4.24689302 </v>
     <v>       4.24689302       0.00000000       4.24689302 </v>
     <v>       4.24689302       4.24689302       0.00000000 </v>
    </varray>
    <i name="volume">    153.19477710 </i>
    <varray name="rec_basis" >
     <v>      -0.11773313       0.11773313       0.11773313 </v>
     <v>       0.11773313      -0.11773313       0.11773313 </v>
     <v>       0.11773313       0.11773313      -0.11773313 </v>
    </varray>
   </crystal>
   <varray name="positions" >
    <v>       0.00000000       0.00000000       0.00000000 </v>
    <v>      -0.01605940      -0.01605940       0.51605940 </v>
    <v>      -0.01605940       0.51605940      -0.01605940 </v>
    <v>      -0.01605940       0.51605940       0.51605940 </v>
    <v>       0.51605940      -0.01605940      -0.01605940 </v>
    <v>       0.51605940      -0.01605940       0.51605940 </v>
    <v>       0.51605940       0.51605940      -0.01605940 </v>
    <v>       0.50000000       0.50000000       0.50000000 </v>
    <v>       0.25000000       0.25000000       0.75000000 </v>
    <v>       0.25000000       0.75000000       0.25000000 </v>
    <v>       0.25000000       0.75000000       0.75000000 </v>
    <v>       0.75000000       0.25000000       0.25000000 </v>
    <v>       0.75000000       0.25000000       0.75000000 </v>
    <v>       0.75000000       0.75000000       0.25000000 </v>
    <v>       0.75000000       0.75000000       0.75000000 </v>
   </varray>
  </structure>
  <varray name="forces" >
   <v>      -0.00000000       0.00000000      -0.00000000 </v>
   <v>      -0.00000000       0.00000000       0.02949654 </v>
   <v>      -0.00000000       0.02949654      -0.00000000 </v>
   <v>      -0.02949654       0.00000000      -0.00000000 </v>
   <v>       0.02949654       0.00000000      -0.00000000 </v>
   <v>      -0.00000000      -0.02949654      -0.00000000 </v>
   <v>      -0.00000000       0.00000000      -0.02949654 </v>
   <v>      -0.00000000       0.00000000      -0.00000000 </v>
   <v>      -0.00000000       0.00000000      -0.00000000 </v>
   <v>      -0.00000000      -0.00000000      -0.00000000 </v>
   <v>      -0.00000000       0.00000000      -0.00000000 </v>
   <v>      -0.00000000       0.00000000      -0.00000000 </v>
   <v>      -0.00000000      -0.00000000      -0.00000000 </v>
   <v>      -0.00000000       0.00000000      -0.00000000 </v>
   <v>      -0.00000000      -0.00000000      -0.00000000 </v>
  </varray>
  <varray name="stress" >
   <v>    -162.65410457       0.00000000      -0.00000000 </v>
   <v>       0.00000000    -162.65410457      -0.00000000 </v>
   <v>       0.00000000       0.00000000    -162.65410457 </v>
  </varray>
  <energy>
   <i name="e_fr_energy">    -93.76904720 </i>
   <i name="e_wo_entrp">    -93.76904720 </i>
   <i name="e_0_energy">     -0.00000000 </i>
  </energy>
  <time name="totalsc">    1.60    1.63</time>
  <eigenvalues>
   <array>
    <dimension dim="1">band</dimension>
    <dimension dim="2">kpoint</dimension>
    <dimension dim="3">spin</dimension>
    <field>eigene</field>
    <field>occ</field>
    <set>
     <set comment="spin 1">
      <set comment="kpoint 1">
       <r>  -14.2806    1.0000 </r>
       <r>  -13.4696    1.0000 </r>
       <r>  -13.1066    1.0000 </r>
       <r>  -12.9398    1.0000 </r>
       <r>  -12.9398    1.0000 </r>
       <r>  -12.7681    1.0000 </r>
       <r>  -12.7681    1.0000 </r>
       <r>   -1.4322    1.0000 </r>
       <r>   -1.4322    1.0000 </r>
       <r>   -1.2961    1.0000 </r>
       <r>   -0.9877    1.0000 </r>
       <r>   -0.6670    1.0000 </r>
       <r>   -0.3208    1.0000 </r>
       <r>   -0.3208    1.0000 </r>
       <r>    0.9452    1.0000 </r>
       <r>    1.2223    1.0000 </r>
       <r>    1.2223    1.0000 </r>
       <r>    1.4722    1.0000 </r>
       <r>    1.4722    1.0000 </r>
       <r>    1.6674    1.0000 </r>
       <r>    1.7079    1.0000 </r>
       <r>    1.8786    1.0000 </r>
       <r>    1.8786    1.0000 </r>
       <r>    2.1577    1.0000 </r>
       <r>    2.3723    1.0000 </r>
       <r>    2.3723    1.0000 </r>
       <r>    2.5667    1.0000 </r>
       <r>    2.5667    1.0000 </r>
       <r>    4.3061    0.0000 </r>
       <r>    8.9622    0.0000 </r>
       <r>   10.0048    0.0000 </r>
       <r>   10.5871    0.0000 </r>
       <r>   10.5871    0.0000 </r>
       <r>   11.3740    0.0000 </r>
       <r>   11.6060    0.0000 </r>
       <r>   11.6060    0.0000 </r>
      </set>
      <set comment="kpoint 2">
       <r>  -14.1444    1.0000 </r>
       <r>  -13.4227    1.0000 </r>
       <r>  -13.2385    1.0000 </r>
       <r>  -12.9832    1.0000 </r>
       <r>  -12.9615    1.0000 </r>
       <r>  -12.8634    1.0000 </r>
       <r>  -12.7333    1.0000 </r>
       <r>   -0.9824    1.0000 </r>
       <r>   -0.9814    1.0000 </r>
       <r>   -0.8391    1.0000 </r>
       <r>   -0.5031    1.0000 </r>
       <r>   -0.3256    1.0000 </r>
       <r>   -0.1488    1.0000 </r>
       <r>    0.1553    1.0000 </r>
       <r>    0.4080    1.0000 </r>
       <r>    0.6119    1.0000 </r>
       <r>    0.6527    1.0000 </r>
       <r>    1.0225    1.0000 </r>
       <r>    1.2301    1.0000 </r>
       <r>    1.2880    1.0000 </r>
       <r>    1.5418    1.0000 </r>
       <r>    1.5436    1.0000 </r>
       <r>    1.7448    1.0000 </r>
       <r>    1.9201    1.0000 </r>
       <r>    2.0783    1.0000 </r>
       <r>    2.2655    1.0000 </r>
       <r>    2.3217    1.0000 </r>
       <r>    2.4294    1.0000 </r>
       <r>    5.3997    0.0000 </r>
       <r>    8.5505    0.0000 </r>
       <r>    9.4856    0.0000 </r>
       <r>    9.9455    0.0000 </r>
       <r>   11.0490    0.0000 </r>
       <r>   11.9159    0.0000 </r>
       <r>   12.5617    0.0000 </r>
       <r>   12.8315    0.0000 </r>
      </set>
     </set>
    </set>
   </array>
  </eigenvalues>
  <separator name="orbital magnetization" >
   <v name="MAGDIPOLOUT">      0.00000000      0.00000000      0.00000000</v>
  </separator>
  <dos>
   <i name="efermi">      2.86046550 </i>
   <total>
    <array>
     <dimension dim="1">gridpoints</dimension>
     <dimension dim="2">spin</dimension>
     <field>energy</field>
     <field>total</field>
     <field>integrated</field>
     <set>
      <set comment="spin 1">
       <r>   -15.6362     0.0000     0.0000 </r>
       <r>   -15.5368     0.0000     0.0000 </r>
       <r>   -15.4374     0.0000     0.0000 </r>
       <r>   -15.3380     0.0000     0.0000 </r>
       <r>   -15.2386     0.0000     0.0000 </r>
       <r>   -15.1392     0.0000     0.0000 </r>
       <r>   -15.0398     0.0000     0.0000 </r>
       <r>   -14.9404     0.0000     0.0000 </r>
       <r>   -14.8409     0.0000     0.0000 </r>
       <r>   -14.7415     0.0000     0.0000 </r>
       <r>   -14.6421     0.0000     0.0000 </r>
       <r>   -14.5427     0.0000     0.0000 </r>
       <r>   -14.4433     0.0000     0.0000 </r>
       <r>   -14.3439     0.1850     0.0184 </r>
       <r>   -14.2445     4.1088     0.4269 </r>
       <r>   -14.1451     8.1704     1.2391 </r>
       <r>   -14.0457     7.6149     1.9961 </r>
       <r>   -13.9462     0.0393     2.0000 </r>
       <r>   -13.8468     0.0000     2.0000 </r>
       <r>   -13.7474     0.0000     2.0000 </r>
       <r>   -13.6480     0.0000     2.0000 </r>
       <r>   -13.5486     0.0668     2.0066 </r>
       <r>   -13.4492     6.9692     2.6995 </r>
       <r>   -13.3498    12.7978     3.9717 </r>
       <r>   -13.2504     5.8500     4.5533 </r>
       <r>   -13.1510     9.9499     5.5424 </r>
       <r>   -13.0515     4.7931     6.0189 </r>
       <r>   -12.9521    24.9020     8.4944 </r>
       <r>   -12.8527    24.4757    10.9276 </r>
       <r>   -12.7533    16.7112    12.5889 </r>
       <r>   -12.6539    14.0019    13.9808 </r>
       <r>   -12.5545     0.1930    14.0000 </r>
       <r>   -12.4551     0.0000    14.0000 </r>
       <r>   -12.3557     0.0000    14.0000 </r>
       <r>   -12.2563     0.0000    14.0000 </r>
       <r>   -12.1568     0.0000    14.0000 </r>
       <r>   -12.0574     0.0000    14.0000 </r>
       <r>   -11.9580     0.0000    14.0000 </r>
       <r>   -11.8586     0.0000    14.0000 </r>
       <r>   -11.7592     0.0000    14.0000 </r>
       <r>   -11.6598     0.0000    14.0000 </r>
       <r>   -11.5604     0.0000    14.0000 </r>
       <r>   -11.4610     0.0000    14.0000 </r>
       <r>   -11.3616     0.0000    14.0000 </r>
       <r>   -11.2621     0.0000    14.0000 </r>
       <r>   -11.1627     0.0000    14.0000 </r>
       <r>   -11.0633     0.0000    14.0000 </r>
       <r>   -10.9639     0.0000    14.0000 </r>
       <r>   -10.8645     0.0000    14.0000 </r>
       <r>   -10.7651     0.0000    14.0000 </r>
       <r>   -10.6657     0.0000    14.0000 </r>
       <r>   -10.5663     0.0000    14.0000 </r>
       <r>   -10.4669     0.0000    14.0000 </r>
       <r>   -10.3674     0.0000    14.0000 </r>
       <r>   -10.2680     0.0000    14.0000 </r>
       <r>   -10.1686     0.0000    14.0000 </r>
       <r>   -10.0692     0.0000    14.0000 </r>
       <r>    -9.9698     0.0000    14.0000 </r>
       <r>    -9.8704     0.0000    14.0000 </r>
       <r>    -9.7710     0.0000    14.0000 </r>
       <r>    -9.6716     0.0000    14.0000 </r>
       <r>    -9.5722     0.0000    14.0000 </r>
       <r>    -9.4727     0.0000    14.0000 </r>
       <r>    -9.3733     0.0000    14.0000 </r>
       <r>    -9.2739     0.0000    14.0000 </r>
       <r>    -9.1745     0.0000    14.0000 </r>
       <r>    -9.0751     0.0000    14.0000 </r>
       <r>    -8.9757     0.0000    14.0000 </r>
       <r>    -8.8763     0.0000    14.0000 </r>
       <r>    -8.7769     0.0000    14.0000 </r>
       <r>    -8.6774     0.0000    14.0000 </r>
       <r>    -8.5780     0.0000    14.0000 </r>
       <r>    -8.4786     0.0000    14.0000 </r>
       <r>    -8.3792     0.0000    14.0000 </r>
       <r>    -8.2798     0.0000    14.0000 </r>
       <r>    -8.1804     0.0000    14.0000 </r>
       <r>    -8.0810     0.0000    14.0000 </r>
       <r>    -7.9816     0.0000    14.0000 </r>
       <r>    -7.8822     0.0000    14.0000 </r>
       <r>    -7.7827     0.0000    14.0000 </r>
       <r>    -7.6833     0.0000    14.0000 </r>
       <r>    -7.5839     0.0000    14.0000 </r>
       <r>    -7.4845     0.0000    14.0000 </r>
       <r>    -7.3851     0.0000    14.0000 </r>
       <r>    -7.2857     0.0000    14.0000 </r>
       <r>    -7.1863     0.0000    14.0000 </r>
       <r>    -7.0869     0.0000    14.0000 </r>
       <r>    -6.9875     0.0000    14.0000 </r>
       <r>    -6.8880     0.0000    14.0000 </r>
       <r>    -6.7886     0.0000    14.0000 </r>
       <r>    -6.6892     0.0000    14.0000 </r>
       <r>    -6.5898     0.0000    14.0000 </r>
       <r>    -6.4904     0.0000    14.0000 </r>
       <r>    -6.3910     0.0000    14.0000 </r>
       <r>    -6.2916     0.0000    14.0000 </r>
       <r>    -6.1922     0.0000    14.0000 </r>
       <r>    -6.0928     0.0000    14.0000 </r>
       <r>    -5.9933     0.0000    14.0000 </r>
       <r>    -5.8939     0.0000    14.0000 </r>
       <r>    -5.7945     0.0000    14.0000 </r>
       <r>    -5.6951     0.0000    14.0000 </r>
       <r>    -5.5957     0.0000    14.0000 </r>
       <r>    -5.4963     0.0000    14.0000 </r>
       <r>    -5.3969     0.0000    14.0000 </r>
       <r>    -5.2975     0.0000    14.0000 </r>
       <r>    -5.1981     0.0000    14.0000 </r>
       <r>    -5.0986     0.0000    14.0000 </r>
       <r>    -4.9992     0.0000    14.0000 </r>
       <r>    -4.8998     0.0000    14.0000 </r>
       <r>    -4.8004     0.0000    14.0000 </r>
       <r>    -4.7010     0.0000    14.0000 </r>
       <r>    -4.6016     0.0000    14.0000 </r>
       <r>    -4.5022     0.0000    14.0000 </r>
       <r>    -4.4028     0.0000    14.0000 </r>
       <r>    -4.3034     0.0000    14.0000 </r>
       <r>    -4.2039     0.0000    14.0000 </r>
       <r>    -4.1045     0.0000    14.0000 </r>
       <r>    -4.0051     0.0000    14.0000 </r>
       <r>    -3.9057     0.0000    14.0000 </r>
       <r>    -3.8063     0.0000    14.0000 </r>
       <r>    -3.7069     0.0000    14.0000 </r>
       <r>    -3.6075     0.0000    14.0000 </r>
       <r>    -3.5081     0.0000    14.0000 </r>
       <r>    -3.4087     0.0000    14.0000 </r>
       <r>    -3.3092     0.0000    14.0000 </r>
       <r>    -3.2098     0.0000    14.0000 </r>
       <r>    -3.1104     0.0000    14.0000 </r>
       <r>    -3.0110     0.0000    14.0000 </r>
       <r>    -2.9116     0.0000    14.0000 </r>
       <r>    -2.8122     0.0000    14.0000 </r>
       <r>    -2.7128     0.0000    14.0000 </r>
       <r>    -2.6134     0.0000    14.0000 </r>
       <r>    -2.5140     0.0000    14.0000 </r>
       <r>    -2.4145     0.0000    14.0000 </r>
       <r>    -2.3151     0.0000    14.0000 </r>
       <r>    -2.2157     0.0000    14.0000 </r>
       <r>    -2.1163     0.0000    14.0000 </r>
       <r>    -2.0169     0.0000    14.0000 </r>
       <r>    -1.9175     0.0000    14.0000 </r>
       <r>    -1.8181     0.0000    14.0000 </r>
       <r>    -1.7187     0.0000    14.0000 </r>
       <r>    -1.6193     0.0000    14.0000 </r>
       <r>    -1.5198     0.0663    14.0066 </r>
       <r>    -1.4204     6.2764    14.6305 </r>
       <r>    -1.3210     4.9163    15.1193 </r>
       <r>    -1.2216     3.7413    15.4912 </r>
       <r>    -1.1222     0.0899    15.5001 </r>
       <r>    -1.0228     4.5323    15.9507 </r>
       <r>    -0.9234    29.1482    18.8484 </r>
       <r>    -0.8240    11.5651    19.9981 </r>
       <r>    -0.7246     5.3002    20.5250 </r>
       <r>    -0.6251     4.1877    20.9413 </r>
       <r>    -0.5257     4.5362    21.3922 </r>
       <r>    -0.4263    10.9660    22.4824 </r>
       <r>    -0.3269    11.8298    23.6584 </r>
       <r>    -0.2275    13.6081    25.0112 </r>
       <r>    -0.1281    10.7645    26.0813 </r>
       <r>    -0.0287     4.2068    26.4995 </r>
       <r>     0.0707     0.1321    26.5126 </r>
       <r>     0.1701     9.8810    27.4949 </r>
       <r>     0.2696     5.0723    27.9991 </r>
       <r>     0.3690     2.0453    28.2025 </r>
       <r>     0.4684    12.3922    29.4344 </r>
       <r>     0.5678     2.3862    29.6716 </r>
       <r>     0.6672    22.4201    31.9004 </r>
       <r>     0.7666     6.0215    32.4990 </r>
       <r>     0.8660     0.0728    32.5063 </r>
       <r>     0.9654     4.3433    32.9380 </r>
       <r>     1.0649    13.9694    34.3268 </r>
       <r>     1.1643     2.7228    34.5974 </r>
       <r>     1.2637    24.0729    36.9906 </r>
       <r>     1.3631    14.9384    38.4756 </r>
       <r>     1.4625     4.5357    38.9265 </r>
       <r>     1.5619    27.0370    41.6143 </r>
       <r>     1.6613    11.6792    42.7753 </r>
       <r>     1.7607    17.0927    44.4745 </r>
       <r>     1.8601     8.9839    45.3676 </r>
       <r>     1.9596    19.3491    47.2911 </r>
       <r>     2.0590     6.5221    47.9395 </r>
       <r>     2.1584    13.0595    49.2378 </r>
       <r>     2.2578     9.4129    50.1735 </r>
       <r>     2.3572    24.6246    52.6215 </r>
       <r>     2.4566    20.5171    54.6611 </r>
       <r>     2.5560     7.2397    55.3808 </r>
       <r>     2.6554     6.1676    55.9939 </r>
       <r>     2.7548     0.0609    56.0000 </r>
       <r>     2.8543     0.0000    56.0000 </r>
       <r>     2.9537     0.0000    56.0000 </r>
       <r>     3.0531     0.0000    56.0000 </r>
       <r>     3.1525     0.0000    56.0000 </r>
       <r>     3.2519     0.0000    56.0000 </r>
       <r>     3.3513     0.0000    56.0000 </r>
       <r>     3.4507     0.0000    56.0000 </r>
       <r>     3.5501     0.0000    56.0000 </r>
       <r>     3.6495     0.0000    56.0000 </r>
       <r>     3.7490     0.0000    56.0000 </r>
       <r>     3.8484     0.0000    56.0000 </r>
       <r>     3.9478     0.0000    56.0000 </r>
       <r>     4.0472     0.0000    56.0000 </r>
       <r>     4.1466     0.0000    56.0000 </r>
       <r>     4.2460     0.2247    56.0223 </r>
       <r>     4.3454     4.1367    56.4336 </r>
       <r>     4.4448     0.6679    56.5000 </r>
       <r>     4.5442     0.0002    56.5000 </r>
       <r>     4.6437     0.0000    56.5000 </r>
       <r>     4.7431     0.0000    56.5000 </r>
       <r>     4.8425     0.0000    56.5000 </r>
       <r>     4.9419     0.0000    56.5000 </r>
       <r>     5.0413     0.0000    56.5000 </r>
       <r>     5.1407     0.0000    56.5000 </r>
       <r>     5.2401     0.0000    56.5000 </r>
       <r>     5.3395     0.6698    56.5666 </r>
       <r>     5.4389    12.4045    57.7997 </r>
       <r>     5.5384     2.0139    57.9999 </r>
       <r>     5.6378     0.0007    58.0000 </r>
       <r>     5.7372     0.0000    58.0000 </r>
       <r>     5.8366     0.0000    58.0000 </r>
       <r>     5.9360     0.0000    58.0000 </r>
       <r>     6.0354     0.0000    58.0000 </r>
       <r>     6.1348     0.0000    58.0000 </r>
       <r>     6.2342     0.0000    58.0000 </r>
       <r>     6.3336     0.0000    58.0000 </r>
       <r>     6.4331     0.0000    58.0000 </r>
       <r>     6.5325     0.0000    58.0000 </r>
       <r>     6.6319     0.0000    58.0000 </r>
       <r>     6.7313     0.0000    58.0000 </r>
       <r>     6.8307     0.0000    58.0000 </r>
       <r>     6.9301     0.0000    58.0000 </r>
       <r>     7.0295     0.0000    58.0000 </r>
       <r>     7.1289     0.0000    58.0000 </r>
       <r>     7.2283     0.0000    58.0000 </r>
       <r>     7.3278     0.0000    58.0000 </r>
       <r>     7.4272     0.0000    58.0000 </r>
       <r>     7.5266     0.0000    58.0000 </r>
       <r>     7.6260     0.0000    58.0000 </r>
       <r>     7.7254     0.0000    58.0000 </r>
       <r>     7.8248     0.0000    58.0000 </r>
       <r>     7.9242     0.0000    58.0000 </r>
       <r>     8.0236     0.0000    58.0000 </r>
       <r>     8.1230     0.0000    58.0000 </r>
       <r>     8.2225     0.0000    58.0000 </r>
       <r>     8.3219     0.0000    58.0000 </r>
       <r>     8.4213     0.0019    58.0002 </r>
       <r>     8.5207     3.0061    58.2990 </r>
       <r>     8.6201    11.7105    59.4632 </r>
       <r>     8.7195     0.3703    59.5000 </r>
       <r>     8.8189     0.0001    59.5000 </r>
       <r>     8.9183     0.5402    59.5537 </r>
       <r>     9.0177     4.1974    59.9710 </r>
       <r>     9.1172     0.2919    60.0000 </r>
       <r>     9.2166     0.0000    60.0000 </r>
       <r>     9.3160     0.0000    60.0000 </r>
       <r>     9.4154     0.3547    60.0353 </r>
       <r>     9.5148    11.6484    61.1932 </r>
       <r>     9.6142     3.0836    61.4998 </r>
       <r>     9.7136     0.0021    61.5000 </r>
       <r>     9.8130     0.0014    61.5001 </r>
       <r>     9.9124     2.6652    61.7651 </r>
       <r>    10.0119    14.8810    63.2444 </r>
       <r>    10.1113     2.5643    63.4993 </r>
       <r>    10.2107     0.0065    63.5000 </r>
       <r>    10.3101     0.0000    63.5000 </r>
       <r>    10.4095     0.0000    63.5000 </r>
       <r>    10.5089     0.1358    63.5135 </r>
       <r>    10.6083     7.1658    64.2259 </r>
       <r>    10.7077     2.7544    64.4997 </r>
       <r>    10.8071     0.0032    64.5000 </r>
       <r>    10.9066     0.0004    64.5000 </r>
       <r>    11.0060     1.6869    64.6677 </r>
       <r>    11.1054    12.5661    65.9170 </r>
       <r>    11.2048     0.8353    66.0000 </r>
       <r>    11.3042     0.1215    66.0121 </r>
       <r>    11.4036     3.8958    66.3994 </r>
       <r>    11.5030     1.0297    66.5017 </r>
       <r>    11.6024     4.6093    66.9599 </r>
       <r>    11.7019     5.3988    67.4966 </r>
       <r>    11.8013     0.0427    67.5009 </r>
       <r>    11.9007     5.0204    68.0000 </r>
       <r>    12.0001     9.9293    68.9871 </r>
       <r>    12.0995     0.1303    69.0000 </r>
       <r>    12.1989     0.0000    69.0000 </r>
       <r>    12.2983     0.0000    69.0000 </r>
       <r>    12.3977     0.0000    69.0000 </r>
       <r>    12.4971     0.5132    69.0510 </r>
       <r>    12.5966    12.1338    70.2573 </r>
       <r>    12.6960     2.4416    70.5000 </r>
       <r>    12.7954     2.3130    70.7299 </r>
       <r>    12.8948    12.2210    71.9448 </r>
       <r>    12.9942     0.5550    72.0000 </r>
       <r>    13.0936     0.0000    72.0000 </r>
       <r>    13.1930     0.0000    72.0000 </r>
       <r>    13.2924     0.0000    72.0000 </r>
       <r>    13.3918     0.0000    72.0000 </r>
       <r>    13.4913     0.0000    72.0000 </r>
       <r>    13.5907     0.0000    72.0000 </r>
       <r>    13.6901     0.0000    72.0000 </r>
       <r>    13.7895     0.0000    72.0000 </r>
       <r>    13.8889     0.0000    72.0000 </r>
       <r>    13.9883     0.0000    72.0000 </r>
       <r>    14.0877     0.0000    72.0000 </r>
       <r>    14.1871     0.0000    72.0000 </r>
      </set>
     </set>
    </array>
   </total>
   <partial>
    <array>
     <dimension dim="1">gridpoints</dimension>
     <dimension dim="2">spin</dimension>
     <dimension dim="3">ion</dimension>
     <field>energy</field>
     <field>  s</field>
     <field> py</field>
     <field> pz</field>
     <field> px</field>
     <field>dxy</field>
     <field>dyz</field>
     <field>dz2</field>
     <field>dxz</field>
     <field>dx2</field>
     <set>
      <set comment="ion 1">
       <set comment="spin 1">
        <r>   -15.6362     0.0000     0.0000     0.0000     0.0000     0.0000     0.0000     0.0000     0.0000     0.0000 </r>
        <r>   -15.5368     0.0000     0.0000     0.0000     0.0000     0.0000     0.0000     0.0000     0.0000     0.0000 </r>
        <r>   -15.4374     0.0000     0.0000     0.0000     0.0000     0.0000     0.0000     0.0000     0.0000     0.0000 </r>
        <r>   -15.3380     0.0000     0.0000     0.0000     0.0000     0.0000     0.0000     0.0000     0.0000     0.0000 </r>
        <r>   -15.2386     0.0000     0.0000     0.0000     0.0000     0.0000     0.0000     0.0000     0.0000     0.0000 </r>
        <r>   -15.1392     0.0000     0.0000     0.0000     0.0000     0.0000     0.0000     0.0000     0.0000     0.0000 </r>
        <r>   -15.0398     0.0000     0.0000     0.0000     0.0000     0.0000     0.0000     0.0000     0.0000     0.0000 </r>
        <r>   -14.9404     0.0000     0.0000     0.0000     0.0000     0.0000     0.0000     0.0000     0.0000     0.0000 </r>
        <r>   -14.8409     0.0000     0.0000     0.0000     0.0000     0.0000     0.0000     0.0000     0.0000     0.0000 </r>
        <r>   -14.7415     0.0000     0.0000     0.0000     0.0000     0.0000     0.0000     0.0000     0.0000     0.0000 </r>
        <r>   -14.6421     0.0000     0.0000     0.0000     0.0000     0.0000     0.0000     0.0000     0.0000     0.0000 </r>
        <r>   -14.5427     0.0000     0.0000     0.0000     0.0000     0.0000     0.0000     0.0000     0.0000     0.0000 </r>
        <r>   -14.4433     0.0000     0.0000     0.0000     0.0000     0.0000     0.0000     0.0000     0.0000     0.0000 </r>
        <r>   -14.3439     0.0003     0.0000     0.0000     0.0000     0.0000     0.0000     0.0000     0.0000     0.0000 </r>
        <r>   -14.2445     0.0071     0.0002     0.0002     0.0002     0.0000     0.0000     0.0000     0.0000     0.0000 </r>
        <r>   -14.1451     0.0040     0.0003     0.0003     0.0011     0.0000     0.0000     0.0000     0.0000     0.0000 </r>
        <r>   -14.0457     0.0027     0.0002     0.0002     0.0011     0.0000     0.0000     0.0000     0.0000     0.0000 </r>
        <r>   -13.9462     0.0000     0.0000     0.0000     0.0000     0.0000     0.0000     0.0000     0.0000     0.0000 </r>
        <r>   -13.8468     0.0000     0.0000     0.0000     0.0000     0.0000     0.0000     0.0000     0.0000     0.0000 </r>
        <r>   -13.7474     0.0000     0.0000     0.0000     0.0000     0.0000     0.0000     0.0000     0.0000     0.0000 </r>
        <r>   -13.6480     0.0000     0.0000     0.0000     0.0000     0.0000     0.0000     0.0000     0.0000     0.0000 </r>
        <r>   -13.5486     0.0003     0.0000     0.0000     0.0000     0.0000     0.0000     0.0000     0.0000     0.0000 </r>
        <r>   -13.4492     0.0284     0.0010     0.0010     0.0010     0.0000     0.0000     0.0001     0.0000     0.0004 </r>
        <r>   -13.3498     0.0525     0.0023     0.0023     0.0025     0.0000     0.0000     0.0005     0.0000     0.0014 </r>
        <r>   -13.2504     0.0162     0.0033     0.0033     0.0010     0.0000     0.0000     0.0002     0.0000     0.0007 </r>
        <r>   -13.1510     0.0260     0.0059     0.0059     0.0020     0.0000     0.0000     0.0004     0.0000     0.0011 </r>
        <r>   -13.0515     0.0054     0.0038     0.0038     0.0035     0.0000     0.0000     0.0001     0.0000     0.0001 </r>
        <r>   -12.9521     0.0011     0.0184     0.0184     0.0223     0.0000     0.0000     0.0028     0.0000     0.0031 </r>
        <r>   -12.8527     0.0032     0.0143     0.0143     0.0203     0.0000     0.0000     0.0032     0.0000     0.0070 </r>
        <r>   -12.7533     0.0017     0.0054     0.0054     0.0026     0.0000     0.0000     0.0090     0.0000     0.0083 </r>
        <r>   -12.6539     0.0000     0.0030     0.0030     0.0005     0.0000     0.0000     0.0119     0.0000     0.0054 </r>
        <r>   -12.5545     0.0000     0.0000     0.0000     0.0000     0.0000     0.0000     0.0002     0.0000     0.0001 </r>
        <r>   -12.4551     0.0000     0.0000     0.0000     0.0000     0.0000     0.0000     0.0000     0.0000     0.0000 </r>
        <r>   -12.3557     0.0000     0.0000     0.0000     0.0000     0.0000     0.0000     0.0000     0.0000     0.0000 </r>
        <r>   -12.2563     0.0000     0.0000     0.0000     0.0000     0.0000     0.0000     0.0000     0.0000     0.0000 </r>
        <r>   -12.1568     0.0000     0.0000     0.0000     0.0000     0.0000     0.0000     0.0000     0.0000     0.0000 </r>
        <r>   -12.0574     0.0000     0.0000     0.0000     0.0000     0.0000     0.0000     0.0000     0.0000     0.0000 </r>
        <r>   -11.9580     0.0000     0.0000     0.0000     0.0000     0.0000     0.0000     0.0000     0.0000     0.0000 </r>
        <r>   -11.8586     0.0000     0.0000     0.0000     0.0000     0.0000     0.0000     0.0000     0.0000     0.0000 </r>
        <r>   -11.7592     0.0000     0.0000     0.0000     0.0000     0.0000     0.0000     0.0000     0.0000     0.0000 </r>
        <r>   -11.6598     0.0000     0.0000     0.0000     0.0000     0.0000     0.0000     0.0000     0.0000     0.0000 </r>
        <r>   -11.5604     0.0000     0.0000     0.0000     0.0000     0.0000     0.0000     0.0000     0.0000     0.0000 </r>
        <r>   -11.4610     0.0000     0.0000     0.0000     0.0000     0.0000     0.0000     0.0000     0.0000     0.0000 </r>
        <r>   -11.3616     0.0000     0.0000     0.0000     0.0000     0.0000     0.0000     0.0000     0.0000     0.0000 </r>
        <r>   -11.2621     0.0000     0.0000     0.0000     0.0000     0.0000     0.0000     0.0000     0.0000     0.0000 </r>
        <r>   -11.1627     0.0000     0.0000     0.0000     0.0000     0.0000     0.0000     0.0000     0.0000     0.0000 </r>
        <r>   -11.0633     0.0000     0.0000     0.0000     0.0000     0.0000     0.0000     0.0000     0.0000     0.0000 </r>
        <r>   -10.9639     0.0000     0.0000     0.0000     0.0000     0.0000     0.0000     0.0000     0.0000     0.0000 </r>
        <r>   -10.8645     0.0000     0.0000     0.0000     0.0000     0.0000     0.0000     0.0000     0.0000     0.0000 </r>
        <r>   -10.7651     0.0000     0.0000     0.0000     0.0000     0.0000     0.0000     0.0000     0.0000     0.0000 </r>
        <r>   -10.6657     0.0000     0.0000     0.0000     0.0000     0.0000     0.0000     0.0000     0.0000     0.0000 </r>
        <r>   -10.5663     0.0000     0.0000     0.0000     0.0000     0.0000     0.0000     0.0000     0.0000     0.0000 </r>
        <r>   -10.4669     0.0000     0.0000     0.0000     0.0000     0.0000     0.0000     0.0000     0.0000     0.0000 </r>
        <r>   -10.3674     0.0000     0.0000     0.0000     0.0000     0.0000     0.0000     0.0000     0.0000     0.0000 </r>
        <r>   -10.2680     0.0000     0.0000     0.0000     0.0000     0.0000     0.0000     0.0000     0.0000     0.0000 </r>
        <r>   -10.1686     0.0000     0.0000     0.0000     0.0000     0.0000     0.0000     0.0000     0.0000     0.0000 </r>
        <r>   -10.0692     0.0000     0.0000     0.0000     0.0000     0.0000     0.0000     0.0000     0.0000     0.0000 </r>
        <r>    -9.9698     0.0000     0.0000     0.0000     0.0000     0.0000     0.0000     0.0000     0.0000     0.0000 </r>
        <r>    -9.8704     0.0000     0.0000     0.0000     0.0000     0.0000     0.0000     0.0000     0.0000     0.0000 </r>
        <r>    -9.7710     0.0000     0.0000     0.0000     0.0000     0.0000     0.0000     0.0000     0.0000     0.0000 </r>
        <r>    -9.6716     0.0000     0.0000     0.0000     0.0000     0.0000     0.0000     0.0000     0.0000     0.0000 </r>
        <r>    -9.5722     0.0000     0.0000     0.0000     0.0000     0.0000     0.0000     0.0000     0.0000     0.0000 </r>
        <r>    -9.4727     0.0000     0.0000     0.0000     0.0000     0.0000     0.0000     0.0000     0.0000     0.0000 </r>
        <r>    -9.3733     0.0000     0.0000     0.0000     0.0000     0.0000     0.0000     0.0000     0.0000     0.0000 </r>
        <r>    -9.2739     0.0000     0.0000     0.0000     0.0000     0.0000     0.0000     0.0000     0.0000     0.0000 </r>
        <r>    -9.1745     0.0000     0.0000     0.0000     0.0000     0.0000     0.0000     0.0000     0.0000     0.0000 </r>
        <r>    -9.0751     0.0000     0.0000     0.0000     0.0000     0.0000     0.0000     0.0000     0.0000     0.0000 </r>
        <r>    -8.9757     0.0000     0.0000     0.0000     0.0000     0.0000     0.0000     0.0000     0.0000     0.0000 </r>
        <r>    -8.8763     0.0000     0.0000     0.0000     0.0000     0.0000     0.0000     0.0000     0.0000     0.0000 </r>
        <r>    -8.7769     0.0000     0.0000     0.0000     0.0000     0.0000     0.0000     0.0000     0.0000     0.0000 </r>
        <r>    -8.6774     0.0000     0.0000     0.0000     0.0000     0.0000     0.0000     0.0000     0.0000     0.0000 </r>
        <r>    -8.5780     0.0000     0.0000     0.0000     0.0000     0.0000     0.0000     0.0000     0.0000     0.0000 </r>
        <r>    -8.4786     0.0000     0.0000     0.0000     0.0000     0.0000     0.0000     0.0000     0.0000     0.0000 </r>
        <r>    -8.3792     0.0000     0.0000     0.0000     0.0000     0.0000     0.0000     0.0000     0.0000     0.0000 </r>
        <r>    -8.2798     0.0000     0.0000     0.0000     0.0000     0.0000     0.0000     0.0000     0.0000     0.0000 </r>
        <r>    -8.1804     0.0000     0.0000     0.0000     0.0000     0.0000     0.0000     0.0000     0.0000     0.0000 </r>
        <r>    -8.0810     0.0000     0.0000     0.0000     0.0000     0.0000     0.0000     0.0000     0.0000     0.0000 </r>
        <r>    -7.9816     0.0000     0.0000     0.0000     0.0000     0.0000     0.0000     0.0000     0.0000     0.0000 </r>
        <r>    -7.8822     0.0000     0.0000     0.0000     0.0000     0.0000     0.0000     0.0000     0.0000     0.0000 </r>
        <r>    -7.7827     0.0000     0.0000     0.0000     0.0000     0.0000     0.0000     0.0000     0.0000     0.0000 </r>
        <r>    -7.6833     0.0000     0.0000     0.0000     0.0000     0.0000     0.0000     0.0000     0.0000     0.0000 </r>
        <r>    -7.5839     0.0000     0.0000     0.0000     0.0000     0.0000     0.0000     0.0000     0.0000     0.0000 </r>
        <r>    -7.4845     0.0000     0.0000     0.0000     0.0000     0.0000     0.0000     0.0000     0.0000     0.0000 </r>
        <r>    -7.3851     0.0000     0.0000     0.0000     0.0000     0.0000     0.0000     0.0000     0.0000     0.0000 </r>
        <r>    -7.2857     0.0000     0.0000     0.0000     0.0000     0.0000     0.0000     0.0000     0.0000     0.0000 </r>
        <r>    -7.1863     0.0000     0.0000     0.0000     0.0000     0.0000     0.0000     0.0000     0.0000     0.0000 </r>
        <r>    -7.0869     0.0000     0.0000     0.0000     0.0000     0.0000     0.0000     0.0000     0.0000     0.0000 </r>
        <r>    -6.9875     0.0000     0.0000     0.0000     0.0000     0.0000     0.0000     0.0000     0.0000     0.0000 </r>
        <r>    -6.8880     0.0000     0.0000     0.0000     0.0000     0.0000     0.0000     0.0000     0.0000     0.0000 </r>
        <r>    -6.7886     0.0000     0.0000     0.0000     0.0000     0.0000     0.0000     0.0000     0.0000     0.0000 </r>
        <r>    -6.6892     0.0000     0.0000     0.0000     0.0000     0.0000     0.0000     0.0000     0.0000     0.0000 </r>
        <r>    -6.5898     0.0000     0.0000     0.0000     0.0000     0.0000     0.0000     0.0000     0.0000     0.0000 </r>
        <r>    -6.4904     0.0000     0.0000     0.0000     0.0000     0.0000     0.0000     0.0000     0.0000     0.0000 </r>
        <r>    -6.3910     0.0000     0.0000     0.0000     0.0000     0.0000     0.0000     0.0000     0.0000     0.0000 </r>
        <r>    -6.2916     0.0000     0.0000     0.0000     0.0000     0.0000     0.0000     0.0000     0.0000     0.0000 </r>
        <r>    -6.1922     0.0000     0.0000     0.0000     0.0000     0.0000     0.0000     0.0000     0.0000     0.0000 </r>
        <r>    -6.0928     0.0000     0.0000     0.0000     0.0000     0.0000     0.0000     0.0000     0.0000     0.0000 </r>
        <r>    -5.9933     0.0000     0.0000     0.0000     0.0000     0.0000     0.0000     0.0000     0.0000     0.0000 </r>
        <r>    -5.8939     0.0000     0.0000     0.0000     0.0000     0.0000     0.0000     0.0000     0.0000     0.0000 </r>
        <r>    -5.7945     0.0000     0.0000     0.0000     0.0000     0.0000     0.0000     0.0000     0.0000     0.0000 </r>
        <r>    -5.6951     0.0000     0.0000     0.0000     0.0000     0.0000     0.0000     0.0000     0.0000     0.0000 </r>
        <r>    -5.5957     0.0000     0.0000     0.0000     0.0000     0.0000     0.0000     0.0000     0.0000     0.0000 </r>
        <r>    -5.4963     0.0000     0.0000     0.0000     0.0000     0.0000     0.0000     0.0000     0.0000     0.0000 </r>
        <r>    -5.3969     0.0000     0.0000     0.0000     0.0000     0.0000     0.0000     0.0000     0.0000     0.0000 </r>
        <r>    -5.2975     0.0000     0.0000     0.0000     0.0000     0.0000     0.0000     0.0000     0.0000     0.0000 </r>
        <r>    -5.1981     0.0000     0.0000     0.0000     0.0000     0.0000     0.0000     0.0000     0.0000     0.0000 </r>
        <r>    -5.0986     0.0000     0.0000     0.0000     0.0000     0.0000     0.0000     0.0000     0.0000     0.0000 </r>
        <r>    -4.9992     0.0000     0.0000     0.0000     0.0000     0.0000     0.0000     0.0000     0.0000     0.0000 </r>
        <r>    -4.8998     0.0000     0.0000     0.0000     0.0000     0.0000     0.0000     0.0000     0.0000     0.0000 </r>
        <r>    -4.8004     0.0000     0.0000     0.0000     0.0000     0.0000     0.0000     0.0000     0.0000     0.0000 </r>
        <r>    -4.7010     0.0000     0.0000     0.0000     0.0000     0.0000     0.0000     0.0000     0.0000     0.0000 </r>
        <r>    -4.6016     0.0000     0.0000     0.0000     0.0000     0.0000     0.0000     0.0000     0.0000     0.0000 </r>
        <r>    -4.5022     0.0000     0.0000     0.0000     0.0000     0.0000     0.0000     0.0000     0.0000     0.0000 </r>
        <r>    -4.4028     0.0000     0.0000     0.0000     0.0000     0.0000     0.0000     0.0000     0.0000     0.0000 </r>
        <r>    -4.3034     0.0000     0.0000     0.0000     0.0000     0.0000     0.0000     0.0000     0.0000     0.0000 </r>
        <r>    -4.2039     0.0000     0.0000     0.0000     0.0000     0.0000     0.0000     0.0000     0.0000     0.0000 </r>
        <r>    -4.1045     0.0000     0.0000     0.0000     0.0000     0.0000     0.0000     0.0000     0.0000     0.0000 </r>
        <r>    -4.0051     0.0000     0.0000     0.0000     0.0000     0.0000     0.0000     0.0000     0.0000     0.0000 </r>
        <r>    -3.9057     0.0000     0.0000     0.0000     0.0000     0.0000     0.0000     0.0000     0.0000     0.0000 </r>
        <r>    -3.8063     0.0000     0.0000     0.0000     0.0000     0.0000     0.0000     0.0000     0.0000     0.0000 </r>
        <r>    -3.7069     0.0000     0.0000     0.0000     0.0000     0.0000     0.0000     0.0000     0.0000     0.0000 </r>
        <r>    -3.6075     0.0000     0.0000     0.0000     0.0000     0.0000     0.0000     0.0000     0.0000     0.0000 </r>
        <r>    -3.5081     0.0000     0.0000     0.0000     0.0000     0.0000     0.0000     0.0000     0.0000     0.0000 </r>
        <r>    -3.4087     0.0000     0.0000     0.0000     0.0000     0.0000     0.0000     0.0000     0.0000     0.0000 </r>
        <r>    -3.3092     0.0000     0.0000     0.0000     0.0000     0.0000     0.0000     0.0000     0.0000     0.0000 </r>
        <r>    -3.2098     0.0000     0.0000     0.0000     0.0000     0.0000     0.0000     0.0000     0.0000     0.0000 </r>
        <r>    -3.1104     0.0000     0.0000     0.0000     0.0000     0.0000     0.0000     0.0000     0.0000     0.0000 </r>
        <r>    -3.0110     0.0000     0.0000     0.0000     0.0000     0.0000     0.0000     0.0000     0.0000     0.0000 </r>
        <r>    -2.9116     0.0000     0.0000     0.0000     0.0000     0.0000     0.0000     0.0000     0.0000     0.0000 </r>
        <r>    -2.8122     0.0000     0.0000     0.0000     0.0000     0.0000     0.0000     0.0000     0.0000     0.0000 </r>
        <r>    -2.7128     0.0000     0.0000     0.0000     0.0000     0.0000     0.0000     0.0000     0.0000     0.0000 </r>
        <r>    -2.6134     0.0000     0.0000     0.0000     0.0000     0.0000     0.0000     0.0000     0.0000     0.0000 </r>
        <r>    -2.5140     0.0000     0.0000     0.0000     0.0000     0.0000     0.0000     0.0000     0.0000     0.0000 </r>
        <r>    -2.4145     0.0000     0.0000     0.0000     0.0000     0.0000     0.0000     0.0000     0.0000     0.0000 </r>
        <r>    -2.3151     0.0000     0.0000     0.0000     0.0000     0.0000     0.0000     0.0000     0.0000     0.0000 </r>
        <r>    -2.2157     0.0000     0.0000     0.0000     0.0000     0.0000     0.0000     0.0000     0.0000     0.0000 </r>
        <r>    -2.1163     0.0000     0.0000     0.0000     0.0000     0.0000     0.0000     0.0000     0.0000     0.0000 </r>
        <r>    -2.0169     0.0000     0.0000     0.0000     0.0000     0.0000     0.0000     0.0000     0.0000     0.0000 </r>
        <r>    -1.9175     0.0000     0.0000     0.0000     0.0000     0.0000     0.0000     0.0000     0.0000     0.0000 </r>
        <r>    -1.8181     0.0000     0.0000     0.0000     0.0000     0.0000     0.0000     0.0000     0.0000     0.0000 </r>
        <r>    -1.7187     0.0000     0.0000     0.0000     0.0000     0.0000     0.0000     0.0000     0.0000     0.0000 </r>
        <r>    -1.6193     0.0000     0.0000     0.0000     0.0000     0.0000     0.0000     0.0000     0.0000     0.0000 </r>
        <r>    -1.5198     0.0000     0.0000     0.0000     0.0000     0.0000     0.0000     0.0000     0.0000     0.0000 </r>
        <r>    -1.4204     0.0000     0.0026     0.0026     0.0026     0.0020     0.0020     0.0001     0.0020     0.0001 </r>
        <r>    -1.3210     0.0053     0.0022     0.0022     0.0022     0.0016     0.0016     0.0001     0.0016     0.0001 </r>
        <r>    -1.2216     0.0165     0.0020     0.0020     0.0020     0.0012     0.0012     0.0000     0.0012     0.0000 </r>
        <r>    -1.1222     0.0004     0.0000     0.0000     0.0000     0.0000     0.0000     0.0000     0.0000     0.0000 </r>
        <r>    -1.0228     0.0307     0.0023     0.0023     0.0008     0.0005     0.0022     0.0001     0.0005     0.0001 </r>
        <r>    -0.9234     0.1556     0.0143     0.0143     0.0040     0.0035     0.0145     0.0008     0.0035     0.0006 </r>
        <r>    -0.8240     0.0383     0.0056     0.0056     0.0107     0.0016     0.0029     0.0004     0.0016     0.0011 </r>
        <r>    -0.7246     0.0171     0.0031     0.0031     0.0060     0.0008     0.0011     0.0002     0.0008     0.0006 </r>
        <r>    -0.6251     0.0174     0.0106     0.0106     0.0106     0.0008     0.0008     0.0000     0.0008     0.0000 </r>
        <r>    -0.5257     0.0290     0.0065     0.0065     0.0082     0.0010     0.0002     0.0004     0.0010     0.0012 </r>
        <r>    -0.4263     0.0744     0.0139     0.0139     0.0187     0.0024     0.0003     0.0011     0.0024     0.0033 </r>
        <r>    -0.3269     0.1922     0.0171     0.0171     0.0260     0.0012     0.0017     0.0021     0.0012     0.0051 </r>
        <r>    -0.2275     0.2031     0.0211     0.0211     0.0298     0.0014     0.0021     0.0024     0.0014     0.0055 </r>
        <r>    -0.1281     0.0279     0.0305     0.0305     0.0003     0.0001     0.0045     0.0000     0.0001     0.0001 </r>
        <r>    -0.0287     0.0106     0.0119     0.0119     0.0001     0.0000     0.0018     0.0000     0.0000     0.0000 </r>
        <r>     0.0707     0.0000     0.0004     0.0004     0.0000     0.0000     0.0000     0.0000     0.0000     0.0000 </r>
        <r>     0.1701     0.0000     0.0294     0.0294     0.0000     0.0037     0.0000     0.0024     0.0037     0.0008 </r>
        <r>     0.2696     0.0000     0.0151     0.0151     0.0000     0.0019     0.0000     0.0012     0.0019     0.0004 </r>
        <r>     0.3690     0.0087     0.0016     0.0016     0.0014     0.0006     0.0004     0.0002     0.0006     0.0005 </r>
        <r>     0.4684     0.0531     0.0098     0.0098     0.0088     0.0034     0.0024     0.0010     0.0034     0.0030 </r>
        <r>     0.5678     0.0042     0.0059     0.0059     0.0006     0.0007     0.0001     0.0005     0.0007     0.0004 </r>
        <r>     0.6672     0.1062     0.0452     0.0452     0.0140     0.0076     0.0009     0.0067     0.0076     0.0112 </r>
        <r>     0.7666     0.0555     0.0046     0.0046     0.0073     0.0023     0.0004     0.0020     0.0023     0.0054 </r>
        <r>     0.8660     0.0002     0.0001     0.0001     0.0001     0.0000     0.0000     0.0000     0.0000     0.0000 </r>
        <r>     0.9654     0.0076     0.0048     0.0048     0.0112     0.0007     0.0007     0.0002     0.0007     0.0005 </r>
        <r>     1.0649     0.0066     0.0075     0.0075     0.1081     0.0008     0.0003     0.0028     0.0008     0.0084 </r>
        <r>     1.1643     0.0005     0.0014     0.0014     0.0153     0.0004     0.0001     0.0005     0.0004     0.0012 </r>
        <r>     1.2637     0.0249     0.0118     0.0118     0.0115     0.0084     0.0021     0.0038     0.0084     0.0058 </r>
        <r>     1.3631     0.0749     0.0028     0.0028     0.0073     0.0026     0.0026     0.0048     0.0026     0.0134 </r>
        <r>     1.4625     0.0018     0.0033     0.0033     0.0033     0.0008     0.0008     0.0005     0.0008     0.0007 </r>
        <r>     1.5619     0.0025     0.0225     0.0225     0.0160     0.0035     0.0021     0.0060     0.0035     0.0059 </r>
        <r>     1.6613     0.0045     0.0083     0.0083     0.0054     0.0011     0.0004     0.0024     0.0011     0.0023 </r>
        <r>     1.7607     0.0313     0.0111     0.0111     0.0065     0.0025     0.0004     0.0024     0.0025     0.0008 </r>
        <r>     1.8601     0.0029     0.0057     0.0057     0.0084     0.0011     0.0000     0.0057     0.0011     0.0054 </r>
        <r>     1.9596     0.0066     0.0066     0.0066     0.0980     0.0021     0.0000     0.0143     0.0021     0.0234 </r>
        <r>     2.0590     0.0011     0.0017     0.0017     0.0148     0.0004     0.0000     0.0044     0.0004     0.0035 </r>
        <r>     2.1584     0.0000     0.0039     0.0039     0.0000     0.0001     0.0000     0.0084     0.0001     0.0028 </r>
        <r>     2.2578     0.0012     0.0198     0.0198     0.0012     0.0003     0.0010     0.0053     0.0003     0.0133 </r>
        <r>     2.3572     0.0017     0.0666     0.0666     0.0038     0.0008     0.0014     0.0391     0.0008     0.0376 </r>
        <r>     2.4566     0.0000     0.0220     0.0220     0.0042     0.0002     0.0000     0.0889     0.0002     0.0462 </r>
        <r>     2.5560     0.0000     0.0096     0.0096     0.0067     0.0001     0.0001     0.0198     0.0001     0.0080 </r>
[...]
        <r>  0.0000  0.1797  0.1797  0.0000  0.0000  0.0000  0.0000  0.0000  0.0000 </r>
        <r>  0.0000  0.0172  0.0234  0.0262  0.0000  0.0000  0.0000  0.0000  0.0000 </r>
        <r>  0.0000  0.0234  0.0172  0.0262  0.0000  0.0000  0.0000  0.0000  0.0000 </r>
        <r>  0.0000  0.0609  0.0609  0.0000  0.0000  0.0000  0.0000  0.0000  0.0000 </r>
       </set>
       <set comment="band 24">
        <r>  0.0005  0.0000  0.0000  0.0074  0.0002  0.0000  0.0004  0.0002  0.0011 </r>
        <r>  0.0002  0.0001  0.0002  0.0025  0.0006  0.0001  0.0001  0.0000  0.0010 </r>
        <r>  0.0002  0.0002  0.0001  0.0025  0.0000  0.0001  0.0010  0.0006  0.0001 </r>
        <r>  0.0001  0.0001  0.0001  0.0001  0.0002  0.0002  0.0000  0.0002  0.0001 </r>
        <r>  0.0001  0.0001  0.0001  0.0001  0.0002  0.0002  0.0000  0.0002  0.0001 </r>
        <r>  0.0002  0.0002  0.0001  0.0025  0.0000  0.0001  0.0010  0.0006  0.0001 </r>
        <r>  0.0002  0.0001  0.0002  0.0025  0.0006  0.0001  0.0001  0.0000  0.0010 </r>
        <r>  0.0005  0.0000  0.0000  0.0074  0.0002  0.0000  0.0004  0.0002  0.0011 </r>
        <r>  0.0001  0.0006  0.0111  0.0513  0.0000  0.0000  0.0000  0.0000  0.0000 </r>
        <r>  0.0001  0.0111  0.0006  0.0513  0.0000  0.0000  0.0000  0.0000  0.0000 </r>
        <r>  0.0003  0.0320  0.0320  0.1539  0.0000  0.0000  0.0000  0.0000  0.0000 </r>
        <r>  0.0004  0.0182  0.0182  0.1313  0.0000  0.0000  0.0000  0.0000  0.0000 </r>
        <r>  0.0004  0.0163  0.0002  0.0505  0.0000  0.0000  0.0000  0.0000  0.0000 </r>
        <r>  0.0004  0.0002  0.0163  0.0505  0.0000  0.0000  0.0000  0.0000  0.0000 </r>
        <r>  0.0001  0.0027  0.0027  0.0082  0.0000  0.0000  0.0000  0.0000  0.0000 </r>
       </set>
       <set comment="band 25">
        <r>  0.0000  0.0004  0.0004  0.0000  0.0000  0.0000  0.0008  0.0000  0.0003 </r>
        <r>  0.0006  0.0001  0.0003  0.0002  0.0000  0.0000  0.0000  0.0001  0.0002 </r>
        <r>  0.0006  0.0003  0.0001  0.0002  0.0001  0.0000  0.0002  0.0000  0.0000 </r>
        <r>  0.0000  0.0017  0.0017  0.0000  0.0001  0.0000  0.0062  0.0001  0.0021 </r>
        <r>  0.0000  0.0017  0.0017  0.0000  0.0001  0.0000  0.0062  0.0001  0.0021 </r>
        <r>  0.0006  0.0003  0.0001  0.0002  0.0001  0.0000  0.0002  0.0000  0.0000 </r>
        <r>  0.0006  0.0001  0.0003  0.0002  0.0000  0.0000  0.0000  0.0001  0.0002 </r>
        <r>  0.0000  0.0004  0.0004  0.0000  0.0000  0.0000  0.0008  0.0000  0.0003 </r>
        <r>  0.0001  0.1591  0.0111  0.0091  0.0000  0.0000  0.0000  0.0000  0.0000 </r>
        <r>  0.0001  0.0111  0.1591  0.0091  0.0000  0.0000  0.0000  0.0000  0.0000 </r>
        <r>  0.0000  0.0187  0.0187  0.0000  0.0000  0.0000  0.0000  0.0000  0.0000 </r>
        <r>  0.0000  0.0038  0.0038  0.0000  0.0000  0.0000  0.0000  0.0000  0.0000 </r>
        <r>  0.0001  0.0262  0.1128  0.0013  0.0000  0.0000  0.0000  0.0000  0.0000 </r>
        <r>  0.0001  0.1128  0.0262  0.0013  0.0000  0.0000  0.0000  0.0000  0.0000 </r>
        <r>  0.0000  0.0016  0.0016  0.0000  0.0000  0.0000  0.0000  0.0000  0.0000 </r>
       </set>
       <set comment="band 26">
        <r>  0.0002  0.0029  0.0029  0.0002  0.0000  0.0002  0.0007  0.0000  0.0021 </r>
        <r>  0.0001  0.0006  0.0001  0.0001  0.0001  0.0000  0.0003  0.0001  0.0004 </r>
        <r>  0.0001  0.0001  0.0006  0.0001  0.0001  0.0000  0.0003  0.0001  0.0004 </r>
        <r>  0.0008  0.0008  0.0008  0.0004  0.0000  0.0003  0.0001  0.0000  0.0003 </r>
        <r>  0.0008  0.0008  0.0008  0.0004  0.0000  0.0003  0.0001  0.0000  0.0003 </r>
        <r>  0.0001  0.0001  0.0006  0.0001  0.0001  0.0000  0.0003  0.0001  0.0004 </r>
        <r>  0.0001  0.0006  0.0001  0.0001  0.0001  0.0000  0.0003  0.0001  0.0004 </r>
        <r>  0.0002  0.0029  0.0029  0.0002  0.0000  0.0002  0.0007  0.0000  0.0021 </r>
        <r>  0.0000  0.0235  0.0757  0.0060  0.0000  0.0000  0.0000  0.0000  0.0000 </r>
        <r>  0.0000  0.0757  0.0235  0.0060  0.0000  0.0000  0.0000  0.0000  0.0000 </r>
        <r>  0.0001  0.0274  0.0274  0.0661  0.0000  0.0000  0.0000  0.0000  0.0000 </r>
        <r>  0.0002  0.0079  0.0079  0.0722  0.0000  0.0000  0.0000  0.0000  0.0000 </r>
        <r>  0.0001  0.0670  0.0399  0.0145  0.0000  0.0000  0.0000  0.0000  0.0000 </r>
        <r>  0.0001  0.0399  0.0670  0.0145  0.0000  0.0000  0.0000  0.0000  0.0000 </r>
        <r>  0.0000  0.0116  0.0116  0.0077  0.0000  0.0000  0.0000  0.0000  0.0000 </r>
       </set>
       <set comment="band 27">
        <r>  0.0000  0.0032  0.0032  0.0000  0.0000  0.0000  0.0016  0.0000  0.0005 </r>
        <r>  0.0001  0.0002  0.0000  0.0001  0.0004  0.0000  0.0001  0.0002  0.0001 </r>
        <r>  0.0001  0.0000  0.0002  0.0001  0.0002  0.0000  0.0001  0.0004  0.0001 </r>
        <r>  0.0000  0.0020  0.0020  0.0000  0.0000  0.0000  0.0005  0.0000  0.0002 </r>
        <r>  0.0000  0.0020  0.0020  0.0000  0.0000  0.0000  0.0005  0.0000  0.0002 </r>
        <r>  0.0001  0.0000  0.0002  0.0001  0.0002  0.0000  0.0001  0.0004  0.0001 </r>
        <r>  0.0001  0.0002  0.0000  0.0001  0.0004  0.0000  0.0001  0.0002  0.0001 </r>
        <r>  0.0000  0.0032  0.0032  0.0000  0.0000  0.0000  0.0016  0.0000  0.0005 </r>
        <r>  0.0000  0.0742  0.1862  0.0019  0.0000  0.0000  0.0000  0.0000  0.0000 </r>
        <r>  0.0000  0.1862  0.0742  0.0019  0.0000  0.0000  0.0000  0.0000  0.0000 </r>
        <r>  0.0000  0.0068  0.0068  0.0000  0.0000  0.0000  0.0000  0.0000  0.0000 </r>
        <r>  0.0000  0.0069  0.0069  0.0000  0.0000  0.0000  0.0000  0.0000  0.0000 </r>
        <r>  0.0000  0.0208  0.0488  0.0002  0.0000  0.0000  0.0000  0.0000  0.0000 </r>
        <r>  0.0000  0.0488  0.0208  0.0002  0.0000  0.0000  0.0000  0.0000  0.0000 </r>
        <r>  0.0000  0.0044  0.0044  0.0000  0.0000  0.0000  0.0000  0.0000  0.0000 </r>
       </set>
       <set comment="band 28">
        <r>  0.0000  0.0009  0.0009  0.0000  0.0000  0.0000  0.0053  0.0000  0.0018 </r>
        <r>  0.0002  0.0002  0.0002  0.0000  0.0001  0.0000  0.0003  0.0000  0.0002 </r>
        <r>  0.0002  0.0002  0.0002  0.0000  0.0000  0.0000  0.0005  0.0001  0.0001 </r>
        <r>  0.0000  0.0002  0.0002  0.0000  0.0000  0.0000  0.0013  0.0000  0.0004 </r>
        <r>  0.0000  0.0002  0.0002  0.0000  0.0000  0.0000  0.0013  0.0000  0.0004 </r>
        <r>  0.0002  0.0002  0.0002  0.0000  0.0000  0.0000  0.0005  0.0001  0.0001 </r>
        <r>  0.0002  0.0002  0.0002  0.0000  0.0001  0.0000  0.0003  0.0000  0.0002 </r>
        <r>  0.0000  0.0009  0.0009  0.0000  0.0000  0.0000  0.0053  0.0000  0.0018 </r>
        <r>  0.0000  0.0068  0.0636  0.0004  0.0000  0.0000  0.0000  0.0000  0.0000 </r>
        <r>  0.0000  0.0636  0.0068  0.0004  0.0000  0.0000  0.0000  0.0000  0.0000 </r>
        <r>  0.0000  0.0024  0.0024  0.0000  0.0000  0.0000  0.0000  0.0000  0.0000 </r>
        <r>  0.0000  0.0278  0.0278  0.0000  0.0000  0.0000  0.0000  0.0000  0.0000 </r>
        <r>  0.0000  0.1856  0.0593  0.0015  0.0000  0.0000  0.0000  0.0000  0.0000 </r>
        <r>  0.0000  0.0593  0.1856  0.0015  0.0000  0.0000  0.0000  0.0000  0.0000 </r>
        <r>  0.0000  0.0095  0.0095  0.0000  0.0000  0.0000  0.0000  0.0000  0.0000 </r>
       </set>
       <set comment="band 29">
        <r>  0.0000  0.0000  0.0000  0.0000  0.0000  0.0001  0.0000  0.0000  0.0000 </r>
        <r>  0.0044  0.0003  0.0072  0.0005  0.0000  0.0001  0.0032  0.0002  0.0004 </r>
        <r>  0.0044  0.0072  0.0003  0.0005  0.0002  0.0001  0.0004  0.0000  0.0032 </r>
        <r>  0.0043  0.0003  0.0003  0.0063  0.0001  0.0000  0.0008  0.0001  0.0024 </r>
        <r>  0.0043  0.0003  0.0003  0.0063  0.0001  0.0000  0.0008  0.0001  0.0024 </r>
        <r>  0.0044  0.0072  0.0003  0.0005  0.0002  0.0001  0.0004  0.0000  0.0032 </r>
        <r>  0.0044  0.0003  0.0072  0.0005  0.0000  0.0001  0.0032  0.0002  0.0004 </r>
        <r>  0.0000  0.0000  0.0000  0.0000  0.0000  0.0001  0.0000  0.0000  0.0000 </r>
        <r>  0.0032  0.0078  0.0000  0.0191  0.0000  0.0000  0.0000  0.0000  0.0000 </r>
        <r>  0.0032  0.0000  0.0078  0.0191  0.0000  0.0000  0.0000  0.0000  0.0000 </r>
        <r>  0.0035  0.0001  0.0001  0.0023  0.0000  0.0000  0.0000  0.0000  0.0000 </r>
        <r>  0.0014  0.0158  0.0158  0.0028  0.0000  0.0000  0.0000  0.0000  0.0000 </r>
        <r>  0.0005  0.0006  0.0297  0.0382  0.0000  0.0000  0.0000  0.0000  0.0000 </r>
        <r>  0.0005  0.0297  0.0006  0.0382  0.0000  0.0000  0.0000  0.0000  0.0000 </r>
        <r>  0.0000  0.0001  0.0001  0.0004  0.0000  0.0000  0.0000  0.0000  0.0000 </r>
       </set>
       <set comment="band 30">
        <r>  0.0030  0.0006  0.0006  0.0005  0.0001  0.0001  0.0001  0.0001  0.0002 </r>
        <r>  0.0089  0.0009  0.0033  0.0022  0.0000  0.0003  0.0007  0.0011  0.0002 </r>
        <r>  0.0089  0.0033  0.0009  0.0022  0.0011  0.0003  0.0006  0.0000  0.0003 </r>
        <r>  0.0349  0.0021  0.0021  0.0114  0.0005  0.0000  0.0004  0.0005  0.0013 </r>
        <r>  0.0349  0.0021  0.0021  0.0114  0.0005  0.0000  0.0004  0.0005  0.0013 </r>
        <r>  0.0089  0.0033  0.0009  0.0022  0.0011  0.0003  0.0006  0.0000  0.0003 </r>
        <r>  0.0089  0.0009  0.0033  0.0022  0.0000  0.0003  0.0007  0.0011  0.0002 </r>
        <r>  0.0030  0.0006  0.0006  0.0005  0.0001  0.0001  0.0001  0.0001  0.0002 </r>
        <r>  0.0016  0.0124  0.0031  0.0000  0.0000  0.0000  0.0000  0.0000  0.0000 </r>
        <r>  0.0016  0.0031  0.0124  0.0000  0.0000  0.0000  0.0000  0.0000  0.0000 </r>
        <r>  0.0000  0.0032  0.0032  0.0117  0.0000  0.0000  0.0000  0.0000  0.0000 </r>
        <r>  0.0105  0.0163  0.0163  0.0099  0.0000  0.0000  0.0000  0.0000  0.0000 </r>
        <r>  0.0312  0.0002  0.0004  0.0003  0.0000  0.0000  0.0000  0.0000  0.0000 </r>
        <r>  0.0312  0.0004  0.0002  0.0003  0.0000  0.0000  0.0000  0.0000  0.0000 </r>
        <r>  0.0033  0.0003  0.0003  0.0050  0.0000  0.0000  0.0000  0.0000  0.0000 </r>
       </set>
       <set comment="band 31">
        <r>  0.0021  0.0007  0.0007  0.0002  0.0000  0.0001  0.0001  0.0000  0.0002 </r>
        <r>  0.0138  0.0019  0.0057  0.0008  0.0000  0.0006  0.0014  0.0007  0.0004 </r>
        <r>  0.0138  0.0057  0.0019  0.0008  0.0007  0.0006  0.0005  0.0000  0.0013 </r>
        <r>  0.0219  0.0016  0.0016  0.0086  0.0007  0.0000  0.0003  0.0007  0.0009 </r>
        <r>  0.0219  0.0016  0.0016  0.0086  0.0007  0.0000  0.0003  0.0007  0.0009 </r>
        <r>  0.0138  0.0057  0.0019  0.0008  0.0007  0.0006  0.0005  0.0000  0.0013 </r>
        <r>  0.0138  0.0019  0.0057  0.0008  0.0000  0.0006  0.0014  0.0007  0.0004 </r>
        <r>  0.0021  0.0007  0.0007  0.0002  0.0000  0.0001  0.0001  0.0000  0.0002 </r>
        <r>  0.0189  0.0158  0.0020  0.0230  0.0000  0.0000  0.0000  0.0000  0.0000 </r>
        <r>  0.0189  0.0020  0.0158  0.0230  0.0000  0.0000  0.0000  0.0000  0.0000 </r>
        <r>  0.0004  0.0028  0.0028  0.0056  0.0000  0.0000  0.0000  0.0000  0.0000 </r>
        <r>  0.0158  0.0188  0.0188  0.0054  0.0000  0.0000  0.0000  0.0000  0.0000 </r>
        <r>  0.0000  0.0028  0.0001  0.0024  0.0000  0.0000  0.0000  0.0000  0.0000 </r>
        <r>  0.0000  0.0001  0.0028  0.0024  0.0000  0.0000  0.0000  0.0000  0.0000 </r>
        <r>  0.0006  0.0013  0.0013  0.0041  0.0000  0.0000  0.0000  0.0000  0.0000 </r>
       </set>
       <set comment="band 32">
        <r>  0.0000  0.0010  0.0010  0.0000  0.0002  0.0000  0.0001  0.0002  0.0000 </r>
        <r>  0.0210  0.0002  0.0110  0.0007  0.0000  0.0006  0.0024  0.0001  0.0005 </r>
        <r>  0.0210  0.0110  0.0002  0.0007  0.0001  0.0006  0.0018  0.0000  0.0011 </r>
        <r>  0.0000  0.0031  0.0031  0.0000  0.0015  0.0000  0.0002  0.0015  0.0001 </r>
        <r>  0.0000  0.0031  0.0031  0.0000  0.0015  0.0000  0.0002  0.0015  0.0001 </r>
        <r>  0.0210  0.0110  0.0002  0.0007  0.0001  0.0006  0.0018  0.0000  0.0011 </r>
        <r>  0.0210  0.0002  0.0110  0.0007  0.0000  0.0006  0.0024  0.0001  0.0005 </r>
        <r>  0.0000  0.0010  0.0010  0.0000  0.0002  0.0000  0.0001  0.0002  0.0000 </r>
        <r>  0.0072  0.0060  0.0015  0.0063  0.0000  0.0000  0.0000  0.0000  0.0000 </r>
        <r>  0.0072  0.0015  0.0060  0.0063  0.0000  0.0000  0.0000  0.0000  0.0000 </r>
        <r>  0.0000  0.0739  0.0739  0.0000  0.0000  0.0000  0.0000  0.0000  0.0000 </r>
        <r>  0.0000  0.0041  0.0041  0.0000  0.0000  0.0000  0.0000  0.0000  0.0000 </r>
        <r>  0.0107  0.0004  0.0006  0.0003  0.0000  0.0000  0.0000  0.0000  0.0000 </r>
        <r>  0.0107  0.0006  0.0004  0.0003  0.0000  0.0000  0.0000  0.0000  0.0000 </r>
        <r>  0.0000  0.0020  0.0020  0.0000  0.0000  0.0000  0.0000  0.0000  0.0000 </r>
       </set>
       <set comment="band 33">
        <r>  0.0098  0.0003  0.0003  0.0022  0.0001  0.0002  0.0000  0.0001  0.0001 </r>
        <r>  0.0164  0.0006  0.0120  0.0009  0.0000  0.0008  0.0002  0.0019  0.0005 </r>
        <r>  0.0164  0.0120  0.0006  0.0009  0.0019  0.0008  0.0007  0.0000  0.0000 </r>
        <r>  0.0045  0.0002  0.0002  0.0141  0.0007  0.0000  0.0006  0.0007  0.0018 </r>
        <r>  0.0045  0.0002  0.0002  0.0141  0.0007  0.0000  0.0006  0.0007  0.0018 </r>
        <r>  0.0164  0.0120  0.0006  0.0009  0.0019  0.0008  0.0007  0.0000  0.0000 </r>
        <r>  0.0164  0.0006  0.0120  0.0009  0.0000  0.0008  0.0002  0.0019  0.0005 </r>
        <r>  0.0098  0.0003  0.0003  0.0022  0.0001  0.0002  0.0000  0.0001  0.0001 </r>
        <r>  0.0041  0.0092  0.0008  0.0222  0.0000  0.0000  0.0000  0.0000  0.0000 </r>
        <r>  0.0041  0.0008  0.0092  0.0222  0.0000  0.0000  0.0000  0.0000  0.0000 </r>
        <r>  0.0143  0.0033  0.0033  0.0067  0.0000  0.0000  0.0000  0.0000  0.0000 </r>
        <r>  0.0118  0.0017  0.0017  0.0049  0.0000  0.0000  0.0000  0.0000  0.0000 </r>
        <r>  0.0040  0.0009  0.0075  0.0115  0.0000  0.0000  0.0000  0.0000  0.0000 </r>
        <r>  0.0040  0.0075  0.0009  0.0115  0.0000  0.0000  0.0000  0.0000  0.0000 </r>
        <r>  0.0549  0.0016  0.0016  0.0151  0.0000  0.0000  0.0000  0.0000  0.0000 </r>
       </set>
       <set comment="band 34">
        <r>  0.0223  0.0026  0.0026  0.0038  0.0009  0.0005  0.0002  0.0009  0.0005 </r>
        <r>  0.0020  0.0106  0.0052  0.0012  0.0007  0.0025  0.0022  0.0003  0.0001 </r>
        <r>  0.0020  0.0052  0.0106  0.0012  0.0003  0.0025  0.0005  0.0007  0.0017 </r>
        <r>  0.0026  0.0018  0.0018  0.0021  0.0018  0.0010  0.0002  0.0018  0.0005 </r>
        <r>  0.0026  0.0018  0.0018  0.0021  0.0018  0.0010  0.0002  0.0018  0.0005 </r>
        <r>  0.0020  0.0052  0.0106  0.0012  0.0003  0.0025  0.0005  0.0007  0.0017 </r>
        <r>  0.0020  0.0106  0.0052  0.0012  0.0007  0.0025  0.0022  0.0003  0.0001 </r>
        <r>  0.0223  0.0026  0.0026  0.0038  0.0009  0.0005  0.0002  0.0009  0.0005 </r>
        <r>  0.0107  0.0037  0.0156  0.0023  0.0000  0.0000  0.0000  0.0000  0.0000 </r>
        <r>  0.0107  0.0156  0.0037  0.0023  0.0000  0.0000  0.0000  0.0000  0.0000 </r>
        <r>  0.0381  0.0036  0.0036  0.0032  0.0000  0.0000  0.0000  0.0000  0.0000 </r>
        <r>  0.0064  0.0037  0.0037  0.0008  0.0000  0.0000  0.0000  0.0000  0.0000 </r>
        <r>  0.0015  0.0177  0.0005  0.0001  0.0000  0.0000  0.0000  0.0000  0.0000 </r>
        <r>  0.0015  0.0005  0.0177  0.0001  0.0000  0.0000  0.0000  0.0000  0.0000 </r>
        <r>  0.0037  0.0232  0.0232  0.0058  0.0000  0.0000  0.0000  0.0000  0.0000 </r>
       </set>
       <set comment="band 35">
        <r>  0.0103  0.0040  0.0041  0.0035  0.0004  0.0003  0.0003  0.0004  0.0008 </r>
        <r>  0.0006  0.0153  0.0010  0.0019  0.0006  0.0016  0.0002  0.0003  0.0006 </r>
        <r>  0.0006  0.0010  0.0154  0.0019  0.0003  0.0016  0.0003  0.0005  0.0005 </r>
        <r>  0.0120  0.0057  0.0057  0.0005  0.0006  0.0026  0.0002  0.0006  0.0005 </r>
        <r>  0.0120  0.0057  0.0056  0.0005  0.0006  0.0026  0.0002  0.0006  0.0005 </r>
        <r>  0.0006  0.0010  0.0153  0.0019  0.0003  0.0016  0.0003  0.0005  0.0005 </r>
        <r>  0.0006  0.0154  0.0010  0.0019  0.0006  0.0016  0.0002  0.0003  0.0006 </r>
        <r>  0.0103  0.0040  0.0041  0.0035  0.0004  0.0003  0.0003  0.0004  0.0008 </r>
        <r>  0.0135  0.0022  0.0177  0.0016  0.0000  0.0000  0.0000  0.0000  0.0000 </r>
        <r>  0.0134  0.0176  0.0023  0.0015  0.0000  0.0000  0.0000  0.0000  0.0000 </r>
        <r>  0.0131  0.0215  0.0214  0.0001  0.0000  0.0000  0.0000  0.0000  0.0000 </r>
        <r>  0.0213  0.0012  0.0013  0.0178  0.0000  0.0000  0.0000  0.0000  0.0000 </r>
        <r>  0.0013  0.0110  0.0048  0.0071  0.0000  0.0000  0.0000  0.0000  0.0000 </r>
        <r>  0.0013  0.0048  0.0110  0.0071  0.0000  0.0000  0.0000  0.0000  0.0000 </r>
        <r>  0.0055  0.0037  0.0036  0.0107  0.0000  0.0000  0.0000  0.0000  0.0000 </r>
       </set>
       <set comment="band 36">
        <r>  0.0112  0.0069  0.0007  0.0008  0.0011  0.0012  0.0003  0.0023  0.0004 </r>
        <r>  0.0102  0.0006  0.0022  0.0075  0.0005  0.0015  0.0012  0.0073  0.0005 </r>
        <r>  0.0013  0.0020  0.0032  0.0008  0.0002  0.0005  0.0003  0.0027  0.0007 </r>
        <r>  0.0056  0.0004  0.0115  0.0028  0.0010  0.0009  0.0009  0.0059  0.0015 </r>
        <r>  0.0056  0.0032  0.0087  0.0028  0.0013  0.0009  0.0013  0.0057  0.0011 </r>
        <r>  0.0047  0.0035  0.0035  0.0033  0.0023  0.0009  0.0003  0.0026  0.0003 </r>
        <r>  0.0068  0.0003  0.0007  0.0050  0.0005  0.0011  0.0010  0.0052  0.0010 </r>
        <r>  0.0112  0.0057  0.0019  0.0008  0.0005  0.0012  0.0000  0.0028  0.0006 </r>
        <r>  0.0067  0.0043  0.0086  0.0040  0.0000  0.0000  0.0000  0.0000  0.0000 </r>
        <r>  0.0009  0.0013  0.0240  0.0235  0.0000  0.0000  0.0000  0.0000  0.0000 </r>
        <r>  0.0040  0.0008  0.0069  0.0161  0.0000  0.0000  0.0000  0.0000  0.0000 </r>
        <r>  0.0023  0.0097  0.0102  0.0065  0.0000  0.0000  0.0000  0.0000  0.0000 </r>
        <r>  0.0229  0.0002  0.0026  0.0013  0.0000  0.0000  0.0000  0.0000  0.0000 </r>
        <r>  0.0020  0.0034  0.0003  0.0070  0.0000  0.0000  0.0000  0.0000  0.0000 </r>
        <r>  0.0032  0.0036  0.0241  0.0178  0.0000  0.0000  0.0000  0.0000  0.0000 </r>
       </set>
      </set>
     </set>
    </set>
   </array>
  </projected>
 </calculation>
 <structure name="finalpos" >
  <crystal>
   <varray name="basis" >
    <v>       0.00000000       4.24689302       4.24689302 </v>
    <v>       4.24689302       0.00000000       4.24689302 </v>
    <v>       4.24689302       4.24689302       0.00000000 </v>
   </varray>
   <i name="volume">    153.19477710 </i>
   <varray name="rec_basis" >
    <v>      -0.11773313       0.11773313       0.11773313 </v>
    <v>       0.11773313      -0.11773313       0.11773313 </v>
    <v>       0.11773313       0.11773313      -0.11773313 </v>
   </varray>
  </crystal>
  <varray name="positions" >
   <v>       0.00000000       0.00000000       0.00000000 </v>
   <v>      -0.01605940      -0.01605940       0.51605940 </v>
   <v>      -0.01605940       0.51605940      -0.01605940 </v>
   <v>      -0.01605940       0.51605940       0.51605940 </v>
   <v>       0.51605940      -0.01605940      -0.01605940 </v>
   <v>       0.51605940      -0.01605940       0.51605940 </v>
   <v>       0.51605940       0.51605940      -0.01605940 </v>
   <v>       0.50000000       0.50000000       0.50000000 </v>
   <v>       0.25000000       0.25000000       0.75000000 </v>
   <v>       0.25000000       0.75000000       0.25000000 </v>
   <v>       0.25000000       0.75000000       0.75000000 </v>
   <v>       0.75000000       0.25000000       0.25000000 </v>
   <v>       0.75000000       0.25000000       0.75000000 </v>
   <v>       0.75000000       0.75000000       0.25000000 </v>
   <v>       0.75000000       0.75000000       0.75000000 </v>
  </varray>
 </structure>
</modeling>
