  15  15   1   0
  0.1021298E+02  0.6006014E-09  0.6006014E-09  0.6006014E-09  0.5000000E-15
  1.000000000000000E-004
  CAR 
 unknown system                          
     17.38014290    -15.64768879  301      3.11147657      1.00000000
    -15.648  0.0000E+00  0.0000E+00  0.0000E+00  0.0000E+00
    -15.538  0.0000E+00  0.0000E+00  0.0000E+00  0.0000E+00
    -15.428  0.0000E+00  0.0000E+00  0.0000E+00  0.0000E+00
    -15.317  0.0000E+00  0.0000E+00  0.0000E+00  0.0000E+00
    -15.207  0.0000E+00  0.0000E+00  0.0000E+00  0.0000E+00
    -15.097  0.0000E+00  0.0000E+00  0.0000E+00  0.0000E+00
    -14.987  0.0000E+00  0.0000E+00  0.0000E+00  0.0000E+00
    -14.877  0.0000E+00  0.0000E+00  0.0000E+00  0.0000E+00
    -14.767  0.0000E+00  0.0000E+00  0.0000E+00  0.0000E+00
    -14.657  0.0000E+00  0.0000E+00  0.0000E+00  0.0000E+00
    -14.547  0.0000E+00  0.0000E+00  0.0000E+00  0.0000E+00
    -14.437  0.0000E+00  0.1261E-15  0.0000E+00  0.1388E-16
    -14.327  0.3077E-08  0.1975E-06  0.3388E-09  0.2174E-07
    -14.216  0.3708E-02  0.2698E-01  0.4082E-03  0.2970E-02
    -14.106  0.7380E+00  0.9622E+00  0.8165E-01  0.1089E+00
    -13.996  0.3935E+00  0.1462E+00  0.1250E+00  0.1250E+00
    -13.886  0.2874E-01  0.7673E-01  0.1281E+00  0.1334E+00
    -13.776  0.1499E+01  0.1842E+01  0.2932E+00  0.3363E+00
    -13.666  0.5662E+01  0.6349E+01  0.9165E+00  0.1035E+01
    -13.556  0.3610E+01  0.3203E+01  0.1314E+01  0.1388E+01
    -13.446  0.2858E+01  0.2709E+01  0.1629E+01  0.1686E+01
    -13.336  0.1606E+01  0.1659E+01  0.1805E+01  0.1869E+01
    -13.226  0.5472E+01  0.6384E+01  0.2408E+01  0.2572E+01
    -13.116  0.1004E+02  0.1116E+02  0.3513E+01  0.3800E+01
    -13.005  0.7104E+01  0.5557E+01  0.4295E+01  0.4412E+01
    -12.895  0.4110E+01  0.5803E+01  0.4748E+01  0.5051E+01
    -12.785  0.7396E+01  0.7525E+01  0.5562E+01  0.5880E+01
    -12.675  0.3934E+01  0.1094E+01  0.5995E+01  0.6000E+01
    -12.565  0.4475E-01  0.5187E-03  0.6000E+01  0.6000E+01
    -12.455  0.2469E-06  0.1172E-03  0.6000E+01  0.6000E+01
    -12.345  0.4260E-10  0.1087E+01  0.6000E+01  0.6120E+01
    -12.235  0.8043E-03  0.7476E+01  0.6000E+01  0.6943E+01
    -12.125  0.2067E+01  0.5200E+00  0.6228E+01  0.7000E+01
    -12.015  0.6757E+01  0.1375E-03  0.6971E+01  0.7000E+01
    -11.905  0.2589E+00  0.6471E-11  0.7000E+01  0.7000E+01
    -11.794  0.2796E-04  0.0000E+00  0.7000E+01  0.7000E+01
    -11.684  0.4117E-12  0.0000E+00  0.7000E+01  0.7000E+01
    -11.574  0.0000E+00  0.0000E+00  0.7000E+01  0.7000E+01
    -11.464  0.0000E+00  0.0000E+00  0.7000E+01  0.7000E+01
    -11.354  0.0000E+00  0.0000E+00  0.7000E+01  0.7000E+01
    -11.244  0.0000E+00  0.0000E+00  0.7000E+01  0.7000E+01
    -11.134  0.0000E+00  0.0000E+00  0.7000E+01  0.7000E+01
    -11.024  0.0000E+00  0.0000E+00  0.7000E+01  0.7000E+01
    -10.914  0.0000E+00  0.0000E+00  0.7000E+01  0.7000E+01
    -10.804  0.0000E+00  0.0000E+00  0.7000E+01  0.7000E+01
    -10.694  0.0000E+00  0.0000E+00  0.7000E+01  0.7000E+01
    -10.583  0.0000E+00  0.0000E+00  0.7000E+01  0.7000E+01
    -10.473  0.0000E+00  0.0000E+00  0.7000E+01  0.7000E+01
    -10.363  0.0000E+00  0.0000E+00  0.7000E+01  0.7000E+01
    -10.253  0.0000E+00  0.0000E+00  0.7000E+01  0.7000E+01
    -10.143  0.0000E+00  0.0000E+00  0.7000E+01  0.7000E+01
    -10.033  0.0000E+00  0.0000E+00  0.7000E+01  0.7000E+01
     -9.923  0.0000E+00  0.0000E+00  0.7000E+01  0.7000E+01
     -9.813  0.0000E+00  0.0000E+00  0.7000E+01  0.7000E+01
     -9.703  0.0000E+00  0.0000E+00  0.7000E+01  0.7000E+01
     -9.593  0.0000E+00  0.0000E+00  0.7000E+01  0.7000E+01
     -9.482  0.0000E+00  0.0000E+00  0.7000E+01  0.7000E+01
     -9.372  0.0000E+00  0.0000E+00  0.7000E+01  0.7000E+01
     -9.262  0.0000E+00  0.0000E+00  0.7000E+01  0.7000E+01
     -9.152  0.0000E+00  0.0000E+00  0.7000E+01  0.7000E+01
     -9.042  0.0000E+00  0.0000E+00  0.7000E+01  0.7000E+01
     -8.932  0.0000E+00  0.0000E+00  0.7000E+01  0.7000E+01
     -8.822  0.0000E+00  0.0000E+00  0.7000E+01  0.7000E+01
     -8.712  0.0000E+00  0.0000E+00  0.7000E+01  0.7000E+01
     -8.602  0.0000E+00  0.0000E+00  0.7000E+01  0.7000E+01
     -8.492  0.0000E+00  0.0000E+00  0.7000E+01  0.7000E+01
     -8.382  0.0000E+00  0.0000E+00  0.7000E+01  0.7000E+01
     -8.271  0.0000E+00  0.0000E+00  0.7000E+01  0.7000E+01
     -8.161  0.0000E+00  0.0000E+00  0.7000E+01  0.7000E+01
     -8.051  0.0000E+00  0.0000E+00  0.7000E+01  0.7000E+01
     -7.941  0.0000E+00  0.0000E+00  0.7000E+01  0.7000E+01
     -7.831  0.0000E+00  0.0000E+00  0.7000E+01  0.7000E+01
     -7.721  0.0000E+00  0.0000E+00  0.7000E+01  0.7000E+01
     -7.611  0.0000E+00  0.0000E+00  0.7000E+01  0.7000E+01
     -7.501  0.0000E+00  0.0000E+00  0.7000E+01  0.7000E+01
     -7.391  0.0000E+00  0.0000E+00  0.7000E+01  0.7000E+01
     -7.281  0.0000E+00  0.0000E+00  0.7000E+01  0.7000E+01
     -7.171  0.0000E+00  0.0000E+00  0.7000E+01  0.7000E+01
     -7.060  0.0000E+00  0.0000E+00  0.7000E+01  0.7000E+01
     -6.950  0.0000E+00  0.0000E+00  0.7000E+01  0.7000E+01
     -6.840  0.0000E+00  0.0000E+00  0.7000E+01  0.7000E+01
     -6.730  0.0000E+00  0.0000E+00  0.7000E+01  0.7000E+01
     -6.620  0.0000E+00  0.0000E+00  0.7000E+01  0.7000E+01
     -6.510  0.0000E+00  0.0000E+00  0.7000E+01  0.7000E+01
     -6.400  0.0000E+00  0.0000E+00  0.7000E+01  0.7000E+01
     -6.290  0.0000E+00  0.0000E+00  0.7000E+01  0.7000E+01
     -6.180  0.0000E+00  0.0000E+00  0.7000E+01  0.7000E+01
     -6.070  0.0000E+00  0.0000E+00  0.7000E+01  0.7000E+01
     -5.960  0.0000E+00  0.0000E+00  0.7000E+01  0.7000E+01
     -5.849  0.0000E+00  0.0000E+00  0.7000E+01  0.7000E+01
     -5.739  0.0000E+00  0.0000E+00  0.7000E+01  0.7000E+01
     -5.629  0.0000E+00  0.0000E+00  0.7000E+01  0.7000E+01
     -5.519  0.0000E+00  0.0000E+00  0.7000E+01  0.7000E+01
     -5.409  0.0000E+00  0.0000E+00  0.7000E+01  0.7000E+01
     -5.299  0.0000E+00  0.0000E+00  0.7000E+01  0.7000E+01
     -5.189  0.0000E+00  0.0000E+00  0.7000E+01  0.7000E+01
     -5.079  0.0000E+00  0.0000E+00  0.7000E+01  0.7000E+01
     -4.969  0.0000E+00  0.0000E+00  0.7000E+01  0.7000E+01
     -4.859  0.0000E+00  0.0000E+00  0.7000E+01  0.7000E+01
     -4.749  0.0000E+00  0.0000E+00  0.7000E+01  0.7000E+01
     -4.638  0.0000E+00  0.0000E+00  0.7000E+01  0.7000E+01
     -4.528  0.0000E+00  0.0000E+00  0.7000E+01  0.7000E+01
     -4.418  0.0000E+00  0.0000E+00  0.7000E+01  0.7000E+01
     -4.308  0.0000E+00  0.0000E+00  0.7000E+01  0.7000E+01
     -4.198  0.0000E+00  0.0000E+00  0.7000E+01  0.7000E+01
     -4.088  0.0000E+00  0.0000E+00  0.7000E+01  0.7000E+01
     -3.978  0.0000E+00  0.0000E+00  0.7000E+01  0.7000E+01
     -3.868  0.0000E+00  0.0000E+00  0.7000E+01  0.7000E+01
     -3.758  0.0000E+00  0.0000E+00  0.7000E+01  0.7000E+01
     -3.648  0.0000E+00  0.0000E+00  0.7000E+01  0.7000E+01
     -3.537  0.0000E+00  0.0000E+00  0.7000E+01  0.7000E+01
     -3.427  0.0000E+00  0.0000E+00  0.7000E+01  0.7000E+01
     -3.317  0.0000E+00  0.0000E+00  0.7000E+01  0.7000E+01
     -3.207  0.0000E+00  0.0000E+00  0.7000E+01  0.7000E+01
     -3.097  0.0000E+00  0.0000E+00  0.7000E+01  0.7000E+01
     -2.987  0.0000E+00  0.0000E+00  0.7000E+01  0.7000E+01
     -2.877  0.0000E+00  0.0000E+00  0.7000E+01  0.7000E+01
     -2.767  0.0000E+00  0.0000E+00  0.7000E+01  0.7000E+01
     -2.657  0.0000E+00  0.0000E+00  0.7000E+01  0.7000E+01
     -2.547  0.0000E+00  0.0000E+00  0.7000E+01  0.7000E+01
     -2.437  0.0000E+00  0.0000E+00  0.7000E+01  0.7000E+01
     -2.326  0.0000E+00  0.0000E+00  0.7000E+01  0.7000E+01
     -2.216  0.0000E+00  0.0000E+00  0.7000E+01  0.7000E+01
     -2.106  0.0000E+00  0.0000E+00  0.7000E+01  0.7000E+01
     -1.996  0.0000E+00  0.0000E+00  0.7000E+01  0.7000E+01
     -1.886  0.5208E-11  0.9417E-11  0.7000E+01  0.7000E+01
     -1.776  0.1305E-03  0.1885E-03  0.7000E+01  0.7000E+01
     -1.666  0.5587E+00  0.6690E+00  0.7062E+01  0.7074E+01
     -1.556  0.3982E+01  0.4007E+01  0.7500E+01  0.7515E+01
     -1.446  0.2807E+01  0.2798E+01  0.7809E+01  0.7823E+01
     -1.336  0.1698E+01  0.1967E+01  0.7996E+01  0.8040E+01
     -1.226  0.2406E+01  0.2491E+01  0.8261E+01  0.8314E+01
     -1.115  0.1037E+01  0.5555E+00  0.8375E+01  0.8375E+01
     -1.005  0.1630E-02  0.1837E-03  0.8375E+01  0.8375E+01
     -0.895  0.1026E+00  0.1806E+00  0.8386E+01  0.8395E+01
     -0.785  0.2127E+01  0.2983E+01  0.8620E+01  0.8723E+01
     -0.675  0.4423E+01  0.3933E+01  0.9107E+01  0.9156E+01
     -0.565  0.3576E+01  0.3939E+01  0.9501E+01  0.9590E+01
     -0.455  0.8113E+01  0.8474E+01  0.1039E+02  0.1052E+02
     -0.345  0.4957E+01  0.6647E+01  0.1094E+02  0.1125E+02
     -0.235  0.5954E+01  0.4026E+01  0.1160E+02  0.1170E+02
     -0.125  0.3669E+01  0.3745E+01  0.1200E+02  0.1211E+02
     -0.015  0.9405E+01  0.1062E+02  0.1303E+02  0.1328E+02
      0.096  0.5934E+01  0.4655E+01  0.1369E+02  0.1379E+02
      0.206  0.2742E+01  0.1874E+01  0.1399E+02  0.1400E+02
      0.316  0.9127E-01  0.1895E-01  0.1400E+02  0.1400E+02
      0.426  0.6624E+00  0.2199E+01  0.1407E+02  0.1424E+02
      0.536  0.6218E+01  0.6536E+01  0.1476E+02  0.1496E+02
      0.646  0.7320E+01  0.6726E+01  0.1556E+02  0.1570E+02
      0.756  0.6322E+01  0.5701E+01  0.1626E+02  0.1633E+02
      0.866  0.3713E+01  0.3966E+01  0.1667E+02  0.1677E+02
      0.976  0.6621E+01  0.6761E+01  0.1740E+02  0.1751E+02
      1.086  0.6421E+01  0.6933E+01  0.1810E+02  0.1827E+02
      1.197  0.4634E+01  0.4200E+01  0.1861E+02  0.1874E+02
      1.307  0.3795E+01  0.4403E+01  0.1903E+02  0.1922E+02
      1.417  0.3849E+01  0.2497E+01  0.1946E+02  0.1950E+02
      1.527  0.2474E+01  0.2417E+01  0.1973E+02  0.1976E+02
      1.637  0.1322E+01  0.2012E+01  0.1987E+02  0.1998E+02
      1.747  0.1664E+01  0.7946E+01  0.2006E+02  0.2086E+02
      1.857  0.6881E+01  0.3441E+01  0.2081E+02  0.2124E+02
      1.967  0.8858E+01  0.7605E+01  0.2179E+02  0.2207E+02
      2.077  0.9741E+01  0.1059E+02  0.2286E+02  0.2324E+02
      2.187  0.9818E+01  0.9431E+01  0.2394E+02  0.2428E+02
      2.297  0.8292E+01  0.8353E+01  0.2486E+02  0.2520E+02
      2.408  0.8062E+01  0.6292E+01  0.2574E+02  0.2589E+02
      2.518  0.2259E+01  0.1261E+01  0.2599E+02  0.2603E+02
      2.628  0.8592E+00  0.2609E+01  0.2609E+02  0.2632E+02
      2.738  0.1717E+01  0.4332E+01  0.2628E+02  0.2679E+02
      2.848  0.3357E+01  0.5403E+01  0.2665E+02  0.2739E+02
      2.958  0.5079E+01  0.4234E+01  0.2720E+02  0.2786E+02
      3.068  0.4488E+01  0.2400E+01  0.2770E+02  0.2812E+02
      3.178  0.2828E+01  0.4886E-01  0.2801E+02  0.2812E+02
      3.288  0.1018E+01  0.3275E-06  0.2812E+02  0.2812E+02
      3.398  0.2865E-01  0.3122E-10  0.2812E+02  0.2813E+02
      3.508  0.3479E-03  0.3373E-03  0.2813E+02  0.2813E+02
      3.619  0.6316E+00  0.6588E+00  0.2819E+02  0.2820E+02
      3.729  0.3632E+01  0.3657E+01  0.2859E+02  0.2860E+02
      3.839  0.2779E+00  0.2252E+00  0.2862E+02  0.2862E+02
      3.949  0.2383E-04  0.1489E-04  0.2863E+02  0.2863E+02
      4.059  0.1419E+00  0.1689E+00  0.2864E+02  0.2864E+02
      4.169  0.2970E+01  0.2982E+01  0.2897E+02  0.2897E+02
      4.279  0.2948E+00  0.2557E+00  0.2900E+02  0.2900E+02
      4.389  0.1401E-04  0.9934E-05  0.2900E+02  0.2900E+02
      4.499  0.6920E-13  0.3958E-13  0.2900E+02  0.2900E+02
      4.609  0.0000E+00  0.0000E+00  0.2900E+02  0.2900E+02
      4.719  0.0000E+00  0.0000E+00  0.2900E+02  0.2900E+02
      4.830  0.0000E+00  0.0000E+00  0.2900E+02  0.2900E+02
      4.940  0.0000E+00  0.0000E+00  0.2900E+02  0.2900E+02
      5.050  0.0000E+00  0.0000E+00  0.2900E+02  0.2900E+02
      5.160  0.0000E+00  0.0000E+00  0.2900E+02  0.2900E+02
      5.270  0.0000E+00  0.0000E+00  0.2900E+02  0.2900E+02
      5.380  0.0000E+00  0.0000E+00  0.2900E+02  0.2900E+02
      5.490  0.0000E+00  0.0000E+00  0.2900E+02  0.2900E+02
      5.600  0.0000E+00  0.0000E+00  0.2900E+02  0.2900E+02
      5.710  0.0000E+00  0.0000E+00  0.2900E+02  0.2900E+02
      5.820  0.0000E+00  0.0000E+00  0.2900E+02  0.2900E+02
      5.930  0.0000E+00  0.0000E+00  0.2900E+02  0.2900E+02
      6.041  0.0000E+00  0.0000E+00  0.2900E+02  0.2900E+02
      6.151  0.0000E+00  0.0000E+00  0.2900E+02  0.2900E+02
      6.261  0.0000E+00  0.0000E+00  0.2900E+02  0.2900E+02
      6.371  0.0000E+00  0.0000E+00  0.2900E+02  0.2900E+02
      6.481  0.0000E+00  0.0000E+00  0.2900E+02  0.2900E+02
      6.591  0.0000E+00  0.0000E+00  0.2900E+02  0.2900E+02
      6.701  0.1891E-15  0.4412E-15  0.2900E+02  0.2900E+02
      6.811  0.2602E-06  0.4294E-06  0.2900E+02  0.2900E+02
      6.921  0.3050E-01  0.3797E-01  0.2900E+02  0.2900E+02
      7.031  0.9808E+00  0.9960E+00  0.2911E+02  0.2911E+02
      7.142  0.1341E+01  0.1360E+01  0.2926E+02  0.2926E+02
      7.252  0.3128E+01  0.3133E+01  0.2960E+02  0.2961E+02
      7.362  0.2259E+01  0.2240E+01  0.2985E+02  0.2986E+02
      7.472  0.2086E+00  0.1804E+00  0.2987E+02  0.2987E+02
      7.582  0.3228E-04  0.2127E-04  0.2987E+02  0.2987E+02
      7.692  0.5322E-12  0.2614E-12  0.2988E+02  0.2988E+02
      7.802  0.0000E+00  0.0000E+00  0.2988E+02  0.2988E+02
      7.912  0.0000E+00  0.0000E+00  0.2988E+02  0.2988E+02
      8.022  0.0000E+00  0.0000E+00  0.2988E+02  0.2988E+02
      8.132  0.0000E+00  0.0000E+00  0.2988E+02  0.2988E+02
      8.242  0.2425E-11  0.4184E-11  0.2988E+02  0.2988E+02
      8.353  0.9409E-04  0.1267E-03  0.2988E+02  0.2988E+02
      8.463  0.4471E+00  0.4890E+00  0.2992E+02  0.2993E+02
      8.573  0.1954E+01  0.1940E+01  0.3014E+02  0.3014E+02
      8.683  0.2569E+01  0.2632E+01  0.3042E+02  0.3043E+02
      8.793  0.1755E+01  0.1687E+01  0.3062E+02  0.3062E+02
      8.903  0.1482E+00  0.1838E+00  0.3063E+02  0.3064E+02
      9.013  0.9991E+00  0.9809E+00  0.3074E+02  0.3075E+02
      9.123  0.2901E+00  0.2571E+00  0.3077E+02  0.3077E+02
      9.233  0.2832E+01  0.2844E+01  0.3109E+02  0.3109E+02
      9.343  0.1407E+01  0.1449E+01  0.3124E+02  0.3125E+02
      9.453  0.3553E+01  0.3604E+01  0.3163E+02  0.3164E+02
      9.564  0.1075E+01  0.9628E+00  0.3175E+02  0.3175E+02
      9.674  0.2349E-02  0.1571E-02  0.3175E+02  0.3175E+02
      9.784  0.3962E-06  0.5254E-06  0.3175E+02  0.3175E+02
      9.894  0.3663E-01  0.4141E-01  0.3175E+02  0.3175E+02
     10.004  0.9820E+00  0.9881E+00  0.3186E+02  0.3186E+02
     10.114  0.3546E+00  0.3663E+00  0.3190E+02  0.3190E+02
     10.224  0.1170E+01  0.1186E+01  0.3203E+02  0.3203E+02
     10.334  0.8597E+00  0.8238E+00  0.3212E+02  0.3212E+02
     10.444  0.7758E+00  0.7962E+00  0.3221E+02  0.3221E+02
     10.554  0.7438E+00  0.7378E+00  0.3229E+02  0.3229E+02
     10.664  0.1416E+01  0.1390E+01  0.3245E+02  0.3245E+02
     10.775  0.4742E+00  0.4826E+00  0.3250E+02  0.3250E+02
     10.885  0.4934E-03  0.5389E-03  0.3250E+02  0.3250E+02
     10.995  0.4132E-01  0.1341E+00  0.3250E+02  0.3251E+02
     11.105  0.1960E+01  0.2457E+01  0.3272E+02  0.3279E+02
     11.215  0.4513E+01  0.4513E+01  0.3322E+02  0.3328E+02
     11.325  0.2170E+01  0.1847E+01  0.3346E+02  0.3349E+02
     11.435  0.3990E+00  0.1316E+00  0.3350E+02  0.3350E+02
     11.545  0.3009E-03  0.9446E-03  0.3350E+02  0.3350E+02
     11.655  0.3720E+00  0.1096E+01  0.3354E+02  0.3362E+02
     11.765  0.2863E+01  0.2286E+01  0.3386E+02  0.3387E+02
     11.876  0.5870E+00  0.5259E+00  0.3392E+02  0.3393E+02
     11.986  0.2943E+01  0.3111E+01  0.3424E+02  0.3427E+02
     12.096  0.5516E+01  0.5456E+01  0.3485E+02  0.3487E+02
     12.206  0.3281E+01  0.3097E+01  0.3521E+02  0.3521E+02
     12.316  0.2046E+01  0.2328E+01  0.3544E+02  0.3547E+02
     12.426  0.4057E+01  0.3900E+01  0.3589E+02  0.3590E+02
     12.536  0.1398E+01  0.1310E+01  0.3604E+02  0.3604E+02
     12.646  0.2391E+01  0.2477E+01  0.3630E+02  0.3632E+02
     12.756  0.6582E+00  0.5261E+00  0.3637E+02  0.3637E+02
     12.866  0.1316E-02  0.5082E-03  0.3637E+02  0.3637E+02
     12.976  0.8052E-05  0.9816E-05  0.3638E+02  0.3638E+02
     13.087  0.1355E+00  0.1448E+00  0.3639E+02  0.3639E+02
     13.197  0.2417E+01  0.2430E+01  0.3666E+02  0.3666E+02
     13.307  0.2841E+01  0.2852E+01  0.3697E+02  0.3697E+02
     13.417  0.2510E+01  0.2549E+01  0.3725E+02  0.3725E+02
     13.527  0.1623E+01  0.1933E+01  0.3742E+02  0.3747E+02
     13.637  0.4340E+01  0.5293E+01  0.3790E+02  0.3805E+02
     13.747  0.4710E+01  0.3844E+01  0.3842E+02  0.3847E+02
     13.857  0.3643E+01  0.3304E+01  0.3882E+02  0.3884E+02
     13.967  0.3875E+01  0.3922E+01  0.3925E+02  0.3927E+02
     14.077  0.5463E+01  0.5782E+01  0.3985E+02  0.3990E+02
     14.187  0.4157E+01  0.3600E+01  0.4031E+02  0.4030E+02
     14.298  0.2859E+01  0.3016E+01  0.4062E+02  0.4063E+02
     14.408  0.4342E+01  0.6920E+01  0.4110E+02  0.4139E+02
     14.518  0.7377E+01  0.5092E+01  0.4191E+02  0.4195E+02
     14.628  0.1968E+01  0.1605E+01  0.4213E+02  0.4213E+02
     14.738  0.2573E+01  0.2745E+01  0.4241E+02  0.4243E+02
     14.848  0.1948E+01  0.1922E+01  0.4263E+02  0.4265E+02
     14.958  0.2671E+01  0.2590E+01  0.4292E+02  0.4293E+02
     15.068  0.2460E+01  0.2535E+01  0.4319E+02  0.4321E+02
     15.178  0.5338E+00  0.3704E+00  0.4325E+02  0.4325E+02
     15.288  0.4743E+00  0.6023E+00  0.4330E+02  0.4332E+02
     15.398  0.1879E+01  0.1778E+01  0.4351E+02  0.4351E+02
     15.509  0.3253E+01  0.3228E+01  0.4387E+02  0.4387E+02
     15.619  0.7105E-01  0.6767E-01  0.4387E+02  0.4387E+02
     15.729  0.1285E-04  0.1225E-03  0.4388E+02  0.4388E+02
     15.839  0.1462E+00  0.3163E+00  0.4389E+02  0.4391E+02
     15.949  0.9622E+00  0.8125E+00  0.4400E+02  0.4400E+02
     16.059  0.2698E-01  0.6530E-02  0.4400E+02  0.4400E+02
     16.169  0.1975E-06  0.9602E-08  0.4400E+02  0.4400E+02
     16.279  0.0000E+00  0.0000E+00  0.4400E+02  0.4400E+02
     16.389  0.0000E+00  0.0000E+00  0.4400E+02  0.4400E+02
     16.499  0.0000E+00  0.0000E+00  0.4400E+02  0.4400E+02
     16.609  0.0000E+00  0.0000E+00  0.4400E+02  0.4400E+02
     16.720  0.0000E+00  0.0000E+00  0.4400E+02  0.4400E+02
     16.830  0.0000E+00  0.0000E+00  0.4400E+02  0.4400E+02
     16.940  0.0000E+00  0.0000E+00  0.4400E+02  0.4400E+02
     17.050  0.0000E+00  0.0000E+00  0.4400E+02  0.4400E+02
     17.160  0.0000E+00  0.0000E+00  0.4400E+02  0.4400E+02
     17.270  0.0000E+00  0.0000E+00  0.4400E+02  0.4400E+02
     17.380  0.0000E+00  0.0000E+00  0.4400E+02  0.4400E+02
     17.38014290    -15.64768879  301      3.11147657      1.00000000
    -15.648  0.0000E+00  0.0000E+00  0.0000E+00  0.0000E+00  0.0000E+00  0.0000E+00  0.0000E+00  0.0000E+00  0.0000E+00  0.0000E+00  0.0000E+00  0.0000E+00  0.0000E+00  0.0000E+00  0.0000E+00  0.0000E+00  0.0000E+00  0.0000E+00
    -15.538  0.0000E+00  0.0000E+00  0.0000E+00  0.0000E+00  0.0000E+00  0.0000E+00  0.0000E+00  0.0000E+00  0.0000E+00  0.0000E+00  0.0000E+00  0.0000E+00  0.0000E+00  0.0000E+00  0.0000E+00  0.0000E+00  0.0000E+00  0.0000E+00
    -15.428  0.0000E+00  0.0000E+00  0.0000E+00  0.0000E+00  0.0000E+00  0.0000E+00  0.0000E+00  0.0000E+00  0.0000E+00  0.0000E+00  0.0000E+00  0.0000E+00  0.0000E+00  0.0000E+00  0.0000E+00  0.0000E+00  0.0000E+00  0.0000E+00
    -15.317  0.0000E+00  0.0000E+00  0.0000E+00  0.0000E+00  0.0000E+00  0.0000E+00  0.0000E+00  0.0000E+00  0.0000E+00  0.0000E+00  0.0000E+00  0.0000E+00  0.0000E+00  0.0000E+00  0.0000E+00  0.0000E+00  0.0000E+00  0.0000E+00
    -15.207  0.0000E+00  0.0000E+00  0.0000E+00  0.0000E+00  0.0000E+00  0.0000E+00  0.0000E+00  0.0000E+00  0.0000E+00  0.0000E+00  0.0000E+00  0.0000E+00  0.0000E+00  0.0000E+00  0.0000E+00  0.0000E+00  0.0000E+00  0.0000E+00
    -15.097  0.0000E+00  0.0000E+00  0.0000E+00  0.0000E+00  0.0000E+00  0.0000E+00  0.0000E+00  0.0000E+00  0.0000E+00  0.0000E+00  0.0000E+00  0.0000E+00  0.0000E+00  0.0000E+00  0.0000E+00  0.0000E+00  0.0000E+00  0.0000E+00
    -14.987  0.0000E+00  0.0000E+00  0.0000E+00  0.0000E+00  0.0000E+00  0.0000E+00  0.0000E+00  0.0000E+00  0.0000E+00  0.0000E+00  0.0000E+00  0.0000E+00  0.0000E+00  0.0000E+00  0.0000E+00  0.0000E+00  0.0000E+00  0.0000E+00
    -14.877  0.0000E+00  0.0000E+00  0.0000E+00  0.0000E+00  0.0000E+00  0.0000E+00  0.0000E+00  0.0000E+00  0.0000E+00  0.0000E+00  0.0000E+00  0.0000E+00  0.0000E+00  0.0000E+00  0.0000E+00  0.0000E+00  0.0000E+00  0.0000E+00
    -14.767  0.0000E+00  0.0000E+00  0.0000E+00  0.0000E+00  0.0000E+00  0.0000E+00  0.0000E+00  0.0000E+00  0.0000E+00  0.0000E+00  0.0000E+00  0.0000E+00  0.0000E+00  0.0000E+00  0.0000E+00  0.0000E+00  0.0000E+00  0.0000E+00
    -14.657  0.0000E+00  0.0000E+00  0.0000E+00  0.0000E+00  0.0000E+00  0.0000E+00  0.0000E+00  0.0000E+00  0.0000E+00  0.0000E+00  0.0000E+00  0.0000E+00  0.0000E+00  0.0000E+00  0.0000E+00  0.0000E+00  0.0000E+00  0.0000E+00
    -14.547  0.0000E+00  0.0000E+00  0.0000E+00  0.0000E+00  0.0000E+00  0.0000E+00  0.0000E+00  0.0000E+00  0.0000E+00  0.0000E+00  0.0000E+00  0.0000E+00  0.0000E+00  0.0000E+00  0.0000E+00  0.0000E+00  0.0000E+00  0.0000E+00
    -14.437  0.0000E+00  0.7512E-18  0.0000E+00  0.8134E-20  0.0000E+00  0.6460E-22  0.0000E+00  0.3161E-20  0.0000E+00  0.7740E-25  0.0000E+00  0.1856E-25  0.0000E+00  0.1040E-21  0.0000E+00  0.1737E-25  0.0000E+00  0.5369E-22
    -14.327  0.1844E-10  0.1177E-08  0.2424E-12  0.1274E-10  0.1375E-14  0.1012E-12  0.9109E-13  0.4952E-11  0.2073E-17  0.1213E-15  0.5825E-18  0.2909E-16  0.2957E-14  0.1630E-12  0.6041E-18  0.2721E-16  0.1118E-14  0.8412E-13
    -14.216  0.2222E-04  0.1608E-03  0.2921E-06  0.1741E-05  0.1657E-08  0.1383E-07  0.1098E-06  0.6765E-06  0.2498E-11  0.1657E-10  0.7019E-12  0.3974E-11  0.3564E-08  0.2226E-07  0.7279E-12  0.3718E-11  0.1347E-08  0.1149E-07
    -14.106  0.4423E-02  0.5734E-02  0.5813E-04  0.6209E-04  0.3297E-06  0.4931E-06  0.2184E-04  0.2413E-04  0.4971E-09  0.5908E-09  0.1397E-09  0.1417E-09  0.7092E-06  0.7939E-06  0.1449E-09  0.1326E-09  0.2681E-06  0.4098E-06
    -13.996  0.2358E-02  0.8711E-03  0.3099E-04  0.9433E-05  0.1758E-06  0.7546E-07  0.1165E-04  0.3666E-05  0.2650E-09  0.8981E-10  0.7448E-10  0.2154E-10  0.3781E-06  0.1206E-06  0.7724E-10  0.2024E-10  0.1430E-06  0.6226E-07
    -13.886  0.1013E-03  0.2668E-03  0.1741E-04  0.4559E-04  0.6654E-05  0.1868E-04  0.1189E-04  0.3152E-04  0.6292E-09  0.1963E-08  0.1478E-09  0.5554E-09  0.3232E-06  0.7131E-06  0.1042E-08  0.3306E-08  0.9310E-07  0.2269E-06
    -13.776  0.5321E-02  0.6557E-02  0.9420E-03  0.1137E-02  0.3282E-03  0.4085E-03  0.5919E-03  0.6760E-03  0.3511E-07  0.4839E-07  0.8653E-08  0.1387E-07  0.3860E-04  0.5637E-04  0.4314E-07  0.5962E-07  0.1178E-04  0.2285E-04
    -13.666  0.2132E-01  0.2401E-01  0.3046E-02  0.2957E-02  0.9234E-03  0.1138E-02  0.1407E-02  0.1746E-02  0.1995E-06  0.2943E-06  0.1283E-06  0.2348E-06  0.3944E-03  0.4123E-03  0.2043E-06  0.2461E-06  0.4888E-03  0.5779E-03
    -13.556  0.1253E-01  0.1068E-01  0.1138E-02  0.1177E-02  0.9515E-03  0.1035E-02  0.1609E-02  0.1234E-02  0.2957E-06  0.2697E-06  0.3873E-06  0.4790E-06  0.1046E-03  0.9377E-04  0.2182E-06  0.3138E-06  0.4459E-03  0.3348E-03
    -13.446  0.6181E-02  0.5438E-02  0.1954E-02  0.1823E-02  0.9446E-03  0.7620E-03  0.1440E-02  0.1718E-02  0.1855E-06  0.1939E-06  0.4084E-06  0.3419E-06  0.1420E-03  0.1260E-03  0.2567E-06  0.1646E-06  0.3852E-03  0.3700E-03
    -13.336  0.2228E-02  0.9189E-03  0.4250E-03  0.5748E-03  0.9901E-03  0.1781E-02  0.1596E-02  0.1302E-02  0.1059E-06  0.7072E-07  0.2038E-06  0.2251E-06  0.7006E-04  0.7312E-04  0.9881E-07  0.1030E-06  0.2224E-03  0.2107E-03
    -13.226  0.7689E-03  0.1267E-02  0.4477E-02  0.5632E-02  0.3162E-02  0.3274E-02  0.3617E-02  0.4209E-02  0.1145E-06  0.1436E-06  0.4031E-06  0.4096E-06  0.3449E-03  0.5936E-03  0.3361E-06  0.3660E-06  0.1727E-02  0.1749E-02
    -13.116  0.4587E-02  0.5472E-02  0.4109E-02  0.4178E-02  0.9651E-02  0.1019E-01  0.5739E-02  0.6670E-02  0.2618E-06  0.3063E-06  0.1096E-05  0.1237E-05  0.2515E-02  0.2751E-02  0.5421E-06  0.5751E-06  0.1270E-02  0.1635E-02
    -13.005  0.4339E-02  0.3495E-02  0.2089E-02  0.1645E-02  0.5495E-02  0.3915E-02  0.3652E-02  0.2349E-02  0.2061E-06  0.1891E-06  0.8064E-06  0.6042E-06  0.2467E-02  0.2176E-02  0.1989E-06  0.1446E-06  0.1247E-02  0.1082E-02
    -12.895  0.1305E-02  0.4193E-03  0.1147E-02  0.2404E-02  0.2184E-02  0.2777E-02  0.2630E-02  0.3348E-02  0.2749E-06  0.2716E-06  0.2579E-06  0.2545E-06  0.1951E-02  0.2645E-02  0.7192E-07  0.1069E-06  0.7914E-03  0.1472E-02
    -12.785  0.3861E-03  0.1180E-03  0.4433E-02  0.3797E-02  0.1380E-02  0.6219E-03  0.2877E-02  0.2370E-02  0.1275E-06  0.8365E-07  0.9847E-07  0.7587E-07  0.3309E-02  0.3341E-02  0.1546E-06  0.1615E-06  0.3105E-02  0.4228E-02
    -12.675  0.5721E-04  0.4131E-05  0.2125E-02  0.3776E-03  0.6501E-04  0.5897E-05  0.8052E-03  0.1856E-03  0.2327E-07  0.5887E-08  0.2360E-07  0.3165E-08  0.1337E-02  0.3766E-03  0.7888E-07  0.1272E-07  0.2923E-02  0.9382E-03
    -12.565  0.4510E-06  0.1212E-08  0.2049E-04  0.1689E-06  0.8438E-07  0.7630E-09  0.6374E-05  0.8543E-07  0.2311E-09  0.2858E-11  0.1098E-09  0.1051E-11  0.7167E-05  0.5765E-07  0.6204E-09  0.5887E-11  0.4493E-04  0.5732E-06
    -12.455  0.2126E-11  0.9633E-08  0.1028E-09  0.5199E-08  0.1246E-12  0.6022E-08  0.3998E-10  0.5304E-08  0.1394E-14  0.1299E-09  0.5569E-15  0.1153E-09  0.1118E-10  0.6866E-10  0.3546E-14  0.1146E-09  0.2795E-09  0.1290E-09
    -12.345  0.1406E-14  0.1256E-03  0.1411E-14  0.4493E-04  0.2013E-14  0.4620E-04  0.1688E-14  0.4567E-04  0.6047E-16  0.1071E-05  0.5033E-16  0.1032E-05  0.1665E-16  0.6099E-06  0.4170E-16  0.1026E-05  0.3226E-16  0.1245E-05
    -12.235  0.4531E-07  0.1272E-02  0.2676E-07  0.2604E-03  0.3166E-07  0.2438E-03  0.2916E-07  0.2609E-03  0.9980E-09  0.6099E-05  0.9110E-09  0.6089E-05  0.3129E-09  0.3724E-05  0.8268E-09  0.6070E-05  0.6269E-09  0.7706E-05
    -12.125  0.1948E-03  0.1668E-03  0.6385E-04  0.7669E-05  0.6336E-04  0.5716E-05  0.6366E-04  0.7249E-05  0.2195E-05  0.1611E-06  0.2142E-05  0.1641E-06  0.7726E-06  0.1139E-06  0.2091E-05  0.1647E-06  0.1619E-05  0.2151E-06
    -12.015  0.1017E-02  0.5537E-07  0.1706E-03  0.4382E-09  0.1500E-03  0.6273E-10  0.1600E-03  0.3258E-09  0.5697E-05  0.1486E-11  0.5689E-05  0.1474E-11  0.2186E-05  0.2891E-11  0.5744E-05  0.1608E-11  0.4560E-05  0.1788E-11
    -11.905  0.7768E-04  0.2621E-14  0.2068E-05  0.1822E-16  0.1260E-05  0.1075E-17  0.1684E-05  0.1306E-16  0.5586E-07  0.5134E-20  0.5608E-07  0.4192E-20  0.2749E-07  0.8306E-19  0.5841E-07  0.9903E-20  0.4856E-07  0.1765E-20
    -11.794  0.9670E-08  0.0000E+00  0.6671E-10  0.0000E+00  0.5221E-11  0.0000E+00  0.4120E-10  0.0000E+00  0.1606E-12  0.0000E+00  0.1598E-12  0.0000E+00  0.5343E-12  0.0000E+00  0.1904E-12  0.0000E+00  0.3148E-12  0.0000E+00
    -11.684  0.1428E-15  0.0000E+00  0.9282E-18  0.0000E+00  0.3774E-19  0.0000E+00  0.5617E-18  0.0000E+00  0.2277E-21  0.0000E+00  0.2634E-21  0.0000E+00  0.6783E-20  0.0000E+00  0.6299E-21  0.0000E+00  0.2955E-20  0.0000E+00
    -11.574  0.0000E+00  0.0000E+00  0.0000E+00  0.0000E+00  0.0000E+00  0.0000E+00  0.0000E+00  0.0000E+00  0.0000E+00  0.0000E+00  0.0000E+00  0.0000E+00  0.0000E+00  0.0000E+00  0.0000E+00  0.0000E+00  0.0000E+00  0.0000E+00
    -11.464  0.0000E+00  0.0000E+00  0.0000E+00  0.0000E+00  0.0000E+00  0.0000E+00  0.0000E+00  0.0000E+00  0.0000E+00  0.0000E+00  0.0000E+00  0.0000E+00  0.0000E+00  0.0000E+00  0.0000E+00  0.0000E+00  0.0000E+00  0.0000E+00
    -11.354  0.0000E+00  0.0000E+00  0.0000E+00  0.0000E+00  0.0000E+00  0.0000E+00  0.0000E+00  0.0000E+00  0.0000E+00  0.0000E+00  0.0000E+00  0.0000E+00  0.0000E+00  0.0000E+00  0.0000E+00  0.0000E+00  0.0000E+00  0.0000E+00
    -11.244  0.0000E+00  0.0000E+00  0.0000E+00  0.0000E+00  0.0000E+00  0.0000E+00  0.0000E+00  0.0000E+00  0.0000E+00  0.0000E+00  0.0000E+00  0.0000E+00  0.0000E+00  0.0000E+00  0.0000E+00  0.0000E+00  0.0000E+00  0.0000E+00
    -11.134  0.0000E+00  0.0000E+00  0.0000E+00  0.0000E+00  0.0000E+00  0.0000E+00  0.0000E+00  0.0000E+00  0.0000E+00  0.0000E+00  0.0000E+00  0.0000E+00  0.0000E+00  0.0000E+00  0.0000E+00  0.0000E+00  0.0000E+00  0.0000E+00
    -11.024  0.0000E+00  0.0000E+00  0.0000E+00  0.0000E+00  0.0000E+00  0.0000E+00  0.0000E+00  0.0000E+00  0.0000E+00  0.0000E+00  0.0000E+00  0.0000E+00  0.0000E+00  0.0000E+00  0.0000E+00  0.0000E+00  0.0000E+00  0.0000E+00
    -10.914  0.0000E+00  0.0000E+00  0.0000E+00  0.0000E+00  0.0000E+00  0.0000E+00  0.0000E+00  0.0000E+00  0.0000E+00  0.0000E+00  0.0000E+00  0.0000E+00  0.0000E+00  0.0000E+00  0.0000E+00  0.0000E+00  0.0000E+00  0.0000E+00
    -10.804  0.0000E+00  0.0000E+00  0.0000E+00  0.0000E+00  0.0000E+00  0.0000E+00  0.0000E+00  0.0000E+00  0.0000E+00  0.0000E+00  0.0000E+00  0.0000E+00  0.0000E+00  0.0000E+00  0.0000E+00  0.0000E+00  0.0000E+00  0.0000E+00
    -10.694  0.0000E+00  0.0000E+00  0.0000E+00  0.0000E+00  0.0000E+00  0.0000E+00  0.0000E+00  0.0000E+00  0.0000E+00  0.0000E+00  0.0000E+00  0.0000E+00  0.0000E+00  0.0000E+00  0.0000E+00  0.0000E+00  0.0000E+00  0.0000E+00
    -10.583  0.0000E+00  0.0000E+00  0.0000E+00  0.0000E+00  0.0000E+00  0.0000E+00  0.0000E+00  0.0000E+00  0.0000E+00  0.0000E+00  0.0000E+00  0.0000E+00  0.0000E+00  0.0000E+00  0.0000E+00  0.0000E+00  0.0000E+00  0.0000E+00
    -10.473  0.0000E+00  0.0000E+00  0.0000E+00  0.0000E+00  0.0000E+00  0.0000E+00  0.0000E+00  0.0000E+00  0.0000E+00  0.0000E+00  0.0000E+00  0.0000E+00  0.0000E+00  0.0000E+00  0.0000E+00  0.0000E+00  0.0000E+00  0.0000E+00
    -10.363  0.0000E+00  0.0000E+00  0.0000E+00  0.0000E+00  0.0000E+00  0.0000E+00  0.0000E+00  0.0000E+00  0.0000E+00  0.0000E+00  0.0000E+00  0.0000E+00  0.0000E+00  0.0000E+00  0.0000E+00  0.0000E+00  0.0000E+00  0.0000E+00
    -10.253  0.0000E+00  0.0000E+00  0.0000E+00  0.0000E+00  0.0000E+00  0.0000E+00  0.0000E+00  0.0000E+00  0.0000E+00  0.0000E+00  0.0000E+00  0.0000E+00  0.0000E+00  0.0000E+00  0.0000E+00  0.0000E+00  0.0000E+00  0.0000E+00
    -10.143  0.0000E+00  0.0000E+00  0.0000E+00  0.0000E+00  0.0000E+00  0.0000E+00  0.0000E+00  0.0000E+00  0.0000E+00  0.0000E+00  0.0000E+00  0.0000E+00  0.0000E+00  0.0000E+00  0.0000E+00  0.0000E+00  0.0000E+00  0.0000E+00