   15   15    1    2
  0.1021298E+02  0.6006014E-09  0.6006014E-09  0.6006014E-09  0.5000000E-15
  1.000000000000000E-004
  CAR 
 unknown system                          
     56      8     44
 
  0.0000000E+00  0.0000000E+00  0.0000000E+00  0.1250000E+00
    1      -14.120323    -14.146424   1.000000   1.000000
    2      -13.271818    -13.282707   1.000000   1.000000
    3      -13.162508    -13.184553   1.000000   1.000000
    4      -13.115445    -13.139760   1.000000   1.000000
    5      -12.834954    -12.866535   1.000000   1.000000
    6      -12.760307    -12.816146   1.000000   1.000000
    7      -12.048101    -12.254608   1.000000   1.000000
    8       -1.509400     -1.518009   1.000000   1.000000
    9       -1.316174     -1.337896   1.000000   1.000000
   10       -1.235437     -1.252747   1.000000   1.000000
   11       -1.223824     -1.247428   1.000000   1.000000
   12       -0.785885     -0.814039   1.000000   1.000000
   13       -0.767576     -0.785180   1.000000   1.000000
   14       -0.702341     -0.758177   1.000000   1.000000
   15        1.278690      1.263183   1.000000   1.000000
   16        1.373749      1.355575   1.000000   1.000000
   17        1.447947      1.429677   1.000000   1.000000
   18        1.770234      1.772985   1.000000   1.000000
   19        1.980156      1.949394   1.000000   1.000000
   20        2.030104      1.999437   1.000000   1.000000
   21        2.061270      2.005347   1.000000   1.000000
   22        2.137560      2.108731   1.000000   1.000000
   23        2.227787      2.181380   1.000000   1.000000
   24        2.280520      2.214097   1.000000   1.000000
   25        2.304863      2.277698   1.000000   1.000000
   26        2.353445      2.307781   1.000000   1.000000
   27        3.012542      2.951004   0.997431   0.999997
   28        3.114855      2.993083   0.461939   0.999594
   29        3.219113      2.999159   0.001166   0.999256
   30        8.960103      8.947429   0.000000   0.000000
   31        9.959192      9.957232   0.000000   0.000000
   32       10.142607     10.140228   0.000000   0.000000
   33       10.247948     10.244451   0.000000   0.000000
   34       10.427783     10.425735   0.000000   0.000000
   35       10.569617     10.568143   0.000000   0.000000
   36       10.656841     10.657551   0.000000   0.000000
   37       12.246114     12.251036   0.000000   0.000000
   38       12.331737     12.336158   0.000000   0.000000
   39       12.448005     12.449048   0.000000   0.000000
   40       12.560711     12.557305   0.000000   0.000000
   41       12.586616     12.584349   0.000000   0.000000
   42       12.648539     12.638799   0.000000   0.000000
   43       15.295943     15.285839   0.000000   0.000000
   44       15.878878     15.859593   0.000000   0.000000
 
  0.5000000E+00  0.0000000E+00  0.0000000E+00  0.1250000E+00
    1      -13.816831    -13.833237   1.000000   1.000000
    2      -13.455448    -13.490692   1.000000   1.000000
    3      -13.245312    -13.252082   1.000000   1.000000
    4      -13.094514    -13.115980   1.000000   1.000000
    5      -12.912182    -12.944405   1.000000   1.000000
    6      -12.802157    -12.859361   1.000000   1.000000
    7      -12.103505    -12.310081   1.000000   1.000000
    8       -1.644945     -1.647922   1.000000   1.000000
    9       -0.593571     -0.611212   1.000000   1.000000
   10       -0.496027     -0.520288   1.000000   1.000000
   11       -0.471423     -0.511198   1.000000   1.000000
   12       -0.356017     -0.367311   1.000000   1.000000
   13       -0.271563     -0.285062   1.000000   1.000000
   14       -0.225955     -0.241881   1.000000   1.000000
   15        0.586415      0.579949   1.000000   1.000000
   16        0.668256      0.622765   1.000000   1.000000
   17        0.740375      0.728121   1.000000   1.000000
   18        1.201371      1.161108   1.000000   1.000000
   19        1.336202      1.265103   1.000000   1.000000
   20        1.728504      1.658631   1.000000   1.000000
   21        1.794288      1.707444   1.000000   1.000000
   22        1.870547      1.778163   1.000000   1.000000
   23        1.919179      1.847669   1.000000   1.000000
   24        1.952167      1.932237   1.000000   1.000000
   25        2.402253      2.379685   1.000000   1.000000
   26        2.463835      2.415182   1.000000   1.000000
   27        2.802700      2.742076   1.000000   1.000000
   28        2.936985      2.795412   1.000000   1.000000
   29        3.629818      3.630186   0.000000   0.000000
   30        6.989533      6.986115   0.000000   0.000000
   31        9.347913      9.345371   0.000000   0.000000
   32        9.435170      9.430614   0.000000   0.000000
   33       11.058475     11.037070   0.000000   0.000000
   34       11.311357     11.282696   0.000000   0.000000
   35       12.074487     12.069162   0.000000   0.000000
   36       12.191757     12.189498   0.000000   0.000000
   37       13.129934     13.128382   0.000000   0.000000
   38       13.251020     13.244992   0.000000   0.000000
   39       13.603287     13.591116   0.000000   0.000000
   40       14.060583     14.041283   0.000000   0.000000
   41       14.369881     14.358472   0.000000   0.000000
   42       14.410328     14.383929   0.000000   0.000000
   43       14.525277     14.515143   0.000000   0.000000
   44       15.386736     15.385853   0.000000   0.000000
 
  0.0000000E+00  0.5000000E+00  0.0000000E+00  0.1250000E+00
    1      -13.761425    -13.769697   1.000000   1.000000
    2      -13.543250    -13.587630   1.000000   1.000000
    3      -13.243133    -13.249629   1.000000   1.000000
    4      -13.037095    -13.056143   1.000000   1.000000
    5      -12.950517    -12.987050   1.000000   1.000000
    6      -12.804037    -12.860317   1.000000   1.000000
    7      -12.090736    -12.295454   1.000000   1.000000
    8       -1.351483     -1.362349   1.000000   1.000000
    9       -0.847685     -0.858188   1.000000   1.000000
   10       -0.651376     -0.656132   1.000000   1.000000
   11       -0.495655     -0.502182   1.000000   1.000000
   12       -0.354958     -0.413426   1.000000   1.000000
   13       -0.244344     -0.340207   1.000000   1.000000
   14       -0.067887     -0.086415   1.000000   1.000000
   15        0.430058      0.422546   1.000000   1.000000
   16        0.799057      0.784392   1.000000   1.000000
   17        0.931139      0.928416   1.000000   1.000000
   18        0.984850      0.962554   1.000000   1.000000
   19        1.175966      1.161886   1.000000   1.000000
   20        1.409584      1.403358   1.000000   1.000000
   21        1.760355      1.675027   1.000000   1.000000
   22        2.046072      2.035312   1.000000   1.000000
   23        2.121512      2.051473   1.000000   1.000000
   24        2.142936      2.075616   1.000000   1.000000
   25        2.176464      2.152458   1.000000   1.000000
   26        2.244383      2.184587   1.000000   1.000000
   27        2.995829      2.865288   0.999464   1.000000
   28        3.089711      2.877473   0.730932   1.000000
   29        3.692266      3.686835   0.000000   0.000000
   30        7.247068      7.246982   0.000000   0.000000
   31        9.161054      9.160764   0.000000   0.000000
   32        9.352145      9.350834   0.000000   0.000000
   33       11.111874     11.100810   0.000000   0.000000
   34       11.208661     11.196882   0.000000   0.000000
   35       11.889154     11.883025   0.000000   0.000000
   36       12.079149     12.074328   0.000000   0.000000
   37       13.282547     13.284270   0.000000   0.000000
   38       13.440519     13.439074   0.000000   0.000000
   39       13.773281     13.762868   0.000000   0.000000
   40       14.029037     14.018506   0.000000   0.000000
   41       14.410929     14.376929   0.000000   0.000000
   42       14.456105     14.403198   0.000000   0.000000
   43       14.509887     14.506647   0.000000   0.000000
   44       15.435797     15.434774   0.000000   0.000000
 
  0.5000000E+00  0.5000000E+00  0.0000000E+00  0.1250000E+00
    1      -13.718211    -13.729718   1.000000   1.000000
    2      -13.310557    -13.344132   1.000000   1.000000
    3      -13.300762    -13.313546   1.000000   1.000000
    4      -13.171753    -13.195445   1.000000   1.000000
    5      -13.110348    -13.151707   1.000000   1.000000
    6      -12.744606    -12.794477   1.000000   1.000000
    7      -12.108985    -12.311489   1.000000   1.000000
    8       -1.623035     -1.628508   1.000000   1.000000
    9       -0.490513     -0.500282   1.000000   1.000000
   10       -0.064431     -0.078611   1.000000   1.000000
   11       -0.001950     -0.027188   1.000000   1.000000
   12        0.011449     -0.015610   1.000000   1.000000
   13        0.037453     -0.008634   1.000000   1.000000
   14        0.111789      0.083089   1.000000   1.000000
   15        0.494656      0.449159   1.000000   1.000000
   16        0.516647      0.484673   1.000000   1.000000
   17        0.687067      0.663915   1.000000   1.000000
   18        0.705594      0.699397   1.000000   1.000000
   19        0.921306      0.886687   1.000000   1.000000
   20        1.024218      1.011427   1.000000   1.000000
   21        1.172872      1.130594   1.000000   1.000000
   22        1.817616      1.682636   1.000000   1.000000
   23        1.910667      1.900781   1.000000   1.000000
   24        2.084733      2.061682   1.000000   1.000000
   25        2.247094      2.199997   1.000000   1.000000
   26        2.387574      2.345896   1.000000   1.000000
   27        2.770190      2.643297   1.000000   1.000000
   28        2.838262      2.659960   1.000000   1.000000
   29        4.124713      4.121523   0.000000   0.000000
   30        7.211803      7.209950   0.000000   0.000000
   31        8.612212      8.609285   0.000000   0.000000
   32        8.670697      8.667660   0.000000   0.000000
   33       11.691757     11.661873   0.000000   0.000000
   34       12.011014     12.005209   0.000000   0.000000
   35       12.358500     12.342641   0.000000   0.000000
   36       13.607687     13.581568   0.000000   0.000000
   37       13.640338     13.603253   0.000000   0.000000
   38       13.873369     13.870350   0.000000   0.000000
   39       13.989867     13.986438   0.000000   0.000000
   40       14.062319     14.060506   0.000000   0.000000
   41       14.237880     14.240181   0.000000   0.000000
   42       14.723290     14.715521   0.000000   0.000000
   43       14.881097     14.876567   0.000000   0.000000
   44       15.042731     15.039395   0.000000   0.000000
 
  0.0000000E+00  0.0000000E+00  0.5000000E+00  0.1250000E+00
    1      -13.721574    -13.741379   1.000000   1.000000
    2      -13.633550    -13.654103   1.000000   1.000000
    3      -13.122300    -13.141261   1.000000   1.000000
    4      -13.111824    -13.131020   1.000000   1.000000
    5      -12.894693    -12.926502   1.000000   1.000000
    6      -12.849279    -12.909859   1.000000   1.000000
    7      -12.096840    -12.301747   1.000000   1.000000
    8       -1.507316     -1.512069   1.000000   1.000000
    9       -0.706256     -0.718706   1.000000   1.000000
   10       -0.534136     -0.558773   1.000000   1.000000
   11       -0.508373     -0.524901   1.000000   1.000000
   12       -0.336021     -0.393983   1.000000   1.000000
   13       -0.318175     -0.335717   1.000000   1.000000
   14       -0.166698     -0.183522   1.000000   1.000000
   15        0.519472      0.494530   1.000000   1.000000
   16        0.649472      0.640903   1.000000   1.000000
   17        0.923811      0.907641   1.000000   1.000000
   18        1.042907      1.018203   1.000000   1.000000
   19        1.318207      1.252272   1.000000   1.000000
   20        1.561100      1.542683   1.000000   1.000000
   21        1.843606      1.664527   1.000000   1.000000
   22        1.931202      1.899766   1.000000   1.000000
   23        1.964611      1.922845   1.000000   1.000000
   24        2.154462      2.118099   1.000000   1.000000
   25        2.186266      2.170586   1.000000   1.000000
   26        2.385924      2.333203   1.000000   1.000000
   27        2.896240      2.817194   1.000000   1.000000
   28        3.014716      2.839106   0.996898   1.000000
   29        3.663675      3.662453   0.000000   0.000000
   30        7.115580      7.112956   0.000000   0.000000
   31        9.187215      9.185751   0.000000   0.000000
   32        9.461379      9.457065   0.000000   0.000000
   33       11.122453     11.103899   0.000000   0.000000
   34       11.221630     11.200028   0.000000   0.000000
   35       11.966047     11.959982   0.000000   0.000000
   36       12.154287     12.151057   0.000000   0.000000
   37       13.170102     13.170460   0.000000   0.000000
   38       13.365778     13.358386   0.000000   0.000000
   39       13.690861     13.679110   0.000000   0.000000
   40       14.082386     14.068391   0.000000   0.000000
   41       14.379059     14.359194   0.000000   0.000000
   42       14.436174     14.402265   0.000000   0.000000
   43       14.488173     14.480000   0.000000   0.000000
   44       15.429583     15.429044   0.000000   0.000000
 
  0.5000000E+00  0.0000000E+00  0.5000000E+00  0.1250000E+00
    1      -13.648302    -13.664243   1.000000   1.000000
    2      -13.522061    -13.532924   1.000000   1.000000
    3      -13.207921    -13.229255   1.000000   1.000000
    4      -13.173080    -13.196096   1.000000   1.000000
    5      -13.008671    -13.080616   1.000000   1.000000
    6      -12.798295    -12.827079   1.000000   1.000000
    7      -12.106839    -12.310170   1.000000   1.000000
    8       -1.602406     -1.607748   1.000000   1.000000
    9       -0.450672     -0.461814   1.000000   1.000000
   10       -0.107881     -0.135769   1.000000   1.000000
   11       -0.057877     -0.084704   1.000000   1.000000
   12       -0.046933     -0.056649   1.000000   1.000000
   13       -0.007070     -0.024510   1.000000   1.000000
   14        0.151770      0.126600   1.000000   1.000000
   15        0.539688      0.422549   1.000000   1.000000
   16        0.557256      0.544521   1.000000   1.000000
   17        0.609236      0.584114   1.000000   1.000000
   18        0.819100      0.804677   1.000000   1.000000
   19        0.910257      0.890933   1.000000   1.000000
   20        1.060775      1.038765   1.000000   1.000000
   21        1.098023      1.066802   1.000000   1.000000
   22        1.849615      1.717348   1.000000   1.000000
   23        1.993767      1.978954   1.000000   1.000000
   24        2.081813      2.059207   1.000000   1.000000
   25        2.275354      2.237925   1.000000   1.000000
   26        2.320785      2.302705   1.000000   1.000000
   27        2.629307      2.551976   1.000000   1.000000
   28        2.934427      2.686243   1.000000   1.000000
   29        4.121720      4.120356   0.000000   0.000000
   30        7.260809      7.258461   0.000000   0.000000
   31        8.487960      8.485108   0.000000   0.000000
   32        8.742510      8.737089   0.000000   0.000000
   33       11.692297     11.665927   0.000000   0.000000
   34       12.025549     12.019364   0.000000   0.000000
   35       12.374623     12.356990   0.000000   0.000000
   36       13.546911     13.531177   0.000000   0.000000
   37       13.706661     13.656065   0.000000   0.000000
   38       13.830745     13.827318   0.000000   0.000000
   39       13.948176     13.945135   0.000000   0.000000
   40       14.129811     14.128611   0.000000   0.000000
   41       14.217649     14.220783   0.000000   0.000000
   42       14.701678     14.695628   0.000000   0.000000
   43       14.869102     14.864596   0.000000   0.000000
   44       14.970044     14.965338   0.000000   0.000000
 
  0.0000000E+00  0.5000000E+00  0.5000000E+00  0.1250000E+00
    1      -13.690230    -13.704890   1.000000   1.000000
    2      -13.440520    -13.454454   1.000000   1.000000
    3      -13.218760    -13.248681   1.000000   1.000000
    4      -13.171088    -13.196951   1.000000   1.000000
    5      -13.072741    -13.111703   1.000000   1.000000
    6      -12.763909    -12.813787   1.000000   1.000000
    7      -12.107921    -12.310076   1.000000   1.000000
    8       -1.612832     -1.618247   1.000000   1.000000
    9       -0.469737     -0.479812   1.000000   1.000000
   10       -0.052601     -0.070402   1.000000   1.000000
   11       -0.044321     -0.065676   1.000000   1.000000
   12       -0.030578     -0.057219   1.000000   1.000000
   13        0.003779     -0.012370   1.000000   1.000000
   14        0.126005      0.094497   1.000000   1.000000
   15        0.495934      0.436880   1.000000   1.000000
   16        0.574370      0.556753   1.000000   1.000000
   17        0.620779      0.600239   1.000000   1.000000
   18        0.763764      0.742767   1.000000   1.000000
   19        0.895113      0.870266   1.000000   1.000000
   20        1.062928      1.038875   1.000000   1.000000
   21        1.130191      1.079912   1.000000   1.000000
   22        1.903230      1.702977   1.000000   1.000000
   23        1.990607      1.975324   1.000000   1.000000
   24        2.053570      2.034002   1.000000   1.000000
   25        2.293584      2.238397   1.000000   1.000000
   26        2.339050      2.312652   1.000000   1.000000
   27        2.656144      2.567578   1.000000   1.000000
   28        2.847631      2.689252   1.000000   1.000000
   29        4.115191      4.111283   0.000000   0.000000
   30        7.329470      7.326038   0.000000   0.000000
   31        8.498219      8.496593   0.000000   0.000000
   32        8.662166      8.659270   0.000000   0.000000
   33       11.722584     11.690873   0.000000   0.000000
   34       12.036001     12.030908   0.000000   0.000000
   35       12.375977     12.349643   0.000000   0.000000
   36       13.575269     13.560561   0.000000   0.000000
   37       13.686167     13.653625   0.000000   0.000000
   38       13.863904     13.860760   0.000000   0.000000
   39       13.913198     13.910106   0.000000   0.000000
   40       14.118829     14.116923   0.000000   0.000000
   41       14.210052     14.213345   0.000000   0.000000
   42       14.709909     14.702128   0.000000   0.000000
   43       14.842611     14.836103   0.000000   0.000000
   44       15.042231     15.025871   0.000000   0.000000
 
  0.5000000E+00  0.5000000E+00  0.5000000E+00  0.1250000E+00
    1      -13.695166    -13.708895   1.000000   1.000000
    2      -13.659562    -13.686981   1.000000   1.000000
    3      -13.150786    -13.169610   1.000000   1.000000
    4      -13.079231    -13.099260   1.000000   1.000000
    5      -12.908942    -12.941906   1.000000   1.000000
    6      -12.841913    -12.899489   1.000000   1.000000
    7      -12.094488    -12.299718   1.000000   1.000000
    8       -1.449642     -1.456897   1.000000   1.000000
    9       -0.750320     -0.762385   1.000000   1.000000
   10       -0.607885     -0.614770   1.000000   1.000000
   11       -0.488983     -0.518131   1.000000   1.000000
   12       -0.354365     -0.372055   1.000000   1.000000
   13       -0.277106     -0.367007   1.000000   1.000000
   14       -0.135145     -0.150484   1.000000   1.000000
   15        0.477563      0.461321   1.000000   1.000000
   16        0.698424      0.689737   1.000000   1.000000
   17        0.949542      0.926316   1.000000   1.000000
   18        1.015530      0.996683   1.000000   1.000000
   19        1.266895      1.235502   1.000000   1.000000
   20        1.511015      1.499876   1.000000   1.000000
   21        1.814161      1.684970   1.000000   1.000000
   22        1.961905      1.917563   1.000000   1.000000
   23        2.067671      2.005260   1.000000   1.000000
   24        2.122286      2.108957   1.000000   1.000000
   25        2.178319      2.136600   1.000000   1.000000
   26        2.327869      2.290726   1.000000   1.000000
   27        2.901052      2.818447   1.000000   1.000000
   28        3.080003      2.850866   0.813324   1.000000
   29        3.672869      3.669280   0.000000   0.000000
   30        7.162345      7.161086   0.000000   0.000000
   31        9.203677      9.202459   0.000000   0.000000
   32        9.396689      9.394186   0.000000   0.000000
   33       11.147198     11.132356   0.000000   0.000000
   34       11.188524     11.173085   0.000000   0.000000
   35       11.955970     11.949945   0.000000   0.000000
   36       12.101306     12.097572   0.000000   0.000000
   37       13.202377     13.202647   0.000000   0.000000
   38       13.388900     13.385908   0.000000   0.000000
   39       13.760813     13.749696   0.000000   0.000000
   40       14.030618     14.019709   0.000000   0.000000
   41       14.387800     14.371521   0.000000   0.000000
   42       14.438081     14.380356   0.000000   0.000000
   43       14.512431     14.506055   0.000000   0.000000
   44       15.441949     15.441358   0.000000   0.000000
