       N       E                     dE             d eps       ncg     rms          rms(c)
DAV:   1     0.213699510210E+03    0.21370E+03   -0.23431E+04  1496   0.918E+02
DAV:   2    -0.810017310167E+02   -0.29470E+03   -0.28503E+03  1780   0.225E+02
DAV:   3    -0.981805539830E+02   -0.17179E+02   -0.17096E+02  1712   0.565E+01
DAV:   4    -0.982894593597E+02   -0.10891E+00   -0.10881E+00  1736   0.505E+00
DAV:   5    -0.982901278111E+02   -0.66845E-03   -0.66835E-03  1692   0.387E-01    0.270E+01
DAV:   6    -0.920254622316E+02    0.62647E+01   -0.38592E+01  1624   0.271E+01    0.765E+00
DAV:   7    -0.919343513065E+02    0.91111E-01   -0.14861E+00  1632   0.532E+00    0.395E+00
DAV:   8    -0.917152597721E+02    0.21909E+00   -0.40044E-01  1644   0.338E+00    0.139E+00
DAV:   9    -0.917057427280E+02    0.95170E-02   -0.46724E-02  1780   0.128E+00    0.443E-01
DAV:  10    -0.917062169403E+02   -0.47421E-03   -0.10246E-02  1652   0.425E-01    0.235E-01
DAV:  11    -0.917062771356E+02   -0.60195E-04   -0.65262E-04  1676   0.133E-01    0.126E-01
DAV:  12    -0.917065312294E+02   -0.25409E-03   -0.39594E-04  1632   0.107E-01    0.359E-02
DAV:  13    -0.917065441684E+02   -0.12939E-04   -0.49802E-05  1756   0.371E-02    0.251E-02
DAV:  14    -0.917065439481E+02    0.22038E-06   -0.74467E-06  1628   0.139E-02
   1 F= -.91706544E+02 E0= -.91704284E+02  d E =-.917065E+02  mag=    -0.2497
