PROCAR lm decomposed + phase
# of k-points:    8         # of bands:  44         # of ions:  15

 k-point    1 :    0.00000000 0.00000000 0.00000000     weight = 0.12500000

band   1 # energy  -14.12032267 # occ.  1.00000000
 
ion      s     py     pz     px    dxy    dyz    dz2    dxz    dx2    tot
  1  0.006  0.000  0.000  0.000  0.000  0.000  0.000  0.000  0.000  0.006
  2  0.004  0.000  0.000  0.000  0.000  0.000  0.000  0.000  0.000  0.005
  3  0.004  0.000  0.000  0.000  0.000  0.000  0.000  0.000  0.000  0.004
  4  0.004  0.000  0.000  0.000  0.000  0.000  0.000  0.000  0.000  0.004
  5  0.004  0.000  0.000  0.000  0.000  0.000  0.000  0.000  0.000  0.004
  6  0.004  0.000  0.000  0.000  0.000  0.000  0.000  0.000  0.000  0.004
  7  0.004  0.000  0.000  0.000  0.000  0.000  0.000  0.000  0.000  0.004
  8  0.006  0.000  0.000  0.000  0.000  0.000  0.000  0.000  0.000  0.006
  9  0.092  0.000  0.000  0.000  0.000  0.000  0.000  0.000  0.000  0.092
 10  0.061  0.000  0.000  0.000  0.000  0.000  0.000  0.000  0.000  0.061
 11  0.071  0.000  0.000  0.000  0.000  0.000  0.000  0.000  0.000  0.071
 12  0.153  0.000  0.000  0.000  0.000  0.000  0.000  0.000  0.000  0.153
 13  0.191  0.000  0.000  0.000  0.000  0.000  0.000  0.000  0.000  0.191
 14  0.107  0.000  0.000  0.000  0.000  0.000  0.000  0.000  0.000  0.107
 15  0.028  0.000  0.000  0.000  0.000  0.000  0.000  0.000  0.000  0.028
tot  0.739  0.000  0.000  0.000  0.000  0.000  0.000  0.000  0.000  0.741
ion      s     py     pz     px    dxy    dyz    dz2    dxz    dx2
  1  0.127 -0.007 -0.001  0.004 -0.000  0.000 -0.001 -0.000 -0.000
  1  0.165 -0.009 -0.001  0.006 -0.000  0.000 -0.001 -0.000 -0.001
  2  0.107 -0.003 -0.003  0.010  0.000 -0.000 -0.010  0.000  0.002
  2  0.139 -0.004 -0.004  0.014  0.000 -0.000 -0.013  0.001  0.002
  3  0.104 -0.004 -0.010  0.001  0.000 -0.000  0.007 -0.000  0.008
  3  0.135 -0.005 -0.013  0.001  0.000 -0.000  0.009 -0.000  0.010
  4  0.104  0.003 -0.008  0.003 -0.000  0.000  0.006  0.000 -0.008
  4  0.135  0.004 -0.011  0.004 -0.000  0.001  0.007  0.000 -0.010
  5  0.102  0.005  0.008 -0.004 -0.000 -0.000  0.006 -0.000 -0.009
  5  0.132  0.006  0.010 -0.005 -0.000 -0.000  0.008 -0.000 -0.011
  6  0.101  0.003  0.004 -0.002  0.000 -0.000  0.005 -0.000  0.008
  6  0.131  0.004  0.006 -0.002  0.000 -0.000  0.006 -0.000  0.010
  7  0.104  0.005  0.003 -0.007 -0.000 -0.000 -0.010  0.000  0.001
  7  0.135  0.006  0.005 -0.009 -0.000 -0.000 -0.012  0.000  0.001
  8  0.127  0.006  0.001 -0.004 -0.000  0.000 -0.001 -0.000 -0.000
  8  0.164  0.008  0.001 -0.006 -0.000  0.000 -0.001 -0.000 -0.001
  9  0.312 -0.005 -0.001  0.001  0.000  0.000  0.000  0.000  0.000
  9  0.405 -0.006 -0.001  0.001  0.000  0.000  0.000  0.000  0.000
 10  0.255  0.001  0.000 -0.001  0.000  0.000  0.000  0.000  0.000
 10  0.332  0.002  0.000 -0.001  0.000  0.000  0.000  0.000  0.000
 11  0.274 -0.001  0.002  0.000  0.000  0.000  0.000  0.000  0.000
 11  0.356 -0.001  0.003  0.000  0.000  0.000  0.000  0.000  0.000
 12  0.398 -0.001  0.004  0.000  0.000  0.000  0.000  0.000  0.000
 12  0.516 -0.001  0.006  0.000  0.000  0.000  0.000  0.000  0.000
 13  0.442  0.002  0.001 -0.002  0.000  0.000  0.000  0.000  0.000
 13  0.574  0.003  0.001 -0.002  0.000  0.000  0.000  0.000  0.000
 14  0.334 -0.005 -0.001  0.002  0.000  0.000  0.000  0.000  0.000
 14  0.434 -0.006 -0.001  0.002  0.000  0.000  0.000  0.000  0.000
 15  0.184  0.000 -0.001 -0.001  0.000  0.000  0.000  0.000  0.000
 15  0.239  0.001 -0.001 -0.002  0.000  0.000  0.000  0.000  0.000
 
band   2 # energy  -13.27181832 # occ.  1.00000000
 
ion      s     py     pz     px    dxy    dyz    dz2    dxz    dx2    tot
  1  0.000  0.001  0.000  0.001  0.000  0.000  0.000  0.000  0.000  0.003
  2  0.000  0.001  0.000  0.002  0.000  0.000  0.000  0.000  0.001  0.003
  3  0.001  0.000  0.001  0.000  0.000  0.000  0.000  0.000  0.000  0.002
  4  0.000  0.000  0.002  0.000  0.000  0.000  0.000  0.000  0.000  0.002
  5  0.000  0.000  0.002  0.000  0.000  0.000  0.000  0.000  0.000  0.002
  6  0.001  0.000  0.001  0.000  0.000  0.000  0.000  0.000  0.000  0.001
  7  0.000  0.001  0.000  0.002  0.000  0.000  0.000  0.000  0.000  0.003
  8  0.000  0.001  0.000  0.001  0.000  0.000  0.000  0.000  0.000  0.002
  9  0.004  0.000  0.000  0.000  0.000  0.000  0.000  0.000  0.000  0.004
 10  0.047  0.000  0.000  0.000  0.000  0.000  0.000  0.000  0.000  0.047
 11  0.004  0.000  0.000  0.000  0.000  0.000  0.000  0.000  0.000  0.004
 12  0.255  0.000  0.000  0.000  0.000  0.000  0.000  0.000  0.000  0.255
 13  0.462  0.000  0.000  0.000  0.000  0.000  0.000  0.000  0.000  0.462
 14  0.010  0.000  0.000  0.000  0.000  0.000  0.000  0.000  0.000  0.010
 15  0.001  0.000  0.000  0.000  0.000  0.000  0.000  0.000  0.000  0.001
tot  0.785  0.004  0.005  0.005  0.000  0.000  0.001  0.000  0.002  0.801
ion      s     py     pz     px    dxy    dyz    dz2    dxz    dx2
  1  0.008  0.029 -0.001  0.018 -0.000  0.000  0.003  0.000  0.015
  1  0.012  0.040 -0.002  0.025 -0.000  0.000  0.005  0.000  0.021
  2 -0.014 -0.018 -0.001 -0.034  0.001 -0.001  0.003 -0.001 -0.019
  2 -0.019 -0.025 -0.001 -0.047  0.001 -0.001  0.004 -0.001 -0.026
  3  0.050 -0.001 -0.023  0.001 -0.000  0.000  0.011  0.000  0.002
  3  0.070 -0.001 -0.033  0.002 -0.000  0.000  0.015  0.000  0.003
  4 -0.021  0.001  0.031  0.001  0.000 -0.001 -0.013 -0.001 -0.002
  4 -0.029  0.001  0.043  0.001  0.000 -0.002 -0.018 -0.001 -0.003
  5 -0.019  0.003 -0.030  0.000 -0.000  0.001 -0.012  0.001 -0.003
  5 -0.027  0.005 -0.042  0.000 -0.000  0.002 -0.017  0.002 -0.004
  6  0.039  0.000  0.019 -0.001  0.000 -0.000  0.007  0.000  0.002
  6  0.054  0.000  0.026 -0.002  0.000 -0.000  0.010  0.000  0.003
  7  0.000  0.019  0.001  0.030  0.000 -0.000  0.001 -0.001 -0.016
  7  0.000  0.026  0.001  0.042  0.000 -0.000  0.001 -0.001 -0.022
  8  0.010 -0.029  0.001 -0.018  0.000  0.000  0.003 -0.000  0.015
  8  0.014 -0.040  0.002 -0.025  0.000  0.000  0.005 -0.000  0.021
  9  0.058 -0.001 -0.000  0.000  0.000  0.000  0.000  0.000  0.000
  9  0.082 -0.001 -0.000  0.000  0.000  0.000  0.000  0.000  0.000
 10  0.201  0.001  0.000 -0.001  0.000  0.000  0.000  0.000  0.000
 10  0.281  0.001  0.000 -0.001  0.000  0.000  0.000  0.000  0.000
 11 -0.058  0.000 -0.001 -0.000  0.000  0.000  0.000  0.000  0.000
 11 -0.082  0.000 -0.001 -0.000  0.000  0.000  0.000  0.000  0.000
 12  0.459 -0.001  0.005  0.001  0.000  0.000  0.000  0.000  0.000
 12  0.642 -0.001  0.007  0.001  0.000  0.000  0.000  0.000  0.000
 13 -0.615 -0.003 -0.001  0.003  0.000  0.000  0.000  0.000  0.000
 13 -0.860 -0.004 -0.001  0.004  0.000  0.000  0.000  0.000  0.000
 14  0.093 -0.001 -0.000  0.000  0.000  0.000  0.000  0.000  0.000
 14  0.131 -0.002 -0.001  0.001  0.000  0.000  0.000  0.000  0.000
 15  0.022  0.000 -0.000 -0.000  0.000  0.000  0.000  0.000  0.000
 15  0.031  0.000 -0.000 -0.000  0.000  0.000  0.000  0.000  0.000
 
band   3 # energy  -13.16250829 # occ.  1.00000000
 
ion      s     py     pz     px    dxy    dyz    dz2    dxz    dx2    tot
  1  0.000  0.001  0.000  0.002  0.000  0.000  0.000  0.000  0.000  0.003
  2  0.000  0.002  0.000  0.001  0.000  0.000  0.000  0.000  0.000  0.002
  3  0.000  0.000  0.002  0.000  0.000  0.000  0.000  0.000  0.000  0.003
  4  0.000  0.000  0.001  0.000  0.000  0.000  0.000  0.000  0.000  0.001
  5  0.000  0.000  0.001  0.000  0.000  0.000  0.000  0.000  0.000  0.002
  6  0.000  0.000  0.002  0.000  0.000  0.000  0.000  0.000  0.000  0.002
  7  0.000  0.002  0.000  0.001  0.000  0.000  0.000  0.000  0.000  0.002
  8  0.000  0.001  0.000  0.002  0.000  0.000  0.000  0.000  0.000  0.003
  9  0.003  0.000  0.000  0.000  0.000  0.000  0.000  0.000  0.000  0.003
 10  0.058  0.000  0.000  0.000  0.000  0.000  0.000  0.000  0.000  0.058
 11  0.147  0.000  0.000  0.000  0.000  0.000  0.000  0.000  0.000  0.147
 12  0.295  0.000  0.000  0.000  0.000  0.000  0.000  0.000  0.000  0.295
 13  0.084  0.000  0.000  0.000  0.000  0.000  0.000  0.000  0.000  0.084
 14  0.189  0.000  0.000  0.000  0.000  0.000  0.000  0.000  0.000  0.189
 15  0.002  0.000  0.000  0.000  0.000  0.000  0.000  0.000  0.000  0.002
tot  0.780  0.005  0.006  0.005  0.000  0.000  0.001  0.000  0.000  0.797
ion      s     py     pz     px    dxy    dyz    dz2    dxz    dx2
  1  0.018  0.018 -0.013 -0.032  0.000  0.000  0.012 -0.000 -0.002
  1  0.023  0.023 -0.016 -0.040  0.000  0.000  0.015 -0.000 -0.002
  2 -0.013  0.032 -0.002 -0.019 -0.001  0.001  0.004 -0.000 -0.001
  2 -0.016  0.041 -0.002 -0.024 -0.001  0.001  0.005 -0.001 -0.001
  3  0.006 -0.001  0.037  0.013 -0.000 -0.000 -0.015  0.001  0.008
  3  0.007 -0.002  0.046  0.016 -0.000 -0.000 -0.019  0.001  0.010
  4  0.025 -0.010  0.019  0.001  0.000 -0.001 -0.007 -0.000 -0.007
  4  0.031 -0.012  0.024  0.002  0.000 -0.001 -0.009 -0.000 -0.008
  5  0.036  0.018 -0.019 -0.002 -0.001  0.000 -0.009  0.001 -0.010
  5  0.045  0.022 -0.024 -0.002 -0.001  0.000 -0.011  0.001 -0.013
  6  0.027  0.001 -0.033 -0.014  0.000  0.001 -0.009 -0.000  0.008
  6  0.034  0.001 -0.041 -0.018  0.000  0.001 -0.012 -0.000  0.010
  7 -0.010 -0.033  0.002  0.019 -0.000  0.000  0.004 -0.000  0.002
  7 -0.013 -0.041  0.002  0.023 -0.000  0.001  0.004 -0.000  0.002
  8  0.019 -0.018  0.013  0.032  0.000 -0.000  0.012  0.000 -0.002
  8  0.024 -0.023  0.017  0.040  0.000 -0.000  0.015  0.000 -0.003
  9  0.053 -0.001 -0.000 -0.000  0.000  0.000  0.000  0.000  0.000
  9  0.066 -0.001 -0.000 -0.000  0.000  0.000  0.000  0.000  0.000
 10  0.236  0.001  0.000 -0.001  0.000  0.000  0.000  0.000  0.000
 10  0.296  0.001  0.000 -0.001  0.000  0.000  0.000  0.000  0.000
 11  0.377 -0.001  0.004  0.000  0.000  0.000  0.000  0.000  0.000
 11  0.472 -0.001  0.005  0.000  0.000  0.000  0.000  0.000  0.000
 12 -0.526  0.001 -0.006 -0.000  0.000  0.000  0.000  0.000  0.000
 12 -0.659  0.001 -0.008 -0.000  0.000  0.000  0.000  0.000  0.000
 13 -0.279 -0.001 -0.000  0.001  0.000  0.000  0.000  0.000  0.000
 13 -0.350 -0.002 -0.000  0.002  0.000  0.000  0.000  0.000  0.000
 14  0.424 -0.007 -0.001  0.002  0.000  0.000  0.000  0.000  0.000
 14  0.531 -0.008 -0.001  0.003  0.000  0.000  0.000  0.000  0.000
 15  0.051 -0.000  0.000 -0.000  0.000  0.000  0.000  0.000  0.000
 15  0.064 -0.000  0.000 -0.000  0.000  0.000  0.000  0.000  0.000
 
band   4 # energy  -13.11544513 # occ.  1.00000000
 
ion      s     py     pz     px    dxy    dyz    dz2    dxz    dx2    tot
  1  0.000  0.000  0.003  0.000  0.000  0.000  0.000  0.000  0.000  0.003
  2  0.000  0.000  0.000  0.000  0.000  0.000  0.000  0.000  0.000  0.000
  3  0.000  0.000  0.000  0.003  0.000  0.000  0.000  0.000  0.000  0.003
  4  0.000  0.003  0.000  0.000  0.000  0.000  0.000  0.000  0.000  0.003
  5  0.000  0.003  0.000  0.000  0.000  0.000  0.000  0.000  0.000  0.003
  6  0.000  0.000  0.000  0.003  0.000  0.000  0.000  0.000  0.000  0.003
  7  0.000  0.000  0.000  0.000  0.000  0.000  0.000  0.000  0.000  0.000
  8  0.000  0.000  0.003  0.000  0.000  0.000  0.000  0.000  0.000  0.003
  9  0.403  0.000  0.000  0.000  0.000  0.000  0.000  0.000  0.000  0.403
 10  0.015  0.000  0.000  0.000  0.000  0.000  0.000  0.000  0.000  0.015
 11  0.029  0.000  0.000  0.000  0.000  0.000  0.000  0.000  0.000  0.029
 12  0.020  0.000  0.000  0.000  0.000  0.000  0.000  0.000  0.000  0.020
 13  0.011  0.000  0.000  0.000  0.000  0.000  0.000  0.000  0.000  0.011
 14  0.298  0.000  0.000  0.000  0.000  0.000  0.000  0.000  0.000  0.298
 15  0.001  0.000  0.000  0.000  0.000  0.000  0.000  0.000  0.000  0.001
tot  0.777  0.006  0.006  0.006  0.000  0.000  0.000  0.000  0.000  0.795
ion      s     py     pz     px    dxy    dyz    dz2    dxz    dx2
  1 -0.008 -0.007 -0.035  0.009 -0.000  0.000 -0.001 -0.000 -0.000
  1 -0.013 -0.010 -0.055  0.015 -0.000  0.001 -0.002 -0.000 -0.000
  2 -0.003 -0.009  0.001  0.007  0.000 -0.000 -0.000  0.000  0.001
  2 -0.005 -0.015  0.001  0.011  0.000 -0.001 -0.001  0.000  0.002
  3 -0.004  0.001 -0.010  0.035 -0.000  0.000  0.002  0.002 -0.001
  3 -0.006  0.001 -0.015  0.056 -0.000  0.000  0.004  0.003 -0.002
  4 -0.022 -0.037 -0.007 -0.001  0.001 -0.000  0.004  0.000  0.005
  4 -0.035 -0.059 -0.011 -0.001  0.001 -0.000  0.006  0.000  0.008
  5  0.009  0.036  0.007  0.000 -0.001 -0.001 -0.002 -0.000 -0.003
  5  0.014  0.057  0.011  0.000 -0.002 -0.001 -0.003 -0.000 -0.005
  6 -0.006 -0.001  0.009 -0.036  0.001 -0.000  0.000  0.000 -0.000
  6 -0.009 -0.001  0.015 -0.057  0.002 -0.000  0.000  0.000 -0.000
  7 -0.005  0.009 -0.001 -0.007 -0.000 -0.000 -0.000  0.000  0.000
  7 -0.007  0.015 -0.001 -0.011 -0.000 -0.000 -0.000  0.000  0.000
  8 -0.008  0.007  0.035 -0.009 -0.000 -0.000 -0.001 -0.000 -0.000
  8 -0.012  0.011  0.055 -0.015 -0.000 -0.000 -0.002 -0.000 -0.000
  9 -0.530  0.008  0.002 -0.001  0.000  0.000  0.000  0.000  0.000
  9 -0.838  0.013  0.003 -0.002  0.000  0.000  0.000  0.000  0.000
 10 -0.104 -0.000  0.000  0.000  0.000  0.000  0.000  0.000  0.000
 10 -0.164 -0.001  0.000  0.001  0.000  0.000  0.000  0.000  0.000
 11 -0.144  0.000 -0.001 -0.000  0.000  0.000  0.000  0.000  0.000
 11 -0.227  0.000 -0.002 -0.001  0.000  0.000  0.000  0.000  0.000
 12  0.117 -0.000  0.001  0.000  0.000  0.000  0.000  0.000  0.000
 12  0.184 -0.000  0.002  0.000  0.000  0.000  0.000  0.000  0.000
 13  0.084  0.000 -0.000 -0.000  0.000  0.000  0.000  0.000  0.000
 13  0.133  0.000 -0.000 -0.001  0.000  0.000  0.000  0.000  0.000
 14  0.454 -0.007 -0.001  0.002  0.000  0.000  0.000  0.000  0.000
 14  0.718 -0.011 -0.002  0.004  0.000  0.000  0.000  0.000  0.000
 15 -0.023 -0.000  0.000  0.000  0.000  0.000  0.000  0.000  0.000
 15 -0.036 -0.000  0.000  0.001  0.000  0.000  0.000  0.000  0.000
 
band   5 # energy  -12.83495411 # occ.  1.00000000
 
ion      s     py     pz     px    dxy    dyz    dz2    dxz    dx2    tot
  1  0.000  0.000  0.000  0.000  0.000  0.000  0.001  0.000  0.000  0.002
  2  0.001  0.000  0.000  0.000  0.000  0.000  0.000  0.000  0.000  0.002
  3  0.000  0.000  0.000  0.000  0.000  0.000  0.001  0.000  0.000  0.001
  4  0.001  0.000  0.000  0.000  0.000  0.000  0.000  0.000  0.000  0.002
  5  0.001  0.000  0.000  0.000  0.000  0.000  0.000  0.000  0.000  0.001
  6  0.000  0.000  0.000  0.000  0.000  0.000  0.001  0.000  0.000  0.002
  7  0.001  0.000  0.000  0.000  0.000  0.000  0.000  0.000  0.000  0.002
  8  0.000  0.000  0.000  0.000  0.000  0.000  0.001  0.000  0.000  0.002
  9  0.247  0.000  0.000  0.000  0.000  0.000  0.000  0.000  0.000  0.247
 10  0.046  0.000  0.000  0.000  0.000  0.000  0.000  0.000  0.000  0.046
 11  0.331  0.000  0.000  0.000  0.000  0.000  0.000  0.000  0.000  0.331
 12  0.022  0.000  0.000  0.000  0.000  0.000  0.000  0.000  0.000  0.022
 13  0.000  0.000  0.000  0.000  0.000  0.000  0.000  0.000  0.000  0.000
 14  0.150  0.000  0.000  0.000  0.000  0.000  0.000  0.000  0.000  0.150
 15  0.000  0.000  0.000  0.000  0.000  0.000  0.000  0.000  0.000  0.000
tot  0.800  0.001  0.001  0.001  0.000  0.000  0.005  0.000  0.002  0.809
ion      s     py     pz     px    dxy    dyz    dz2    dxz    dx2
  1 -0.005 -0.007  0.004  0.015 -0.000  0.000  0.028  0.000 -0.009
  1 -0.006 -0.009  0.005  0.019 -0.000  0.000  0.036  0.000 -0.011
  2 -0.062 -0.016 -0.000  0.006  0.001 -0.000  0.009  0.000  0.010
  2 -0.079 -0.021 -0.000  0.008  0.001 -0.001  0.012  0.000  0.013
  3  0.015  0.000 -0.006 -0.004  0.000 -0.000 -0.022 -0.000  0.016
  3  0.019  0.000 -0.008 -0.005  0.000 -0.000 -0.028 -0.000  0.021
  4  0.044  0.011 -0.006 -0.001 -0.000  0.000 -0.014  0.000 -0.017
  4  0.056  0.014 -0.007 -0.001 -0.000  0.001 -0.018  0.000 -0.022
  5  0.041  0.003  0.006 -0.001 -0.000 -0.000 -0.014 -0.000 -0.016
  5  0.052  0.004  0.007 -0.001 -0.000 -0.000 -0.018 -0.000 -0.021
  6  0.009 -0.001  0.015  0.002 -0.000 -0.000 -0.025  0.000  0.017
  6  0.011 -0.001  0.019  0.003 -0.000 -0.000 -0.031  0.000  0.021
  7 -0.063  0.015 -0.000 -0.007  0.000 -0.000  0.010  0.000  0.009
  7 -0.080  0.019 -0.000 -0.009  0.000 -0.000  0.012  0.000  0.011
  8 -0.005  0.007 -0.004 -0.015 -0.000  0.000  0.028 -0.000 -0.009
  8 -0.006  0.008 -0.005 -0.019 -0.000  0.000  0.036 -0.000 -0.011
  9  0.470 -0.008 -0.001  0.002  0.000  0.000  0.000  0.000  0.000
  9  0.598 -0.010 -0.002  0.002  0.000  0.000  0.000  0.000  0.000
 10 -0.203 -0.001 -0.000  0.001  0.000  0.000  0.000  0.000  0.000
 10 -0.259 -0.001 -0.000  0.001  0.000  0.000  0.000  0.000  0.000
 11 -0.547  0.001 -0.005 -0.001  0.000  0.000  0.000  0.000  0.000
 11 -0.695  0.001 -0.007 -0.001  0.000  0.000  0.000  0.000  0.000
 12 -0.138  0.000 -0.002 -0.000  0.000  0.000  0.000  0.000  0.000
 12 -0.176  0.000 -0.002 -0.000  0.000  0.000  0.000  0.000  0.000
 13 -0.018  0.000  0.000  0.000  0.000  0.000  0.000  0.000  0.000
 13 -0.023  0.000  0.000  0.000  0.000  0.000  0.000  0.000  0.000
 14  0.366 -0.006 -0.001  0.002  0.000  0.000  0.000  0.000  0.000
 14  0.465 -0.007 -0.001  0.002  0.000  0.000  0.000  0.000  0.000
 15 -0.019  0.000  0.000  0.000  0.000  0.000  0.000  0.000  0.000
 15 -0.024  0.000  0.000  0.000  0.000  0.000  0.000  0.000  0.000
 
band   6 # energy  -12.76030666 # occ.  1.00000000
 
ion      s     py     pz     px    dxy    dyz    dz2    dxz    dx2    tot
  1  0.000  0.001  0.000  0.000  0.000  0.000  0.000  0.000  0.001  0.002
  2  0.000  0.000  0.000  0.000  0.000  0.000  0.000  0.000  0.001  0.001
  3  0.001  0.000  0.000  0.000  0.000  0.000  0.000  0.000  0.000  0.001
  4  0.001  0.000  0.001  0.000  0.000  0.000  0.001  0.000  0.000  0.002
  5  0.001  0.000  0.001  0.000  0.000  0.000  0.001  0.000  0.000  0.002
  6  0.001  0.000  0.000  0.000  0.000  0.000  0.000  0.000  0.000  0.001
  7  0.000  0.000  0.000  0.001  0.000  0.000  0.000  0.000  0.001  0.002
  8  0.000  0.001  0.000  0.000  0.000  0.000  0.000  0.000  0.001  0.002
  9  0.018  0.000  0.000  0.000  0.000  0.000  0.000  0.000  0.000  0.018
 10  0.536  0.000  0.000  0.000  0.000  0.000  0.000  0.000  0.000  0.536
 11  0.182  0.000  0.000  0.000  0.000  0.000  0.000  0.000  0.000  0.183
 12  0.023  0.000  0.000  0.000  0.000  0.000  0.000  0.000  0.000  0.023
 13  0.021  0.000  0.000  0.000  0.000  0.000  0.000  0.000  0.000  0.021
 14  0.012  0.000  0.000  0.000  0.000  0.000  0.000  0.000  0.000  0.012
 15  0.000  0.000  0.000  0.000  0.000  0.000  0.000  0.000  0.000  0.000
tot  0.797  0.002  0.001  0.001  0.000  0.000  0.002  0.000  0.004  0.806
ion      s     py     pz     px    dxy    dyz    dz2    dxz    dx2
  1  0.003  0.017 -0.001  0.008 -0.000  0.000 -0.007  0.000 -0.022
  1  0.004  0.028 -0.001  0.013 -0.000  0.000 -0.011  0.000 -0.036
  2  0.010 -0.009 -0.000 -0.011  0.000 -0.000 -0.001 -0.000  0.021
  2  0.018 -0.015 -0.001 -0.019  0.001 -0.000 -0.002 -0.001  0.035
  3 -0.039 -0.000 -0.004  0.001 -0.000 -0.000 -0.007  0.000 -0.004
  3 -0.066 -0.000 -0.006  0.001 -0.000 -0.000 -0.012  0.000 -0.006
  4  0.032 -0.003  0.015  0.000  0.000 -0.001  0.017 -0.000  0.004
  4  0.053 -0.005  0.025  0.000  0.000 -0.001  0.028 -0.001  0.007
  5  0.032 -0.002 -0.015 -0.001  0.000  0.001  0.017  0.001  0.004
  5  0.054 -0.003 -0.025 -0.002  0.000  0.001  0.028  0.001  0.007
  6 -0.043  0.001  0.008 -0.001  0.000 -0.000 -0.008  0.000 -0.004
  6 -0.072  0.001  0.013 -0.001  0.000 -0.000 -0.014  0.000 -0.007
  7  0.017  0.008  0.000  0.017  0.000 -0.000 -0.002 -0.000  0.022
  7  0.028  0.013  0.000  0.028  0.000 -0.000 -0.004 -0.001  0.037
  8  0.004 -0.017  0.001 -0.008  0.000  0.000 -0.007  0.000 -0.022
  8  0.006 -0.028  0.001 -0.013  0.000  0.000 -0.011  0.000 -0.036
  9 -0.104  0.002  0.001 -0.000  0.000  0.000  0.000  0.000  0.000
  9 -0.174  0.003  0.001 -0.000  0.000  0.000  0.000  0.000  0.000
 10  0.576  0.002  0.000 -0.003  0.000  0.000  0.000  0.000  0.000
 10  0.962  0.004  0.000 -0.004  0.000  0.000  0.000  0.000  0.000
 11 -0.335  0.001 -0.003 -0.000  0.000  0.000  0.000  0.000  0.000
 11 -0.561  0.001 -0.006 -0.001  0.000  0.000  0.000  0.000  0.000
 12 -0.118  0.000 -0.001  0.000  0.000  0.000  0.000  0.000  0.000
 12 -0.198  0.000 -0.002  0.000  0.000  0.000  0.000  0.000  0.000
 13  0.113  0.001  0.000 -0.001  0.000  0.000  0.000  0.000  0.000
 13  0.189  0.001  0.000 -0.001  0.000  0.000  0.000  0.000  0.000
 14 -0.085  0.001  0.000 -0.001  0.000  0.000  0.000  0.000  0.000
 14 -0.143  0.002  0.000 -0.001  0.000  0.000  0.000  0.000  0.000
 15  0.014  0.000  0.000 -0.000  0.000  0.000  0.000  0.000  0.000
 15  0.023  0.000  0.000 -0.000  0.000  0.000  0.000  0.000  0.000
 
band   7 # energy  -12.04810129 # occ.  1.00000000
 
ion      s     py     pz     px    dxy    dyz    dz2    dxz    dx2    tot
  1  0.000  0.000  0.000  0.000  0.000  0.000  0.000  0.000  0.000  0.000
  2  0.000  0.000  0.002  0.000  0.000  0.000  0.001  0.000  0.000  0.003
  3  0.000  0.001  0.000  0.000  0.000  0.000  0.000  0.000  0.000  0.002
  4  0.000  0.000  0.000  0.001  0.000  0.000  0.000  0.000  0.001  0.003
  5  0.000  0.000  0.000  0.001  0.000  0.000  0.000  0.000  0.000  0.001
  6  0.000  0.001  0.000  0.000  0.000  0.000  0.000  0.000  0.000  0.003
  7  0.000  0.000  0.002  0.000  0.000  0.000  0.001  0.000  0.000  0.003
  8  0.000  0.000  0.000  0.000  0.000  0.000  0.000  0.000  0.000  0.000
  9  0.007  0.000  0.000  0.000  0.000  0.000  0.000  0.000  0.000  0.007
 10  0.011  0.000  0.000  0.000  0.000  0.000  0.000  0.000  0.000  0.011
 11  0.010  0.000  0.000  0.000  0.000  0.000  0.000  0.000  0.000  0.010
 12  0.005  0.000  0.000  0.000  0.000  0.000  0.000  0.000  0.000  0.005
 13  0.005  0.000  0.000  0.000  0.000  0.000  0.000  0.000  0.000  0.005
 14  0.006  0.000  0.000  0.000  0.000  0.000  0.000  0.000  0.000  0.006
 15  0.741  0.000  0.000  0.000  0.000  0.000  0.000  0.000  0.000  0.741
tot  0.788  0.003  0.003  0.002  0.000  0.000  0.002  0.000  0.002  0.800
ion      s     py     pz     px    dxy    dyz    dz2    dxz    dx2
  1  0.016  0.001  0.000 -0.000  0.000  0.000 -0.000 -0.000 -0.000
  1  0.047  0.002  0.000 -0.001  0.000  0.000 -0.000 -0.000 -0.000
  2 -0.018  0.001  0.016  0.001 -0.000 -0.000 -0.011 -0.001 -0.000
  2 -0.054  0.002  0.048  0.002 -0.000 -0.001 -0.034 -0.002 -0.000
  3 -0.015  0.014 -0.001 -0.000 -0.000  0.001  0.005 -0.000  0.009
  3 -0.046  0.043 -0.003 -0.000 -0.000  0.002  0.016 -0.000  0.027
  4 -0.017  0.001  0.000 -0.016  0.001  0.000  0.006 -0.000 -0.010
  4 -0.052  0.004  0.001 -0.047  0.002  0.000  0.017 -0.001 -0.029
  5 -0.010  0.001 -0.000  0.011 -0.000  0.000  0.004 -0.000 -0.007
  5 -0.029  0.003 -0.001  0.034 -0.001  0.000  0.013 -0.000 -0.022
  6 -0.017 -0.016 -0.000 -0.000 -0.000  0.000  0.006 -0.000  0.010
  6 -0.051 -0.046 -0.001 -0.000 -0.000  0.000  0.017 -0.000  0.029
  7 -0.018 -0.000 -0.016  0.001 -0.000 -0.000 -0.011  0.000  0.000
  7 -0.053 -0.001 -0.047  0.002 -0.000 -0.000 -0.034  0.000  0.000
  8  0.016 -0.001 -0.000  0.000 -0.000 -0.000 -0.000  0.000 -0.000
  8  0.047 -0.002 -0.000  0.001 -0.000 -0.000 -0.000  0.000 -0.000
  9  0.039 -0.001 -0.000 -0.000  0.000  0.000  0.000  0.000  0.000
  9  0.116 -0.002 -0.000 -0.000  0.000  0.000  0.000  0.000  0.000
 10  0.049  0.000  0.000 -0.000  0.000  0.000  0.000  0.000  0.000
 10  0.145  0.001  0.000 -0.001  0.000  0.000  0.000  0.000  0.000
 11  0.045 -0.000  0.001  0.000  0.000  0.000  0.000  0.000  0.000
 11  0.134 -0.001  0.002  0.000  0.000  0.000  0.000  0.000  0.000
 12  0.032  0.000  0.000  0.000  0.000  0.000  0.000  0.000  0.000
 12  0.096  0.000  0.001  0.000  0.000  0.000  0.000  0.000  0.000
 13  0.030  0.000 -0.000 -0.000  0.000  0.000  0.000  0.000  0.000
 13  0.090  0.001 -0.000 -0.001  0.000  0.000  0.000  0.000  0.000
 14  0.036 -0.001 -0.000  0.000  0.000  0.000  0.000  0.000  0.000
 14  0.109 -0.002 -0.000  0.001  0.000  0.000  0.000  0.000  0.000
 15 -0.424 -0.000  0.001  0.004  0.000  0.000  0.000  0.000  0.000
 15 -1.267 -0.001  0.003  0.011  0.000  0.000  0.000  0.000  0.000
 
band   8 # energy   -1.50940013 # occ.  1.00000000
 
ion      s     py     pz     px    dxy    dyz    dz2    dxz    dx2    tot
  1  0.045  0.001  0.000  0.000  0.000  0.000  0.000  0.000  0.000  0.046
  2  0.001  0.001  0.000  0.000  0.002  0.000  0.000  0.000  0.000  0.003
  3  0.000  0.000  0.000  0.001  0.000  0.000  0.000  0.002  0.000  0.003
  4  0.000  0.000  0.000  0.000  0.000  0.002  0.000  0.000  0.000  0.002
  5  0.000  0.000  0.000  0.000  0.000  0.002  0.000  0.000  0.000  0.003
  6  0.000  0.000  0.000  0.000  0.000  0.000  0.000  0.002  0.000  0.002
  7  0.001  0.000  0.000  0.000  0.002  0.000  0.000  0.000  0.000  0.003
  8  0.045  0.000  0.000  0.000  0.000  0.000  0.000  0.000  0.000  0.046
  9  0.000  0.000  0.059  0.000  0.000  0.000  0.000  0.000  0.000  0.059
 10  0.000  0.042  0.000  0.000  0.000  0.000  0.000  0.000  0.000  0.042
 11  0.000  0.000  0.000  0.047  0.000  0.000  0.000  0.000  0.000  0.047
 12  0.000  0.006  0.002  0.093  0.000  0.000  0.000  0.000  0.000  0.101
 13  0.000  0.103  0.002  0.005  0.000  0.000  0.000  0.000  0.000  0.109
 14  0.000  0.004  0.075  0.003  0.000  0.000  0.000  0.000  0.000  0.083
 15  0.000  0.000  0.000  0.000  0.000  0.000  0.000  0.000  0.000  0.000
tot  0.093  0.158  0.138  0.150  0.003  0.003  0.000  0.003  0.000  0.550
ion      s     py     pz     px    dxy    dyz    dz2    dxz    dx2
  1  0.293 -0.016 -0.004  0.012 -0.004  0.003 -0.000 -0.003 -0.000
  1  0.443 -0.024 -0.006  0.017 -0.006  0.004 -0.001 -0.004 -0.000
  2 -0.037  0.018 -0.003 -0.008  0.030  0.003  0.002 -0.002 -0.000
  2 -0.055  0.027 -0.004 -0.012  0.046  0.004  0.004 -0.004 -0.000
  3 -0.026 -0.008  0.004 -0.017 -0.002  0.004 -0.002  0.030 -0.002
  3 -0.039 -0.012  0.007 -0.026 -0.003  0.006 -0.002  0.046 -0.003
  4 -0.019  0.014 -0.001  0.006 -0.002 -0.030 -0.001 -0.003  0.002
  4 -0.029  0.021 -0.002  0.009 -0.003 -0.046 -0.001 -0.005  0.002
  5  0.030  0.015  0.011  0.006  0.002  0.030  0.002  0.003 -0.002
  5  0.045  0.022  0.017  0.009  0.003  0.046  0.002  0.005 -0.004
  6  0.025 -0.008  0.005 -0.010  0.002 -0.003  0.001 -0.030  0.002
  6  0.037 -0.012  0.008 -0.015  0.004 -0.005  0.002 -0.045  0.003
  7  0.036  0.013 -0.002 -0.010 -0.030 -0.002 -0.002  0.002  0.000
  7  0.055  0.019 -0.004 -0.015 -0.046 -0.004 -0.003  0.004  0.000
  8 -0.292 -0.014 -0.005  0.012  0.004 -0.003  0.000  0.003  0.000
  8 -0.443 -0.022 -0.008  0.017  0.006 -0.004  0.001  0.004  0.000
  9 -0.000 -0.015 -0.235  0.006  0.000  0.000  0.000  0.000  0.000
  9 -0.001 -0.022 -0.356  0.010  0.000  0.000  0.000  0.000  0.000
 10  0.000 -0.200  0.009 -0.004  0.000  0.000  0.000  0.000  0.000
 10  0.001 -0.303  0.013 -0.006  0.000  0.000  0.000  0.000  0.000
 11 -0.000 -0.005  0.011  0.212  0.000  0.000  0.000  0.000  0.000
 11 -0.000 -0.008  0.016  0.320  0.000  0.000  0.000  0.000  0.000
 12  0.000 -0.075 -0.040 -0.293  0.000  0.000  0.000  0.000  0.000
 12  0.000 -0.114 -0.060 -0.444  0.000  0.000  0.000  0.000  0.000
 13 -0.001  0.308 -0.039  0.067  0.000  0.000  0.000  0.000  0.000
 13 -0.001  0.466 -0.059  0.102  0.000  0.000  0.000  0.000  0.000
 14 -0.000 -0.061  0.265  0.056  0.000  0.000  0.000  0.000  0.000
 14 -0.000 -0.092  0.401  0.085  0.000  0.000  0.000  0.000  0.000
 15 -0.000  0.008 -0.017 -0.004  0.000  0.000  0.000  0.000  0.000
 15 -0.000  0.012 -0.025 -0.005  0.000  0.000  0.000  0.000  0.000
 
band   9 # energy   -1.31617395 # occ.  1.00000000
 
ion      s     py     pz     px    dxy    dyz    dz2    dxz    dx2    tot
  1  0.002  0.000  0.001  0.001  0.001  0.001  0.000  0.000  0.000  0.005
  2  0.024  0.000  0.000  0.001  0.000  0.000  0.000  0.000  0.000  0.026
  3  0.007  0.000  0.001  0.000  0.000  0.001  0.000  0.000  0.000  0.010
  4  0.012  0.000  0.001  0.000  0.000  0.000  0.000  0.001  0.000  0.015
  5  0.014  0.000  0.001  0.000  0.000  0.000  0.000  0.001  0.000  0.016
  6  0.006  0.000  0.001  0.000  0.000  0.001  0.000  0.000  0.000  0.009
  7  0.024  0.000  0.000  0.001  0.000  0.000  0.000  0.000  0.000  0.026
  8  0.002  0.000  0.001  0.001  0.001  0.001  0.000  0.000  0.000  0.005
  9  0.000  0.015  0.015  0.003  0.000  0.000  0.000  0.000  0.000  0.033
 10  0.000  0.007  0.006  0.019  0.000  0.000  0.000  0.000  0.000  0.032
 11  0.000  0.029  0.001  0.012  0.000  0.000  0.000  0.000  0.000  0.043
 12  0.000  0.065  0.035  0.000  0.000  0.000  0.000  0.000  0.000  0.100
 13  0.000  0.001  0.060  0.090  0.000  0.000  0.000  0.000  0.000  0.151
 14  0.000  0.033  0.000  0.027  0.000  0.000  0.000  0.000  0.000  0.060
 15  0.000  0.003  0.011  0.005  0.000  0.000  0.000  0.000  0.000  0.019
tot  0.091  0.154  0.136  0.159  0.003  0.003  0.001  0.003  0.000  0.551
ion      s     py     pz     px    dxy    dyz    dz2    dxz    dx2
  1  0.024  0.003  0.007 -0.006  0.009 -0.006  0.000  0.004 -0.000
  1  0.115  0.013  0.035 -0.029  0.042 -0.031  0.000  0.021 -0.000
  2  0.080 -0.003  0.005  0.008  0.002 -0.004 -0.005  0.006  0.001
  2  0.378 -0.014  0.023  0.037  0.012 -0.018 -0.024  0.028  0.003
  3  0.043  0.003 -0.008  0.005  0.005 -0.008  0.002  0.002  0.002
  3  0.202  0.014 -0.039  0.025  0.024 -0.036  0.009  0.012  0.011
  4  0.057 -0.002 -0.009 -0.003  0.004 -0.002  0.002  0.008 -0.003
  4  0.267 -0.011 -0.041 -0.015  0.017 -0.012  0.011  0.036 -0.015
  5 -0.060 -0.004 -0.010 -0.004 -0.004  0.003 -0.003 -0.007  0.004
  5 -0.283 -0.020 -0.045 -0.017 -0.018  0.012 -0.012 -0.034  0.018
  6 -0.041  0.002 -0.007  0.006 -0.005  0.007 -0.001 -0.002 -0.002
  6 -0.193  0.010 -0.034  0.027 -0.026  0.035 -0.007 -0.012 -0.010
  7 -0.079 -0.004  0.004  0.007 -0.002  0.004  0.005 -0.006 -0.000
  7 -0.374 -0.018  0.019  0.035 -0.011  0.018  0.023 -0.027 -0.001
  8 -0.024  0.003  0.007 -0.006 -0.009  0.006  0.000 -0.005  0.000
  8 -0.114  0.014  0.035 -0.028 -0.042  0.030  0.000 -0.021  0.000
  9 -0.000 -0.044 -0.044  0.019  0.000  0.000  0.000  0.000  0.000
  9 -0.001 -0.206 -0.210  0.090  0.000  0.000  0.000  0.000  0.000
 10  0.000 -0.030 -0.028  0.051  0.000  0.000  0.000  0.000  0.000