<?xml version="1.0" encoding="ISO-8859-1"?>
<modeling>
 <generator>
  <i name="program" type="string">vasp </i>
  <i name="version" type="string">5.4.1  </i>
  <i name="subversion" type="string">05Feb16 (build Mar 31 2016 13:39:20) complex                          parallel </i>
  <i name="platform" type="string">IFC91_ompi </i>
  <i name="date" type="string">2019 06 24 </i>
  <i name="time" type="string">11:59:55 </i>
 </generator>
 <incar>
  <i type="string" name="PREC">n</i>
  <i type="string" name="ALGO"> N</i>
  <i type="int" name="ISPIN">     2</i>
  <i type="int" name="NELM">   100</i>
  <i type="int" name="NELMIN">     4</i>
  <i type="int" name="IBRION">     2</i>
  <i name="EDIFF">      0.00000100</i>
  <i name="EDIFFG">     -0.05000000</i>
  <i type="int" name="NSW">     1</i>
  <i type="int" name="ISIF">     2</i>
  <i name="ENCUT">    400.00000000</i>
  <i name="NELECT">     56.00000000</i>
  <i type="string" name="LREAL"> A</i>
  <i type="int" name="ISMEAR">     0</i>
  <i name="SIGMA">      0.05000000</i>
  <i type="logical" name="LWAVE"> F  </i>
  <i type="logical" name="LCHARG"> F  </i>
  <i type="logical" name="LORBIT"> F  </i>
  <i type="logical" name="LASPH"> T  </i>
  <v type="int" name="KPOINT_BSE">    -1     0     0     0</v>
  <i type="int" name="NELM">   100</i>
  <i type="logical" name="LASPH"> T  </i>
 </incar>
 <kpoints>
  <generation param="Gamma">
   <v type="int" name="divisions">       2        2        2 </v>
   <v name="usershift">      0.00000000       0.00000000       0.00000000 </v>
   <v name="genvec1">      0.50000000       0.00000000       0.00000000 </v>
   <v name="genvec2">      0.00000000       0.50000000       0.00000000 </v>
   <v name="genvec3">      0.00000000       0.00000000       0.50000000 </v>
   <v name="shift">      0.00000000       0.00000000       0.00000000 </v>
  </generation>
  <varray name="kpointlist" >
   <v>       0.00000000       0.00000000       0.00000000 </v>
   <v>       0.50000000       0.00000000       0.00000000 </v>
   <v>       0.00000000       0.50000000       0.00000000 </v>
   <v>       0.50000000       0.50000000       0.00000000 </v>
   <v>       0.00000000       0.00000000       0.50000000 </v>
   <v>       0.50000000       0.00000000       0.50000000 </v>
   <v>       0.00000000       0.50000000       0.50000000 </v>
   <v>       0.50000000       0.50000000       0.50000000 </v>
  </varray>
  <varray name="weights" >
   <v>       0.12500000 </v>
   <v>       0.12500000 </v>
   <v>       0.12500000 </v>
   <v>       0.12500000 </v>
   <v>       0.12500000 </v>
   <v>       0.12500000 </v>
   <v>       0.12500000 </v>
   <v>       0.12500000 </v>
  </varray>
 </kpoints>
 <parameters>
  <separator name="general" >
   <i type="string" name="SYSTEM">unknown system</i>
   <i type="logical" name="LCOMPAT"> F  </i>
  </separator>
  <separator name="electronic" >
   <i type="string" name="PREC">n</i>
   <i name="ENMAX">    400.00000000</i>
   <i name="ENAUG">    605.39200000</i>
   <i name="EDIFF">      0.00000100</i>
   <i type="int" name="IALGO">    38</i>
   <i type="int" name="IWAVPR">    11</i>
   <i type="int" name="NBANDS">    44</i>
   <i name="NELECT">     56.00000000</i>
   <i type="int" name="TURBO">     0</i>
   <i type="int" name="IRESTART">     0</i>
   <i type="int" name="NREBOOT">     0</i>
   <i type="int" name="NMIN">     0</i>
   <i name="EREF">      0.00000000</i>
   <separator name="electronic smearing" >
    <i type="int" name="ISMEAR">     0</i>
    <i name="SIGMA">      0.05000000</i>
    <i name="KSPACING">      0.50000000</i>
    <i type="logical" name="KGAMMA"> T  </i>
   </separator>
   <separator name="electronic projectors" >
    <i type="logical" name="LREAL"> T  </i>
    <v name="ROPT">     -0.00050000     -0.00050000</v>
    <i type="int" name="LMAXPAW">  -100</i>
    <i type="int" name="LMAXMIX">     2</i>
    <i type="logical" name="NLSPLINE"> F  </i>
   </separator>
   <separator name="electronic startup" >
    <i type="int" name="ISTART">     0</i>
    <i type="int" name="ICHARG">     2</i>
    <i type="int" name="INIWAV">     1</i>
   </separator>
   <separator name="electronic spin" >
    <i type="int" name="ISPIN">     2</i>
    <i type="logical" name="LNONCOLLINEAR"> F  </i>
    <v name="MAGMOM">      1.00000000      1.00000000      1.00000000      1.00000000      1.00000000      1.00000000      1.00000000      1.00000000      1.00000000      1.00000000      1.00000000      1.00000000      1.00000000      1.00000000      1.00000000</v>
    <i name="NUPDOWN">     -1.00000000</i>
    <i type="logical" name="LSORBIT"> F  </i>
    <v name="SAXIS">      0.00000000      0.00000000      1.00000000</v>
    <i type="logical" name="LSPIRAL"> F  </i>
    <v name="QSPIRAL">      0.00000000      0.00000000      0.00000000</v>
    <i type="logical" name="LZEROZ"> F  </i>
   </separator>
   <separator name="electronic exchange-correlation" >
    <i type="logical" name="LASPH"> T  </i>
    <i type="logical" name="LMETAGGA"> F  </i>
   </separator>
   <separator name="electronic convergence" >
    <i type="int" name="NELM">   100</i>
    <i type="int" name="NELMDL">    -5</i>
    <i type="int" name="NELMIN">     4</i>
    <i name="ENINI">    400.00000000</i>
    <separator name="electronic convergence detail" >
     <i type="logical" name="LDIAG"> T  </i>
     <i type="logical" name="LSUBROT"> F  </i>
     <i name="WEIMIN">      0.00100000</i>
     <i name="EBREAK">      0.00000001</i>
     <i name="DEPER">      0.30000000</i>
     <i type="int" name="NRMM">     4</i>
     <i name="TIME">      0.40000000</i>
    </separator>
   </separator>
   <separator name="electronic mixer" >
    <i name="AMIX">      0.40000000</i>
    <i name="BMIX">      1.00000000</i>
    <i name="AMIN">      0.10000000</i>
    <i name="AMIX_MAG">      1.60000000</i>
    <i name="BMIX_MAG">      1.00000000</i>
    <separator name="electronic mixer details" >
     <i type="int" name="IMIX">     4</i>
     <i type="logical" name="MIXFIRST"> F  </i>
     <i type="int" name="MAXMIX">   -45</i>
     <i name="WC">    100.00000000</i>
     <i type="int" name="INIMIX">     1</i>
     <i type="int" name="MIXPRE">     1</i>
     <i type="int" name="MREMOVE">     5</i>
    </separator>
   </separator>
   <separator name="electronic dipolcorrection" >
    <i type="logical" name="LDIPOL"> F  </i>
    <i type="logical" name="LMONO"> F  </i>
    <i type="int" name="IDIPOL">     0</i>
    <i name="EPSILON">      1.00000000</i>
    <v name="DIPOL">   -100.00000000   -100.00000000   -100.00000000</v>
    <i name="EFIELD">      0.00000000</i>
   </separator>
  </separator>
  <separator name="grids" >
   <i type="int" name="NGX">    30</i>
   <i type="int" name="NGY">    30</i>
   <i type="int" name="NGZ">    30</i>
   <i type="int" name="NGXF">    60</i>
   <i type="int" name="NGYF">    60</i>
   <i type="int" name="NGZF">    60</i>
   <i type="logical" name="ADDGRID"> F  </i>
  </separator>
  <separator name="ionic" >
   <i type="int" name="NSW">     1</i>
   <i type="int" name="IBRION">     2</i>
   <i type="int" name="ISIF">     2</i>
   <i name="PSTRESS">      0.00000000</i>
   <i name="EDIFFG">     -0.05000000</i>
   <i type="int" name="NFREE">     1</i>
   <i name="POTIM">      0.50000000</i>
   <i name="SMASS">     -3.00000000</i>
   <i name="SCALEE">      1.00000000</i>
  </separator>
  <separator name="ionic md" >
   <i name="TEBEG">      0.00010000</i>
   <i name="TEEND">      0.00010000</i>
   <i type="int" name="NBLOCK">     1</i>
   <i type="int" name="KBLOCK">     1</i>
   <i type="int" name="NPACO">   256</i>
   <i name="APACO">     16.00000000</i>
  </separator>
  <separator name="symmetry" >
   <i type="int" name="ISYM">     2</i>
   <i name="SYMPREC">      0.00001000</i>
  </separator>
  <separator name="dos" >
   <i type="logical" name="LORBIT"> F  </i>
   <v name="RWIGS">     -1.00000000     -1.00000000</v>
   <i type="int" name="NEDOS">   301</i>
   <i name="EMIN">     10.00000000</i>
   <i name="EMAX">    -10.00000000</i>
   <i name="EFERMI">      0.00000000</i>
  </separator>
  <separator name="writing" >
   <i type="int" name="NWRITE">     2</i>
   <i type="logical" name="LWAVE"> F  </i>
   <i type="logical" name="LCHARG"> F  </i>
   <i type="logical" name="LPARD"> F  </i>
   <i type="logical" name="LVTOT"> F  </i>
   <i type="logical" name="LVHAR"> F  </i>
   <i type="logical" name="LELF"> F  </i>
   <i type="logical" name="LOPTICS"> F  </i>
   <v name="STM">      0.00000000      0.00000000      0.00000000      0.00000000      0.00000000      0.00000000      0.00000000</v>
  </separator>
  <separator name="performance" >
   <i type="int" name="NPAR">     4</i>
   <i type="int" name="NSIM">     4</i>
   <i type="int" name="NBLK">    -1</i>
   <i type="logical" name="LPLANE"> T  </i>
   <i type="logical" name="LSCALAPACK"> T  </i>
   <i type="logical" name="LSCAAWARE"> F  </i>
   <i type="logical" name="LSCALU"> F  </i>
   <i type="logical" name="LASYNC"> F  </i>
   <i type="logical" name="LORBITALREAL"> F  </i>
  </separator>
  <separator name="miscellaneous" >
   <i type="int" name="IDIOT">     3</i>
   <i type="logical" name="LMUSIC"> F  </i>
   <v name="POMASS">     24.30500000     16.00000000</v>
   <v name="DARWINR">      0.00000000      0.00000000</v>
   <v name="DARWINV">      1.00000000      1.00000000</v>
   <i type="logical" name="LCORR"> T  </i>
  </separator>
  <i type="logical" name="GGA_COMPAT"> T  </i>
  <i type="logical" name="LBERRY"> F  </i>
  <i type="int" name="ICORELEVEL">     0</i>
  <i type="logical" name="LDAU"> F  </i>
  <i type="int" name="I_CONSTRAINED_M">     0</i>
  <separator name="electronic exchange-correlation" >
   <i type="string" name="GGA">--</i>
   <i type="int" name="VOSKOWN">     0</i>
   <i type="logical" name="LHFCALC"> F  </i>
   <i type="string" name="PRECFOCK"></i>
   <i type="logical" name="LSYMGRAD"> F  </i>
   <i type="logical" name="LHFONE"> F  </i>
   <i type="logical" name="LRHFCALC"> F  </i>
   <i type="logical" name="LTHOMAS"> F  </i>
   <i type="logical" name="LMODELHF"> F  </i>
   <i name="ENCUT4O">     -1.00000000</i>
   <i type="int" name="EXXOEP">     0</i>
   <i type="int" name="FOURORBIT">     0</i>
   <i name="AEXX">      0.00000000</i>
   <i name="HFALPHA">      0.00000000</i>
   <i name="MCALPHA">      0.00000000</i>
   <i name="ALDAX">      1.00000000</i>
   <i name="AGGAX">      1.00000000</i>
   <i name="ALDAC">      1.00000000</i>
   <i name="AGGAC">      1.00000000</i>
   <i type="int" name="NKREDX">     1</i>
   <i type="int" name="NKREDY">     1</i>
   <i type="int" name="NKREDZ">     1</i>
   <i type="logical" name="SHIFTRED"> F  </i>
   <i type="logical" name="ODDONLY"> F  </i>
   <i type="logical" name="EVENONLY"> F  </i>
   <i type="int" name="LMAXFOCK">     0</i>
   <i type="int" name="NMAXFOCKAE">     0</i>
   <i type="logical" name="LFOCKAEDFT"> F  </i>
   <i name="HFSCREEN">      0.00000000</i>
   <i name="HFSCREENC">      0.00000000</i>
   <i type="int" name="NBANDSGWLOW">     0</i>
  </separator>
  <separator name="vdW DFT" >
   <i type="logical" name="LUSE_VDW"> F  </i>
   <i name="Zab_VDW">     -0.84910000</i>
   <i name="PARAM1">      0.12340000</i>
   <i name="PARAM2">      1.00000000</i>
   <i name="PARAM3">      0.00000000</i>
  </separator>
  <separator name="model GW" >
   <i type="int" name="MODEL_GW">     0</i>
   <i name="MODEL_EPS0">      6.12779100</i>
   <i name="MODEL_ALPHA">      1.00000000</i>
  </separator>
  <separator name="linear response parameters" >
   <i type="logical" name="LEPSILON"> F  </i>
   <i type="logical" name="LRPA"> F  </i>
   <i type="logical" name="LNABLA"> F  </i>
   <i type="logical" name="LVEL"> F  </i>
   <i type="int" name="KINTER">     0</i>
   <i name="CSHIFT">      0.10000000</i>
   <i name="OMEGAMAX">     -1.00000000</i>
   <i name="DEG_THRESHOLD">      0.00200000</i>
  </separator>
  <separator name="orbital magnetization" >
   <i type="logical" name="NUCIND"> F  </i>
   <v name="MAGPOS">      0.00000000      0.00000000      0.00000000</v>
   <i type="logical" name="LNICSALL"> T  </i>
   <i type="logical" name="ORBITALMAG"> F  </i>
   <i type="logical" name="LMAGBLOCH"> F  </i>
   <i type="logical" name="LCHIMAG"> F  </i>
   <i type="logical" name="LGAUGE"> T  </i>
   <i type="int" name="MAGATOM">     0</i>
   <v name="MAGDIPOL">      0.00000000      0.00000000      0.00000000</v>
   <v name="AVECCONST">      0.00000000      0.00000000      0.00000000</v>
  </separator>
  <separator name="response functions" >
   <i type="logical" name="LADDER"> F  </i>
   <i type="logical" name="LFXC"> F  </i>
   <i type="logical" name="LHARTREE"> T  </i>
   <i type="int" name="IBSE">     0</i>
   <v type="int" name="KPOINT">    -1     0     0     0</v>
   <i type="logical" name="LTCTE"> F  </i>
   <i type="logical" name="LTETE"> F  </i>
   <i type="logical" name="LTRIPLET"> F  </i>
   <i type="logical" name="LFXCEPS"> F  </i>
   <i type="logical" name="LFXHEG"> F  </i>
   <i type="int" name="NATURALO">     0</i>
   <i type="logical" name="L2ORDER"> F  </i>
   <i type="logical" name="LUSEW"> F  </i>
   <i name="ENCUTGW">     -2.00000000</i>
   <i name="ENCUTGWSOFT">     -2.00000000</i>
   <i name="ENCUTLF">     -1.00000000</i>
   <i type="int" name="LMAXMP2">    -1</i>
   <i name="SCISSOR">      0.00000000</i>
   <i type="int" name="NOMEGA">     0</i>
   <i type="int" name="NOMEGAR">     0</i>
   <i type="int" name="NBANDSGW">    -1</i>
   <i type="int" name="NBANDSO">    -1</i>
   <i type="int" name="NBANDSV">    -1</i>
   <i type="int" name="NELM">   100</i>
   <i type="int" name="NELMHF">     1</i>
   <i type="int" name="DIM">     3</i>
   <i type="int" name="ANTIRES">     0</i>
   <i name="OMEGAMAX">    -30.00000000</i>
   <i name="OMEGAMIN">    -30.00000000</i>
   <i name="OMEGATL">   -200.00000000</i>
   <i type="int" name="OMEGAGRID">     0</i>
   <i name="CSHIFT">     -0.10000000</i>
   <i type="logical" name="SELFENERGY"> F  </i>
   <i type="logical" name="LSPECTRAL"> F  </i>
   <i type="logical" name="LSPECTRALGW"> F  </i>
   <i type="logical" name="LSINGLES"> F  </i>
   <i type="logical" name="LFERMIGW"> F  </i>
   <i type="logical" name="ODDONLYGW"> F  </i>
   <i type="logical" name="EVENONLYGW"> F  </i>
   <i type="int" name="NKREDLFX">     1</i>
   <i type="int" name="NKREDLFY">     1</i>
   <i type="int" name="NKREDLFZ">     1</i>
   <i type="int" name="MAXMEM">  1800</i>
   <i type="int" name="TELESCOPE">     0</i>
   <i type="int" name="TAUPAR">     1</i>
   <i type="int" name="OMEGAPAR">    -1</i>
   <i name="LAMBDA">      1.00000000</i>
  </separator>
  <separator name="External order field" >
   <i name="OFIELD_KAPPA">      0.00000000</i>
   <v name="OFIELD_K">      0.00000000      0.00000000      0.00000000</v>
   <i name="OFIELD_Q6_NEAR">      0.00000000</i>
   <i name="OFIELD_Q6_FAR">      0.00000000</i>
   <i name="OFIELD_A">      0.00000000</i>
  </separator>
 </parameters>
 <atominfo>
  <atoms>      15 </atoms>
  <types>       2 </types>
  <array name="atoms" >
   <dimension dim="1">ion</dimension>
   <field type="string">element</field>
   <field type="int">atomtype</field>
   <set>
    <rc><c>Mg</c><c>   1</c></rc>
    <rc><c>Mg</c><c>   1</c></rc>
    <rc><c>Mg</c><c>   1</c></rc>
    <rc><c>Mg</c><c>   1</c></rc>
    <rc><c>Mg</c><c>   1</c></rc>
    <rc><c>Mg</c><c>   1</c></rc>
    <rc><c>Mg</c><c>   1</c></rc>
    <rc><c>Mg</c><c>   1</c></rc>
    <rc><c>O </c><c>   2</c></rc>
    <rc><c>O </c><c>   2</c></rc>
    <rc><c>O </c><c>   2</c></rc>
    <rc><c>O </c><c>   2</c></rc>
    <rc><c>O </c><c>   2</c></rc>
    <rc><c>O </c><c>   2</c></rc>
    <rc><c>O </c><c>   2</c></rc>
   </set>
  </array>
  <array name="atomtypes" >
   <dimension dim="1">type</dimension>
   <field type="int">atomspertype</field>
   <field type="string">element</field>
   <field>mass</field>
   <field>valence</field>
   <field type="string">pseudopotential</field>
   <set>
    <rc><c>   8</c><c>Mg</c><c>     24.30500000</c><c>      2.00000000</c><c>  PAW_PBE Mg 13Apr2007                  </c></rc>
    <rc><c>   7</c><c>O </c><c>     16.00000000</c><c>      6.00000000</c><c>  PAW_PBE O 08Apr2002                   </c></rc>
   </set>
  </array>
 </atominfo>
 <structure name="initialpos" >
  <crystal>
   <varray name="basis" >
    <v>       0.00000000       4.24689300       4.24689300 </v>
    <v>       4.24689300       0.00000000       4.24689300 </v>
    <v>       4.24689300       4.24689300       0.00000000 </v>
   </varray>
   <i name="volume">    153.19477498 </i>
   <varray name="rec_basis" >
    <v>      -0.11773313       0.11773313       0.11773313 </v>
    <v>       0.11773313      -0.11773313       0.11773313 </v>
    <v>       0.11773313       0.11773313      -0.11773313 </v>
   </varray>
  </crystal>
  <varray name="positions" >
   <v>       0.00000000       0.00000000       0.00000000 </v>
   <v>       0.99124200       0.00683100       0.51372500 </v>
   <v>       0.99069300       0.48123200       0.01841300 </v>
   <v>       0.00643800       0.48509400       0.51309900 </v>
   <v>       0.49935100       0.00811500       0.02132300 </v>
   <v>       0.50151100       0.00001900       0.49689000 </v>
   <v>       0.50134800       0.49855300       0.99908400 </v>
   <v>       0.50000000       0.50000000       0.50000000 </v>
   <v>       0.25000000       0.25000000       0.75000000 </v>
   <v>       0.25000000       0.75000000       0.25000000 </v>
   <v>       0.25000000       0.75000000       0.75000000 </v>
   <v>       0.75000000       0.25000000       0.25000000 </v>
   <v>       0.75000000       0.25000000       0.75000000 </v>
   <v>       0.75000000       0.75000000       0.25000000 </v>
   <v>       0.75000000       0.75000000       0.75000000 </v>
  </varray>
 </structure>
 <calculation>
  <scstep>
   <time name="dav">    0.50    0.50</time>
   <time name="total">    0.87    0.88</time>
   <energy>
    <i name="alphaZ">    129.53385374 </i>
    <i name="ewald">  -2381.71383353 </i>
    <i name="hartreedc">   -967.29652360 </i>
    <i name="XCdc">   -189.76102045 </i>
    <i name="pawpsdc">   2946.27252624 </i>
    <i name="pawaedc">  -2543.92834819 </i>
    <i name="eentropy">     -0.00005010 </i>
    <i name="bandstr">     10.45634612 </i>
    <i name="atom">   3210.13655998 </i>
    <i name="e_fr_energy">    213.69951021 </i>
    <i name="e_wo_entrp">    213.69956031 </i>
    <i name="e_0_energy">    213.69953526 </i>
   </energy>
  </scstep>
  <scstep>
   <time name="dav">    0.55    0.56</time>
   <time name="total">    0.55    0.56</time>
   <energy>
    <i name="e_fr_energy">    -81.00173102 </i>
    <i name="e_wo_entrp">    -81.00173102 </i>
    <i name="e_0_energy">    -81.00173102 </i>
   </energy>
  </scstep>
  <scstep>
   <time name="dav">    0.56    0.56</time>
   <time name="total">    0.56    0.57</time>
   <energy>
    <i name="e_fr_energy">    -98.18055398 </i>
    <i name="e_wo_entrp">    -98.18055398 </i>
    <i name="e_0_energy">    -98.18055398 </i>
   </energy>
  </scstep>
  <scstep>
   <time name="dav">    0.68    0.71</time>
   <time name="total">    0.68    0.71</time>
   <energy>
    <i name="e_fr_energy">    -98.28945936 </i>
    <i name="e_wo_entrp">    -98.28945936 </i>
    <i name="e_0_energy">    -98.28945936 </i>
   </energy>
  </scstep>
  <scstep>
   <time name="dav">    0.52    0.52</time>
   <time name="total">    0.54    0.54</time>
   <energy>
    <i name="e_fr_energy">    -98.29012781 </i>
    <i name="e_wo_entrp">    -98.29012781 </i>
    <i name="e_0_energy">    -98.29012781 </i>
   </energy>
  </scstep>
  <scstep>
   <time name="dav">    0.62    0.63</time>
   <time name="total">    1.00    1.02</time>
   <energy>
    <i name="e_fr_energy">    -92.02546223 </i>
    <i name="e_wo_entrp">    -92.02154040 </i>
    <i name="e_0_energy">    -92.02350132 </i>
   </energy>
  </scstep>
  <scstep>
   <time name="dav">    0.53    0.53</time>
   <time name="total">    0.92    0.92</time>
   <energy>
    <i name="e_fr_energy">    -91.93435131 </i>
    <i name="e_wo_entrp">    -91.92961813 </i>
    <i name="e_0_energy">    -91.93198472 </i>
   </energy>
  </scstep>
  <scstep>
   <time name="dav">    0.51    0.51</time>
   <time name="total">    0.89    0.89</time>
   <energy>
    <i name="e_fr_energy">    -91.71525977 </i>
    <i name="e_wo_entrp">    -91.71039608 </i>
    <i name="e_0_energy">    -91.71282793 </i>
   </energy>
  </scstep>
  <scstep>
   <time name="dav">    0.54    0.55</time>
   <time name="total">    0.92    0.93</time>
   <energy>
    <i name="e_fr_energy">    -91.70574273 </i>
    <i name="e_wo_entrp">    -91.70125435 </i>
    <i name="e_0_energy">    -91.70349854 </i>
   </energy>
  </scstep>
  <scstep>
   <time name="dav">    0.51    0.51</time>
   <time name="total">    0.89    0.89</time>
   <energy>
    <i name="e_fr_energy">    -91.70621694 </i>
    <i name="e_wo_entrp">    -91.70184685 </i>
    <i name="e_0_energy">    -91.70403190 </i>
   </energy>
  </scstep>
  <scstep>
   <time name="dav">    0.56    0.57</time>
   <time name="total">    0.94    0.96</time>
   <energy>
    <i name="e_fr_energy">    -91.70627714 </i>
    <i name="e_wo_entrp">    -91.70191317 </i>
    <i name="e_0_energy">    -91.70409515 </i>
   </energy>
  </scstep>
  <scstep>
   <time name="dav">    0.52    0.52</time>
   <time name="total">    0.90    0.90</time>
   <energy>
    <i name="e_fr_energy">    -91.70653123 </i>
    <i name="e_wo_entrp">    -91.70208593 </i>
    <i name="e_0_energy">    -91.70430858 </i>
   </energy>
  </scstep>
  <scstep>
   <time name="dav">    0.54    0.54</time>
   <time name="total">    0.92    0.92</time>
   <energy>
    <i name="e_fr_energy">    -91.70654417 </i>
    <i name="e_wo_entrp">    -91.70203009 </i>
    <i name="e_0_energy">    -91.70428713 </i>
   </energy>
  </scstep>
  <scstep>
   <time name="dav">    0.50    0.50</time>
   <time name="total">    0.87    0.88</time>
   <energy>
    <i name="alphaZ">    129.53385374 </i>
    <i name="ewald">  -2381.71383353 </i>
    <i name="hartreedc">  -1118.76567482 </i>
    <i name="XCdc">   -188.02820056 </i>
    <i name="pawpsdc">   3838.86998142 </i>
    <i name="pawaedc">  -3438.03181800 </i>
    <i name="eentropy">     -0.00452030 </i>
    <i name="bandstr">   -143.70289188 </i>
    <i name="atom">   3210.13655998 </i>
    <i name="e_fr_energy">    -91.70654395 </i>
    <i name="e_wo_entrp">    -91.70202365 </i>
    <i name="e_0_energy">    -91.70428380 </i>
   </energy>
  </scstep>
  <structure>
   <crystal>
    <varray name="basis" >
     <v>       0.00000000       4.24689300       4.24689300 </v>
     <v>       4.24689300       0.00000000       4.24689300 </v>
     <v>       4.24689300       4.24689300       0.00000000 </v>
    </varray>
    <i name="volume">    153.19477498 </i>
    <varray name="rec_basis" >
     <v>      -0.11773313       0.11773313       0.11773313 </v>
     <v>       0.11773313      -0.11773313       0.11773313 </v>
     <v>       0.11773313       0.11773313      -0.11773313 </v>
    </varray>
   </crystal>
   <varray name="positions" >
    <v>       0.00000000       0.00000000       0.00000000 </v>
    <v>       0.99124200       0.00683100       0.51372500 </v>
    <v>       0.99069300       0.48123200       0.01841300 </v>
    <v>       0.00643800       0.48509400       0.51309900 </v>
    <v>       0.49935100       0.00811500       0.02132300 </v>
    <v>       0.50151100       0.00001900       0.49689000 </v>
    <v>       0.50134800       0.49855300       0.99908400 </v>
    <v>       0.50000000       0.50000000       0.50000000 </v>
    <v>       0.25000000       0.25000000       0.75000000 </v>
    <v>       0.25000000       0.75000000       0.25000000 </v>
    <v>       0.25000000       0.75000000       0.75000000 </v>
    <v>       0.75000000       0.25000000       0.25000000 </v>
    <v>       0.75000000       0.25000000       0.75000000 </v>
    <v>       0.75000000       0.75000000       0.25000000 </v>
    <v>       0.75000000       0.75000000       0.75000000 </v>
   </varray>
  </structure>
  <varray name="forces" >
   <v>      -0.22699134       0.61699879      -0.09348306 </v>
   <v>      -0.81449022       0.08868796      -3.25295739 </v>
   <v>       0.10519239      -3.15205717       1.12553659 </v>
   <v>       3.04677345      -0.65906111       0.58640756 </v>
   <v>      -3.80652379      -0.77374368      -0.49185849 </v>
   <v>       0.27970376       3.41271543      -0.11179315 </v>
   <v>       0.44844818      -0.32515784       3.02032942 </v>
   <v>       0.30055830      -0.15602979      -0.19385341 </v>
   <v>       0.02823743       0.27584405      -0.07395646 </v>
   <v>       0.14118115       0.10820764       0.00920114 </v>
   <v>       0.02604010      -0.00633095      -0.03300748 </v>
   <v>       0.02281997       0.04039081      -0.33987081 </v>
   <v>       0.28015775       0.11257997       0.00357769 </v>
   <v>       0.08606645       0.24898039      -0.06407803 </v>
   <v>       0.08282643       0.16797550      -0.09019412 </v>
  </varray>
  <varray name="stress" >
   <v>    -186.94745278       0.25549613      -0.87823475 </v>
   <v>       0.25549636    -182.80168568       2.44440133 </v>
   <v>      -0.87823542       2.44439911    -180.89568005 </v>
  </varray>
  <energy>
   <i name="e_fr_energy">    -91.70654395 </i>
   <i name="e_wo_entrp">    -91.70428380 </i>
   <i name="e_0_energy">     -0.00452030 </i>
  </energy>
  <time name="totalsc">   12.63   12.76</time>
  <eigenvalues>
   <array>
    <dimension dim="1">band</dimension>
    <dimension dim="2">kpoint</dimension>
    <dimension dim="3">spin</dimension>
    <field>eigene</field>
    <field>occ</field>
    <set>
     <set comment="spin 1">
      <set comment="kpoint 1">
       <r>  -14.1203    1.0000 </r>
       <r>  -13.2718    1.0000 </r>
       <r>  -13.1625    1.0000 </r>
       <r>  -13.1154    1.0000 </r>
       <r>  -12.8350    1.0000 </r>
       <r>  -12.7603    1.0000 </r>
       <r>  -12.0481    1.0000 </r>
       <r>   -1.5094    1.0000 </r>
       <r>   -1.3162    1.0000 </r>
       <r>   -1.2354    1.0000 </r>
       <r>   -1.2238    1.0000 </r>
       <r>   -0.7859    1.0000 </r>
       <r>   -0.7676    1.0000 </r>
       <r>   -0.7023    1.0000 </r>
       <r>    1.2787    1.0000 </r>
       <r>    1.3737    1.0000 </r>
       <r>    1.4479    1.0000 </r>
       <r>    1.7702    1.0000 </r>
       <r>    1.9802    1.0000 </r>
       <r>    2.0301    1.0000 </r>
       <r>    2.0613    1.0000 </r>
       <r>    2.1376    1.0000 </r>
       <r>    2.2278    1.0000 </r>
       <r>    2.2805    1.0000 </r>
       <r>    2.3049    1.0000 </r>
       <r>    2.3534    1.0000 </r>
       <r>    3.0125    0.9974 </r>
       <r>    3.1149    0.4619 </r>
       <r>    3.2191    0.0012 </r>
       <r>    8.9601    0.0000 </r>
       <r>    9.9592    0.0000 </r>
       <r>   10.1426    0.0000 </r>
       <r>   10.2479    0.0000 </r>
       <r>   10.4278    0.0000 </r>
       <r>   10.5696    0.0000 </r>
       <r>   10.6568    0.0000 </r>
       <r>   12.2461    0.0000 </r>
       <r>   12.3317    0.0000 </r>
       <r>   12.4480    0.0000 </r>
       <r>   12.5607    0.0000 </r>
       <r>   12.5866    0.0000 </r>
       <r>   12.6485    0.0000 </r>
       <r>   15.2959    0.0000 </r>
       <r>   15.8789    0.0000 </r>
      </set>
      <set comment="kpoint 2">
       <r>  -13.8168    1.0000 </r>
       <r>  -13.4554    1.0000 </r>
       <r>  -13.2453    1.0000 </r>
       <r>  -13.0945    1.0000 </r>
       <r>  -12.9122    1.0000 </r>
       <r>  -12.8022    1.0000 </r>
       <r>  -12.1035    1.0000 </r>
       <r>   -1.6449    1.0000 </r>
       <r>   -0.5936    1.0000 </r>
       <r>   -0.4960    1.0000 </r>
       <r>   -0.4714    1.0000 </r>
       <r>   -0.3560    1.0000 </r>
       <r>   -0.2716    1.0000 </r>
       <r>   -0.2260    1.0000 </r>
       <r>    0.5864    1.0000 </r>
       <r>    0.6683    1.0000 </r>
       <r>    0.7404    1.0000 </r>
       <r>    1.2014    1.0000 </r>
       <r>    1.3362    1.0000 </r>
       <r>    1.7285    1.0000 </r>
       <r>    1.7943    1.0000 </r>
       <r>    1.8705    1.0000 </r>
       <r>    1.9192    1.0000 </r>
       <r>    1.9522    1.0000 </r>
       <r>    2.4023    1.0000 </r>
       <r>    2.4638    1.0000 </r>
       <r>    2.8027    1.0000 </r>
       <r>    2.9370    1.0000 </r>
       <r>    3.6298    0.0000 </r>
       <r>    6.9895    0.0000 </r>
       <r>    9.3479    0.0000 </r>
       <r>    9.4352    0.0000 </r>
       <r>   11.0585    0.0000 </r>
       <r>   11.3114    0.0000 </r>
       <r>   12.0745    0.0000 </r>
       <r>   12.1918    0.0000 </r>
       <r>   13.1299    0.0000 </r>
       <r>   13.2510    0.0000 </r>
       <r>   13.6033    0.0000 </r>
       <r>   14.0606    0.0000 </r>
       <r>   14.3699    0.0000 </r>
       <r>   14.4103    0.0000 </r>
       <r>   14.5253    0.0000 </r>
       <r>   15.3867    0.0000 </r>
      </set>
      <set comment="kpoint 3">
       <r>  -13.7614    1.0000 </r>
       <r>  -13.5432    1.0000 </r>
       <r>  -13.2431    1.0000 </r>
       <r>  -13.0371    1.0000 </r>
       <r>  -12.9505    1.0000 </r>
       <r>  -12.8040    1.0000 </r>
       <r>  -12.0907    1.0000 </r>
       <r>   -1.3515    1.0000 </r>
       <r>   -0.8477    1.0000 </r>
       <r>   -0.6514    1.0000 </r>
       <r>   -0.4957    1.0000 </r>
       <r>   -0.3550    1.0000 </r>
       <r>   -0.2443    1.0000 </r>
       <r>   -0.0679    1.0000 </r>
       <r>    0.4301    1.0000 </r>
       <r>    0.7991    1.0000 </r>
       <r>    0.9311    1.0000 </r>
       <r>    0.9848    1.0000 </r>
       <r>    1.1760    1.0000 </r>
       <r>    1.4096    1.0000 </r>
       <r>    1.7604    1.0000 </r>
       <r>    2.0461    1.0000 </r>
       <r>    2.1215    1.0000 </r>
       <r>    2.1429    1.0000 </r>
       <r>    2.1765    1.0000 </r>
       <r>    2.2444    1.0000 </r>
       <r>    2.9958    0.9995 </r>
       <r>    3.0897    0.7309 </r>
       <r>    3.6923    0.0000 </r>
       <r>    7.2471    0.0000 </r>
       <r>    9.1611    0.0000 </r>
       <r>    9.3521    0.0000 </r>
       <r>   11.1119    0.0000 </r>
       <r>   11.2087    0.0000 </r>
       <r>   11.8892    0.0000 </r>
       <r>   12.0791    0.0000 </r>
       <r>   13.2825    0.0000 </r>
       <r>   13.4405    0.0000 </r>
       <r>   13.7733    0.0000 </r>
       <r>   14.0290    0.0000 </r>
       <r>   14.4109    0.0000 </r>
       <r>   14.4561    0.0000 </r>
       <r>   14.5099    0.0000 </r>
       <r>   15.4358    0.0000 </r>
      </set>
      <set comment="kpoint 4">
       <r>  -13.7182    1.0000 </r>
       <r>  -13.3106    1.0000 </r>
       <r>  -13.3008    1.0000 </r>
       <r>  -13.1718    1.0000 </r>
       <r>  -13.1103    1.0000 </r>
       <r>  -12.7446    1.0000 </r>
       <r>  -12.1090    1.0000 </r>
       <r>   -1.6230    1.0000 </r>
       <r>   -0.4905    1.0000 </r>
       <r>   -0.0644    1.0000 </r>
       <r>   -0.0019    1.0000 </r>
       <r>    0.0114    1.0000 </r>
       <r>    0.0375    1.0000 </r>
       <r>    0.1118    1.0000 </r>
       <r>    0.4947    1.0000 </r>
       <r>    0.5166    1.0000 </r>
       <r>    0.6871    1.0000 </r>
       <r>    0.7056    1.0000 </r>
       <r>    0.9213    1.0000 </r>
       <r>    1.0242    1.0000 </r>
       <r>    1.1729    1.0000 </r>
       <r>    1.8176    1.0000 </r>
       <r>    1.9107    1.0000 </r>
       <r>    2.0847    1.0000 </r>
       <r>    2.2471    1.0000 </r>
       <r>    2.3876    1.0000 </r>
       <r>    2.7702    1.0000 </r>
       <r>    2.8383    1.0000 </r>
       <r>    4.1247    0.0000 </r>
       <r>    7.2118    0.0000 </r>
       <r>    8.6122    0.0000 </r>
       <r>    8.6707    0.0000 </r>
       <r>   11.6918    0.0000 </r>
       <r>   12.0110    0.0000 </r>
       <r>   12.3585    0.0000 </r>
       <r>   13.6077    0.0000 </r>
       <r>   13.6403    0.0000 </r>
       <r>   13.8734    0.0000 </r>
       <r>   13.9899    0.0000 </r>
       <r>   14.0623    0.0000 </r>
       <r>   14.2379    0.0000 </r>
       <r>   14.7233    0.0000 </r>
       <r>   14.8811    0.0000 </r>
       <r>   15.0427    0.0000 </r>
      </set>
      <set comment="kpoint 5">
       <r>  -13.7216    1.0000 </r>
       <r>  -13.6336    1.0000 </r>
       <r>  -13.1223    1.0000 </r>
       <r>  -13.1118    1.0000 </r>
       <r>  -12.8947    1.0000 </r>
       <r>  -12.8493    1.0000 </r>
       <r>  -12.0968    1.0000 </r>
       <r>   -1.5073    1.0000 </r>
       <r>   -0.7063    1.0000 </r>
       <r>   -0.5341    1.0000 </r>
       <r>   -0.5084    1.0000 </r>
       <r>   -0.3360    1.0000 </r>
       <r>   -0.3182    1.0000 </r>
       <r>   -0.1667    1.0000 </r>
       <r>    0.5195    1.0000 </r>
       <r>    0.6495    1.0000 </r>
       <r>    0.9238    1.0000 </r>
       <r>    1.0429    1.0000 </r>
       <r>    1.3182    1.0000 </r>
       <r>    1.5611    1.0000 </r>
       <r>    1.8436    1.0000 </r>
       <r>    1.9312    1.0000 </r>
       <r>    1.9646    1.0000 </r>
       <r>    2.1545    1.0000 </r>
       <r>    2.1863    1.0000 </r>
       <r>    2.3859    1.0000 </r>
       <r>    2.8962    1.0000 </r>
       <r>    3.0147    0.9969 </r>
       <r>    3.6637    0.0000 </r>
       <r>    7.1156    0.0000 </r>
       <r>    9.1872    0.0000 </r>
       <r>    9.4614    0.0000 </r>
       <r>   11.1225    0.0000 </r>
       <r>   11.2216    0.0000 </r>
       <r>   11.9660    0.0000 </r>
       <r>   12.1543    0.0000 </r>
       <r>   13.1701    0.0000 </r>
       <r>   13.3658    0.0000 </r>
       <r>   13.6909    0.0000 </r>
       <r>   14.0824    0.0000 </r>
       <r>   14.3791    0.0000 </r>
       <r>   14.4362    0.0000 </r>
       <r>   14.4882    0.0000 </r>
       <r>   15.4296    0.0000 </r>
      </set>
      <set comment="kpoint 6">
       <r>  -13.6483    1.0000 </r>
       <r>  -13.5221    1.0000 </r>
       <r>  -13.2079    1.0000 </r>
       <r>  -13.1731    1.0000 </r>
       <r>  -13.0087    1.0000 </r>
       <r>  -12.7983    1.0000 </r>
       <r>  -12.1068    1.0000 </r>
       <r>   -1.6024    1.0000 </r>
       <r>   -0.4507    1.0000 </r>
       <r>   -0.1079    1.0000 </r>
       <r>   -0.0579    1.0000 </r>
       <r>   -0.0469    1.0000 </r>
       <r>   -0.0071    1.0000 </r>
       <r>    0.1518    1.0000 </r>
       <r>    0.5397    1.0000 </r>
       <r>    0.5573    1.0000 </r>
       <r>    0.6092    1.0000 </r>
       <r>    0.8191    1.0000 </r>
       <r>    0.9103    1.0000 </r>
       <r>    1.0608    1.0000 </r>
       <r>    1.0980    1.0000 </r>
       <r>    1.8496    1.0000 </r>
       <r>    1.9938    1.0000 </r>
       <r>    2.0818    1.0000 </r>
       <r>    2.2754    1.0000 </r>
       <r>    2.3208    1.0000 </r>
       <r>    2.6293    1.0000 </r>
       <r>    2.9344    1.0000 </r>
       <r>    4.1217    0.0000 </r>
       <r>    7.2608    0.0000 </r>
       <r>    8.4880    0.0000 </r>
       <r>    8.7425    0.0000 </r>
       <r>   11.6923    0.0000 </r>
       <r>   12.0255    0.0000 </r>
       <r>   12.3746    0.0000 </r>
       <r>   13.5469    0.0000 </r>
       <r>   13.7067    0.0000 </r>
       <r>   13.8307    0.0000 </r>
       <r>   13.9482    0.0000 </r>
       <r>   14.1298    0.0000 </r>
       <r>   14.2176    0.0000 </r>
       <r>   14.7017    0.0000 </r>
       <r>   14.8691    0.0000 </r>
       <r>   14.9700    0.0000 </r>
      </set>
      <set comment="kpoint 7">
       <r>  -13.6902    1.0000 </r>
       <r>  -13.4405    1.0000 </r>
       <r>  -13.2188    1.0000 </r>
       <r>  -13.1711    1.0000 </r>
       <r>  -13.0727    1.0000 </r>
       <r>  -12.7639    1.0000 </r>
       <r>  -12.1079    1.0000 </r>
       <r>   -1.6128    1.0000 </r>
       <r>   -0.4697    1.0000 </r>
       <r>   -0.0526    1.0000 </r>
       <r>   -0.0443    1.0000 </r>
       <r>   -0.0306    1.0000 </r>
       <r>    0.0038    1.0000 </r>
       <r>    0.1260    1.0000 </r>
       <r>    0.4959    1.0000 </r>
       <r>    0.5744    1.0000 </r>
       <r>    0.6208    1.0000 </r>
       <r>    0.7638    1.0000 </r>
       <r>    0.8951    1.0000 </r>
       <r>    1.0629    1.0000 </r>
       <r>    1.1302    1.0000 </r>
       <r>    1.9032    1.0000 </r>
       <r>    1.9906    1.0000 </r>
       <r>    2.0536    1.0000 </r>
       <r>    2.2936    1.0000 </r>
       <r>    2.3391    1.0000 </r>
       <r>    2.6561    1.0000 </r>
       <r>    2.8476    1.0000 </r>
       <r>    4.1152    0.0000 </r>
       <r>    7.3295    0.0000 </r>
       <r>    8.4982    0.0000 </r>
       <r>    8.6622    0.0000 </r>
       <r>   11.7226    0.0000 </r>
       <r>   12.0360    0.0000 </r>
       <r>   12.3760    0.0000 </r>
       <r>   13.5753    0.0000 </r>
       <r>   13.6862    0.0000 </r>
       <r>   13.8639    0.0000 </r>
       <r>   13.9132    0.0000 </r>
       <r>   14.1188    0.0000 </r>
       <r>   14.2101    0.0000 </r>
       <r>   14.7099    0.0000 </r>
       <r>   14.8426    0.0000 </r>
       <r>   15.0422    0.0000 </r>
      </set>
      <set comment="kpoint 8">
       <r>  -13.6952    1.0000 </r>
       <r>  -13.6596    1.0000 </r>
       <r>  -13.1508    1.0000 </r>
       <r>  -13.0792    1.0000 </r>
       <r>  -12.9089    1.0000 </r>
       <r>  -12.8419    1.0000 </r>
       <r>  -12.0945    1.0000 </r>
       <r>   -1.4496    1.0000 </r>
       <r>   -0.7503    1.0000 </r>
       <r>   -0.6079    1.0000 </r>
       <r>   -0.4890    1.0000 </r>
       <r>   -0.3544    1.0000 </r>
       <r>   -0.2771    1.0000 </r>
       <r>   -0.1351    1.0000 </r>
       <r>    0.4776    1.0000 </r>
       <r>    0.6984    1.0000 </r>
       <r>    0.9495    1.0000 </r>
       <r>    1.0155    1.0000 </r>
       <r>    1.2669    1.0000 </r>
       <r>    1.5110    1.0000 </r>
       <r>    1.8142    1.0000 </r>
       <r>    1.9619    1.0000 </r>
       <r>    2.0677    1.0000 </r>
       <r>    2.1223    1.0000 </r>
       <r>    2.1783    1.0000 </r>
       <r>    2.3279    1.0000 </r>
       <r>    2.9011    1.0000 </r>
       <r>    3.0800    0.8133 </r>
       <r>    3.6729    0.0000 </r>
       <r>    7.1623    0.0000 </r>
       <r>    9.2037    0.0000 </r>
       <r>    9.3967    0.0000 </r>
       <r>   11.1472    0.0000 </r>
       <r>   11.1885    0.0000 </r>
       <r>   11.9560    0.0000 </r>
       <r>   12.1013    0.0000 </r>
       <r>   13.2024    0.0000 </r>
       <r>   13.3889    0.0000 </r>
       <r>   13.7608    0.0000 </r>
       <r>   14.0306    0.0000 </r>
       <r>   14.3878    0.0000 </r>
       <r>   14.4381    0.0000 </r>
       <r>   14.5124    0.0000 </r>
       <r>   15.4419    0.0000 </r>
      </set>
     </set>
     <set comment="spin 2">
      <set comment="kpoint 1">
       <r>  -14.1464    1.0000 </r>
       <r>  -13.2827    1.0000 </r>
       <r>  -13.1846    1.0000 </r>
       <r>  -13.1398    1.0000 </r>
       <r>  -12.8665    1.0000 </r>
       <r>  -12.8161    1.0000 </r>
       <r>  -12.2546    1.0000 </r>
       <r>   -1.5180    1.0000 </r>
       <r>   -1.3379    1.0000 </r>
       <r>   -1.2527    1.0000 </r>
       <r>   -1.2474    1.0000 </r>
       <r>   -0.8140    1.0000 </r>
       <r>   -0.7852    1.0000 </r>
       <r>   -0.7582    1.0000 </r>
       <r>    1.2632    1.0000 </r>
       <r>    1.3556    1.0000 </r>
       <r>    1.4297    1.0000 </r>
       <r>    1.7730    1.0000 </r>
       <r>    1.9494    1.0000 </r>
       <r>    1.9994    1.0000 </r>
       <r>    2.0053    1.0000 </r>
       <r>    2.1087    1.0000 </r>
       <r>    2.1814    1.0000 </r>
       <r>    2.2141    1.0000 </r>
       <r>    2.2777    1.0000 </r>
       <r>    2.3078    1.0000 </r>
       <r>    2.9510    1.0000 </r>
       <r>    2.9931    0.9996 </r>
       <r>    2.9992    0.9993 </r>
       <r>    8.9474    0.0000 </r>
       <r>    9.9572    0.0000 </r>
       <r>   10.1402    0.0000 </r>
       <r>   10.2445    0.0000 </r>
       <r>   10.4257    0.0000 </r>
       <r>   10.5681    0.0000 </r>
       <r>   10.6576    0.0000 </r>
       <r>   12.2510    0.0000 </r>
       <r>   12.3362    0.0000 </r>
       <r>   12.4490    0.0000 </r>
       <r>   12.5573    0.0000 </r>
       <r>   12.5843    0.0000 </r>
       <r>   12.6388    0.0000 </r>
       <r>   15.2858    0.0000 </r>
       <r>   15.8596    0.0000 </r>
      </set>
      <set comment="kpoint 2">
       <r>  -13.8332    1.0000 </r>
       <r>  -13.4907    1.0000 </r>
       <r>  -13.2521    1.0000 </r>
       <r>  -13.1160    1.0000 </r>
       <r>  -12.9444    1.0000 </r>
       <r>  -12.8594    1.0000 </r>
       <r>  -12.3101    1.0000 </r>
       <r>   -1.6479    1.0000 </r>
       <r>   -0.6112    1.0000 </r>
       <r>   -0.5203    1.0000 </r>
       <r>   -0.5112    1.0000 </r>
       <r>   -0.3673    1.0000 </r>
       <r>   -0.2851    1.0000 </r>
       <r>   -0.2419    1.0000 </r>
       <r>    0.5799    1.0000 </r>
       <r>    0.6228    1.0000 </r>
       <r>    0.7281    1.0000 </r>
       <r>    1.1611    1.0000 </r>
       <r>    1.2651    1.0000 </r>
       <r>    1.6586    1.0000 </r>
       <r>    1.7074    1.0000 </r>
       <r>    1.7782    1.0000 </r>
       <r>    1.8477    1.0000 </r>
       <r>    1.9322    1.0000 </r>
       <r>    2.3797    1.0000 </r>
       <r>    2.4152    1.0000 </r>
       <r>    2.7421    1.0000 </r>
       <r>    2.7954    1.0000 </r>
       <r>    3.6302    0.0000 </r>
       <r>    6.9861    0.0000 </r>
       <r>    9.3454    0.0000 </r>
       <r>    9.4306    0.0000 </r>
       <r>   11.0371    0.0000 </r>
       <r>   11.2827    0.0000 </r>
       <r>   12.0692    0.0000 </r>
       <r>   12.1895    0.0000 </r>
       <r>   13.1284    0.0000 </r>
       <r>   13.2450    0.0000 </r>
       <r>   13.5911    0.0000 </r>
       <r>   14.0413    0.0000 </r>
       <r>   14.3585    0.0000 </r>
       <r>   14.3839    0.0000 </r>
       <r>   14.5151    0.0000 </r>
       <r>   15.3859    0.0000 </r>
      </set>
      <set comment="kpoint 3">
       <r>  -13.7697    1.0000 </r>
       <r>  -13.5876    1.0000 </r>
       <r>  -13.2496    1.0000 </r>
       <r>  -13.0561    1.0000 </r>
       <r>  -12.9870    1.0000 </r>
       <r>  -12.8603    1.0000 </r>
       <r>  -12.2955    1.0000 </r>
       <r>   -1.3623    1.0000 </r>
       <r>   -0.8582    1.0000 </r>
       <r>   -0.6561    1.0000 </r>
       <r>   -0.5022    1.0000 </r>
       <r>   -0.4134    1.0000 </r>
       <r>   -0.3402    1.0000 </r>
       <r>   -0.0864    1.0000 </r>
       <r>    0.4225    1.0000 </r>
       <r>    0.7844    1.0000 </r>
       <r>    0.9284    1.0000 </r>
       <r>    0.9626    1.0000 </r>
       <r>    1.1619    1.0000 </r>
       <r>    1.4034    1.0000 </r>
       <r>    1.6750    1.0000 </r>
       <r>    2.0353    1.0000 </r>
       <r>    2.0515    1.0000 </r>
       <r>    2.0756    1.0000 </r>
       <r>    2.1525    1.0000 </r>
       <r>    2.1846    1.0000 </r>
       <r>    2.8653    1.0000 </r>
       <r>    2.8775    1.0000 </r>
       <r>    3.6868    0.0000 </r>
       <r>    7.2470    0.0000 </r>
       <r>    9.1608    0.0000 </r>
       <r>    9.3508    0.0000 </r>
       <r>   11.1008    0.0000 </r>
       <r>   11.1969    0.0000 </r>
       <r>   11.8830    0.0000 </r>
       <r>   12.0743    0.0000 </r>
       <r>   13.2843    0.0000 </r>
       <r>   13.4391    0.0000 </r>
       <r>   13.7629    0.0000 </r>
       <r>   14.0185    0.0000 </r>
       <r>   14.3769    0.0000 </r>
       <r>   14.4032    0.0000 </r>
       <r>   14.5066    0.0000 </r>
       <r>   15.4348    0.0000 </r>
      </set>
      <set comment="kpoint 4">
       <r>  -13.7297    1.0000 </r>
       <r>  -13.3441    1.0000 </r>
       <r>  -13.3135    1.0000 </r>
       <r>  -13.1954    1.0000 </r>
       <r>  -13.1517    1.0000 </r>
       <r>  -12.7945    1.0000 </r>
       <r>  -12.3115    1.0000 </r>
       <r>   -1.6285    1.0000 </r>
       <r>   -0.5003    1.0000 </r>
       <r>   -0.0786    1.0000 </r>
       <r>   -0.0272    1.0000 </r>
       <r>   -0.0156    1.0000 </r>
       <r>   -0.0086    1.0000 </r>
       <r>    0.0831    1.0000 </r>
       <r>    0.4492    1.0000 </r>
       <r>    0.4847    1.0000 </r>
       <r>    0.6639    1.0000 </r>
       <r>    0.6994    1.0000 </r>
       <r>    0.8867    1.0000 </r>
       <r>    1.0114    1.0000 </r>
       <r>    1.1306    1.0000 </r>
       <r>    1.6826    1.0000 </r>
       <r>    1.9008    1.0000 </r>
       <r>    2.0617    1.0000 </r>
       <r>    2.2000    1.0000 </r>
       <r>    2.3459    1.0000 </r>
       <r>    2.6433    1.0000 </r>
       <r>    2.6600    1.0000 </r>
       <r>    4.1215    0.0000 </r>
       <r>    7.2100    0.0000 </r>
       <r>    8.6093    0.0000 </r>
       <r>    8.6677    0.0000 </r>
       <r>   11.6619    0.0000 </r>
       <r>   12.0052    0.0000 </r>
       <r>   12.3426    0.0000 </r>
       <r>   13.5816    0.0000 </r>
       <r>   13.6033    0.0000 </r>
       <r>   13.8704    0.0000 </r>
       <r>   13.9864    0.0000 </r>
       <r>   14.0605    0.0000 </r>
       <r>   14.2402    0.0000 </r>
       <r>   14.7155    0.0000 </r>
       <r>   14.8766    0.0000 </r>
       <r>   15.0394    0.0000 </r>
      </set>
      <set comment="kpoint 5">
       <r>  -13.7414    1.0000 </r>
       <r>  -13.6541    1.0000 </r>
       <r>  -13.1413    1.0000 </r>
       <r>  -13.1310    1.0000 </r>
       <r>  -12.9265    1.0000 </r>
       <r>  -12.9099    1.0000 </r>
       <r>  -12.3017    1.0000 </r>
       <r>   -1.5121    1.0000 </r>
       <r>   -0.7187    1.0000 </r>
       <r>   -0.5588    1.0000 </r>
       <r>   -0.5249    1.0000 </r>
       <r>   -0.3940    1.0000 </r>
       <r>   -0.3357    1.0000 </r>
       <r>   -0.1835    1.0000 </r>
       <r>    0.4945    1.0000 </r>
       <r>    0.6409    1.0000 </r>
       <r>    0.9076    1.0000 </r>
       <r>    1.0182    1.0000 </r>
       <r>    1.2523    1.0000 </r>
       <r>    1.5427    1.0000 </r>
       <r>    1.6645    1.0000 </r>
       <r>    1.8998    1.0000 </r>
       <r>    1.9228    1.0000 </r>
       <r>    2.1181    1.0000 </r>
       <r>    2.1706    1.0000 </r>
       <r>    2.3332    1.0000 </r>
       <r>    2.8172    1.0000 </r>
       <r>    2.8391    1.0000 </r>
       <r>    3.6625    0.0000 </r>
       <r>    7.1130    0.0000 </r>
       <r>    9.1858    0.0000 </r>
       <r>    9.4571    0.0000 </r>
       <r>   11.1039    0.0000 </r>
       <r>   11.2000    0.0000 </r>
       <r>   11.9600    0.0000 </r>
       <r>   12.1511    0.0000 </r>
       <r>   13.1705    0.0000 </r>
       <r>   13.3584    0.0000 </r>
       <r>   13.6791    0.0000 </r>
       <r>   14.0684    0.0000 </r>
       <r>   14.3592    0.0000 </r>
       <r>   14.4023    0.0000 </r>
       <r>   14.4800    0.0000 </r>
       <r>   15.4290    0.0000 </r>
      </set>
      <set comment="kpoint 6">
       <r>  -13.6642    1.0000 </r>
       <r>  -13.5329    1.0000 </r>
       <r>  -13.2293    1.0000 </r>
       <r>  -13.1961    1.0000 </r>
       <r>  -13.0806    1.0000 </r>
       <r>  -12.8271    1.0000 </r>
       <r>  -12.3102    1.0000 </r>
       <r>   -1.6077    1.0000 </r>
       <r>   -0.4618    1.0000 </r>
       <r>   -0.1358    1.0000 </r>
       <r>   -0.0847    1.0000 </r>
       <r>   -0.0566    1.0000 </r>
       <r>   -0.0245    1.0000 </r>
       <r>    0.1266    1.0000 </r>
       <r>    0.4225    1.0000 </r>
       <r>    0.5445    1.0000 </r>
       <r>    0.5841    1.0000 </r>
       <r>    0.8047    1.0000 </r>
       <r>    0.8909    1.0000 </r>
       <r>    1.0388    1.0000 </r>
       <r>    1.0668    1.0000 </r>
       <r>    1.7173    1.0000 </r>
       <r>    1.9790    1.0000 </r>
       <r>    2.0592    1.0000 </r>
       <r>    2.2379    1.0000 </r>
       <r>    2.3027    1.0000 </r>
       <r>    2.5520    1.0000 </r>
       <r>    2.6862    1.0000 </r>
       <r>    4.1204    0.0000 </r>
       <r>    7.2585    0.0000 </r>
       <r>    8.4851    0.0000 </r>
       <r>    8.7371    0.0000 </r>
       <r>   11.6659    0.0000 </r>
       <r>   12.0194    0.0000 </r>
       <r>   12.3570    0.0000 </r>
       <r>   13.5312    0.0000 </r>
       <r>   13.6561    0.0000 </r>
       <r>   13.8273    0.0000 </r>
       <r>   13.9451    0.0000 </r>
       <r>   14.1286    0.0000 </r>
       <r>   14.2208    0.0000 </r>
       <r>   14.6956    0.0000 </r>
       <r>   14.8646    0.0000 </r>
       <r>   14.9653    0.0000 </r>
      </set>
      <set comment="kpoint 7">
       <r>  -13.7049    1.0000 </r>
       <r>  -13.4545    1.0000 </r>
       <r>  -13.2487    1.0000 </r>
       <r>  -13.1970    1.0000 </r>
       <r>  -13.1117    1.0000 </r>
       <r>  -12.8138    1.0000 </r>
       <r>  -12.3101    1.0000 </r>
       <r>   -1.6182    1.0000 </r>
       <r>   -0.4798    1.0000 </r>
       <r>   -0.0704    1.0000 </r>
       <r>   -0.0657    1.0000 </r>
       <r>   -0.0572    1.0000 </r>
       <r>   -0.0124    1.0000 </r>
       <r>    0.0945    1.0000 </r>
       <r>    0.4369    1.0000 </r>
       <r>    0.5568    1.0000 </r>
       <r>    0.6002    1.0000 </r>
       <r>    0.7428    1.0000 </r>
       <r>    0.8703    1.0000 </r>
       <r>    1.0389    1.0000 </r>
       <r>    1.0799    1.0000 </r>
       <r>    1.7030    1.0000 </r>
       <r>    1.9753    1.0000 </r>
       <r>    2.0340    1.0000 </r>
       <r>    2.2384    1.0000 </r>
       <r>    2.3127    1.0000 </r>
       <r>    2.5676    1.0000 </r>
       <r>    2.6893    1.0000 </r>
       <r>    4.1113    0.0000 </r>
       <r>    7.3260    0.0000 </r>
       <r>    8.4966    0.0000 </r>
       <r>    8.6593    0.0000 </r>
       <r>   11.6909    0.0000 </r>
       <r>   12.0309    0.0000 </r>
       <r>   12.3496    0.0000 </r>
       <r>   13.5606    0.0000 </r>
       <r>   13.6536    0.0000 </r>
       <r>   13.8608    0.0000 </r>
       <r>   13.9101    0.0000 </r>
       <r>   14.1169    0.0000 </r>
       <r>   14.2133    0.0000 </r>
       <r>   14.7021    0.0000 </r>
       <r>   14.8361    0.0000 </r>
       <r>   15.0259    0.0000 </r>
      </set>
      <set comment="kpoint 8">
       <r>  -13.7089    1.0000 </r>
       <r>  -13.6870    1.0000 </r>
       <r>  -13.1696    1.0000 </r>
       <r>  -13.0993    1.0000 </r>
       <r>  -12.9419    1.0000 </r>
       <r>  -12.8995    1.0000 </r>
       <r>  -12.2997    1.0000 </r>
       <r>   -1.4569    1.0000 </r>
       <r>   -0.7624    1.0000 </r>
       <r>   -0.6148    1.0000 </r>
       <r>   -0.5181    1.0000 </r>
       <r>   -0.3721    1.0000 </r>
       <r>   -0.3670    1.0000 </r>
       <r>   -0.1505    1.0000 </r>
       <r>    0.4613    1.0000 </r>
       <r>    0.6897    1.0000 </r>
       <r>    0.9263    1.0000 </r>
       <r>    0.9967    1.0000 </r>
       <r>    1.2355    1.0000 </r>
       <r>    1.4999    1.0000 </r>
       <r>    1.6850    1.0000 </r>
       <r>    1.9176    1.0000 </r>
       <r>    2.0053    1.0000 </r>
       <r>    2.1090    1.0000 </r>
       <r>    2.1366    1.0000 </r>
       <r>    2.2907    1.0000 </r>
       <r>    2.8184    1.0000 </r>
       <r>    2.8509    1.0000 </r>
       <r>    3.6693    0.0000 </r>
       <r>    7.1611    0.0000 </r>
       <r>    9.2025    0.0000 </r>
       <r>    9.3942    0.0000 </r>
       <r>   11.1324    0.0000 </r>
       <r>   11.1731    0.0000 </r>
       <r>   11.9499    0.0000 </r>
       <r>   12.0976    0.0000 </r>
       <r>   13.2026    0.0000 </r>
       <r>   13.3859    0.0000 </r>
       <r>   13.7497    0.0000 </r>
       <r>   14.0197    0.0000 </r>
       <r>   14.3715    0.0000 </r>
       <r>   14.3804    0.0000 </r>
       <r>   14.5061    0.0000 </r>
       <r>   15.4414    0.0000 </r>
      </set>
     </set>
    </set>
   </array>
  </eigenvalues>
  <separator name="orbital magnetization" >
   <v name="MAGDIPOLOUT">      0.00000000      0.00000000      0.00000000</v>
  </separator>
  <dos>
   <i name="efermi">      3.11147657 </i>
   <total>
    <array>
     <dimension dim="1">gridpoints</dimension>
     <dimension dim="2">spin</dimension>
     <field>energy</field>
     <field>total</field>
     <field>integrated</field>
     <set>
      <set comment="spin 1">
       <r>   -15.6477     0.0000     0.0000 </r>
       <r>   -15.5376     0.0000     0.0000 </r>
       <r>   -15.4275     0.0000     0.0000 </r>
       <r>   -15.3174     0.0000     0.0000 </r>
       <r>   -15.2073     0.0000     0.0000 </r>
       <r>   -15.0972     0.0000     0.0000 </r>
       <r>   -14.9871     0.0000     0.0000 </r>
       <r>   -14.8770     0.0000     0.0000 </r>
       <r>   -14.7669     0.0000     0.0000 </r>
       <r>   -14.6569     0.0000     0.0000 </r>
       <r>   -14.5468     0.0000     0.0000 </r>
       <r>   -14.4367     0.0000     0.0000 </r>
       <r>   -14.3266     0.0000     0.0000 </r>
       <r>   -14.2165     0.0037     0.0004 </r>
       <r>   -14.1064     0.7380     0.0817 </r>
       <r>   -13.9963     0.3935     0.1250 </r>
       <r>   -13.8862     0.0287     0.1281 </r>
       <r>   -13.7761     1.4994     0.2932 </r>
       <r>   -13.6660     5.6616     0.9165 </r>
       <r>   -13.5559     3.6099     1.3139 </r>
       <r>   -13.4458     2.8585     1.6286 </r>
       <r>   -13.3357     1.6055     1.8054 </r>
       <r>   -13.2256     5.4718     2.4078 </r>
       <r>   -13.1156    10.0402     3.5131 </r>
       <r>   -13.0055     7.1038     4.2952 </r>
       <r>   -12.8954     4.1103     4.7477 </r>
       <r>   -12.7853     7.3960     5.5620 </r>
       <r>   -12.6752     3.9337     5.9951 </r>
       <r>   -12.5651     0.0448     6.0000 </r>
       <r>   -12.4550     0.0000     6.0000 </r>
       <r>   -12.3449     0.0000     6.0000 </r>
       <r>   -12.2348     0.0008     6.0001 </r>
       <r>   -12.1247     2.0668     6.2276 </r>
       <r>   -12.0146     6.7568     6.9715 </r>
       <r>   -11.9045     0.2589     7.0000 </r>
       <r>   -11.7944     0.0000     7.0000 </r>
       <r>   -11.6843     0.0000     7.0000 </r>
       <r>   -11.5743     0.0000     7.0000 </r>
       <r>   -11.4642     0.0000     7.0000 </r>
       <r>   -11.3541     0.0000     7.0000 </r>
       <r>   -11.2440     0.0000     7.0000 </r>
       <r>   -11.1339     0.0000     7.0000 </r>
       <r>   -11.0238     0.0000     7.0000 </r>
       <r>   -10.9137     0.0000     7.0000 </r>
       <r>   -10.8036     0.0000     7.0000 </r>
       <r>   -10.6935     0.0000     7.0000 </r>
       <r>   -10.5834     0.0000     7.0000 </r>
       <r>   -10.4733     0.0000     7.0000 </r>
       <r>   -10.3632     0.0000     7.0000 </r>
       <r>   -10.2531     0.0000     7.0000 </r>
       <r>   -10.1431     0.0000     7.0000 </r>
       <r>   -10.0330     0.0000     7.0000 </r>
       <r>    -9.9229     0.0000     7.0000 </r>
       <r>    -9.8128     0.0000     7.0000 </r>
       <r>    -9.7027     0.0000     7.0000 </r>
       <r>    -9.5926     0.0000     7.0000 </r>
       <r>    -9.4825     0.0000     7.0000 </r>
       <r>    -9.3724     0.0000     7.0000 </r>
       <r>    -9.2623     0.0000     7.0000 </r>
       <r>    -9.1522     0.0000     7.0000 </r>
       <r>    -9.0421     0.0000     7.0000 </r>
       <r>    -8.9320     0.0000     7.0000 </r>
       <r>    -8.8219     0.0000     7.0000 </r>
       <r>    -8.7118     0.0000     7.0000 </r>
       <r>    -8.6018     0.0000     7.0000 </r>
       <r>    -8.4917     0.0000     7.0000 </r>
       <r>    -8.3816     0.0000     7.0000 </r>
       <r>    -8.2715     0.0000     7.0000 </r>
       <r>    -8.1614     0.0000     7.0000 </r>
       <r>    -8.0513     0.0000     7.0000 </r>
       <r>    -7.9412     0.0000     7.0000 </r>
       <r>    -7.8311     0.0000     7.0000 </r>
       <r>    -7.7210     0.0000     7.0000 </r>
       <r>    -7.6109     0.0000     7.0000 </r>
       <r>    -7.5008     0.0000     7.0000 </r>
       <r>    -7.3907     0.0000     7.0000 </r>
       <r>    -7.2806     0.0000     7.0000 </r>
       <r>    -7.1705     0.0000     7.0000 </r>
       <r>    -7.0605     0.0000     7.0000 </r>
       <r>    -6.9504     0.0000     7.0000 </r>
       <r>    -6.8403     0.0000     7.0000 </r>
       <r>    -6.7302     0.0000     7.0000 </r>
       <r>    -6.6201     0.0000     7.0000 </r>
       <r>    -6.5100     0.0000     7.0000 </r>
       <r>    -6.3999     0.0000     7.0000 </r>
       <r>    -6.2898     0.0000     7.0000 </r>
       <r>    -6.1797     0.0000     7.0000 </r>
       <r>    -6.0696     0.0000     7.0000 </r>
       <r>    -5.9595     0.0000     7.0000 </r>
       <r>    -5.8494     0.0000     7.0000 </r>
       <r>    -5.7393     0.0000     7.0000 </r>
       <r>    -5.6292     0.0000     7.0000 </r>
       <r>    -5.5192     0.0000     7.0000 </r>
       <r>    -5.4091     0.0000     7.0000 </r>
       <r>    -5.2990     0.0000     7.0000 </r>
       <r>    -5.1889     0.0000     7.0000 </r>
       <r>    -5.0788     0.0000     7.0000 </r>
       <r>    -4.9687     0.0000     7.0000 </r>
       <r>    -4.8586     0.0000     7.0000 </r>
       <r>    -4.7485     0.0000     7.0000 </r>
       <r>    -4.6384     0.0000     7.0000 </r>
       <r>    -4.5283     0.0000     7.0000 </r>
       <r>    -4.4182     0.0000     7.0000 </r>
       <r>    -4.3081     0.0000     7.0000 </r>
       <r>    -4.1980     0.0000     7.0000 </r>
       <r>    -4.0879     0.0000     7.0000 </r>
       <r>    -3.9779     0.0000     7.0000 </r>
       <r>    -3.8678     0.0000     7.0000 </r>
       <r>    -3.7577     0.0000     7.0000 </r>
       <r>    -3.6476     0.0000     7.0000 </r>
       <r>    -3.5375     0.0000     7.0000 </r>
       <r>    -3.4274     0.0000     7.0000 </r>
       <r>    -3.3173     0.0000     7.0000 </r>
       <r>    -3.2072     0.0000     7.0000 </r>
       <r>    -3.0971     0.0000     7.0000 </r>
       <r>    -2.9870     0.0000     7.0000 </r>
       <r>    -2.8769     0.0000     7.0000 </r>
       <r>    -2.7668     0.0000     7.0000 </r>
       <r>    -2.6567     0.0000     7.0000 </r>
       <r>    -2.5466     0.0000     7.0000 </r>
       <r>    -2.4366     0.0000     7.0000 </r>
       <r>    -2.3265     0.0000     7.0000 </r>
       <r>    -2.2164     0.0000     7.0000 </r>
       <r>    -2.1063     0.0000     7.0000 </r>
       <r>    -1.9962     0.0000     7.0000 </r>
       <r>    -1.8861     0.0000     7.0000 </r>
       <r>    -1.7760     0.0001     7.0000 </r>
       <r>    -1.6659     0.5587     7.0615 </r>
       <r>    -1.5558     3.9821     7.4999 </r>
       <r>    -1.4457     2.8069     7.8089 </r>
       <r>    -1.3356     1.6975     7.9958 </r>
       <r>    -1.2255     2.4059     8.2607 </r>
       <r>    -1.1154     1.0366     8.3748 </r>
       <r>    -1.0054     0.0016     8.3750 </r>
       <r>    -0.8953     0.1026     8.3863 </r>
       <r>    -0.7852     2.1270     8.6205 </r>
       <r>    -0.6751     4.4234     9.1074 </r>
       <r>    -0.5650     3.5761     9.5011 </r>
       <r>    -0.4549     8.1126    10.3943 </r>
       <r>    -0.3448     4.9568    10.9400 </r>
       <r>    -0.2347     5.9538    11.5955 </r>
       <r>    -0.1246     3.6693    11.9994 </r>
       <r>    -0.0145     9.4051    13.0349 </r>
       <r>     0.0956     5.9344    13.6882 </r>
       <r>     0.2057     2.7417    13.9900 </r>
       <r>     0.3158     0.0913    14.0001 </r>
       <r>     0.4259     0.6624    14.0730 </r>
       <r>     0.5359     6.2181    14.7576 </r>
       <r>     0.6460     7.3200    15.5634 </r>
       <r>     0.7561     6.3220    16.2595 </r>
       <r>     0.8662     3.7127    16.6682 </r>
       <r>     0.9763     6.6206    17.3971 </r>
       <r>     1.0864     6.4213    18.1040 </r>
       <r>     1.1965     4.6338    18.6141 </r>
       <r>     1.3066     3.7953    19.0320 </r>
       <r>     1.4167     3.8486    19.4557 </r>
       <r>     1.5268     2.4744    19.7281 </r>
       <r>     1.6369     1.3218    19.8736 </r>
       <r>     1.7470     1.6637    20.0568 </r>
       <r>     1.8571     6.8813    20.8144 </r>
       <r>     1.9672     8.8579    21.7895 </r>
       <r>     2.0772     9.7412    22.8620 </r>
       <r>     2.1873     9.8178    23.9429 </r>
       <r>     2.2974     8.2922    24.8558 </r>
       <r>     2.4075     8.0620    25.7433 </r>
       <r>     2.5176     2.2587    25.9920 </r>
       <r>     2.6277     0.8592    26.0866 </r>
       <r>     2.7378     1.7168    26.2756 </r>
       <r>     2.8479     3.3566    26.6451 </r>
       <r>     2.9580     5.0790    27.2043 </r>
       <r>     3.0681     4.4878    27.6984 </r>
       <r>     3.1782     2.8283    28.0097 </r>
       <r>     3.2883     1.0183    28.1218 </r>
       <r>     3.3984     0.0286    28.1250 </r>
       <r>     3.5085     0.0003    28.1250 </r>
       <r>     3.6185     0.6316    28.1946 </r>
       <r>     3.7286     3.6317    28.5944 </r>
       <r>     3.8387     0.2779    28.6250 </r>
       <r>     3.9488     0.0000    28.6250 </r>
       <r>     4.0589     0.1419    28.6406 </r>
       <r>     4.1690     2.9696    28.9675 </r>
       <r>     4.2791     0.2948    29.0000 </r>
       <r>     4.3892     0.0000    29.0000 </r>
       <r>     4.4993     0.0000    29.0000 </r>
       <r>     4.6094     0.0000    29.0000 </r>
       <r>     4.7195     0.0000    29.0000 </r>
       <r>     4.8296     0.0000    29.0000 </r>
       <r>     4.9397     0.0000    29.0000 </r>
       <r>     5.0498     0.0000    29.0000 </r>
       <r>     5.1598     0.0000    29.0000 </r>
       <r>     5.2699     0.0000    29.0000 </r>
       <r>     5.3800     0.0000    29.0000 </r>
       <r>     5.4901     0.0000    29.0000 </r>
       <r>     5.6002     0.0000    29.0000 </r>
       <r>     5.7103     0.0000    29.0000 </r>
       <r>     5.8204     0.0000    29.0000 </r>
       <r>     5.9305     0.0000    29.0000 </r>
       <r>     6.0406     0.0000    29.0000 </r>
       <r>     6.1507     0.0000    29.0000 </r>
       <r>     6.2608     0.0000    29.0000 </r>
       <r>     6.3709     0.0000    29.0000 </r>
       <r>     6.4810     0.0000    29.0000 </r>
       <r>     6.5911     0.0000    29.0000 </r>
       <r>     6.7011     0.0000    29.0000 </r>
       <r>     6.8112     0.0000    29.0000 </r>
       <r>     6.9213     0.0305    29.0034 </r>
       <r>     7.0314     0.9808    29.1113 </r>
       <r>     7.1415     1.3406    29.2589 </r>
       <r>     7.2516     3.1279    29.6033 </r>
       <r>     7.3617     2.2594    29.8520 </r>
       <r>     7.4718     0.2086    29.8750 </r>
       <r>     7.5819     0.0000    29.8750 </r>
       <r>     7.6920     0.0000    29.8750 </r>
       <r>     7.8021     0.0000    29.8750 </r>
       <r>     7.9122     0.0000    29.8750 </r>
       <r>     8.0223     0.0000    29.8750 </r>
       <r>     8.1324     0.0000    29.8750 </r>
       <r>     8.2424     0.0000    29.8750 </r>
       <r>     8.3525     0.0001    29.8750 </r>
       <r>     8.4626     0.4471    29.9242 </r>
       <r>     8.5727     1.9538    30.1393 </r>
       <r>     8.6828     2.5689    30.4222 </r>
       <r>     8.7929     1.7546    30.6153 </r>
       <r>     8.9030     0.1482    30.6316 </r>
       <r>     9.0131     0.9991    30.7416 </r>
       <r>     9.1232     0.2901    30.7736 </r>
       <r>     9.2333     2.8321    31.0854 </r>
       <r>     9.3434     1.4066    31.2402 </r>
       <r>     9.4535     3.5534    31.6314 </r>
       <r>     9.5636     1.0748    31.7497 </r>
       <r>     9.6736     0.0023    31.7500 </r>
       <r>     9.7837     0.0000    31.7500 </r>
       <r>     9.8938     0.0366    31.7540 </r>
       <r>    10.0039     0.9820    31.8621 </r>
       <r>    10.1140     0.3546    31.9012 </r>
       <r>    10.2241     1.1695    32.0299 </r>
       <r>    10.3342     0.8597    32.1246 </r>
       <r>    10.4443     0.7758    32.2100 </r>
       <r>    10.5544     0.7438    32.2919 </r>
       <r>    10.6645     1.4157    32.4477 </r>
       <r>    10.7746     0.4742    32.4999 </r>
       <r>    10.8847     0.0005    32.5000 </r>
       <r>    10.9948     0.0413    32.5045 </r>
       <r>    11.1049     1.9598    32.7203 </r>
       <r>    11.2149     4.5132    33.2172 </r>
       <r>    11.3250     2.1696    33.4560 </r>
       <r>    11.4351     0.3990    33.5000 </r>
       <r>    11.5452     0.0003    33.5000 </r>
       <r>    11.6553     0.3720    33.5410 </r>
       <r>    11.7654     2.8632    33.8562 </r>
       <r>    11.8755     0.5870    33.9208 </r>
       <r>    11.9856     2.9431    34.2448 </r>
       <r>    12.0957     5.5161    34.8521 </r>
       <r>    12.2058     3.2814    35.2134 </r>
       <r>    12.3159     2.0464    35.4387 </r>
       <r>    12.4260     4.0572    35.8853 </r>
       <r>    12.5361     1.3975    36.0392 </r>
       <r>    12.6462     2.3907    36.3024 </r>
       <r>    12.7562     0.6582    36.3749 </r>
       <r>    12.8663     0.0013    36.3750 </r>
       <r>    12.9764     0.0000    36.3750 </r>
       <r>    13.0865     0.1355    36.3899 </r>
       <r>    13.1966     2.4175    36.6561 </r>
       <r>    13.3067     2.8415    36.9689 </r>
       <r>    13.4168     2.5100    37.2452 </r>
       <r>    13.5269     1.6229    37.4239 </r>
       <r>    13.6370     4.3395    37.9016 </r>
       <r>    13.7471     4.7103    38.4202 </r>
       <r>    13.8572     3.6430    38.8213 </r>
       <r>    13.9673     3.8750    39.2479 </r>
       <r>    14.0774     5.4628    39.8493 </r>
       <r>    14.1875     4.1565    40.3069 </r>
       <r>    14.2975     2.8591    40.6217 </r>
       <r>    14.4076     4.3423    41.0997 </r>
       <r>    14.5177     7.3773    41.9119 </r>
       <r>    14.6278     1.9685    42.1286 </r>
       <r>    14.7379     2.5731    42.4119 </r>
       <r>    14.8480     1.9477    42.6263 </r>
       <r>    14.9581     2.6715    42.9205 </r>
       <r>    15.0682     2.4599    43.1913 </r>
       <r>    15.1783     0.5338    43.2500 </r>
       <r>    15.2884     0.4743    43.3023 </r>
       <r>    15.3985     1.8786    43.5091 </r>
       <r>    15.5086     3.2527    43.8672 </r>
       <r>    15.6187     0.0711    43.8750 </r>
       <r>    15.7288     0.0000    43.8750 </r>
       <r>    15.8388     0.1462    43.8911 </r>
       <r>    15.9489     0.9622    43.9970 </r>
       <r>    16.0590     0.0270    44.0000 </r>
       <r>    16.1691     0.0000    44.0000 </r>
       <r>    16.2792     0.0000    44.0000 </r>
       <r>    16.3893     0.0000    44.0000 </r>
       <r>    16.4994     0.0000    44.0000 </r>
       <r>    16.6095     0.0000    44.0000 </r>
       <r>    16.7196     0.0000    44.0000 </r>
       <r>    16.8297     0.0000    44.0000 </r>
       <r>    16.9398     0.0000    44.0000 </r>
       <r>    17.0499     0.0000    44.0000 </r>
       <r>    17.1600     0.0000    44.0000 </r>
       <r>    17.2701     0.0000    44.0000 </r>
       <r>    17.3801     0.0000    44.0000 </r>
      </set>
      <set comment="spin 2">
       <r>   -15.6477     0.0000     0.0000 </r>
       <r>   -15.5376     0.0000     0.0000 </r>
       <r>   -15.4275     0.0000     0.0000 </r>
       <r>   -15.3174     0.0000     0.0000 </r>
       <r>   -15.2073     0.0000     0.0000 </r>
       <r>   -15.0972     0.0000     0.0000 </r>
       <r>   -14.9871     0.0000     0.0000 </r>
       <r>   -14.8770     0.0000     0.0000 </r>
       <r>   -14.7669     0.0000     0.0000 </r>
       <r>   -14.6569     0.0000     0.0000 </r>
       <r>   -14.5468     0.0000     0.0000 </r>
       <r>   -14.4367     0.0000     0.0000 </r>
       <r>   -14.3266     0.0000     0.0000 </r>
       <r>   -14.2165     0.0270     0.0030 </r>
       <r>   -14.1064     0.9622     0.1089 </r>
       <r>   -13.9963     0.1462     0.1250 </r>
       <r>   -13.8862     0.0767     0.1334 </r>
       <r>   -13.7761     1.8423     0.3363 </r>
       <r>   -13.6660     6.3494     1.0353 </r>
       <r>   -13.5559     3.2029     1.3879 </r>
       <r>   -13.4458     2.7090     1.6862 </r>
       <r>   -13.3357     1.6586     1.8688 </r>
       <r>   -13.2256     6.3837     2.5716 </r>
       <r>   -13.1156    11.1627     3.8005 </r>
       <r>   -13.0055     5.5566     4.4122 </r>
       <r>   -12.8954     5.8030     5.0511 </r>
       <r>   -12.7853     7.5247     5.8795 </r>
       <r>   -12.6752     1.0938     5.9999 </r>
       <r>   -12.5651     0.0005     6.0000 </r>
       <r>   -12.4550     0.0001     6.0000 </r>
       <r>   -12.3449     1.0874     6.1197 </r>
       <r>   -12.2348     7.4756     6.9427 </r>
       <r>   -12.1247     0.5200     7.0000 </r>
       <r>   -12.0146     0.0001     7.0000 </r>
       <r>   -11.9045     0.0000     7.0000 </r>
       <r>   -11.7944     0.0000     7.0000 </r>
       <r>   -11.6843     0.0000     7.0000 </r>
       <r>   -11.5743     0.0000     7.0000 </r>
       <r>   -11.4642     0.0000     7.0000 </r>
       <r>   -11.3541     0.0000     7.0000 </r>
       <r>   -11.2440     0.0000     7.0000 </r>
       <r>   -11.1339     0.0000     7.0000 </r>
       <r>   -11.0238     0.0000     7.0000 </r>
       <r>   -10.9137     0.0000     7.0000 </r>
       <r>   -10.8036     0.0000     7.0000 </r>
       <r>   -10.6935     0.0000     7.0000 </r>
       <r>   -10.5834     0.0000     7.0000 </r>
       <r>   -10.4733     0.0000     7.0000 </r>
       <r>   -10.3632     0.0000     7.0000 </r>
       <r>   -10.2531     0.0000     7.0000 </r>
       <r>   -10.1431     0.0000     7.0000 </r>
       <r>   -10.0330     0.0000     7.0000 </r>
       <r>    -9.9229     0.0000     7.0000 </r>
       <r>    -9.8128     0.0000     7.0000 </r>
       <r>    -9.7027     0.0000     7.0000 </r>
       <r>    -9.5926     0.0000     7.0000 </r>
       <r>    -9.4825     0.0000     7.0000 </r>
       <r>    -9.3724     0.0000     7.0000 </r>
       <r>    -9.2623     0.0000     7.0000 </r>
       <r>    -9.1522     0.0000     7.0000 </r>
       <r>    -9.0421     0.0000     7.0000 </r>
       <r>    -8.9320     0.0000     7.0000 </r>
       <r>    -8.8219     0.0000     7.0000 </r>
       <r>    -8.7118     0.0000     7.0000 </r>
       <r>    -8.6018     0.0000     7.0000 </r>
       <r>    -8.4917     0.0000     7.0000 </r>
       <r>    -8.3816     0.0000     7.0000 </r>
       <r>    -8.2715     0.0000     7.0000 </r>
       <r>    -8.1614     0.0000     7.0000 </r>
       <r>    -8.0513     0.0000     7.0000 </r>
       <r>    -7.9412     0.0000     7.0000 </r>
       <r>    -7.8311     0.0000     7.0000 </r>
       <r>    -7.7210     0.0000     7.0000 </r>
       <r>    -7.6109     0.0000     7.0000 </r>
       <r>    -7.5008     0.0000     7.0000 </r>
       <r>    -7.3907     0.0000     7.0000 </r>
       <r>    -7.2806     0.0000     7.0000 </r>
       <r>    -7.1705     0.0000     7.0000 </r>
       <r>    -7.0605     0.0000     7.0000 </r>
       <r>    -6.9504     0.0000     7.0000 </r>
       <r>    -6.8403     0.0000     7.0000 </r>
       <r>    -6.7302     0.0000     7.0000 </r>
       <r>    -6.6201     0.0000     7.0000 </r>
       <r>    -6.5100     0.0000     7.0000 </r>
       <r>    -6.3999     0.0000     7.0000 </r>
       <r>    -6.2898     0.0000     7.0000 </r>
       <r>    -6.1797     0.0000     7.0000 </r>
       <r>    -6.0696     0.0000     7.0000 </r>
       <r>    -5.9595     0.0000     7.0000 </r>
       <r>    -5.8494     0.0000     7.0000 </r>
       <r>    -5.7393     0.0000     7.0000 </r>
       <r>    -5.6292     0.0000     7.0000 </r>
       <r>    -5.5192     0.0000     7.0000 </r>
       <r>    -5.4091     0.0000     7.0000 </r>
       <r>    -5.2990     0.0000     7.0000 </r>
       <r>    -5.1889     0.0000     7.0000 </r>
       <r>    -5.0788     0.0000     7.0000 </r>
       <r>    -4.9687     0.0000     7.0000 </r>
       <r>    -4.8586     0.0000     7.0000 </r>
       <r>    -4.7485     0.0000     7.0000 </r>
       <r>    -4.6384     0.0000     7.0000 </r>
       <r>    -4.5283     0.0000     7.0000 </r>
       <r>    -4.4182     0.0000     7.0000 </r>
       <r>    -4.3081     0.0000     7.0000 </r>
       <r>    -4.1980     0.0000     7.0000 </r>
       <r>    -4.0879     0.0000     7.0000 </r>
       <r>    -3.9779     0.0000     7.0000 </r>
       <r>    -3.8678     0.0000     7.0000 </r>
       <r>    -3.7577     0.0000     7.0000 </r>
       <r>    -3.6476     0.0000     7.0000 </r>
       <r>    -3.5375     0.0000     7.0000 </r>
       <r>    -3.4274     0.0000     7.0000 </r>
       <r>    -3.3173     0.0000     7.0000 </r>
       <r>    -3.2072     0.0000     7.0000 </r>
       <r>    -3.0971     0.0000     7.0000 </r>
       <r>    -2.9870     0.0000     7.0000 </r>
       <r>    -2.8769     0.0000     7.0000 </r>
       <r>    -2.7668     0.0000     7.0000 </r>
       <r>    -2.6567     0.0000     7.0000 </r>
       <r>    -2.5466     0.0000     7.0000 </r>
       <r>    -2.4366     0.0000     7.0000 </r>
       <r>    -2.3265     0.0000     7.0000 </r>
       <r>    -2.2164     0.0000     7.0000 </r>
       <r>    -2.1063     0.0000     7.0000 </r>
       <r>    -1.9962     0.0000     7.0000 </r>
       <r>    -1.8861     0.0000     7.0000 </r>
       <r>    -1.7760     0.0002     7.0000 </r>
       <r>    -1.6659     0.6690     7.0737 </r>
       <r>    -1.5558     4.0074     7.5149 </r>
       <r>    -1.4457     2.7985     7.8230 </r>
       <r>    -1.3356     1.9672     8.0395 </r>
       <r>    -1.2255     2.4915     8.3138 </r>
       <r>    -1.1154     0.5555     8.3750 </r>
       <r>    -1.0054     0.0002     8.3750 </r>
       <r>    -0.8953     0.1806     8.3949 </r>
       <r>    -0.7852     2.9829     8.7233 </r>
       <r>    -0.6751     3.9333     9.1563 </r>
       <r>    -0.5650     3.9392     9.5900 </r>
       <r>    -0.4549     8.4744    10.5230 </r>
       <r>    -0.3448     6.6475    11.2548 </r>
       <r>    -0.2347     4.0264    11.6981 </r>
       <r>    -0.1246     3.7452    12.1104 </r>
       <r>    -0.0145    10.6196    13.2795 </r>
       <r>     0.0956     4.6549    13.7920 </r>
       <r>     0.2057     1.8735    13.9983 </r>
       <r>     0.3158     0.0189    14.0004 </r>
       <r>     0.4259     2.1989    14.2425 </r>
       <r>     0.5359     6.5361    14.9620 </r>
       <r>     0.6460     6.7262    15.7025 </r>
       <r>     0.7561     5.7010    16.3302 </r>
       <r>     0.8662     3.9665    16.7668 </r>
       <r>     0.9763     6.7605    17.5111 </r>
       <r>     1.0864     6.9326    18.2744 </r>
       <r>     1.1965     4.2003    18.7368 </r>
       <r>     1.3066     4.4026    19.2215 </r>
       <r>     1.4167     2.4970    19.4964 </r>
       <r>     1.5268     2.4171    19.7625 </r>
       <r>     1.6369     2.0125    19.9841 </r>
       <r>     1.7470     7.9463    20.8589 </r>
       <r>     1.8571     3.4409    21.2377 </r>
       <r>     1.9672     7.6049    22.0750 </r>
       <r>     2.0772    10.5909    23.2410 </r>
       <r>     2.1873     9.4305    24.2792 </r>
       <r>     2.2974     8.3529    25.1988 </r>
       <r>     2.4075     6.2924    25.8915 </r>
       <r>     2.5176     1.2608    26.0303 </r>
       <r>     2.6277     2.6088    26.3175 </r>
       <r>     2.7378     4.3316    26.7944 </r>
       <r>     2.8479     5.4031    27.3893 </r>
       <r>     2.9580     4.2343    27.8554 </r>
       <r>     3.0681     2.3997    28.1196 </r>
       <r>     3.1782     0.0489    28.1250 </r>
       <r>     3.2883     0.0000    28.1250 </r>
       <r>     3.3984     0.0000    28.1250 </r>
       <r>     3.5085     0.0003    28.1250 </r>
       <r>     3.6185     0.6588    28.1976 </r>
       <r>     3.7286     3.6573    28.6002 </r>
       <r>     3.8387     0.2252    28.6250 </r>
       <r>     3.9488     0.0000    28.6250 </r>
       <r>     4.0589     0.1689    28.6436 </r>
       <r>     4.1690     2.9816    28.9718 </r>
       <r>     4.2791     0.2557    29.0000 </r>
       <r>     4.3892     0.0000    29.0000 </r>
       <r>     4.4993     0.0000    29.0000 </r>
       <r>     4.6094     0.0000    29.0000 </r>
       <r>     4.7195     0.0000    29.0000 </r>
       <r>     4.8296     0.0000    29.0000 </r>
       <r>     4.9397     0.0000    29.0000 </r>
       <r>     5.0498     0.0000    29.0000 </r>
       <r>     5.1598     0.0000    29.0000 </r>
       <r>     5.2699     0.0000    29.0000 </r>
       <r>     5.3800     0.0000    29.0000 </r>
       <r>     5.4901     0.0000    29.0000 </r>
       <r>     5.6002     0.0000    29.0000 </r>
       <r>     5.7103     0.0000    29.0000 </r>
       <r>     5.8204     0.0000    29.0000 </r>
       <r>     5.9305     0.0000    29.0000 </r>
       <r>     6.0406     0.0000    29.0000 </r>
       <r>     6.1507     0.0000    29.0000 </r>
       <r>     6.2608     0.0000    29.0000 </r>
       <r>     6.3709     0.0000    29.0000 </r>
       <r>     6.4810     0.0000    29.0000 </r>
       <r>     6.5911     0.0000    29.0000 </r>
       <r>     6.7011     0.0000    29.0000 </r>
       <r>     6.8112     0.0000    29.0000 </r>
       <r>     6.9213     0.0380    29.0042 </r>
       <r>     7.0314     0.9960    29.1138 </r>
       <r>     7.1415     1.3602    29.2636 </r>
       <r>     7.2516     3.1332    29.6085 </r>
       <r>     7.3617     2.2400    29.8551 </r>
       <r>     7.4718     0.1804    29.8750 </r>
       <r>     7.5819     0.0000    29.8750 </r>
       <r>     7.6920     0.0000    29.8750 </r>
       <r>     7.8021     0.0000    29.8750 </r>
       <r>     7.9122     0.0000    29.8750 </r>
       <r>     8.0223     0.0000    29.8750 </r>
       <r>     8.1324     0.0000    29.8750 </r>
       <r>     8.2424     0.0000    29.8750 </r>
       <r>     8.3525     0.0001    29.8750 </r>
       <r>     8.4626     0.4890    29.9289 </r>
       <r>     8.5727     1.9396    30.1424 </r>
       <r>     8.6828     2.6315    30.4321 </r>
       <r>     8.7929     1.6869    30.6178 </r>
       <r>     8.9030     0.1838    30.6381 </r>
       <r>     9.0131     0.9809    30.7460 </r>
       <r>     9.1232     0.2571    30.7743 </r>
       <r>     9.2333     2.8444    31.0875 </r>
       <r>     9.3434     1.4495    31.2471 </r>
       <r>     9.4535     3.6038    31.6438 </r>
       <r>     9.5636     0.9628    31.7498 </r>
       <r>     9.6736     0.0016    31.7500 </r>
       <r>     9.7837     0.0000    31.7500 </r>
       <r>     9.8938     0.0414    31.7546 </r>
       <r>    10.0039     0.9881    31.8633 </r>
       <r>    10.1140     0.3663    31.9037 </r>
       <r>    10.2241     1.1858    32.0342 </r>
       <r>    10.3342     0.8238    32.1249 </r>
       <r>    10.4443     0.7962    32.2126 </r>
       <r>    10.5544     0.7378    32.2938 </r>
       <r>    10.6645     1.3900    32.4468 </r>
       <r>    10.7746     0.4826    32.4999 </r>
       <r>    10.8847     0.0005    32.5000 </r>
       <r>    10.9948     0.1341    32.5148 </r>
       <r>    11.1049     2.4569    32.7853 </r>
       <r>    11.2149     4.5133    33.2821 </r>
       <r>    11.3250     1.8474    33.4855 </r>
       <r>    11.4351     0.1316    33.5000 </r>
       <r>    11.5452     0.0009    33.5001 </r>
       <r>    11.6553     1.0957    33.6207 </r>
       <r>    11.7654     2.2855    33.8723 </r>
       <r>    11.8755     0.5259    33.9302 </r>
       <r>    11.9856     3.1114    34.2728 </r>
       <r>    12.0957     5.4562    34.8735 </r>
       <r>    12.2058     3.0974    35.2145 </r>
       <r>    12.3159     2.3282    35.4708 </r>
       <r>    12.4260     3.9001    35.9002 </r>
       <r>    12.5361     1.3097    36.0444 </r>
       <r>    12.6462     2.4767    36.3170 </r>
       <r>    12.7562     0.5261    36.3749 </r>
       <r>    12.8663     0.0005    36.3750 </r>
       <r>    12.9764     0.0000    36.3750 </r>
       <r>    13.0865     0.1448    36.3909 </r>
[...]
        <r>  0.0075  0.0000  0.0000  0.0000  0.0000  0.0000  0.0000  0.0000  0.0000 </r>
        <r>  0.0000  0.0000  0.0707  0.0667  0.0000  0.0000  0.0000  0.0000  0.0000 </r>
        <r>  0.0000  0.0260  0.0030  0.0170  0.0000  0.0000  0.0000  0.0000  0.0000 </r>
        <r>  0.0000  0.0000  0.0000  0.0000  0.0000  0.0000  0.0000  0.0000  0.0000 </r>
       </set>
       <set comment="band 32">
        <r>  0.0000  0.0002  0.0000  0.0000  0.0000  0.0000  0.0000  0.0000  0.0001 </r>
        <r>  0.0084  0.0008  0.0040  0.0030  0.0000  0.0023  0.0012  0.0011  0.0005 </r>
        <r>  0.0304  0.0155  0.0001  0.0002  0.0003  0.0008  0.0007  0.0000  0.0029 </r>
        <r>  0.0074  0.0021  0.0021  0.0027  0.0027  0.0000  0.0000  0.0010  0.0007 </r>
        <r>  0.0073  0.0014  0.0036  0.0039  0.0037  0.0000  0.0000  0.0016  0.0021 </r>
        <r>  0.0305  0.0172  0.0000  0.0001  0.0003  0.0005  0.0013  0.0000  0.0033 </r>
        <r>  0.0105  0.0009  0.0050  0.0019  0.0000  0.0021  0.0014  0.0007  0.0004 </r>
        <r>  0.0000  0.0003  0.0000  0.0000  0.0000  0.0000  0.0000  0.0001  0.0000 </r>
        <r>  0.0029  0.0001  0.0000  0.0000  0.0000  0.0000  0.0000  0.0000  0.0000 </r>
        <r>  0.0127  0.0000  0.0000  0.0000  0.0000  0.0000  0.0000  0.0000  0.0000 </r>
        <r>  0.0000  0.0542  0.0605  0.0010  0.0000  0.0000  0.0000  0.0000  0.0000 </r>
        <r>  0.0018  0.0000  0.0000  0.0000  0.0000  0.0000  0.0000  0.0000  0.0000 </r>
        <r>  0.0001  0.0048  0.0000  0.0008  0.0000  0.0000  0.0000  0.0000  0.0000 </r>
        <r>  0.0000  0.0471  0.0013  0.0512  0.0000  0.0000  0.0000  0.0000  0.0000 </r>
        <r>  0.0000  0.0000  0.0000  0.0000  0.0000  0.0000  0.0000  0.0000  0.0000 </r>
       </set>
       <set comment="band 33">
        <r>  0.0014  0.0030  0.0037  0.0036  0.0002  0.0004  0.0000  0.0000  0.0000 </r>
        <r>  0.0080  0.0001  0.0148  0.0000  0.0000  0.0018  0.0003  0.0018  0.0000 </r>
        <r>  0.0091  0.0211  0.0000  0.0000  0.0021  0.0017  0.0000  0.0000  0.0002 </r>
        <r>  0.0018  0.0017  0.0015  0.0137  0.0015  0.0002  0.0000  0.0008  0.0001 </r>
        <r>  0.0063  0.0001  0.0003  0.0175  0.0021  0.0000  0.0000  0.0019  0.0000 </r>
        <r>  0.0033  0.0116  0.0018  0.0018  0.0014  0.0019  0.0000  0.0000  0.0000 </r>
        <r>  0.0034  0.0018  0.0113  0.0013  0.0000  0.0021  0.0000  0.0010  0.0000 </r>
        <r>  0.0295  0.0000  0.0000  0.0004  0.0000  0.0000  0.0000  0.0000  0.0000 </r>
        <r>  0.0133  0.0000  0.0019  0.0000  0.0000  0.0000  0.0000  0.0000  0.0000 </r>
        <r>  0.0111  0.0022  0.0000  0.0001  0.0000  0.0000  0.0000  0.0000  0.0000 </r>
        <r>  0.0036  0.0088  0.0094  0.0045  0.0000  0.0000  0.0000  0.0000  0.0000 </r>
        <r>  0.0159  0.0000  0.0001  0.0031  0.0000  0.0000  0.0000  0.0000  0.0000 </r>
        <r>  0.0051  0.0073  0.0115  0.0129  0.0000  0.0000  0.0000  0.0000  0.0000 </r>
        <r>  0.0054  0.0096  0.0059  0.0115  0.0000  0.0000  0.0000  0.0000  0.0000 </r>
        <r>  0.0527  0.0033  0.0016  0.0027  0.0000  0.0000  0.0000  0.0000  0.0000 </r>
       </set>
       <set comment="band 34">
        <r>  0.0527  0.0049  0.0033  0.0024  0.0003  0.0004  0.0000  0.0002  0.0000 </r>
        <r>  0.0013  0.0040  0.0001  0.0045  0.0003  0.0003  0.0010  0.0001  0.0000 </r>
        <r>  0.0003  0.0001  0.0031  0.0036  0.0001  0.0003  0.0005  0.0001  0.0010 </r>
        <r>  0.0071  0.0029  0.0032  0.0058  0.0003  0.0002  0.0002  0.0004  0.0016 </r>
        <r>  0.0027  0.0042  0.0046  0.0000  0.0001  0.0003  0.0005  0.0001  0.0008 </r>
        <r>  0.0064  0.0056  0.0017  0.0025  0.0004  0.0002  0.0004  0.0001  0.0011 </r>
        <r>  0.0071  0.0016  0.0057  0.0033  0.0002  0.0002  0.0015  0.0004  0.0000 </r>
        <r>  0.0241  0.0070  0.0068  0.0058  0.0005  0.0007  0.0000  0.0004  0.0000 </r>
        <r>  0.0016  0.0000  0.0189  0.0001  0.0000  0.0000  0.0000  0.0000  0.0000 </r>
        <r>  0.0012  0.0158  0.0000  0.0001  0.0000  0.0000  0.0000  0.0000  0.0000 </r>
        <r>  0.0320  0.0010  0.0013  0.0005  0.0000  0.0000  0.0000  0.0000  0.0000 </r>
        <r>  0.0021  0.0002  0.0001  0.0221  0.0000  0.0000  0.0000  0.0000  0.0000 </r>
        <r>  0.0414  0.0015  0.0015  0.0020  0.0000  0.0000  0.0000  0.0000  0.0000 </r>
        <r>  0.0375  0.0011  0.0007  0.0017  0.0000  0.0000  0.0000  0.0000  0.0000 </r>
        <r>  0.0066  0.0164  0.0181  0.0200  0.0000  0.0000  0.0000  0.0000  0.0000 </r>
       </set>
       <set comment="band 35">
        <r>  0.0002  0.0004  0.0027  0.0069  0.0020  0.0026  0.0003  0.0004  0.0004 </r>
        <r>  0.0057  0.0135  0.0001  0.0001  0.0019  0.0050  0.0001  0.0004  0.0003 </r>
        <r>  0.0015  0.0001  0.0104  0.0032  0.0022  0.0038  0.0022  0.0004  0.0001 </r>
        <r>  0.0104  0.0081  0.0013  0.0005  0.0030  0.0031  0.0001  0.0004  0.0003 </r>
        <r>  0.0124  0.0080  0.0033  0.0011  0.0028  0.0047  0.0000  0.0008  0.0000 </r>
        <r>  0.0011  0.0000  0.0108  0.0029  0.0026  0.0040  0.0009  0.0005  0.0001 </r>
        <r>  0.0069  0.0115  0.0004  0.0001  0.0023  0.0041  0.0001  0.0005  0.0005 </r>
        <r>  0.0001  0.0003  0.0022  0.0074  0.0015  0.0026  0.0003  0.0004  0.0004 </r>
        <r>  0.0000  0.0030  0.0133  0.0189  0.0000  0.0000  0.0000  0.0000  0.0000 </r>
        <r>  0.0000  0.0025  0.0001  0.0086  0.0000  0.0000  0.0000  0.0000  0.0000 </r>
        <r>  0.0385  0.0000  0.0000  0.0000  0.0000  0.0000  0.0000  0.0000  0.0000 </r>
        <r>  0.0000  0.0144  0.0186  0.0230  0.0000  0.0000  0.0000  0.0000  0.0000 </r>
        <r>  0.0017  0.0000  0.0000  0.0000  0.0000  0.0000  0.0000  0.0000  0.0000 </r>
        <r>  0.0126  0.0001  0.0000  0.0001  0.0000  0.0000  0.0000  0.0000  0.0000 </r>
        <r>  0.0001  0.0013  0.0031  0.0021  0.0000  0.0000  0.0000  0.0000  0.0000 </r>
       </set>
       <set comment="band 36">
        <r>  0.0000  0.0063  0.0038  0.0003  0.0012  0.0000  0.0004  0.0026  0.0003 </r>
        <r>  0.0103  0.0000  0.0016  0.0095  0.0019  0.0000  0.0000  0.0048  0.0001 </r>
        <r>  0.0186  0.0007  0.0037  0.0070  0.0018  0.0004  0.0000  0.0030  0.0001 </r>
        <r>  0.0005  0.0037  0.0099  0.0004  0.0019  0.0000  0.0007  0.0043  0.0006 </r>
        <r>  0.0010  0.0069  0.0106  0.0000  0.0028  0.0003  0.0006  0.0054  0.0001 </r>
        <r>  0.0145  0.0009  0.0024  0.0096  0.0028  0.0002  0.0000  0.0035  0.0002 </r>
        <r>  0.0080  0.0000  0.0008  0.0118  0.0014  0.0001  0.0000  0.0044  0.0004 </r>
        <r>  0.0000  0.0048  0.0038  0.0004  0.0014  0.0002  0.0005  0.0024  0.0004 </r>
        <r>  0.0000  0.0183  0.0128  0.0020  0.0000  0.0000  0.0000  0.0000  0.0000 </r>
        <r>  0.0001  0.0216  0.0188  0.0101  0.0000  0.0000  0.0000  0.0000  0.0000 </r>
        <r>  0.0026  0.0000  0.0002  0.0001  0.0000  0.0000  0.0000  0.0000  0.0000 </r>
        <r>  0.0000  0.0079  0.0013  0.0011  0.0000  0.0000  0.0000  0.0000  0.0000 </r>
        <r>  0.0312  0.0003  0.0000  0.0000  0.0000  0.0000  0.0000  0.0000  0.0000 </r>
        <r>  0.0227  0.0000  0.0001  0.0000  0.0000  0.0000  0.0000  0.0000  0.0000 </r>
        <r>  0.0000  0.0070  0.0016  0.0000  0.0000  0.0000  0.0000  0.0000  0.0000 </r>
       </set>
       <set comment="band 37">
        <r>  0.0006  0.0067  0.0048  0.0014  0.0024  0.0005  0.0004  0.0062  0.0004 </r>
        <r>  0.0021  0.0000  0.0016  0.0104  0.0016  0.0013  0.0004  0.0034  0.0009 </r>
        <r>  0.0017  0.0027  0.0030  0.0114  0.0025  0.0001  0.0000  0.0055  0.0007 </r>
        <r>  0.0006  0.0025  0.0069  0.0001  0.0036  0.0005  0.0006  0.0069  0.0000 </r>
        <r>  0.0008  0.0006  0.0058  0.0016  0.0026  0.0001  0.0005  0.0039  0.0002 </r>
        <r>  0.0012  0.0020  0.0035  0.0080  0.0011  0.0000  0.0000  0.0055  0.0008 </r>
        <r>  0.0019  0.0000  0.0021  0.0096  0.0025  0.0009  0.0003  0.0059  0.0003 </r>
        <r>  0.0003  0.0074  0.0050  0.0009  0.0016  0.0001  0.0003  0.0054  0.0004 </r>
        <r>  0.0125  0.0001  0.0001  0.0002  0.0000  0.0000  0.0000  0.0000  0.0000 </r>
        <r>  0.0244  0.0001  0.0002  0.0001  0.0000  0.0000  0.0000  0.0000  0.0000 </r>
        <r>  0.0000  0.0012  0.0062  0.0013  0.0000  0.0000  0.0000  0.0000  0.0000 </r>
        <r>  0.0025  0.0002  0.0000  0.0002  0.0000  0.0000  0.0000  0.0000  0.0000 </r>
        <r>  0.0000  0.0218  0.0131  0.0155  0.0000  0.0000  0.0000  0.0000  0.0000 </r>
        <r>  0.0000  0.0091  0.0090  0.0168  0.0000  0.0000  0.0000  0.0000  0.0000 </r>
        <r>  0.0008  0.0001  0.0001  0.0002  0.0000  0.0000  0.0000  0.0000  0.0000 </r>
       </set>
       <set comment="band 38">
        <r>  0.0002  0.0002  0.0036  0.0086  0.0029  0.0039  0.0004  0.0005  0.0003 </r>
        <r>  0.0021  0.0095  0.0013  0.0002  0.0026  0.0036  0.0006  0.0004  0.0004 </r>
        <r>  0.0001  0.0004  0.0071  0.0019  0.0035  0.0061  0.0001  0.0001  0.0000 </r>
        <r>  0.0043  0.0077  0.0044  0.0059  0.0018  0.0039  0.0001  0.0002  0.0002 </r>
        <r>  0.0068  0.0075  0.0023  0.0059  0.0017  0.0030  0.0000  0.0001  0.0007 </r>
        <r>  0.0000  0.0000  0.0067  0.0021  0.0041  0.0052  0.0006  0.0004  0.0000 </r>
        <r>  0.0009  0.0128  0.0022  0.0005  0.0029  0.0043  0.0005  0.0011  0.0003 </r>
        <r>  0.0008  0.0002  0.0040  0.0084  0.0033  0.0039  0.0004  0.0002  0.0004 </r>
        <r>  0.0146  0.0004  0.0000  0.0000  0.0000  0.0000  0.0000  0.0000  0.0000 </r>
        <r>  0.0010  0.0001  0.0002  0.0000  0.0000  0.0000  0.0000  0.0000  0.0000 </r>
        <r>  0.0000  0.0216  0.0191  0.0144  0.0000  0.0000  0.0000  0.0000  0.0000 </r>
        <r>  0.0266  0.0000  0.0000  0.0001  0.0000  0.0000  0.0000  0.0000  0.0000 </r>
        <r>  0.0000  0.0016  0.0009  0.0001  0.0000  0.0000  0.0000  0.0000  0.0000 </r>
        <r>  0.0000  0.0084  0.0127  0.0047  0.0000  0.0000  0.0000  0.0000  0.0000 </r>
        <r>  0.0007  0.0000  0.0000  0.0003  0.0000  0.0000  0.0000  0.0000  0.0000 </r>
       </set>
       <set comment="band 39">
        <r>  0.0728  0.0059  0.0053  0.0044  0.0018  0.0032  0.0000  0.0014  0.0000 </r>
        <r>  0.0130  0.0000  0.0005  0.0004  0.0003  0.0003  0.0016  0.0013  0.0001 </r>
        <r>  0.0124  0.0008  0.0004  0.0005  0.0003  0.0001  0.0002  0.0007  0.0017 </r>
        <r>  0.0100  0.0015  0.0016  0.0001  0.0000  0.0027  0.0012  0.0002  0.0009 </r>
        <r>  0.0142  0.0000  0.0008  0.0006  0.0006  0.0007  0.0005  0.0013  0.0019 </r>
        <r>  0.0117  0.0005  0.0002  0.0004  0.0001  0.0000  0.0002  0.0007  0.0011 </r>
        <r>  0.0130  0.0003  0.0002  0.0013  0.0012  0.0001  0.0014  0.0003  0.0000 </r>
        <r>  0.0753  0.0095  0.0069  0.0045  0.0016  0.0023  0.0000  0.0010  0.0000 </r>
        <r>  0.0067  0.0003  0.0003  0.0000  0.0000  0.0000  0.0000  0.0000  0.0000 </r>
        <r>  0.0098  0.0009  0.0001  0.0000  0.0000  0.0000  0.0000  0.0000  0.0000 </r>
        <r>  0.0000  0.0077  0.0080  0.0191  0.0000  0.0000  0.0000  0.0000  0.0000 </r>
        <r>  0.0038  0.0002  0.0001  0.0001  0.0000  0.0000  0.0000  0.0000  0.0000 </r>
        <r>  0.0000  0.0100  0.0177  0.0153  0.0000  0.0000  0.0000  0.0000  0.0000 </r>
        <r>  0.0000  0.0134  0.0145  0.0108  0.0000  0.0000  0.0000  0.0000  0.0000 </r>
        <r>  0.0237  0.0001  0.0001  0.0004  0.0000  0.0000  0.0000  0.0000  0.0000 </r>
       </set>
       <set comment="band 40">
        <r>  0.0080  0.0022  0.0025  0.0026  0.0006  0.0007  0.0000  0.0007  0.0000 </r>
        <r>  0.0006  0.0008  0.0017  0.0006  0.0049  0.0046  0.0000  0.0074  0.0000 </r>
        <r>  0.0005  0.0003  0.0018  0.0019  0.0068  0.0043  0.0002  0.0042  0.0001 </r>
        <r>  0.0062  0.0000  0.0010  0.0008  0.0054  0.0041  0.0000  0.0076  0.0002 </r>
        <r>  0.0033  0.0017  0.0008  0.0024  0.0071  0.0044  0.0000  0.0073  0.0001 </r>
        <r>  0.0009  0.0014  0.0008  0.0011  0.0073  0.0068  0.0001  0.0043  0.0001 </r>
        <r>  0.0020  0.0003  0.0013  0.0004  0.0040  0.0063  0.0002  0.0076  0.0000 </r>
        <r>  0.0006  0.0018  0.0013  0.0008  0.0012  0.0007  0.0000  0.0013  0.0000 </r>
        <r>  0.0000  0.0119  0.0347  0.0033  0.0000  0.0000  0.0000  0.0000  0.0000 </r>
        <r>  0.0001  0.0336  0.0123  0.0067  0.0000  0.0000  0.0000  0.0000  0.0000 </r>
        <r>  0.0004  0.0006  0.0008  0.0002  0.0000  0.0000  0.0000  0.0000  0.0000 </r>
        <r>  0.0001  0.0072  0.0036  0.0335  0.0000  0.0000  0.0000  0.0000  0.0000 </r>
        <r>  0.0001  0.0007  0.0000  0.0001  0.0000  0.0000  0.0000  0.0000  0.0000 </r>
        <r>  0.0000  0.0002  0.0003  0.0001  0.0000  0.0000  0.0000  0.0000  0.0000 </r>
        <r>  0.0004  0.0100  0.0152  0.0259  0.0000  0.0000  0.0000  0.0000  0.0000 </r>
       </set>
       <set comment="band 41">
        <r>  0.0008  0.0005  0.0013  0.0007  0.0010  0.0000  0.0001  0.0057  0.0001 </r>
        <r>  0.0337  0.0005  0.0003  0.0002  0.0075  0.0012  0.0001  0.0021  0.0001 </r>
        <r>  0.0478  0.0001  0.0007  0.0000  0.0017  0.0000  0.0002  0.0001  0.0000 </r>
        <r>  0.0007  0.0000  0.0000  0.0004  0.0026  0.0005  0.0003  0.0039  0.0000 </r>
        <r>  0.0011  0.0000  0.0001  0.0001  0.0038  0.0039  0.0001  0.0032  0.0000 </r>
        <r>  0.0475  0.0001  0.0002  0.0001  0.0008  0.0001  0.0000  0.0048  0.0001 </r>
        <r>  0.0364  0.0000  0.0000  0.0000  0.0000  0.0007  0.0000  0.0020  0.0001 </r>
        <r>  0.0045  0.0015  0.0000  0.0002  0.0061  0.0016  0.0001  0.0013  0.0000 </r>
        <r>  0.0001  0.0005  0.0007  0.0533  0.0000  0.0000  0.0000  0.0000  0.0000 </r>
        <r>  0.0000  0.0010  0.0023  0.0385  0.0000  0.0000  0.0000  0.0000  0.0000 </r>
        <r>  0.0001  0.0001  0.0003  0.0108  0.0000  0.0000  0.0000  0.0000  0.0000 </r>
        <r>  0.0001  0.0319  0.0448  0.0008  0.0000  0.0000  0.0000  0.0000  0.0000 </r>
        <r>  0.0068  0.0131  0.0000  0.0001  0.0000  0.0000  0.0000  0.0000  0.0000 </r>
        <r>  0.0042  0.0001  0.0104  0.0002  0.0000  0.0000  0.0000  0.0000  0.0000 </r>
        <r>  0.0002  0.0480  0.0288  0.0010  0.0000  0.0000  0.0000  0.0000  0.0000 </r>
       </set>
       <set comment="band 42">
        <r>  0.0000  0.0001  0.0001  0.0004  0.0013  0.0042  0.0001  0.0003  0.0001 </r>
        <r>  0.0341  0.0000  0.0001  0.0009  0.0002  0.0044  0.0000  0.0009  0.0000 </r>
        <r>  0.0095  0.0000  0.0004  0.0002  0.0024  0.0046  0.0001  0.0000  0.0001 </r>
        <r>  0.0551  0.0006  0.0000  0.0002  0.0000  0.0018  0.0001  0.0001  0.0000 </r>
        <r>  0.0748  0.0010  0.0003  0.0005  0.0007  0.0056  0.0001  0.0000  0.0000 </r>
        <r>  0.0044  0.0000  0.0000  0.0000  0.0016  0.0038  0.0002  0.0000  0.0000 </r>
        <r>  0.0264  0.0000  0.0002  0.0000  0.0003  0.0027  0.0000  0.0009  0.0001 </r>
        <r>  0.0002  0.0000  0.0002  0.0008  0.0013  0.0060  0.0001  0.0002  0.0001 </r>
        <r>  0.0000  0.0602  0.0009  0.0067  0.0000  0.0000  0.0000  0.0000  0.0000 </r>
        <r>  0.0000  0.0011  0.0598  0.0286  0.0000  0.0000  0.0000  0.0000  0.0000 </r>
        <r>  0.0093  0.0002  0.0009  0.0000  0.0000  0.0000  0.0000  0.0000  0.0000 </r>
        <r>  0.0000  0.0335  0.0088  0.0009  0.0000  0.0000  0.0000  0.0000  0.0000 </r>
        <r>  0.0010  0.0005  0.0001  0.0000  0.0000  0.0000  0.0000  0.0000  0.0000 </r>
        <r>  0.0043  0.0000  0.0010  0.0000  0.0000  0.0000  0.0000  0.0000  0.0000 </r>
        <r>  0.0000  0.0080  0.0268  0.0572  0.0000  0.0000  0.0000  0.0000  0.0000 </r>
       </set>
       <set comment="band 43">
        <r>  0.0171  0.0045  0.0027  0.0029  0.0056  0.0035  0.0000  0.0010  0.0000 </r>
        <r>  0.0038  0.0001  0.0014  0.0001  0.0056  0.0002  0.0000  0.0013  0.0000 </r>
        <r>  0.0045  0.0008  0.0001  0.0005  0.0001  0.0001  0.0000  0.0148  0.0000 </r>
        <r>  0.0019  0.0001  0.0000  0.0009  0.0010  0.0114  0.0000  0.0002  0.0000 </r>
        <r>  0.0002  0.0001  0.0000  0.0013  0.0004  0.0081  0.0000  0.0009  0.0000 </r>
        <r>  0.0119  0.0010  0.0001  0.0001  0.0005  0.0000  0.0000  0.0067  0.0000 </r>
        <r>  0.0032  0.0001  0.0011  0.0000  0.0132  0.0005  0.0000  0.0003  0.0000 </r>
        <r>  0.0134  0.0037  0.0043  0.0029  0.0010  0.0013  0.0000  0.0072  0.0000 </r>
        <r>  0.0001  0.0007  0.0001  0.0091  0.0000  0.0000  0.0000  0.0000  0.0000 </r>
        <r>  0.0002  0.0002  0.0017  0.0060  0.0000  0.0000  0.0000  0.0000  0.0000 </r>
        <r>  0.0000  0.0006  0.0006  0.0612  0.0000  0.0000  0.0000  0.0000  0.0000 </r>
        <r>  0.0000  0.0037  0.0087  0.0000  0.0000  0.0000  0.0000  0.0000  0.0000 </r>
        <r>  0.0007  0.0704  0.0005  0.0003  0.0000  0.0000  0.0000  0.0000  0.0000 </r>
        <r>  0.0003  0.0007  0.0651  0.0006  0.0000  0.0000  0.0000  0.0000  0.0000 </r>
        <r>  0.0022  0.0085  0.0037  0.0010  0.0000  0.0000  0.0000  0.0000  0.0000 </r>
       </set>
       <set comment="band 44">
        <r>  0.0383  0.0001  0.0002  0.0003  0.0042  0.0050  0.0000  0.0049  0.0000 </r>
        <r>  0.0001  0.0076  0.0001  0.0007  0.0050  0.0013  0.0001  0.0023  0.0000 </r>
        <r>  0.0024  0.0005  0.0026  0.0006  0.0031  0.0021  0.0002  0.0036  0.0000 </r>
        <r>  0.0044  0.0051  0.0027  0.0002  0.0019  0.0042  0.0001  0.0023  0.0001 </r>
        <r>  0.0002  0.0093  0.0057  0.0023  0.0015  0.0023  0.0000  0.0016  0.0001 </r>
        <r>  0.0095  0.0000  0.0026  0.0029  0.0036  0.0021  0.0000  0.0056  0.0000 </r>
        <r>  0.0005  0.0038  0.0004  0.0049  0.0043  0.0018  0.0000  0.0024  0.0000 </r>
        <r>  0.0449  0.0001  0.0002  0.0022  0.0051  0.0044  0.0000  0.0041  0.0000 </r>
        <r>  0.0000  0.0124  0.0294  0.0144  0.0000  0.0000  0.0000  0.0000  0.0000 </r>
        <r>  0.0001  0.0212  0.0065  0.0067  0.0000  0.0000  0.0000  0.0000  0.0000 </r>
        <r>  0.0003  0.0006  0.0006  0.0006  0.0000  0.0000  0.0000  0.0000  0.0000 </r>
        <r>  0.0000  0.0173  0.0187  0.0397  0.0000  0.0000  0.0000  0.0000  0.0000 </r>
        <r>  0.0000  0.0006  0.0004  0.0005  0.0000  0.0000  0.0000  0.0000  0.0000 </r>
        <r>  0.0002  0.0000  0.0000  0.0000  0.0000  0.0000  0.0000  0.0000  0.0000 </r>
        <r>  0.0000  0.0006  0.0002  0.0003  0.0000  0.0000  0.0000  0.0000  0.0000 </r>
       </set>
      </set>
     </set>
    </set>
   </array>
  </projected>
 </calculation>
 <structure name="finalpos" >
  <crystal>
   <varray name="basis" >
    <v>       0.00000000       4.24689300       4.24689300 </v>
    <v>       4.24689300       0.00000000       4.24689300 </v>
    <v>       4.24689300       4.24689300       0.00000000 </v>
   </varray>
   <i name="volume">    153.19477498 </i>
   <varray name="rec_basis" >
    <v>      -0.11773313       0.11773313       0.11773313 </v>
    <v>       0.11773313      -0.11773313       0.11773313 </v>
    <v>       0.11773313       0.11773313      -0.11773313 </v>
   </varray>
  </crystal>
  <varray name="positions" >
   <v>       0.00000000       0.00000000       0.00000000 </v>
   <v>       0.99124200       0.00683100       0.51372500 </v>
   <v>       0.99069300       0.48123200       0.01841300 </v>
   <v>       0.00643800       0.48509400       0.51309900 </v>
   <v>       0.49935100       0.00811500       0.02132300 </v>
   <v>       0.50151100       0.00001900       0.49689000 </v>
   <v>       0.50134800       0.49855300       0.99908400 </v>
   <v>       0.50000000       0.50000000       0.50000000 </v>
   <v>       0.25000000       0.25000000       0.75000000 </v>
   <v>       0.25000000       0.75000000       0.25000000 </v>
   <v>       0.25000000       0.75000000       0.75000000 </v>
   <v>       0.75000000       0.25000000       0.25000000 </v>
   <v>       0.75000000       0.25000000       0.75000000 </v>
   <v>       0.75000000       0.75000000       0.25000000 </v>
   <v>       0.75000000       0.75000000       0.75000000 </v>
  </varray>
 </structure>
</modeling>
