unknown system                          
           1
     0.000000    4.246893    4.246893
     4.246893    0.000000    4.246893
     4.246893    4.246893    0.000000
   Mg   O 
   8   7
Direct configuration=     1
   0.00000000  0.00000000  0.00000000
   0.99124200  0.00683100  0.51372500
   0.99069300  0.48123200  0.01841300
   0.00643800  0.48509400  0.51309900
   0.49935100  0.00811500  0.02132300
   0.50151100  0.00001900  0.49689000
   0.50134800  0.49855300  0.99908400
   0.50000000  0.50000000  0.50000000
   0.25000000  0.25000000  0.75000000
   0.25000000  0.75000000  0.25000000
   0.25000000  0.75000000  0.75000000
   0.75000000  0.25000000  0.25000000
   0.75000000  0.25000000  0.75000000
   0.75000000  0.75000000  0.25000000
   0.75000000  0.75000000  0.75000000
