   2   2   0   0
  0.9574674E+01  0.3003007E-09  0.3003007E-09  0.3003007E-09  0.5000000E-15
  1.000000000000000E-004
  CAR 
 unknown system                          
     23.40533246    -15.91851661  301      3.23547487      1.00000000
    -15.919  0.0000E+00  0.0000E+00
    -15.787  0.0000E+00  0.0000E+00
    -15.656  0.0000E+00  0.0000E+00
    -15.525  0.0000E+00  0.0000E+00
    -15.394  0.0000E+00  0.0000E+00
    -15.263  0.0000E+00  0.0000E+00
    -15.132  0.0000E+00  0.0000E+00
    -15.001  0.0000E+00  0.0000E+00
    -14.870  0.0000E+00  0.0000E+00
    -14.739  0.0000E+00  0.0000E+00
    -14.608  0.0000E+00  0.0000E+00
    -14.477  0.0000E+00  0.0000E+00
    -14.346  0.4609E-10  0.6041E-11
    -14.214  0.6467E-03  0.8476E-04
    -14.083  0.6372E-01  0.8437E-02
    -13.952  0.9610E-02  0.9697E-02
    -13.821  0.5455E+00  0.8121E-01
    -13.690  0.4376E+00  0.1386E+00
    -13.559  0.1787E-01  0.1409E+00
    -13.428  0.7874E+00  0.2441E+00
    -13.297  0.1022E+01  0.3780E+00
    -13.166  0.1281E+01  0.5459E+00
    -13.035  0.3018E+00  0.5855E+00
    -12.904  0.2940E+01  0.9709E+00
    -12.773  0.2798E+01  0.1338E+01
    -12.642  0.4255E+01  0.1895E+01
    -12.510  0.7981E+00  0.2000E+01
    -12.379  0.4185E-03  0.2000E+01
    -12.248  0.1065E-11  0.2000E+01
    -12.117  0.0000E+00  0.2000E+01
    -11.986  0.0000E+00  0.2000E+01
    -11.855  0.0000E+00  0.2000E+01
    -11.724  0.0000E+00  0.2000E+01
    -11.593  0.0000E+00  0.2000E+01
    -11.462  0.0000E+00  0.2000E+01
    -11.331  0.0000E+00  0.2000E+01
    -11.200  0.0000E+00  0.2000E+01
    -11.069  0.0000E+00  0.2000E+01
    -10.937  0.0000E+00  0.2000E+01
    -10.806  0.0000E+00  0.2000E+01
    -10.675  0.0000E+00  0.2000E+01
    -10.544  0.0000E+00  0.2000E+01
    -10.413  0.0000E+00  0.2000E+01
    -10.282  0.0000E+00  0.2000E+01
    -10.151  0.0000E+00  0.2000E+01
    -10.020  0.0000E+00  0.2000E+01
     -9.889  0.0000E+00  0.2000E+01
     -9.758  0.0000E+00  0.2000E+01
     -9.627  0.0000E+00  0.2000E+01
     -9.496  0.0000E+00  0.2000E+01
     -9.365  0.0000E+00  0.2000E+01
     -9.233  0.0000E+00  0.2000E+01
     -9.102  0.0000E+00  0.2000E+01
     -8.971  0.0000E+00  0.2000E+01
     -8.840  0.0000E+00  0.2000E+01
     -8.709  0.0000E+00  0.2000E+01
     -8.578  0.0000E+00  0.2000E+01
     -8.447  0.0000E+00  0.2000E+01
     -8.316  0.0000E+00  0.2000E+01
     -8.185  0.0000E+00  0.2000E+01
     -8.054  0.0000E+00  0.2000E+01
     -7.923  0.0000E+00  0.2000E+01
     -7.792  0.0000E+00  0.2000E+01
     -7.661  0.0000E+00  0.2000E+01
     -7.529  0.0000E+00  0.2000E+01
     -7.398  0.0000E+00  0.2000E+01
     -7.267  0.0000E+00  0.2000E+01
     -7.136  0.0000E+00  0.2000E+01
     -7.005  0.0000E+00  0.2000E+01
     -6.874  0.0000E+00  0.2000E+01
     -6.743  0.0000E+00  0.2000E+01
     -6.612  0.0000E+00  0.2000E+01
     -6.481  0.0000E+00  0.2000E+01
     -6.350  0.0000E+00  0.2000E+01
     -6.219  0.0000E+00  0.2000E+01
     -6.088  0.0000E+00  0.2000E+01
     -5.956  0.0000E+00  0.2000E+01
     -5.825  0.0000E+00  0.2000E+01
     -5.694  0.0000E+00  0.2000E+01
     -5.563  0.0000E+00  0.2000E+01
     -5.432  0.0000E+00  0.2000E+01
     -5.301  0.0000E+00  0.2000E+01
     -5.170  0.0000E+00  0.2000E+01
     -5.039  0.0000E+00  0.2000E+01
     -4.908  0.0000E+00  0.2000E+01
     -4.777  0.0000E+00  0.2000E+01
     -4.646  0.0000E+00  0.2000E+01
     -4.515  0.0000E+00  0.2000E+01
     -4.384  0.0000E+00  0.2000E+01
     -4.252  0.0000E+00  0.2000E+01
     -4.121  0.0000E+00  0.2000E+01
     -3.990  0.0000E+00  0.2000E+01
     -3.859  0.0000E+00  0.2000E+01
     -3.728  0.0000E+00  0.2000E+01
     -3.597  0.0000E+00  0.2000E+01
     -3.466  0.0000E+00  0.2000E+01
     -3.335  0.0000E+00  0.2000E+01
     -3.204  0.0000E+00  0.2000E+01
     -3.073  0.0000E+00  0.2000E+01
     -2.942  0.0000E+00  0.2000E+01
     -2.811  0.0000E+00  0.2000E+01
     -2.679  0.0000E+00  0.2000E+01
     -2.548  0.0000E+00  0.2000E+01
     -2.417  0.0000E+00  0.2000E+01
     -2.286  0.0000E+00  0.2000E+01
     -2.155  0.0000E+00  0.2000E+01
     -2.024  0.0000E+00  0.2000E+01
     -1.893  0.0000E+00  0.2000E+01
     -1.762  0.1060E-12  0.2000E+01
     -1.631  0.7564E-04  0.2000E+01
     -1.500  0.1686E+00  0.2022E+01
     -1.369  0.1139E+00  0.2037E+01
     -1.238  0.1284E-04  0.2037E+01
     -1.107  0.2605E+00  0.2071E+01
     -0.975  0.1553E+01  0.2275E+01
     -0.844  0.3170E+00  0.2316E+01
     -0.713  0.1873E+01  0.2562E+01
     -0.582  0.1654E+01  0.2779E+01
     -0.451  0.3315E+01  0.3213E+01
     -0.320  0.1503E+01  0.3410E+01
     -0.189  0.1390E+00  0.3428E+01
     -0.058  0.1048E+01  0.3566E+01
      0.073  0.2204E+01  0.3855E+01
      0.204  0.4946E-01  0.3861E+01
      0.335  0.7077E-02  0.3862E+01
      0.466  0.7607E+00  0.3962E+01
      0.597  0.9042E+00  0.4080E+01
      0.729  0.8747E+00  0.4195E+01
      0.860  0.7286E+00  0.4290E+01
      0.991  0.1155E+00  0.4306E+01
      1.122  0.3445E+00  0.4351E+01
      1.253  0.2919E+01  0.4733E+01
      1.384  0.6880E+00  0.4824E+01
      1.515  0.2259E+01  0.5120E+01
      1.646  0.2272E+01  0.5417E+01
      1.777  0.1585E+01  0.5625E+01
      1.908  0.2330E+01  0.5931E+01
      2.039  0.2681E+01  0.6282E+01
      2.170  0.3119E+01  0.6691E+01
      2.302  0.2676E+01  0.7042E+01
      2.433  0.3036E+01  0.7440E+01
      2.564  0.1127E+01  0.7587E+01
      2.695  0.1321E+01  0.7760E+01
      2.826  0.9412E+00  0.7884E+01
      2.957  0.6919E+00  0.7975E+01
      3.088  0.1920E+00  0.8000E+01
      3.219  0.2045E-02  0.8000E+01
      3.350  0.1562E-09  0.8000E+01
      3.481  0.0000E+00  0.8000E+01
      3.612  0.0000E+00  0.8000E+01
      3.743  0.0000E+00  0.8000E+01
      3.874  0.0000E+00  0.8000E+01
      4.006  0.0000E+00  0.8000E+01
      4.137  0.0000E+00  0.8000E+01
      4.268  0.0000E+00  0.8000E+01
      4.399  0.0000E+00  0.8000E+01
      4.530  0.0000E+00  0.8000E+01
      4.661  0.0000E+00  0.8000E+01
      4.792  0.0000E+00  0.8000E+01
      4.923  0.0000E+00  0.8000E+01
      5.054  0.0000E+00  0.8000E+01
      5.185  0.0000E+00  0.8000E+01
      5.316  0.0000E+00  0.8000E+01
      5.447  0.0000E+00  0.8000E+01
      5.579  0.0000E+00  0.8000E+01
      5.710  0.0000E+00  0.8000E+01
      5.841  0.0000E+00  0.8000E+01
      5.972  0.0000E+00  0.8000E+01
      6.103  0.0000E+00  0.8000E+01
      6.234  0.0000E+00  0.8000E+01
      6.365  0.0000E+00  0.8000E+01
      6.496  0.0000E+00  0.8000E+01
      6.627  0.0000E+00  0.8000E+01
      6.758  0.0000E+00  0.8000E+01
      6.889  0.0000E+00  0.8000E+01
      7.020  0.0000E+00  0.8000E+01
      7.151  0.0000E+00  0.8000E+01
      7.283  0.6038E-10  0.8000E+01
      7.414  0.7266E-03  0.8000E+01
      7.545  0.6412E-01  0.8008E+01
      7.676  0.5792E-02  0.8009E+01
      7.807  0.1205E-07  0.8009E+01
      7.938  0.0000E+00  0.8009E+01
      8.069  0.0000E+00  0.8009E+01
      8.200  0.0000E+00  0.8009E+01
      8.331  0.0000E+00  0.8009E+01
      8.462  0.0000E+00  0.8009E+01
      8.593  0.0000E+00  0.8009E+01
      8.724  0.6949E-08  0.8009E+01
      8.856  0.1743E-01  0.8012E+01
      8.987  0.5291E+00  0.8081E+01
      9.118  0.1863E-01  0.8083E+01
      9.249  0.5001E-05  0.8083E+01
      9.380  0.1277E+00  0.8100E+01
      9.511  0.2958E+00  0.8139E+01
      9.642  0.3049E-03  0.8139E+01
      9.773  0.1147E-11  0.8139E+01
      9.904  0.0000E+00  0.8139E+01
     10.035  0.0000E+00  0.8139E+01
     10.166  0.2353E-15  0.8139E+01
     10.297  0.4888E-05  0.8139E+01
     10.428  0.2547E+00  0.8172E+01
     10.560  0.1151E+01  0.8323E+01
     10.691  0.2220E-01  0.8326E+01
     10.822  0.2624E+00  0.8360E+01
     10.953  0.5997E-02  0.8361E+01
     11.084  0.1128E+01  0.8509E+01
     11.215  0.5666E+00  0.8583E+01
     11.346  0.3000E-04  0.8583E+01
     11.477  0.0000E+00  0.8583E+01
     11.608  0.3014E-06  0.8583E+01
     11.739  0.1529E+00  0.8603E+01
     11.870  0.3043E+01  0.9002E+01
     12.001  0.2808E+00  0.9039E+01
     12.132  0.5144E+00  0.9106E+01
     12.264  0.3558E-01  0.9111E+01
     12.395  0.2944E-06  0.9111E+01
     12.526  0.2951E-04  0.9111E+01
     12.657  0.5816E+00  0.9187E+01
     12.788  0.2600E+01  0.9528E+01
     12.919  0.4273E+00  0.9584E+01
     13.050  0.3916E+00  0.9635E+01
     13.181  0.6961E+00  0.9727E+01
     13.312  0.1888E+00  0.9751E+01
     13.443  0.1771E+01  0.9984E+01
     13.574  0.1562E+01  0.1019E+02
     13.705  0.8935E+00  0.1031E+02
     13.837  0.3631E-03  0.1031E+02
     13.968  0.7974E+00  0.1041E+02
     14.099  0.1026E+01  0.1054E+02
     14.230  0.7165E+00  0.1064E+02
     14.361  0.4058E-01  0.1064E+02
     14.492  0.1582E+01  0.1085E+02
     14.623  0.7659E-01  0.1086E+02
     14.754  0.8801E+00  0.1098E+02
     14.885  0.1198E+01  0.1113E+02
     15.016  0.3251E+01  0.1156E+02
     15.147  0.1793E+01  0.1179E+02
     15.278  0.1535E+01  0.1200E+02
     15.409  0.7513E+00  0.1209E+02
     15.541  0.1583E+01  0.1230E+02
     15.672  0.5607E+00  0.1238E+02
     15.803  0.1591E+01  0.1258E+02
     15.934  0.2058E+00  0.1261E+02
     16.065  0.2165E-02  0.1261E+02
     16.196  0.4363E-02  0.1261E+02
     16.327  0.1552E+01  0.1282E+02
     16.458  0.7032E+00  0.1291E+02
     16.589  0.8438E-01  0.1292E+02
     16.720  0.3390E+00  0.1296E+02
     16.851  0.9240E-03  0.1296E+02
     16.982  0.5334E+00  0.1303E+02
     17.114  0.1167E+01  0.1319E+02
     17.245  0.1423E+01  0.1337E+02
     17.376  0.2671E+00  0.1341E+02
     17.507  0.2078E-05  0.1341E+02
     17.638  0.0000E+00  0.1341E+02
     17.769  0.2155E-13  0.1341E+02
     17.900  0.7754E-04  0.1341E+02
     18.031  0.7101E+00  0.1350E+02
     18.162  0.9847E+00  0.1363E+02
     18.293  0.3902E-03  0.1363E+02
     18.424  0.3303E-01  0.1363E+02
     18.555  0.7928E+00  0.1374E+02
     18.686  0.1674E+00  0.1376E+02
     18.818  0.6638E-01  0.1377E+02
     18.949  0.2903E-03  0.1377E+02
     19.080  0.3829E+00  0.1382E+02
     19.211  0.2694E+01  0.1417E+02
     19.342  0.1634E+01  0.1439E+02
     19.473  0.1036E+01  0.1452E+02
     19.604  0.4703E+00  0.1458E+02
     19.735  0.1235E+01  0.1475E+02
     19.866  0.2520E+01  0.1508E+02
     19.997  0.2903E+01  0.1546E+02
     20.128  0.1215E+00  0.1547E+02
     20.259  0.2015E-06  0.1547E+02
     20.391  0.2757E-01  0.1548E+02
     20.522  0.1424E+01  0.1566E+02
     20.653  0.2434E+00  0.1569E+02
     20.784  0.2425E-04  0.1569E+02
     20.915  0.2128E+00  0.1572E+02
     21.046  0.1828E+01  0.1596E+02
     21.177  0.7848E-01  0.1597E+02
     21.308  0.5972E-07  0.1597E+02
     21.439  0.4544E-07  0.1597E+02
     21.570  0.1882E-01  0.1597E+02
     21.701  0.1912E+00  0.1600E+02
     21.832  0.1940E-02  0.1600E+02
     21.963  0.1383E-09  0.1600E+02
     22.095  0.0000E+00  0.1600E+02
     22.226  0.0000E+00  0.1600E+02
     22.357  0.0000E+00  0.1600E+02
     22.488  0.0000E+00  0.1600E+02
     22.619  0.0000E+00  0.1600E+02
     22.750  0.0000E+00  0.1600E+02
     22.881  0.0000E+00  0.1600E+02
     23.012  0.0000E+00  0.1600E+02
     23.143  0.0000E+00  0.1600E+02
     23.274  0.0000E+00  0.1600E+02
     23.405  0.0000E+00  0.1600E+02
