<?xml version="1.0" encoding="ISO-8859-1"?>
<modeling>
 <generator>
  <i name="program" type="string">vasp </i>
  <i name="version" type="string">5.4.1  </i>
  <i name="subversion" type="string">05Feb16 (build Mar 31 2016 13:39:20) complex                          parallel </i>
  <i name="platform" type="string">IFC91_ompi </i>
  <i name="date" type="string">2016 08 31 </i>
  <i name="time" type="string">16:02:23 </i>
 </generator>
 <incar>
  <i type="string" name="PREC">n</i>
  <i type="string" name="ALGO"> N</i>
  <i type="int" name="NELM">   100</i>
  <i type="int" name="NELMIN">     4</i>
  <i type="int" name="IBRION">     2</i>
  <i name="EDIFF">      0.00000100</i>
  <i name="EDIFFG">     -0.05000000</i>
  <i type="int" name="NSW">     1</i>
  <i type="int" name="ISIF">     0</i>
  <i name="ENCUT">    420.00000000</i>
  <i type="string" name="LREAL"> A</i>
  <i type="int" name="ISMEAR">     0</i>
  <i name="SIGMA">      0.05000000</i>
  <i type="logical" name="LWAVE"> F  </i>
  <i type="logical" name="LCHARG"> F  </i>
  <i type="logical" name="LASPH"> T  </i>
  <v type="int" name="KPOINT_BSE">    -1     0     0     0</v>
  <i type="int" name="NELM">   100</i>
  <i type="logical" name="LASPH"> T  </i>
 </incar>
 <kpoints>
  <generation param="Gamma">
   <v type="int" name="divisions">       6        6        6 </v>
   <v name="usershift">      0.00000000       0.00000000       0.00000000 </v>
   <v name="genvec1">      0.16666667       0.00000000       0.00000000 </v>
   <v name="genvec2">      0.00000000       0.16666667       0.00000000 </v>
   <v name="genvec3">      0.00000000       0.00000000       0.16666667 </v>
   <v name="shift">      0.00000000       0.00000000       0.00000000 </v>
  </generation>
  <varray name="kpointlist" >
   <v>       0.00000000       0.00000000       0.00000000 </v>
   <v>       0.16666667       0.00000000       0.00000000 </v>
   <v>       0.33333333       0.00000000       0.00000000 </v>
   <v>       0.50000000       0.00000000       0.00000000 </v>
   <v>       0.16666667       0.16666667       0.00000000 </v>
   <v>       0.33333333       0.16666667       0.00000000 </v>
   <v>       0.50000000       0.16666667       0.00000000 </v>
   <v>      -0.33333333       0.16666667       0.00000000 </v>
   <v>      -0.16666667       0.16666667       0.00000000 </v>
   <v>       0.33333333       0.33333333       0.00000000 </v>
   <v>       0.50000000       0.33333333       0.00000000 </v>
   <v>      -0.33333333       0.33333333       0.00000000 </v>
   <v>       0.50000000       0.50000000       0.00000000 </v>
   <v>       0.50000000       0.33333333       0.16666667 </v>
   <v>      -0.33333333       0.33333333       0.16666667 </v>
   <v>      -0.33333333       0.50000000       0.16666667 </v>
  </varray>
  <varray name="weights" >
   <v>       0.00462963 </v>
   <v>       0.03703704 </v>
   <v>       0.03703704 </v>
   <v>       0.01851852 </v>
   <v>       0.02777778 </v>
   <v>       0.11111111 </v>
   <v>       0.11111111 </v>
   <v>       0.11111111 </v>
   <v>       0.05555556 </v>
   <v>       0.02777778 </v>
   <v>       0.11111111 </v>
   <v>       0.05555556 </v>
   <v>       0.01388889 </v>
   <v>       0.11111111 </v>
   <v>       0.11111111 </v>
   <v>       0.05555556 </v>
  </varray>
 </kpoints>
 <parameters>
  <separator name="general" >
   <i type="string" name="SYSTEM">unknown system</i>
   <i type="logical" name="LCOMPAT"> F  </i>
  </separator>
  <separator name="electronic" >
   <i type="string" name="PREC">n</i>
   <i name="ENMAX">    420.00000000</i>
   <i name="ENAUG">    605.39200000</i>
   <i name="EDIFF">      0.00000100</i>
   <i type="int" name="IALGO">    38</i>
   <i type="int" name="IWAVPR">    11</i>
   <i type="int" name="NBANDS">     8</i>
   <i name="NELECT">      8.00000000</i>
   <i type="int" name="TURBO">     0</i>
   <i type="int" name="IRESTART">     0</i>
   <i type="int" name="NREBOOT">     0</i>
   <i type="int" name="NMIN">     0</i>
   <i name="EREF">      0.00000000</i>
   <separator name="electronic smearing" >
    <i type="int" name="ISMEAR">     0</i>
    <i name="SIGMA">      0.05000000</i>
    <i name="KSPACING">      0.50000000</i>
    <i type="logical" name="KGAMMA"> T  </i>
   </separator>
   <separator name="electronic projectors" >
    <i type="logical" name="LREAL"> T  </i>
    <v name="ROPT">     -0.00050000     -0.00050000</v>
    <i type="int" name="LMAXPAW">  -100</i>
    <i type="int" name="LMAXMIX">     2</i>
    <i type="logical" name="NLSPLINE"> F  </i>
   </separator>
   <separator name="electronic startup" >
    <i type="int" name="ISTART">     0</i>
    <i type="int" name="ICHARG">     2</i>
    <i type="int" name="INIWAV">     1</i>
   </separator>
   <separator name="electronic spin" >
    <i type="int" name="ISPIN">     1</i>
    <i type="logical" name="LNONCOLLINEAR"> F  </i>
    <v name="MAGMOM">      1.00000000      1.00000000</v>
    <i name="NUPDOWN">     -1.00000000</i>
    <i type="logical" name="LSORBIT"> F  </i>
    <v name="SAXIS">      0.00000000      0.00000000      1.00000000</v>
    <i type="logical" name="LSPIRAL"> F  </i>
    <v name="QSPIRAL">      0.00000000      0.00000000      0.00000000</v>
    <i type="logical" name="LZEROZ"> F  </i>
   </separator>
   <separator name="electronic exchange-correlation" >
    <i type="logical" name="LASPH"> T  </i>
    <i type="logical" name="LMETAGGA"> F  </i>
   </separator>
   <separator name="electronic convergence" >
    <i type="int" name="NELM">   100</i>
    <i type="int" name="NELMDL">    -5</i>
    <i type="int" name="NELMIN">     4</i>
    <i name="ENINI">    420.00000000</i>
    <separator name="electronic convergence detail" >
     <i type="logical" name="LDIAG"> T  </i>
     <i type="logical" name="LSUBROT"> F  </i>
     <i name="WEIMIN">      0.00100000</i>
     <i name="EBREAK">      0.00000003</i>
     <i name="DEPER">      0.30000000</i>
     <i type="int" name="NRMM">     4</i>
     <i name="TIME">      0.40000000</i>
    </separator>
   </separator>
   <separator name="electronic mixer" >
    <i name="AMIX">      0.40000000</i>
    <i name="BMIX">      1.00000000</i>
    <i name="AMIN">      0.10000000</i>
    <i name="AMIX_MAG">      1.60000000</i>
    <i name="BMIX_MAG">      1.00000000</i>
    <separator name="electronic mixer details" >
     <i type="int" name="IMIX">     4</i>
     <i type="logical" name="MIXFIRST"> F  </i>
     <i type="int" name="MAXMIX">   -45</i>
     <i name="WC">    100.00000000</i>
     <i type="int" name="INIMIX">     1</i>
     <i type="int" name="MIXPRE">     1</i>
     <i type="int" name="MREMOVE">     5</i>
    </separator>
   </separator>
   <separator name="electronic dipolcorrection" >
    <i type="logical" name="LDIPOL"> F  </i>
    <i type="logical" name="LMONO"> F  </i>
    <i type="int" name="IDIPOL">     0</i>
    <i name="EPSILON">      1.00000000</i>
    <v name="DIPOL">   -100.00000000   -100.00000000   -100.00000000</v>
    <i name="EFIELD">      0.00000000</i>
   </separator>
  </separator>
  <separator name="grids" >
   <i type="int" name="NGX">    16</i>
   <i type="int" name="NGY">    16</i>
   <i type="int" name="NGZ">    16</i>
   <i type="int" name="NGXF">    32</i>
   <i type="int" name="NGYF">    32</i>
   <i type="int" name="NGZF">    32</i>
   <i type="logical" name="ADDGRID"> F  </i>
  </separator>
  <separator name="ionic" >
   <i type="int" name="NSW">     1</i>
   <i type="int" name="IBRION">     2</i>
   <i type="int" name="ISIF">     0</i>
   <i name="PSTRESS">      0.00000000</i>
   <i name="EDIFFG">     -0.05000000</i>
   <i type="int" name="NFREE">     1</i>
   <i name="POTIM">      0.50000000</i>
   <i name="SMASS">     -3.00000000</i>
   <i name="SCALEE">      1.00000000</i>
  </separator>
  <separator name="ionic md" >
   <i name="TEBEG">      0.00010000</i>
   <i name="TEEND">      0.00010000</i>
   <i type="int" name="NBLOCK">     1</i>
   <i type="int" name="KBLOCK">     1</i>
   <i type="int" name="NPACO">   256</i>
   <i name="APACO">     16.00000000</i>
  </separator>
  <separator name="symmetry" >
   <i type="int" name="ISYM">     2</i>
   <i name="SYMPREC">      0.00001000</i>
  </separator>
  <separator name="dos" >
   <i type="logical" name="LORBIT"> F  </i>
   <v name="RWIGS">     -1.00000000     -1.00000000</v>
   <i type="int" name="NEDOS">   301</i>
   <i name="EMIN">     10.00000000</i>
   <i name="EMAX">    -10.00000000</i>
   <i name="EFERMI">      0.00000000</i>
  </separator>
  <separator name="writing" >
   <i type="int" name="NWRITE">     2</i>
   <i type="logical" name="LWAVE"> F  </i>
   <i type="logical" name="LCHARG"> F  </i>
   <i type="logical" name="LPARD"> F  </i>
   <i type="logical" name="LVTOT"> F  </i>
   <i type="logical" name="LVHAR"> F  </i>
   <i type="logical" name="LELF"> F  </i>
   <i type="logical" name="LOPTICS"> F  </i>
   <v name="STM">      0.00000000      0.00000000      0.00000000      0.00000000      0.00000000      0.00000000      0.00000000</v>
  </separator>
  <separator name="performance" >
   <i type="int" name="NPAR">     4</i>
   <i type="int" name="NSIM">     4</i>
   <i type="int" name="NBLK">    -1</i>
   <i type="logical" name="LPLANE"> T  </i>
   <i type="logical" name="LSCALAPACK"> T  </i>
   <i type="logical" name="LSCAAWARE"> F  </i>
   <i type="logical" name="LSCALU"> F  </i>
   <i type="logical" name="LASYNC"> F  </i>
   <i type="logical" name="LORBITALREAL"> F  </i>
  </separator>
  <separator name="miscellaneous" >
   <i type="int" name="IDIOT">     3</i>
   <i type="logical" name="LMUSIC"> F  </i>
   <v name="POMASS">     24.30500000     16.00000000</v>
   <v name="DARWINR">      0.00000000      0.00000000</v>
   <v name="DARWINV">      1.00000000      1.00000000</v>
   <i type="logical" name="LCORR"> T  </i>
  </separator>
  <i type="logical" name="GGA_COMPAT"> T  </i>
  <i type="logical" name="LBERRY"> F  </i>
  <i type="int" name="ICORELEVEL">     0</i>
  <i type="logical" name="LDAU"> F  </i>
  <i type="int" name="I_CONSTRAINED_M">     0</i>
  <separator name="electronic exchange-correlation" >
   <i type="string" name="GGA">--</i>
   <i type="int" name="VOSKOWN">     0</i>
   <i type="logical" name="LHFCALC"> F  </i>
   <i type="string" name="PRECFOCK"></i>
   <i type="logical" name="LSYMGRAD"> F  </i>
   <i type="logical" name="LHFONE"> F  </i>
   <i type="logical" name="LRHFCALC"> F  </i>
   <i type="logical" name="LTHOMAS"> F  </i>
   <i type="logical" name="LMODELHF"> F  </i>
   <i name="ENCUT4O">     -1.00000000</i>
   <i type="int" name="EXXOEP">     0</i>
   <i type="int" name="FOURORBIT">     0</i>
   <i name="AEXX">      0.00000000</i>
   <i name="HFALPHA">      0.00000000</i>
   <i name="MCALPHA">      0.00000000</i>
   <i name="ALDAX">      1.00000000</i>
   <i name="AGGAX">      1.00000000</i>
   <i name="ALDAC">      1.00000000</i>
   <i name="AGGAC">      1.00000000</i>
   <i type="int" name="NKREDX">     1</i>
   <i type="int" name="NKREDY">     1</i>
   <i type="int" name="NKREDZ">     1</i>
   <i type="logical" name="SHIFTRED"> F  </i>
   <i type="logical" name="ODDONLY"> F  </i>
   <i type="logical" name="EVENONLY"> F  </i>
   <i type="int" name="LMAXFOCK">     0</i>
   <i type="int" name="NMAXFOCKAE">     0</i>
   <i type="logical" name="LFOCKAEDFT"> F  </i>
   <i name="HFSCREEN">      0.00000000</i>
   <i name="HFSCREENC">      0.00000000</i>
   <i type="int" name="NBANDSGWLOW">     0</i>
  </separator>
  <separator name="vdW DFT" >
   <i type="logical" name="LUSE_VDW"> F  </i>
   <i name="Zab_VDW">     -0.84910000</i>
   <i name="PARAM1">      0.12340000</i>
   <i name="PARAM2">      1.00000000</i>
   <i name="PARAM3">      0.00000000</i>
  </separator>
  <separator name="model GW" >
   <i type="int" name="MODEL_GW">     0</i>
   <i name="MODEL_EPS0">      5.74480414</i>
   <i name="MODEL_ALPHA">      1.00000000</i>
  </separator>
  <separator name="linear response parameters" >
   <i type="logical" name="LEPSILON"> F  </i>
   <i type="logical" name="LRPA"> F  </i>
   <i type="logical" name="LNABLA"> F  </i>
   <i type="logical" name="LVEL"> F  </i>
   <i type="int" name="KINTER">     0</i>
   <i name="CSHIFT">      0.10000000</i>
   <i name="OMEGAMAX">     -1.00000000</i>
   <i name="DEG_THRESHOLD">      0.00200000</i>
  </separator>
  <separator name="orbital magnetization" >
   <i type="logical" name="NUCIND"> F  </i>
   <v name="MAGPOS">      0.00000000      0.00000000      0.00000000</v>
   <i type="logical" name="LNICSALL"> T  </i>
   <i type="logical" name="ORBITALMAG"> F  </i>
   <i type="logical" name="LMAGBLOCH"> F  </i>
   <i type="logical" name="LCHIMAG"> F  </i>
   <i type="logical" name="LGAUGE"> T  </i>
   <i type="int" name="MAGATOM">     0</i>
   <v name="MAGDIPOL">      0.00000000      0.00000000      0.00000000</v>
   <v name="AVECCONST">      0.00000000      0.00000000      0.00000000</v>
  </separator>
  <separator name="response functions" >
   <i type="logical" name="LADDER"> F  </i>
   <i type="logical" name="LFXC"> F  </i>
   <i type="logical" name="LHARTREE"> T  </i>
   <i type="int" name="IBSE">     0</i>
   <v type="int" name="KPOINT">    -1     0     0     0</v>
   <i type="logical" name="LTCTE"> F  </i>
   <i type="logical" name="LTETE"> F  </i>
   <i type="logical" name="LTRIPLET"> F  </i>
   <i type="logical" name="LFXCEPS"> F  </i>
   <i type="logical" name="LFXHEG"> F  </i>
   <i type="int" name="NATURALO">     0</i>
   <i type="logical" name="L2ORDER"> F  </i>
   <i type="logical" name="LUSEW"> F  </i>
   <i name="ENCUTGW">     -2.00000000</i>
   <i name="ENCUTGWSOFT">     -2.00000000</i>
   <i name="ENCUTLF">     -1.00000000</i>
   <i type="int" name="LMAXMP2">    -1</i>
   <i name="SCISSOR">      0.00000000</i>
   <i type="int" name="NOMEGA">     0</i>
   <i type="int" name="NOMEGAR">     0</i>
   <i type="int" name="NBANDSGW">    -1</i>
   <i type="int" name="NBANDSO">    -1</i>
   <i type="int" name="NBANDSV">    -1</i>
   <i type="int" name="NELM">   100</i>
   <i type="int" name="NELMHF">     1</i>
   <i type="int" name="DIM">     3</i>
   <i type="int" name="ANTIRES">     0</i>
   <i name="OMEGAMAX">    -30.00000000</i>
   <i name="OMEGAMIN">    -30.00000000</i>
   <i name="OMEGATL">   -200.00000000</i>
   <i type="int" name="OMEGAGRID">     0</i>
   <i name="CSHIFT">     -0.10000000</i>
   <i type="logical" name="SELFENERGY"> F  </i>
   <i type="logical" name="LSPECTRAL"> F  </i>
   <i type="logical" name="LSPECTRALGW"> F  </i>
   <i type="logical" name="LSINGLES"> F  </i>
   <i type="logical" name="LFERMIGW"> F  </i>
   <i type="logical" name="ODDONLYGW"> F  </i>
   <i type="logical" name="EVENONLYGW"> F  </i>
   <i type="int" name="NKREDLFX">     1</i>
   <i type="int" name="NKREDLFY">     1</i>
   <i type="int" name="NKREDLFZ">     1</i>
   <i type="int" name="MAXMEM">  1800</i>
   <i type="int" name="TELESCOPE">     0</i>
   <i type="int" name="TAUPAR">     1</i>
   <i type="int" name="OMEGAPAR">    -1</i>
   <i name="LAMBDA">      1.00000000</i>
  </separator>
  <separator name="External order field" >
   <i name="OFIELD_KAPPA">      0.00000000</i>
   <v name="OFIELD_K">      0.00000000      0.00000000      0.00000000</v>
   <i name="OFIELD_Q6_NEAR">      0.00000000</i>
   <i name="OFIELD_Q6_FAR">      0.00000000</i>
   <i name="OFIELD_A">      0.00000000</i>
  </separator>
 </parameters>
 <atominfo>
  <atoms>       2 </atoms>
  <types>       2 </types>
  <array name="atoms" >
   <dimension dim="1">ion</dimension>
   <field type="string">element</field>
   <field type="int">atomtype</field>
   <set>
    <rc><c>Mg</c><c>   1</c></rc>
    <rc><c>O </c><c>   2</c></rc>
   </set>
  </array>
  <array name="atomtypes" >
   <dimension dim="1">type</dimension>
   <field type="int">atomspertype</field>
   <field type="string">element</field>
   <field>mass</field>
   <field>valence</field>
   <field type="string">pseudopotential</field>
   <set>
    <rc><c>   1</c><c>Mg</c><c>     24.30500000</c><c>      2.00000000</c><c>  PAW_PBE Mg 13Apr2007                  </c></rc>
    <rc><c>   1</c><c>O </c><c>     16.00000000</c><c>      6.00000000</c><c>  PAW_PBE O 08Apr2002                   </c></rc>
   </set>
  </array>
 </atominfo>
 <structure name="initialpos" >
  <crystal>
   <varray name="basis" >
    <v>       0.00000000       2.12344651       2.12344651 </v>
    <v>       2.12344651       0.00000000       2.12344651 </v>
    <v>       2.12344651       2.12344651       0.00000000 </v>
   </varray>
   <i name="volume">     19.14934714 </i>
   <varray name="rec_basis" >
    <v>      -0.23546626       0.23546626       0.23546626 </v>
    <v>       0.23546626      -0.23546626       0.23546626 </v>
    <v>       0.23546626       0.23546626      -0.23546626 </v>
   </varray>
  </crystal>
  <varray name="positions" >
   <v>       0.00000000       0.00000000       0.00000000 </v>
   <v>       0.50000000       0.50000000       0.50000000 </v>
  </varray>
 </structure>
 <calculation>
  <scstep>
   <time name="dav">    0.02    0.02</time>
   <time name="total">    0.12    0.14</time>
   <energy>
    <i name="alphaZ">     19.07613066 </i>
    <i name="ewald">   -355.25355161 </i>
    <i name="hartreedc">   -122.45499000 </i>
    <i name="XCdc">    -20.50734237 </i>
    <i name="pawpsdc">    411.85617216 </i>
    <i name="pawaedc">   -361.79210629 </i>
    <i name="eentropy">     -0.00311728 </i>
    <i name="bandstr">    -21.97312108 </i>
    <i name="atom">    455.34320881 </i>
    <i name="e_fr_energy">      4.29128300 </i>
    <i name="e_wo_entrp">      4.29440027 </i>
    <i name="e_0_energy">      4.29284163 </i>
   </energy>
  </scstep>
  <scstep>
   <time name="dav">    0.02    0.02</time>
   <time name="total">    0.02    0.05</time>
   <energy>
    <i name="e_fr_energy">    -13.27133103 </i>
    <i name="e_wo_entrp">    -13.27133103 </i>
    <i name="e_0_energy">    -13.27133103 </i>
   </energy>
  </scstep>
  <scstep>
   <time name="dav">    0.02    0.02</time>
   <time name="total">    0.02    0.05</time>
   <energy>
    <i name="e_fr_energy">    -13.46283196 </i>
    <i name="e_wo_entrp">    -13.46283196 </i>
    <i name="e_0_energy">    -13.46283196 </i>
   </energy>
  </scstep>
  <scstep>
   <time name="dav">    0.02    0.02</time>
   <time name="total">    0.02    0.05</time>
   <energy>
    <i name="e_fr_energy">    -13.46306475 </i>
    <i name="e_wo_entrp">    -13.46306475 </i>
    <i name="e_0_energy">    -13.46306475 </i>
   </energy>
  </scstep>
  <scstep>
   <time name="dav">    0.02    0.02</time>
   <time name="total">    0.02    0.05</time>
   <energy>
    <i name="e_fr_energy">    -13.46306484 </i>
    <i name="e_wo_entrp">    -13.46306484 </i>
    <i name="e_0_energy">    -13.46306484 </i>
   </energy>
  </scstep>
  <scstep>
   <time name="dav">    0.02    0.02</time>
   <time name="total">    0.11    0.14</time>
   <energy>
    <i name="e_fr_energy">    -11.94667133 </i>
    <i name="e_wo_entrp">    -11.94667133 </i>
    <i name="e_0_energy">    -11.94667133 </i>
   </energy>
  </scstep>
  <scstep>
   <time name="dav">    0.02    0.02</time>
   <time name="total">    0.12    0.14</time>
   <energy>
    <i name="e_fr_energy">    -11.93076795 </i>
    <i name="e_wo_entrp">    -11.93076795 </i>
    <i name="e_0_energy">    -11.93076795 </i>
   </energy>
  </scstep>
  <scstep>
   <time name="dav">    0.02    0.02</time>
   <time name="total">    0.11    0.14</time>
   <energy>
    <i name="e_fr_energy">    -11.92458961 </i>
    <i name="e_wo_entrp">    -11.92458961 </i>
    <i name="e_0_energy">    -11.92458961 </i>
   </energy>
  </scstep>
  <scstep>
   <time name="dav">    0.02    0.02</time>
   <time name="total">    0.12    0.15</time>
   <energy>
    <i name="e_fr_energy">    -11.92450404 </i>
    <i name="e_wo_entrp">    -11.92450404 </i>
    <i name="e_0_energy">    -11.92450404 </i>
   </energy>
  </scstep>
  <scstep>
   <time name="dav">    0.02    0.02</time>
   <time name="total">    0.11    0.14</time>
   <energy>
    <i name="e_fr_energy">    -11.92462573 </i>
    <i name="e_wo_entrp">    -11.92462573 </i>
    <i name="e_0_energy">    -11.92462573 </i>
   </energy>
  </scstep>
  <scstep>
   <time name="dav">    0.02    0.02</time>
   <time name="total">    0.12    0.15</time>
   <energy>
    <i name="alphaZ">     19.07613066 </i>
    <i name="ewald">   -355.25355161 </i>
    <i name="hartreedc">   -142.43046088 </i>
    <i name="XCdc">    -18.96587915 </i>
    <i name="pawpsdc">    551.22644938 </i>
    <i name="pawaedc">   -501.43638530 </i>
    <i name="eentropy">     -0.00000000 </i>
    <i name="bandstr">    -19.48413798 </i>
    <i name="atom">    455.34320881 </i>
    <i name="e_fr_energy">    -11.92462608 </i>
    <i name="e_wo_entrp">    -11.92462608 </i>
    <i name="e_0_energy">    -11.92462608 </i>
   </energy>
  </scstep>
  <structure>
   <crystal>
    <varray name="basis" >
     <v>       0.00000000       2.12344651       2.12344651 </v>
     <v>       2.12344651       0.00000000       2.12344651 </v>
     <v>       2.12344651       2.12344651       0.00000000 </v>
    </varray>
    <i name="volume">     19.14934714 </i>
    <varray name="rec_basis" >
     <v>      -0.23546626       0.23546626       0.23546626 </v>
     <v>       0.23546626      -0.23546626       0.23546626 </v>
     <v>       0.23546626       0.23546626      -0.23546626 </v>
    </varray>
   </crystal>
   <varray name="positions" >
    <v>       0.00000000       0.00000000       0.00000000 </v>
    <v>       0.50000000       0.50000000       0.50000000 </v>
   </varray>
  </structure>
  <varray name="forces" >
   <v>       0.00000000       0.00000000      -0.00000000 </v>
   <v>      -0.00000000      -0.00000000       0.00000000 </v>
  </varray>
  <energy>
   <i name="e_fr_energy">    -12.49612431 </i>
   <i name="e_wo_entrp">    -12.49612431 </i>
   <i name="e_0_energy">     -0.00000000 </i>
  </energy>
  <time name="totalsc">    1.12    1.50</time>
  <eigenvalues>
   <array>
    <dimension dim="1">band</dimension>
    <dimension dim="2">kpoint</dimension>
    <dimension dim="3">spin</dimension>
    <field>eigene</field>
    <field>occ</field>
    <set>
     <set comment="spin 1">
      <set comment="kpoint 1">
       <r>  -14.1311    1.0000 </r>
       <r>    3.0051    1.0000 </r>
       <r>    3.0054    1.0000 </r>
       <r>    3.0054    1.0000 </r>
       <r>    7.4955    0.0000 </r>
       <r>   18.6693    0.0000 </r>
       <r>   18.6693    0.0000 </r>
       <r>   18.6693    0.0000 </r>
      </set>
      <set comment="kpoint 2">
       <r>  -13.8633    1.0000 </r>
       <r>    1.5096    1.0000 </r>
       <r>    2.8343    1.0000 </r>
       <r>    2.8346    1.0000 </r>
       <r>    8.9216    0.0000 </r>
       <r>   16.3456    0.0000 </r>
       <r>   19.2141    0.0000 </r>
       <r>   19.2141    0.0000 </r>
      </set>
      <set comment="kpoint 3">
       <r>  -13.2572    1.0000 </r>
       <r>   -0.5922    1.0000 </r>
       <r>    2.5230    1.0000 </r>
       <r>    2.5232    1.0000 </r>
       <r>   10.4782    0.0000 </r>
       <r>   15.1304    0.0000 </r>
       <r>   19.3491    0.0000 </r>
       <r>   19.3491    0.0000 </r>
      </set>
      <set comment="kpoint 4">
       <r>  -12.9122    1.0000 </r>
       <r>   -1.5084    1.0000 </r>
       <r>    2.3758    1.0000 </r>
       <r>    2.3760    1.0000 </r>
       <r>   10.7476    0.0000 </r>
       <r>   15.3406    0.0000 </r>
       <r>   19.0648    0.0000 </r>
       <r>   19.0648    0.0000 </r>
      </set>
      <set comment="kpoint 5">
       <r>  -13.7793    1.0000 </r>
       <r>    1.4339    1.0000 </r>
       <r>    2.6271    1.0000 </r>
       <r>    2.6272    1.0000 </r>
       <r>    9.3982    0.0000 </r>
       <r>   15.6322    0.0000 </r>
       <r>   19.4776    0.0000 </r>
       <r>   19.4777    0.0000 </r>
      </set>
      <set comment="kpoint 6">
       <r>  -13.2998    1.0000 </r>
       <r>   -0.0235    1.0000 </r>
       <r>    2.1620    1.0000 </r>
       <r>    2.3056    1.0000 </r>
       <r>   11.0687    0.0000 </r>
       <r>   14.4320    0.0000 </r>
       <r>   18.0383    0.0000 </r>
       <r>   19.9453    0.0000 </r>
      </set>
      <set comment="kpoint 7">
       <r>  -12.8582    1.0000 </r>
       <r>   -1.0704    1.0000 </r>
       <r>    1.6037    1.0000 </r>
       <r>    2.1878    1.0000 </r>
       <r>   11.8260    0.0000 </r>
       <r>   14.9671    0.0000 </r>
       <r>   16.9995    0.0000 </r>
       <r>   19.7147    0.0000 </r>
      </set>
      <set comment="kpoint 8">
       <r>  -12.9631    1.0000 </r>
       <r>   -0.8048    1.0000 </r>
       <r>    1.4942    1.0000 </r>
       <r>    2.3741    1.0000 </r>
       <r>   11.7882    0.0000 </r>
       <r>   14.9130    0.0000 </r>
       <r>   17.2091    0.0000 </r>
       <r>   19.8162    0.0000 </r>
      </set>
      <set comment="kpoint 9">
       <r>  -13.4851    1.0000 </r>
       <r>    0.4200    1.0000 </r>
       <r>    2.0910    1.0000 </r>
       <r>    2.6987    1.0000 </r>
       <r>   10.4526    0.0000 </r>
       <r>   15.0998    0.0000 </r>
       <r>   18.4866    0.0000 </r>
       <r>   20.4983    0.0000 </r>
      </set>
      <set comment="kpoint 10">
       <r>  -13.0455    1.0000 </r>
       <r>   -0.3621    1.0000 </r>
       <r>    1.9725    1.0000 </r>
       <r>    1.9727    1.0000 </r>
       <r>   12.0311    0.0000 </r>
       <r>   12.9967    0.0000 </r>
       <r>   16.6192    0.0000 </r>
       <r>   20.9223    0.0000 </r>
      </set>
      <set comment="kpoint 11">
       <r>  -12.7332    1.0000 </r>
       <r>   -0.6884    1.0000 </r>
       <r>    1.1527    1.0000 </r>
       <r>    1.8460    1.0000 </r>
       <r>   12.6721    0.0000 </r>
       <r>   13.5768    0.0000 </r>
       <r>   15.7175    0.0000 </r>
       <r>   20.9864    0.0000 </r>
      </set>
      <set comment="kpoint 12">
       <r>  -12.6937    1.0000 </r>
       <r>   -0.1447    1.0000 </r>
       <r>    0.0157    1.0000 </r>
       <r>    2.0324    1.0000 </r>
       <r>   13.1526    0.0000 </r>
       <r>   15.0210    0.0000 </r>
       <r>   15.2112    0.0000 </r>
       <r>   20.4563    0.0000 </r>
      </set>
      <set comment="kpoint 13">
       <r>  -12.6651    1.0000 </r>
       <r>   -0.9830    1.0000 </r>
       <r>    1.6843    1.0000 </r>
       <r>    1.6844    1.0000 </r>
       <r>   12.0979    0.0000 </r>
       <r>   12.7085    0.0000 </r>
       <r>   15.8518    0.0000 </r>
       <r>   21.6179    0.0000 </r>
      </set>
      <set comment="kpoint 14">
       <r>  -12.9045    1.0000 </r>
       <r>   -0.4587    1.0000 </r>
       <r>    1.2014    1.0000 </r>
       <r>    2.0155    1.0000 </r>
       <r>   12.7637    0.0000 </r>
       <r>   13.9702    0.0000 </r>
       <r>   16.2949    0.0000 </r>
       <r>   19.8866    0.0000 </r>
      </set>
      <set comment="kpoint 15">
       <r>  -12.6938    1.0000 </r>
       <r>   -0.4984    1.0000 </r>
       <r>    0.5987    1.0000 </r>
       <r>    1.7701    1.0000 </r>
       <r>   13.4001    0.0000 </r>
       <r>   14.7524    0.0000 </r>
       <r>   15.4664    0.0000 </r>
       <r>   19.1899    0.0000 </r>
      </set>
      <set comment="kpoint 16">
       <r>  -12.6270    1.0000 </r>
       <r>   -0.4674    1.0000 </r>
       <r>    0.8209    1.0000 </r>
       <r>    1.3731    1.0000 </r>
       <r>   13.4594    0.0000 </r>
       <r>   14.1351    0.0000 </r>
       <r>   15.2729    0.0000 </r>
       <r>   19.1650    0.0000 </r>
      </set>
     </set>
    </set>
   </array>
  </eigenvalues>
  <separator name="orbital magnetization" >
   <v name="MAGDIPOLOUT">      0.00000000      0.00000000      0.00000000</v>
  </separator>
  <dos>
   <i name="efermi">      3.23547487 </i>
   <total>
    <array>
     <dimension dim="1">gridpoints</dimension>
     <dimension dim="2">spin</dimension>
     <field>energy</field>
     <field>total</field>
     <field>integrated</field>
     <set>
      <set comment="spin 1">
       <r>   -15.9185     0.0000     0.0000 </r>
       <r>   -15.7874     0.0000     0.0000 </r>
       <r>   -15.6564     0.0000     0.0000 </r>
       <r>   -15.5253     0.0000     0.0000 </r>
       <r>   -15.3942     0.0000     0.0000 </r>
       <r>   -15.2631     0.0000     0.0000 </r>
       <r>   -15.1320     0.0000     0.0000 </r>
       <r>   -15.0010     0.0000     0.0000 </r>
       <r>   -14.8699     0.0000     0.0000 </r>
       <r>   -14.7388     0.0000     0.0000 </r>
       <r>   -14.6077     0.0000     0.0000 </r>
       <r>   -14.4766     0.0000     0.0000 </r>
       <r>   -14.3456     0.0000     0.0000 </r>
       <r>   -14.2145     0.0006     0.0001 </r>
       <r>   -14.0834     0.0637     0.0084 </r>
       <r>   -13.9523     0.0096     0.0097 </r>
       <r>   -13.8212     0.5455     0.0812 </r>
       <r>   -13.6902     0.4376     0.1386 </r>
       <r>   -13.5591     0.0179     0.1409 </r>
       <r>   -13.4280     0.7874     0.2441 </r>
       <r>   -13.2969     1.0216     0.3780 </r>
       <r>   -13.1658     1.2809     0.5459 </r>
       <r>   -13.0348     0.3018     0.5855 </r>
       <r>   -12.9037     2.9404     0.9709 </r>
       <r>   -12.7726     2.7976     1.3376 </r>
       <r>   -12.6415     4.2548     1.8953 </r>
       <r>   -12.5104     0.7981     1.9999 </r>
       <r>   -12.3794     0.0004     2.0000 </r>
       <r>   -12.2483     0.0000     2.0000 </r>
       <r>   -12.1172     0.0000     2.0000 </r>
       <r>   -11.9861     0.0000     2.0000 </r>
       <r>   -11.8551     0.0000     2.0000 </r>
       <r>   -11.7240     0.0000     2.0000 </r>
       <r>   -11.5929     0.0000     2.0000 </r>
       <r>   -11.4618     0.0000     2.0000 </r>
       <r>   -11.3307     0.0000     2.0000 </r>
       <r>   -11.1997     0.0000     2.0000 </r>
       <r>   -11.0686     0.0000     2.0000 </r>
       <r>   -10.9375     0.0000     2.0000 </r>
       <r>   -10.8064     0.0000     2.0000 </r>
       <r>   -10.6753     0.0000     2.0000 </r>
       <r>   -10.5443     0.0000     2.0000 </r>
       <r>   -10.4132     0.0000     2.0000 </r>
       <r>   -10.2821     0.0000     2.0000 </r>
       <r>   -10.1510     0.0000     2.0000 </r>
       <r>   -10.0199     0.0000     2.0000 </r>
       <r>    -9.8889     0.0000     2.0000 </r>
       <r>    -9.7578     0.0000     2.0000 </r>
       <r>    -9.6267     0.0000     2.0000 </r>
       <r>    -9.4956     0.0000     2.0000 </r>
       <r>    -9.3645     0.0000     2.0000 </r>
       <r>    -9.2335     0.0000     2.0000 </r>
       <r>    -9.1024     0.0000     2.0000 </r>
       <r>    -8.9713     0.0000     2.0000 </r>
       <r>    -8.8402     0.0000     2.0000 </r>
       <r>    -8.7091     0.0000     2.0000 </r>
       <r>    -8.5781     0.0000     2.0000 </r>
       <r>    -8.4470     0.0000     2.0000 </r>
       <r>    -8.3159     0.0000     2.0000 </r>
       <r>    -8.1848     0.0000     2.0000 </r>
       <r>    -8.0537     0.0000     2.0000 </r>
       <r>    -7.9227     0.0000     2.0000 </r>
       <r>    -7.7916     0.0000     2.0000 </r>
       <r>    -7.6605     0.0000     2.0000 </r>
       <r>    -7.5294     0.0000     2.0000 </r>
       <r>    -7.3983     0.0000     2.0000 </r>
       <r>    -7.2673     0.0000     2.0000 </r>
       <r>    -7.1362     0.0000     2.0000 </r>
       <r>    -7.0051     0.0000     2.0000 </r>
       <r>    -6.8740     0.0000     2.0000 </r>
       <r>    -6.7430     0.0000     2.0000 </r>
       <r>    -6.6119     0.0000     2.0000 </r>
       <r>    -6.4808     0.0000     2.0000 </r>
       <r>    -6.3497     0.0000     2.0000 </r>
       <r>    -6.2186     0.0000     2.0000 </r>
       <r>    -6.0876     0.0000     2.0000 </r>
       <r>    -5.9565     0.0000     2.0000 </r>
       <r>    -5.8254     0.0000     2.0000 </r>
       <r>    -5.6943     0.0000     2.0000 </r>
       <r>    -5.5632     0.0000     2.0000 </r>
       <r>    -5.4322     0.0000     2.0000 </r>
       <r>    -5.3011     0.0000     2.0000 </r>
       <r>    -5.1700     0.0000     2.0000 </r>
       <r>    -5.0389     0.0000     2.0000 </r>
       <r>    -4.9078     0.0000     2.0000 </r>
       <r>    -4.7768     0.0000     2.0000 </r>
       <r>    -4.6457     0.0000     2.0000 </r>
       <r>    -4.5146     0.0000     2.0000 </r>
       <r>    -4.3835     0.0000     2.0000 </r>
       <r>    -4.2524     0.0000     2.0000 </r>
       <r>    -4.1214     0.0000     2.0000 </r>
       <r>    -3.9903     0.0000     2.0000 </r>
       <r>    -3.8592     0.0000     2.0000 </r>
       <r>    -3.7281     0.0000     2.0000 </r>
       <r>    -3.5970     0.0000     2.0000 </r>
       <r>    -3.4660     0.0000     2.0000 </r>
       <r>    -3.3349     0.0000     2.0000 </r>
       <r>    -3.2038     0.0000     2.0000 </r>
       <r>    -3.0727     0.0000     2.0000 </r>
       <r>    -2.9416     0.0000     2.0000 </r>
       <r>    -2.8106     0.0000     2.0000 </r>
       <r>    -2.6795     0.0000     2.0000 </r>
       <r>    -2.5484     0.0000     2.0000 </r>
       <r>    -2.4173     0.0000     2.0000 </r>
       <r>    -2.2862     0.0000     2.0000 </r>
       <r>    -2.1552     0.0000     2.0000 </r>
       <r>    -2.0241     0.0000     2.0000 </r>
       <r>    -1.8930     0.0000     2.0000 </r>
       <r>    -1.7619     0.0000     2.0000 </r>
       <r>    -1.6309     0.0001     2.0000 </r>
       <r>    -1.4998     0.1686     2.0221 </r>
       <r>    -1.3687     0.1139     2.0370 </r>
       <r>    -1.2376     0.0000     2.0370 </r>
       <r>    -1.1065     0.2605     2.0712 </r>
       <r>    -0.9755     1.5527     2.2747 </r>
       <r>    -0.8444     0.3170     2.3163 </r>
       <r>    -0.7133     1.8732     2.5618 </r>
       <r>    -0.5822     1.6539     2.7786 </r>
       <r>    -0.4511     3.3149     3.2131 </r>
       <r>    -0.3201     1.5032     3.4101 </r>
       <r>    -0.1890     0.1390     3.4284 </r>
       <r>    -0.0579     1.0481     3.5657 </r>
       <r>     0.0732     2.2039     3.8546 </r>
       <r>     0.2043     0.0495     3.8611 </r>
       <r>     0.3353     0.0071     3.8620 </r>
       <r>     0.4664     0.7607     3.9618 </r>
       <r>     0.5975     0.9042     4.0803 </r>
       <r>     0.7286     0.8747     4.1949 </r>
       <r>     0.8597     0.7286     4.2904 </r>
       <r>     0.9907     0.1155     4.3056 </r>
       <r>     1.1218     0.3445     4.3507 </r>
       <r>     1.2529     2.9194     4.7334 </r>
       <r>     1.3840     0.6880     4.8236 </r>
       <r>     1.5151     2.2587     5.1196 </r>
       <r>     1.6461     2.2718     5.4174 </r>
       <r>     1.7772     1.5848     5.6252 </r>
       <r>     1.9083     2.3301     5.9306 </r>
       <r>     2.0394     2.6808     6.2820 </r>
       <r>     2.1705     3.1190     6.6908 </r>
       <r>     2.3015     2.6763     7.0416 </r>
       <r>     2.4326     3.0357     7.4396 </r>
       <r>     2.5637     1.1271     7.5873 </r>
       <r>     2.6948     1.3213     7.7605 </r>
       <r>     2.8259     0.9412     7.8839 </r>
       <r>     2.9569     0.6919     7.9746 </r>
       <r>     3.0880     0.1920     7.9997 </r>
       <r>     3.2191     0.0020     8.0000 </r>
       <r>     3.3502     0.0000     8.0000 </r>
       <r>     3.4812     0.0000     8.0000 </r>
       <r>     3.6123     0.0000     8.0000 </r>
       <r>     3.7434     0.0000     8.0000 </r>
       <r>     3.8745     0.0000     8.0000 </r>
       <r>     4.0056     0.0000     8.0000 </r>
       <r>     4.1366     0.0000     8.0000 </r>
       <r>     4.2677     0.0000     8.0000 </r>
       <r>     4.3988     0.0000     8.0000 </r>
       <r>     4.5299     0.0000     8.0000 </r>
       <r>     4.6610     0.0000     8.0000 </r>
       <r>     4.7920     0.0000     8.0000 </r>
       <r>     4.9231     0.0000     8.0000 </r>
       <r>     5.0542     0.0000     8.0000 </r>
       <r>     5.1853     0.0000     8.0000 </r>
       <r>     5.3164     0.0000     8.0000 </r>
       <r>     5.4474     0.0000     8.0000 </r>
       <r>     5.5785     0.0000     8.0000 </r>
       <r>     5.7096     0.0000     8.0000 </r>
       <r>     5.8407     0.0000     8.0000 </r>
       <r>     5.9718     0.0000     8.0000 </r>
       <r>     6.1028     0.0000     8.0000 </r>
       <r>     6.2339     0.0000     8.0000 </r>
       <r>     6.3650     0.0000     8.0000 </r>
       <r>     6.4961     0.0000     8.0000 </r>
       <r>     6.6272     0.0000     8.0000 </r>
       <r>     6.7582     0.0000     8.0000 </r>
       <r>     6.8893     0.0000     8.0000 </r>
       <r>     7.0204     0.0000     8.0000 </r>
       <r>     7.1515     0.0000     8.0000 </r>
       <r>     7.2826     0.0000     8.0000 </r>
       <r>     7.4136     0.0007     8.0001 </r>
       <r>     7.5447     0.0641     8.0085 </r>
       <r>     7.6758     0.0058     8.0093 </r>
       <r>     7.8069     0.0000     8.0093 </r>
       <r>     7.9380     0.0000     8.0093 </r>
       <r>     8.0690     0.0000     8.0093 </r>
       <r>     8.2001     0.0000     8.0093 </r>
       <r>     8.3312     0.0000     8.0093 </r>
       <r>     8.4623     0.0000     8.0093 </r>
       <r>     8.5933     0.0000     8.0093 </r>
       <r>     8.7244     0.0000     8.0093 </r>
       <r>     8.8555     0.0174     8.0115 </r>
       <r>     8.9866     0.5291     8.0809 </r>
       <r>     9.1177     0.0186     8.0833 </r>
       <r>     9.2487     0.0000     8.0833 </r>
       <r>     9.3798     0.1277     8.1001 </r>
       <r>     9.5109     0.2958     8.1388 </r>
       <r>     9.6420     0.0003     8.1389 </r>
       <r>     9.7731     0.0000     8.1389 </r>
       <r>     9.9041     0.0000     8.1389 </r>
       <r>    10.0352     0.0000     8.1389 </r>
       <r>    10.1663     0.0000     8.1389 </r>
       <r>    10.2974     0.0000     8.1389 </r>
       <r>    10.4285     0.2547     8.1723 </r>
       <r>    10.5595     1.1509     8.3231 </r>
       <r>    10.6906     0.0222     8.3261 </r>
       <r>    10.8217     0.2624     8.3604 </r>
       <r>    10.9528     0.0060     8.3612 </r>
       <r>    11.0839     1.1278     8.5091 </r>
       <r>    11.2149     0.5666     8.5833 </r>
       <r>    11.3460     0.0000     8.5833 </r>
       <r>    11.4771     0.0000     8.5833 </r>
       <r>    11.6082     0.0000     8.5833 </r>
       <r>    11.7393     0.1529     8.6034 </r>
       <r>    11.8703     3.0427     9.0022 </r>
       <r>    12.0014     0.2808     9.0390 </r>
       <r>    12.1325     0.5144     9.1064 </r>
       <r>    12.2636     0.0356     9.1111 </r>
       <r>    12.3947     0.0000     9.1111 </r>
       <r>    12.5257     0.0000     9.1111 </r>
       <r>    12.6568     0.5816     9.1873 </r>
       <r>    12.7879     2.5996     9.5281 </r>
       <r>    12.9190     0.4273     9.5841 </r>
       <r>    13.0501     0.3916     9.6354 </r>
       <r>    13.1811     0.6961     9.7267 </r>
       <r>    13.3122     0.1888     9.7514 </r>
       <r>    13.4433     1.7715     9.9836 </r>
       <r>    13.5744     1.5622    10.1884 </r>
       <r>    13.7054     0.8935    10.3055 </r>
       <r>    13.8365     0.0004    10.3056 </r>
       <r>    13.9676     0.7974    10.4101 </r>
       <r>    14.0987     1.0258    10.5446 </r>
       <r>    14.2298     0.7165    10.6385 </r>
       <r>    14.3608     0.0406    10.6438 </r>
       <r>    14.4919     1.5815    10.8511 </r>
       <r>    14.6230     0.0766    10.8611 </r>
       <r>    14.7541     0.8801    10.9765 </r>
       <r>    14.8852     1.1980    11.1335 </r>
       <r>    15.0162     3.2510    11.5597 </r>
       <r>    15.1473     1.7925    11.7946 </r>
       <r>    15.2784     1.5349    11.9958 </r>
       <r>    15.4095     0.7513    12.0943 </r>
       <r>    15.5406     1.5831    12.3018 </r>
       <r>    15.6716     0.5607    12.3753 </r>
       <r>    15.8027     1.5907    12.5838 </r>
       <r>    15.9338     0.2058    12.6108 </r>
       <r>    16.0649     0.0022    12.6111 </r>
       <r>    16.1960     0.0044    12.6117 </r>
       <r>    16.3270     1.5525    12.8152 </r>
       <r>    16.4581     0.7032    12.9074 </r>
       <r>    16.5892     0.0844    12.9184 </r>
       <r>    16.7203     0.3390    12.9628 </r>
       <r>    16.8514     0.0009    12.9630 </r>
       <r>    16.9824     0.5334    13.0329 </r>
       <r>    17.1135     1.1666    13.1858 </r>
       <r>    17.2446     1.4235    13.3724 </r>
       <r>    17.3757     0.2671    13.4074 </r>
       <r>    17.5068     0.0000    13.4074 </r>
       <r>    17.6378     0.0000    13.4074 </r>
       <r>    17.7689     0.0000    13.4074 </r>
       <r>    17.9000     0.0001    13.4074 </r>
       <r>    18.0311     0.7101    13.5005 </r>
       <r>    18.1622     0.9847    13.6296 </r>
       <r>    18.2932     0.0004    13.6296 </r>
       <r>    18.4243     0.0330    13.6340 </r>
       <r>    18.5554     0.7928    13.7379 </r>
       <r>    18.6865     0.1674    13.7598 </r>
       <r>    18.8176     0.0664    13.7685 </r>
       <r>    18.9486     0.0003    13.7686 </r>
       <r>    19.0797     0.3829    13.8188 </r>
       <r>    19.2108     2.6943    14.1719 </r>
       <r>    19.3419     1.6337    14.3861 </r>
       <r>    19.4729     1.0360    14.5219 </r>
       <r>    19.6040     0.4703    14.5835 </r>
       <r>    19.7351     1.2354    14.7454 </r>
       <r>    19.8662     2.5201    15.0758 </r>
       <r>    19.9973     2.9030    15.4563 </r>
       <r>    20.1283     0.1215    15.4722 </r>
       <r>    20.2594     0.0000    15.4722 </r>
       <r>    20.3905     0.0276    15.4758 </r>
       <r>    20.5216     1.4243    15.6625 </r>
       <r>    20.6527     0.2434    15.6944 </r>
       <r>    20.7837     0.0000    15.6944 </r>
       <r>    20.9148     0.2128    15.7223 </r>
       <r>    21.0459     1.8278    15.9619 </r>
       <r>    21.1770     0.0785    15.9722 </r>
       <r>    21.3081     0.0000    15.9722 </r>
       <r>    21.4391     0.0000    15.9722 </r>
       <r>    21.5702     0.0188    15.9747 </r>
       <r>    21.7013     0.1912    15.9997 </r>
       <r>    21.8324     0.0019    16.0000 </r>
       <r>    21.9635     0.0000    16.0000 </r>
       <r>    22.0945     0.0000    16.0000 </r>
       <r>    22.2256     0.0000    16.0000 </r>
       <r>    22.3567     0.0000    16.0000 </r>
       <r>    22.4878     0.0000    16.0000 </r>
       <r>    22.6189     0.0000    16.0000 </r>
       <r>    22.7499     0.0000    16.0000 </r>
       <r>    22.8810     0.0000    16.0000 </r>
       <r>    23.0121     0.0000    16.0000 </r>
       <r>    23.1432     0.0000    16.0000 </r>
       <r>    23.2743     0.0000    16.0000 </r>
       <r>    23.4053     0.0000    16.0000 </r>
      </set>
     </set>
    </array>
   </total>
  </dos>
 </calculation>
 <structure name="finalpos" >
  <crystal>
   <varray name="basis" >
    <v>       0.00000000       2.12344651       2.12344651 </v>
    <v>       2.12344651       0.00000000       2.12344651 </v>
    <v>       2.12344651       2.12344651       0.00000000 </v>
   </varray>
   <i name="volume">     19.14934714 </i>
   <varray name="rec_basis" >
    <v>      -0.23546626       0.23546626       0.23546626 </v>
    <v>       0.23546626      -0.23546626       0.23546626 </v>
    <v>       0.23546626       0.23546626      -0.23546626 </v>
   </varray>
  </crystal>
  <varray name="positions" >
   <v>       0.00000000       0.00000000       0.00000000 </v>
   <v>       0.50000000       0.50000000       0.50000000 </v>
  </varray>
 </structure>
</modeling>
