       N       E                     dE             d eps       ncg     rms          rms(c)
DAV:   1     0.301351957960E+03    0.30135E+03   -0.27650E+04   176   0.108E+03
DAV:   2    -0.863670584105E+02   -0.38772E+03   -0.37958E+03   232   0.261E+02
DAV:   3    -0.107500116196E+03   -0.21133E+02   -0.21053E+02   216   0.653E+01
DAV:   4    -0.107651570007E+03   -0.15145E+00   -0.15131E+00   224   0.621E+00
DAV:   5    -0.107652994312E+03   -0.14243E-02   -0.14240E-02   212   0.572E-01    0.200E+01
DAV:   6    -0.955814863206E+02    0.12072E+02   -0.51572E+01   216   0.313E+01    0.637E+00
DAV:   7    -0.955214411775E+02    0.60045E-01   -0.89926E-01   192   0.471E+00    0.394E+00
DAV:   8    -0.954763546848E+02    0.45086E-01   -0.25645E-01   204   0.378E+00    0.735E-01
DAV:   9    -0.954677673537E+02    0.85873E-02   -0.28653E-02   224   0.823E-01    0.196E-01
DAV:  10    -0.954688091994E+02   -0.10418E-02   -0.35591E-03   200   0.272E-01    0.590E-02
DAV:  11    -0.954687825226E+02    0.26677E-04   -0.16897E-04   208   0.621E-02    0.119E-02
DAV:  12    -0.954687804990E+02    0.20236E-05   -0.97168E-06   216   0.148E-02    0.292E-03
DAV:  13    -0.954687810098E+02   -0.51083E-06   -0.26209E-07   128   0.230E-03
   1 F= -.95468781E+02 E0= -.95468781E+02  d E =-.954688E+02
