 vasp.5.4.4.18Apr17-6-g9f103f2a35 (build Apr 25 2017 10:43:04) complex          
  
 executed on             LinuxIFC date 2019.08.24  15:43:11
 running on   36 total cores
 distrk:  each k-point on   36 cores,    1 groups
 distr:  one band on NCORES_PER_BAND=   1 cores,   36 groups


--------------------------------------------------------------------------------------------------------


 INCAR:
 POTCAR:    PAW_PBE Mg 13Apr2007                  
 POTCAR:    PAW_PBE O 08Apr2002                   

 ----------------------------------------------------------------------------- 
|                                                                             |
|           W    W    AA    RRRRR   N    N  II  N    N   GGGG   !!!           |
|           W    W   A  A   R    R  NN   N  II  NN   N  G    G  !!!           |
|           W    W  A    A  R    R  N N  N  II  N N  N  G       !!!           |
|           W WW W  AAAAAA  RRRRR   N  N N  II  N  N N  G  GGG   !            |
|           WW  WW  A    A  R   R   N   NN  II  N   NN  G    G                |
|           W    W  A    A  R    R  N    N  II  N    N   GGGG   !!!           |
|                                                                             |
|      For optimal performance we recommend to set                            |
|        NCORE= 4 - approx SQRT( number of cores)                             |
|      NCORE specifies how many cores store one orbital (NPAR=cpu/NCORE).     |
|      This setting can  greatly improve the performance of VASP for DFT.     |
|      The default,   NCORE=1            might be grossly inefficient         |
|      on modern multi-core architectures or massively parallel machines.     |
|      Do your own testing !!!!                                               |
|      Unfortunately you need to use the default for GW and RPA calculations. |
|      (for HF NCORE is supported but not extensively tested yet)             |
|                                                                             |
 ----------------------------------------------------------------------------- 

 POTCAR:    PAW_PBE Mg 13Apr2007                  
   VRHFIN =Mg: s2p0                                                             
   LEXCH  = PE                                                                  
   EATOM  =    23.0369 eV,    1.6932 Ry                                         
                                                                                
   TITEL  = PAW_PBE Mg 13Apr2007                                                
   LULTRA =        F    use ultrasoft PP ?                                      
   IUNSCR =        1    unscreen: 0-lin 1-nonlin 2-no                           
   RPACOR =    1.500    partial core radius                                     
   POMASS =   24.305; ZVAL   =    2.000    mass and valenz                      
   RCORE  =    2.000    outmost cutoff radius                                   
   RWIGS  =    2.880; RWIGS  =    1.524    wigner-seitz radius (au A)           
   ENMAX  =  200.000; ENMIN  =  100.000 eV                                      
   RCLOC  =    1.506    cutoff for local pot                                    
   LCOR   =        T    correct aug charges                                     
   LPAW   =        T    paw PP                                                  
   EAUG   =  454.734                                                            
   DEXC   =    0.000                                                            
   RMAX   =    2.045    core radius for proj-oper                               
   RAUG   =    1.300    factor for augmentation sphere                          
   RDEP   =    2.025    radius for radial grids                                 
   RDEPT  =    1.942    core radius for aug-charge                              
                                                                                
   Atomic configuration                                                         
    6 entries                                                                   
     n  l   j            E        occ.                                          
     1  0  0.50     -1259.6230   2.0000                                         
     2  0  0.50       -79.8442   2.0000                                         
     2  1  1.50       -46.6121   6.0000                                         
     3  0  0.50        -4.7055   2.0000                                         
     3  1  0.50        -1.3660   0.0000                                         
     3  2  1.50        -1.3606   0.0000                                         
   Description                                                                  
     l       E           TYP  RCUT    TYP  RCUT                                 
     0     -4.7054661     23  2.000                                             
     0     27.2116520     23  2.000                                             
     1      1.3605826     23  2.000                                             
     1     27.2116520     23  2.000                                             
     2     -1.3605826     23  2.000                                             
  local pseudopotential read in
  partial core-charges read in
  partial kinetic energy density read in
  atomic valenz-charges read in
  non local Contribution for L=           0  read in
    real space projection operators read in
  non local Contribution for L=           0  read in
    real space projection operators read in
  non local Contribution for L=           1  read in
    real space projection operators read in
  non local Contribution for L=           1  read in
    real space projection operators read in
  non local Contribution for L=           2  read in
    real space projection operators read in
    PAW grid and wavefunctions read in
 
   number of l-projection  operators is LMAX  =           5
   number of lm-projection operators is LMMAX =          13
 
 POTCAR:    PAW_PBE O 08Apr2002                   
   VRHFIN =O: s2p4                                                              
   LEXCH  = PE                                                                  
   EATOM  =   432.3788 eV,   31.7789 Ry                                         
                                                                                
   TITEL  = PAW_PBE O 08Apr2002                                                 
   LULTRA =        F    use ultrasoft PP ?                                      
   IUNSCR =        1    unscreen: 0-lin 1-nonlin 2-no                           
   RPACOR =    1.200    partial core radius                                     
   POMASS =   16.000; ZVAL   =    6.000    mass and valenz                      
   RCORE  =    1.520    outmost cutoff radius                                   
   RWIGS  =    1.550; RWIGS  =    0.820    wigner-seitz radius (au A)           
   ENMAX  =  400.000; ENMIN  =  300.000 eV                                      
   ICORE  =        2    local potential                                         
   LCOR   =        T    correct aug charges                                     
   LPAW   =        T    paw PP                                                  
   EAUG   =  605.392                                                            
   DEXC   =    0.000                                                            
   RMAX   =    1.553    core radius for proj-oper                               
   RAUG   =    1.300    factor for augmentation sphere                          
   RDEP   =    1.550    radius for radial grids                                 
   RDEPT  =    1.329    core radius for aug-charge                              
                                                                                
   Atomic configuration                                                         
    4 entries                                                                   
     n  l   j            E        occ.                                          
     1  0  0.50      -514.6923   2.0000                                         
     2  0  0.50       -23.9615   2.0000                                         
     2  1  0.50        -9.0305   4.0000                                         
     3  2  1.50        -9.5241   0.0000                                         
   Description                                                                  
     l       E           TYP  RCUT    TYP  RCUT                                 
     0    -23.9615318     23  1.200                                             
     0     -9.5240782     23  1.200                                             
     1     -9.0304911     23  1.520                                             
     1      8.1634956     23  1.520                                             
     2     -9.5240782      7  1.500                                             
  local pseudopotential read in
  partial core-charges read in
  partial kinetic energy density read in
  kinetic energy density of atom read in
  atomic valenz-charges read in
  non local Contribution for L=           0  read in
    real space projection operators read in
  non local Contribution for L=           0  read in
    real space projection operators read in
  non local Contribution for L=           1  read in
    real space projection operators read in
  non local Contribution for L=           1  read in
    real space projection operators read in
    PAW grid and wavefunctions read in
 
   number of l-projection  operators is LMAX  =           4
   number of lm-projection operators is LMMAX =           8
 
 Optimization of the real space projectors (new method)

 maximal supplied QI-value         = 18.90
 optimisation between [QCUT,QGAM] = [ 10.20, 20.41] = [ 29.16,116.64] Ry 
 Optimized for a Real-space Cutoff    1.30 Angstroem

   l    n(q)    QCUT    max X(q) W(low)/X(q) W(high)/X(q)  e(spline) 
   0      8    10.205    28.265    0.22E-03    0.17E-03    0.53E-07
   0      8    10.205    10.429    0.17E-03    0.15E-03    0.43E-07
   1      7    10.205    13.073    0.71E-04    0.41E-03    0.76E-07
   1      7    10.205     9.625    0.71E-04    0.33E-03    0.63E-07
   2      7    10.205     4.652    0.24E-03    0.41E-03    0.55E-07
 Optimization of the real space projectors (new method)

 maximal supplied QI-value         = 24.76
 optimisation between [QCUT,QGAM] = [ 10.15, 20.30] = [ 28.85,115.39] Ry 
 Optimized for a Real-space Cutoff    1.38 Angstroem

   l    n(q)    QCUT    max X(q) W(low)/X(q) W(high)/X(q)  e(spline) 
   0      8    10.150    20.381    0.22E-03    0.32E-03    0.29E-06
   0      8    10.150    15.268    0.23E-03    0.35E-03    0.30E-06
   1      8    10.150     5.964    0.46E-03    0.53E-03    0.21E-06
   1      8    10.150     5.382    0.38E-03    0.45E-03    0.19E-06

 ----------------------------------------------------------------------------- 
|                                                                             |
|  ADVICE TO THIS USER RUNNING 'VASP/VAMP'   (HEAR YOUR MASTER'S VOICE ...):  |
|                                                                             |
|      You enforced a specific xc-type in the INCAR file,                     |
|      a different type was found on the POTCAR file                          |
|          I HOPE YOU KNOW, WHAT YOU ARE  DOING                               |
|                                                                             |
 ----------------------------------------------------------------------------- 

  PAW_PBE Mg 13Apr2007                  :
 energy of atom  1       EATOM=  -23.0369
 kinetic energy error for atom=    0.0001 (will be added to EATOM!!)
  PAW_PBE O 08Apr2002                   :
 energy of atom  2       EATOM= -432.3788
 kinetic energy error for atom=    0.1156 (will be added to EATOM!!)
 
 
 POSCAR: Mg31 O31                                
  positions in direct lattice
  velocities in cartesian coordinates
 exchange correlation table for  LEXCH =       14
   RHO(1)=    0.500       N(1)  =     2000
   RHO(2)=  100.500       N(2)  =     4000
 


--------------------------------------------------------------------------------------------------------


 ion  position               nearest neighbor table
   1  1.000  0.000  0.500-  47 1.98  48 1.98  36 2.12  56 2.13  58 2.13  32 2.13  29 2.95  31 2.95
                            25 2.96  27 2.96  16 2.97  17 2.97  20 2.98  21 2.98  10 2.98  11 2.98
   2  1.000  0.500  0.000-  55 1.98  57 1.98  37 2.12  49 2.13  50 2.13  33 2.13  22 2.95  23 2.95
                            18 2.96  19 2.96  24 2.97  26 2.97  28 2.98  30 2.98  10 2.98  11 2.98
   3  1.000  0.500  0.500-  49 2.08  50 2.08  56 2.08  58 2.08  38 2.11  34 2.12  25 2.97  27 2.97
                            18 2.97  19 2.97  29 2.97  31 2.97  22 2.97  23 2.97  10 3.06  11 3.06
   4  0.495  0.000  0.000-  35 2.00  51 2.14  52 2.14  59 2.14  61 2.14  13 2.96  14 2.96  15 2.96
                            12 2.96  17 2.96  24 2.96  26 2.96  16 2.96  21 3.00  28 3.00  30 3.00
   5  0.501  0.000  0.500-  51 2.07  52 2.07  36 2.08  32 2.09  60 2.11  62 2.11  29 2.97  31 2.97
                            12 2.98  13 2.98  14 2.98  15 2.98  25 2.99  27 2.99  16 3.04  17 3.04
   6  0.501  0.500  0.000-  59 2.07  61 2.07  37 2.08  33 2.09  53 2.11  54 2.11  22 2.97  23 2.97
                            12 2.98  13 2.98  14 2.98  15 2.98  18 2.99  19 2.99  24 3.04  26 3.04
   7  0.500  0.500  0.500-  38 2.10  53 2.10  54 2.10  60 2.10  62 2.10  34 2.10  25 2.99  27 2.99
                            18 2.99  19 2.99  14 3.00  15 3.00  12 3.00  13 3.00  29 3.00  31 3.00
   8  0.000  0.243  0.243-  47 2.06  55 2.06  43 2.11  39 2.11  49 2.16  56 2.16  20 2.90  28 2.90
                            24 2.90  16 2.90   1 2.98   2 2.98  25 3.01  18 3.01  22 3.01  29 3.01
   9  0.000  0.243  0.757-  48 2.06  55 2.06  44 2.11  40 2.11  50 2.16  56 2.16  21 2.90  28 2.90
                            24 2.90  17 2.90   1 2.98   2 2.98  25 3.01  19 3.01  23 3.01  29 3.01
  10  0.000  0.757  0.243-  47 2.06  57 2.06  45 2.11  41 2.11  49 2.16  58 2.16  20 2.90  30 2.90
                            26 2.90  16 2.90   1 2.98   2 2.98  27 3.01  18 3.01  22 3.01  31 3.01
  11  0.000  0.757  0.757-  48 2.06  57 2.06  46 2.11  42 2.11  50 2.16  58 2.16  21 2.90  30 2.90
                            26 2.90  17 2.90   1 2.98   2 2.98  27 3.01  19 3.01  23 3.01  31 3.01
  12  0.500  0.248  0.248-  51 2.09  59 2.09  43 2.10  39 2.10  53 2.12  60 2.12   4 2.96   5 2.98
                             6 2.98  22 3.00  29 3.00   7 3.00  25 3.00  18 3.00  16 3.00  24 3.00
  13  0.500  0.248  0.752-  52 2.09  59 2.09  44 2.10  40 2.10  54 2.12  60 2.12   4 2.96   5 2.98
                             6 2.98  23 3.00  29 3.00   7 3.00  25 3.00  19 3.00  17 3.00  24 3.00
  14  0.500  0.752  0.248-  51 2.09  61 2.09  45 2.10  41 2.10  53 2.12  62 2.12   4 2.96   5 2.98
                             6 2.98  22 3.00  31 3.00   7 3.00  27 3.00  18 3.00  16 3.00  26 3.00
  15  0.500  0.752  0.752-  52 2.09  61 2.09  46 2.10  42 2.10  54 2.12  62 2.12   4 2.96   5 2.98
                             6 2.98  23 3.00  31 3.00   7 3.00  27 3.00  19 3.00  17 3.00  26 3.00
  16  0.244  0.000  0.247-  47 2.06  41 2.12  39 2.12  32 2.14  51 2.16  10 2.90   8 2.90  26 2.94
                            24 2.94   4 2.96   1 2.97  27 2.99  25 2.99  14 3.00  12 3.00   5 3.04
  17  0.244  0.000  0.753-  48 2.06  42 2.12  40 2.12  32 2.14  52 2.16  11 2.90   9 2.90  26 2.94
                            24 2.94   4 2.96   1 2.97  27 2.99  25 2.99  15 3.00  13 3.00   5 3.04
  18  0.248  0.500  0.249-  49 2.09  41 2.09  39 2.09  33 2.10  34 2.11  53 2.12   2 2.96   3 2.97
                             6 2.99  25 2.99  27 2.99  26 2.99  24 2.99   7 2.99  12 3.00  14 3.00
  19  0.248  0.500  0.751-  50 2.09  42 2.09  40 2.09  33 2.10  34 2.11  54 2.12   2 2.96   3 2.97
                             6 2.99  25 2.99  27 2.99  26 2.99  24 2.99   7 2.99  13 3.00  15 3.00
  20  0.757  0.000  0.243-  35 2.05  47 2.06  45 2.11  43 2.11  51 2.16  36 2.17  28 2.89  30 2.89
                             8 2.90  10 2.90   1 2.98   4 3.00  12 3.01  14 3.01  29 3.01  31 3.01
  21  0.757  0.000  0.757-  35 2.05  48 2.06  46 2.11  44 2.11  52 2.16  36 2.17  28 2.89  30 2.89
                             9 2.90  11 2.90   1 2.98   4 3.00  13 3.01  15 3.01  29 3.01  31 3.01
  22  0.752  0.500  0.248-  49 2.09  37 2.09  45 2.10  43 2.10  53 2.12  38 2.12   2 2.95   6 2.97
                             3 2.97  12 3.00  14 3.00  29 3.00  31 3.00   7 3.00   8 3.01  10 3.01
  23  0.752  0.500  0.752-  50 2.09  37 2.09  46 2.10  44 2.10  54 2.12  38 2.12   2 2.95   6 2.97
                             3 2.97  13 3.00  15 3.00  29 3.00  31 3.00   7 3.00   9 3.01  11 3.01
  24  0.244  0.247  0.000-  55 2.06  40 2.12  39 2.12  33 2.14  59 2.16   9 2.90   8 2.90  17 2.94
                            16 2.94   4 2.96   2 2.97  19 2.99  18 2.99  13 3.00  12 3.00   6 3.04
  25  0.248  0.249  0.500-  56 2.09  40 2.09  39 2.09  32 2.10  34 2.11  60 2.12   1 2.96   3 2.97
                             5 2.99  18 2.99  19 2.99  16 2.99  17 2.99   7 2.99  12 3.00  13 3.00
  26  0.244  0.753  0.000-  57 2.06  42 2.12  41 2.12  33 2.14  61 2.16  11 2.90  10 2.90  17 2.94
                            16 2.94   4 2.96   2 2.97  19 2.99  18 2.99  15 3.00  14 3.00   6 3.04
  27  0.248  0.751  0.500-  58 2.09  42 2.09  41 2.09  32 2.10  34 2.11  62 2.12   1 2.96   3 2.97
                             5 2.99  18 2.99  19 2.99  16 2.99  17 2.99   7 2.99  14 3.00  15 3.00
  28  0.757  0.243  0.000-  35 2.05  55 2.06  44 2.11  43 2.11  59 2.16  37 2.17  20 2.89  21 2.89
                             8 2.90   9 2.90   2 2.98   4 3.00  12 3.01  13 3.01  22 3.01  23 3.01
  29  0.752  0.248  0.500-  56 2.09  36 2.09  44 2.10  43 2.10  60 2.12  38 2.12   1 2.95   5 2.97
                             3 2.97  12 3.00  13 3.00  22 3.00  23 3.00   7 3.00   8 3.01   9 3.01
  30  0.757  0.757  0.000-  35 2.05  57 2.06  46 2.11  45 2.11  61 2.16  37 2.17  20 2.89  21 2.89
                            10 2.90  11 2.90   2 2.98   4 3.00  14 3.01  15 3.01  22 3.01  23 3.01
  31  0.752  0.752  0.500-  58 2.09  36 2.09  46 2.10  45 2.10  62 2.12  38 2.12   1 2.95   5 2.97
                             3 2.97  14 3.00  15 3.00  22 3.00  23 3.00   7 3.00  10 3.01  11 3.01
  32  0.253  0.000  0.500-   5 2.09  25 2.10  27 2.10   1 2.13  16 2.14  17 2.14
  33  0.253  0.500  0.000-   6 2.09  18 2.10  19 2.10   2 2.13  24 2.14  26 2.14
  34  0.251  0.500  0.500-   7 2.10  18 2.11  19 2.11  25 2.11  27 2.11   3 2.12
  35  0.733  0.000  0.000-   4 2.00  20 2.05  21 2.05  28 2.05  30 2.05
  36  0.748  0.000  0.500-   5 2.08  29 2.09  31 2.09   1 2.12  20 2.17  21 2.17
  37  0.748  0.500  0.000-   6 2.08  22 2.09  23 2.09   2 2.12  28 2.17  30 2.17
  38  0.749  0.500  0.500-   7 2.10   3 2.11  22 2.12  23 2.12  29 2.12  31 2.12
  39  0.250  0.251  0.251-  18 2.09  25 2.09  12 2.10   8 2.11  24 2.12  16 2.12
  40  0.250  0.251  0.749-  19 2.09  25 2.09  13 2.10   9 2.11  24 2.12  17 2.12
  41  0.250  0.749  0.251-  18 2.09  27 2.09  14 2.10  10 2.11  26 2.12  16 2.12
  42  0.250  0.749  0.749-  19 2.09  27 2.09  15 2.10  11 2.11  26 2.12  17 2.12
  43  0.750  0.250  0.250-  22 2.10  29 2.10  12 2.10   8 2.11  28 2.11  20 2.11
  44  0.750  0.250  0.750-  23 2.10  29 2.10  13 2.10   9 2.11  28 2.11  21 2.11
  45  0.750  0.750  0.250-  22 2.10  31 2.10  14 2.10  10 2.11  30 2.11  20 2.11
  46  0.750  0.750  0.750-  23 2.10  31 2.10  15 2.10  11 2.11  30 2.11  21 2.11
  47  0.000  0.000  0.265-   1 1.98   8 2.06  10 2.06  16 2.06  20 2.06
  48  0.000  0.000  0.735-   1 1.98   9 2.06  11 2.06  17 2.06  21 2.06
  49  0.000  0.500  0.253-   3 2.08  22 2.09  18 2.09   2 2.13   8 2.16  10 2.16
  50  0.000  0.500  0.747-   3 2.08  23 2.09  19 2.09   2 2.13   9 2.16  11 2.16
  51  0.501  0.000  0.254-   5 2.07  12 2.09  14 2.09   4 2.14  20 2.16  16 2.16
  52  0.501  0.000  0.746-   5 2.07  13 2.09  15 2.09   4 2.14  21 2.16  17 2.16
  53  0.500  0.500  0.251-   7 2.10   6 2.11  22 2.12  14 2.12  12 2.12  18 2.12
  54  0.500  0.500  0.749-   7 2.10   6 2.11  23 2.12  15 2.12  13 2.12  19 2.12
  55  0.000  0.265  0.000-   2 1.98   8 2.06   9 2.06  24 2.06  28 2.06
  56  0.000  0.253  0.500-   3 2.08  29 2.09  25 2.09   1 2.13   8 2.16   9 2.16
  57  0.000  0.735  0.000-   2 1.98  10 2.06  11 2.06  26 2.06  30 2.06
  58  0.000  0.747  0.500-   3 2.08  31 2.09  27 2.09   1 2.13  10 2.16  11 2.16
  59  0.501  0.254  0.000-   6 2.07  12 2.09  13 2.09   4 2.14  28 2.16  24 2.16
  60  0.500  0.251  0.500-   7 2.10   5 2.11  29 2.12  13 2.12  12 2.12  25 2.12
  61  0.501  0.746  0.000-   6 2.07  14 2.09  15 2.09   4 2.14  30 2.16  26 2.16
  62  0.500  0.749  0.500-   7 2.10   5 2.11  31 2.12  15 2.12  14 2.12  27 2.12
 
  LATTYP: Found a simple cubic cell.
 ALAT       =     8.4194560000
  
  Lattice vectors:
  
 A1 = (   8.4194560000,   0.0000000000,   0.0000000000)
 A2 = (   0.0000000000,   8.4194560000,   0.0000000000)
 A3 = (   0.0000000000,   0.0000000000,   8.4194560000)


Analysis of symmetry for initial positions (statically):
=====================================================================
 Subroutine PRICEL returns:
 Original cell was already a primitive cell.
 

 Routine SETGRP: Setting up the symmetry group for a 
 simple cubic supercell.


 Subroutine GETGRP returns: Found  8 space group operations
 (whereof  8 operations were pure point group operations)
 out of a pool of 48 trial point group operations.


The static configuration has the point symmetry C_4v.


Analysis of symmetry for dynamics (positions and initial velocities):
=====================================================================
 Subroutine PRICEL returns:
 Original cell was already a primitive cell.
 

 Routine SETGRP: Setting up the symmetry group for a 
 simple cubic supercell.


 Subroutine GETGRP returns: Found  8 space group operations
 (whereof  8 operations were pure point group operations)
 out of a pool of 48 trial point group operations.


The dynamic configuration has the point symmetry C_4v.


Analysis of structural, dynamic, and magnetic symmetry:
=====================================================================
 Subroutine PRICEL returns:
 Original cell was already a primitive cell.
 

 Routine SETGRP: Setting up the symmetry group for a 
 simple cubic supercell.


 Subroutine GETGRP returns: Found  8 space group operations
 (whereof  8 operations were pure point group operations)
 out of a pool of 48 trial point group operations.


The magnetic configuration has the point symmetry C_4v.


 Subroutine INISYM returns: Found  8 space group operations
 (whereof  8 operations are pure point group operations),
 and found     1 'primitive' translations

 
 
 KPOINTS: mode: manual_set, kpt density: 2, factor

Automatic generation of k-mesh.
Space group operators:
 irot       det(A)        alpha          n_x          n_y          n_z        tau_x        tau_y        tau_z
    1     1.000000     0.000001     1.000000     0.000000     0.000000     0.000000     0.000000     0.000000
    2    -1.000000   180.000000     0.000000     0.707107     0.707107     0.000000     0.000000     0.000000
    3    -1.000000   180.000000     0.000000     0.000000     1.000000     0.000000     0.000000     0.000000
    4     1.000000    90.000000    -1.000000     0.000000     0.000000     0.000000     0.000000     0.000000
    5     1.000000   180.000000     1.000000     0.000000     0.000000     0.000000     0.000000     0.000000
    6     1.000000    90.000000     1.000000     0.000000     0.000000     0.000000     0.000000     0.000000
    7    -1.000000   180.000000     0.000000     1.000000     0.000000     0.000000     0.000000     0.000000
    8    -1.000000   180.000000     0.000000    -0.707107     0.707107     0.000000     0.000000     0.000000
 
 Subroutine IBZKPT returns following result:
 ===========================================
 
 Found      1 irreducible k-points:
 
 Following reciprocal coordinates:
            Coordinates               Weight
  0.250000  0.250000  0.250000      8.000000
 
 Following cartesian coordinates:
            Coordinates               Weight
  0.029693  0.029693  0.029693      8.000000
 


--------------------------------------------------------------------------------------------------------




 Dimension of arrays:
   k-points           NKPTS =      1   k-points in BZ     NKDIM =      1   number of bands    NBANDS=    216
   number of dos      NEDOS =    301   number of ions     NIONS =     62
   non local maximal  LDIM  =      5   non local SUM 2l+1 LMDIM =     13
   total plane-waves  NPLWV =  74088
   max r-space proj   IRMAX =   1418   max aug-charges    IRDMAX=   5472
   dimension x,y,z NGX =    42 NGY =   42 NGZ =   42
   dimension x,y,z NGXF=    84 NGYF=   84 NGZF=   84
   support grid    NGXF=    84 NGYF=   84 NGZF=   84
   ions per type =              31  31
   NGX,Y,Z   is equivalent  to a cutoff of   8.29,  8.29,  8.29 a.u.
   NGXF,Y,Z  is equivalent  to a cutoff of  16.59, 16.59, 16.59 a.u.

 SYSTEM =  unknown system                          
 POSCAR =  Mg31 O31                                

 Startparameter for this run:
   NWRITE =      2    write-flag & timer
   PREC   = n         normal or accurate (medium, high low for compatibility)
   ISTART =      1    job   : 0-new  1-cont  2-samecut
   ICHARG =      0    charge: 1-file 2-atom 10-const
   ISPIN  =      2    spin polarized calculation?
   LNONCOLLINEAR =      F non collinear calculations
   LSORBIT =      F    spin-orbit coupling
   INIWAV =      1    electr: 0-lowe 1-rand  2-diag
   LASPH  =      T    aspherical Exc in radial PAW
   METAGGA=      F    non-selfconsistent MetaGGA calc.

 Electronic Relaxation 1
   ENCUT  =  400.0 eV  29.40 Ry    5.42 a.u.  13.73 13.73 13.73*2*pi/ulx,y,z
   ENINI  =  400.0     initial cutoff
   ENAUG  =  605.4 eV  augmentation charge cutoff
   NELM   =    100;   NELMIN=  2; NELMDL=  0     # of ELM steps 
   EDIFF  = 0.1E-05   stopping-criterion for ELM
   LREAL  =      T    real-space projection
   NLSPLINE    = F    spline interpolate recip. space projectors
   LCOMPAT=      F    compatible to vasp.4.4
   GGA_COMPAT  = T    GGA compatible to vasp.4.4-vasp.4.6
   LMAXPAW     = -100 max onsite density
   LMAXMIX     =    2 max onsite mixed and CHGCAR
   VOSKOWN=      0    Vosko Wilk Nusair interpolation
   ROPT   =   -0.00050  -0.00050
 Ionic relaxation
   EDIFFG = -.4E-01   stopping-criterion for IOM
   NSW    =     50    number of steps for IOM
   NBLOCK =      1;   KBLOCK =     50    inner block; outer block 
   IBRION =      2    ionic relax: 0-MD 1-quasi-New 2-CG
   NFREE  =      1    steps in history (QN), initial steepest desc. (CG)
   ISIF   =      2    stress and relaxation
   IWAVPR =     11    prediction:  0-non 1-charg 2-wave 3-comb
   ISYM   =      2    0-nonsym 1-usesym 2-fastsym
   LCORR  =      T    Harris-Foulkes like correction to forces

   POTIM  = 0.5000    time-step for ionic-motion
   TEIN   =    0.0    initial temperature
   TEBEG  =    0.0;   TEEND  =   0.0 temperature during run
   SMASS  =  -3.00    Nose mass-parameter (am)
   estimated Nose-frequenzy (Omega)   =  0.10E-29 period in steps =****** mass=  -0.162E-26a.u.
   SCALEE = 1.0000    scale energy and forces
   NPACO  =    256;   APACO  = 16.0  distance and # of slots for P.C.
   PSTRESS=    0.0 pullay stress

  Mass of Ions in am
   POMASS =  24.30 16.00
  Ionic Valenz
   ZVAL   =   2.00  6.00
  Atomic Wigner-Seitz radii
   RWIGS  =  -1.00 -1.00
  virtual crystal weights 
   VCA    =   1.00  1.00
   NELECT =     250.0000    total number of electrons
   NUPDOWN=      -1.0000    fix difference up-down

 DOS related values:
   EMIN   =  10.00;   EMAX   =-10.00  energy-range for DOS
   EFERMI =   0.00
   ISMEAR =     0;   SIGMA  =   0.10  broadening in eV -4-tet -1-fermi 0-gaus

 Electronic relaxation 2 (details)
   IALGO  =     38    algorithm
   LDIAG  =      T    sub-space diagonalisation (order eigenvalues)
   LSUBROT=      F    optimize rotation matrix (better conditioning)
   TURBO    =      0    0=normal 1=particle mesh
   IRESTART =      0    0=no restart 2=restart with 2 vectors
   NREBOOT  =      0    no. of reboots
   NMIN     =      0    reboot dimension
   EREF     =   0.00    reference energy to select bands
   IMIX   =      4    mixing-type and parameters
     AMIX     =   0.40;   BMIX     =  1.00
     AMIX_MAG =   1.60;   BMIX_MAG =  1.00
     AMIN     =   0.10
     WC   =   100.;   INIMIX=   1;  MIXPRE=   1;  MAXMIX= -45

 Intra band minimization:
   WEIMIN = 0.0010     energy-eigenvalue tresh-hold
   EBREAK =  0.12E-08  absolut break condition
   DEPER  =   0.30     relativ break condition  

   TIME   =   0.40     timestep for ELM

  volume/ion in A,a.u.               =       9.63        64.96
  Fermi-wavevector in a.u.,A,eV,Ry     =   1.224910  2.314744 20.414238  1.500404
  Thomas-Fermi vector in A             =   2.359967
 
 Write flags
   LWAVE        =      T    write WAVECAR
   LDOWNSAMPLE  =      F    k-point downsampling of WAVECAR
   LCHARG       =      F    write CHGCAR
   LVTOT        =      F    write LOCPOT, total local potential
   LVHAR        =      F    write LOCPOT, Hartree potential only
   LELF         =      F    write electronic localiz. function (ELF)
   LORBIT       =     12    0 simple, 1 ext, 2 COOP (PROOUT), +10 PAW based schemes


 Dipole corrections
   LMONO  =      F    monopole corrections only (constant potential shift)
   LDIPOL =      F    correct potential (dipole corrections)
   IDIPOL =      0    1-x, 2-y, 3-z, 4-all directions 
   EPSILON=  1.0000000 bulk dielectric constant

 Exchange correlation treatment:
   GGA     =    PS    GGA type
   LEXCH   =    14    internal setting for exchange type
   VOSKOWN=      0    Vosko Wilk Nusair interpolation
   LHFCALC =     F    Hartree Fock is set to
   LHFONE  =     F    Hartree Fock one center treatment
   AEXX    =    0.0000 exact exchange contribution

 Linear response parameters
   LEPSILON=     F    determine dielectric tensor
   LRPA    =     F    only Hartree local field effects (RPA)
   LNABLA  =     F    use nabla operator in PAW spheres
   LVEL    =     F    velocity operator in full k-point grid
   LINTERFAST=   F  fast interpolation
   KINTER  =     0    interpolate to denser k-point grid
   CSHIFT  =0.1000    complex shift for real part using Kramers Kronig
   OMEGAMAX=  -1.0    maximum frequency
   DEG_THRESHOLD= 0.2000000E-02 threshold for treating states as degnerate
   RTIME   =   -0.100 relaxation time in fs
  (WPLASMAI=    0.000 imaginary part of plasma frequency in eV, 0.658/RTIME)
   DFIELD  = 0.0000000 0.0000000 0.0000000 field for delta impulse in time
 
 Orbital magnetization related:
   ORBITALMAG=     F  switch on orbital magnetization
   LCHIMAG   =     F  perturbation theory with respect to B field
   DQ        =  0.001000  dq finite difference perturbation B field
   LLRAUG    =     F  two centre corrections for induced B field



--------------------------------------------------------------------------------------------------------


 conjugate gradient relaxation of ions
 charge density and potential will be updated during run
 spin polarized calculation
 Variant of blocked Davidson
 Davidson routine will perform the subspace rotation
 perform sub-space diagonalisation
    after iterative eigenvector-optimisation
 modified Broyden-mixing scheme, WC =      100.0
 initial mixing is a Kerker type mixing with AMIX =  0.4000 and BMIX =      1.0000
 Hartree-type preconditioning will be used
 using additional bands           91
 real space projection scheme for non local part
 use partial core corrections
 calculate Harris-corrections to forces 
   (improved forces if not selfconsistent)
 use gradient corrections 
 use of overlap-Matrix (Vanderbilt PP)
 Gauss-broadening in eV      SIGMA  =   0.10


--------------------------------------------------------------------------------------------------------


  energy-cutoff  :      400.00
  volume of cell :      596.83
      direct lattice vectors                 reciprocal lattice vectors
     8.419456000  0.000000000  0.000000000     0.118772519  0.000000000  0.000000000
     0.000000000  8.419456000  0.000000000     0.000000000  0.118772519  0.000000000
     0.000000000  0.000000000  8.419456000     0.000000000  0.000000000  0.118772519

  length of vectors
     8.419456000  8.419456000  8.419456000     0.118772519  0.118772519  0.118772519


 
 old parameters found on file WAVECAR:
  energy-cutoff  :      400.00
  volume of cell :      596.83
      direct lattice vectors                 reciprocal lattice vectors
     8.419456000  0.000000000  0.000000000     0.118772519  0.000000000  0.000000000
     0.000000000  8.419456000  0.000000000     0.000000000  0.118772519  0.000000000
     0.000000000  0.000000000  8.419456000     0.000000000  0.000000000  0.118772519

  length of vectors

 
 k-points in units of 2pi/SCALE and weight: mode: manual_set, kpt density: 2, factor
   0.02969313  0.02969313  0.02969313       1.000
 
 k-points in reciprocal lattice and weights: mode: manual_set, kpt density: 2, factor
   0.25000000  0.25000000  0.25000000       1.000
 
 position of ions in fractional coordinates (direct lattice) 
   0.99954087  0.00000000  0.50000000
   0.99954087  0.50000000  0.00000000
   0.99985408  0.50000000  0.50000000
   0.49543649  0.00000000  0.00000000
   0.50122726  0.00000000  0.50000000
   0.50122726  0.50000000  0.00000000
   0.50017856  0.50000000  0.50000000
   0.00028597  0.24317328  0.24317328
   0.00028597  0.24317328  0.75682672
   0.00028597  0.75682672  0.24317328
   0.00028597  0.75682672  0.75682672
   0.50034862  0.24831591  0.24831591
   0.50034862  0.24831591  0.75168409
   0.50034862  0.75168409  0.24831591
   0.50034862  0.75168409  0.75168409
   0.24411188  0.00000000  0.24654709
   0.24411188  0.00000000  0.75345291
   0.24844741  0.50000000  0.24905878
   0.24844741  0.50000000  0.75094122
   0.75683955  0.00000000  0.24282951
   0.75683955  0.00000000  0.75717049
   0.75190973  0.50000000  0.24833970
   0.75190973  0.50000000  0.75166030
   0.24411188  0.24654709  0.00000000
   0.24844741  0.24905878  0.50000000
   0.24411188  0.75345291  0.00000000
   0.24844741  0.75094122  0.50000000
   0.75683955  0.24282951  0.00000000
   0.75190973  0.24833970  0.50000000
   0.75683955  0.75717049  0.00000000
   0.75190973  0.75166030  0.50000000
   0.25311386  0.00000000  0.50000000
   0.25311386  0.50000000  0.00000000
   0.25107852  0.50000000  0.50000000
   0.73298985  0.00000000  0.00000000
   0.74796944  0.00000000  0.50000000
   0.74796944  0.50000000  0.00000000
   0.74902928  0.50000000  0.50000000
   0.25042675  0.25131474  0.25131474
   0.25042675  0.25131474  0.74868526
   0.25042675  0.74868526  0.25131474
   0.25042675  0.74868526  0.74868526
   0.75016373  0.25025427  0.25025427
   0.75016373  0.25025427  0.74974573
   0.75016373  0.74974573  0.25025427
   0.75016373  0.74974573  0.74974573
   0.00046931  0.00000000  0.26502024
   0.00046931  0.00000000  0.73497976
   0.00011572  0.50000000  0.25267297
   0.00011572  0.50000000  0.74732703
   0.50102052  0.00000000  0.25394655
   0.50102052  0.00000000  0.74605345
   0.50029339  0.50000000  0.25113785
   0.50029339  0.50000000  0.74886215
   0.00046931  0.26502024  0.00000000
   0.00011572  0.25267297  0.50000000
   0.00046931  0.73497976  0.00000000
   0.00011572  0.74732703  0.50000000
   0.50102052  0.25394655  0.00000000
   0.50029339  0.25113785  0.50000000
   0.50102052  0.74605345  0.00000000
   0.50029339  0.74886215  0.50000000
 
 position of ions in cartesian coordinates  (Angst):
   8.41559040  0.00000000  4.20972800
   8.41559040  4.20972800  0.00000000
   8.41822740  4.20972800  4.20972800
   4.17130574  0.00000000  0.00000000
   4.22006086  0.00000000  4.20972800
   4.22006086  4.20972800  0.00000000
   4.21123141  4.20972800  4.20972800
   0.00240774  2.04738671  2.04738671
   0.00240774  2.04738671  6.37206929
   0.00240774  6.37206929  2.04738671
   0.00240774  6.37206929  6.37206929
   4.21266317  2.09068490  2.09068490
   4.21266317  2.09068490  6.32877110
   4.21266317  6.32877110  2.09068490
   4.21266317  6.32877110  6.32877110
   2.05528925  0.00000000  2.07579239
   2.05528925  0.00000000  6.34366361
   2.09179203  4.20972800  2.09693942
   2.09179203  4.20972800  6.32251658
   6.37217726  0.00000000  2.04449239
   6.37217726  0.00000000  6.37496361
   6.33067090  4.20972800  2.09088518
   6.33067090  4.20972800  6.32857082
   2.05528925  2.07579239  0.00000000
   2.09179203  2.09693942  4.20972800
   2.05528925  6.34366361  0.00000000
   2.09179203  6.32251658  4.20972800
   6.37217726  2.04449239  0.00000000
   6.33067090  2.09088518  4.20972800
   6.37217726  6.37496361  0.00000000
   6.33067090  6.32857082  4.20972800
   2.13108099  0.00000000  4.20972800
   2.13108099  4.20972800  0.00000000
   2.11394459  4.20972800  4.20972800
   6.17137579  0.00000000  0.00000000
   6.29749583  0.00000000  4.20972800
   6.29749583  4.20972800  0.00000000
   6.30641905  4.20972800  4.20972800
   2.10845697  2.11593344  2.11593344
   2.10845697  2.11593344  6.30352256
   2.10845697  6.30352256  2.11593344
   2.10845697  6.30352256  6.30352256
   6.31597055  2.10700481  2.10700481
   6.31597055  2.10700481  6.31245119
   6.31597055  6.31245119  2.10700481
   6.31597055  6.31245119  6.31245119
   0.00395136  0.00000000  2.23132624
   0.00395136  0.00000000  6.18812976
   0.00097433  4.20972800  2.12736897
   0.00097433  4.20972800  6.29208703
   4.21832022  0.00000000  2.13809181
   4.21832022  0.00000000  6.28136419
   4.21219817  4.20972800  2.11444409
   4.21219817  4.20972800  6.30501191
   0.00395136  2.23132624  0.00000000
   0.00097433  2.12736897  4.20972800
   0.00395136  6.18812976  0.00000000
   0.00097433  6.29208703  4.20972800
   4.21832022  2.13809181  0.00000000
   4.21219817  2.11444409  4.20972800
   4.21832022  6.28136419  0.00000000
   4.21219817  6.30501191  4.20972800
 


--------------------------------------------------------------------------------------------------------


 k-point  1 :   0.2500 0.2500 0.2500  plane waves:   10834

 maximum and minimum number of plane-waves per node :     10834    10834

 maximum number of plane-waves:     10834
 maximum index in each direction: 
   IXMAX=   13   IYMAX=   13   IZMAX=   13
   IXMIN=  -13   IYMIN=  -13   IZMIN=  -13


 serial   3D FFT for wavefunctions
 parallel 3D FFT for charge:
    minimum data exchange during FFTs selected (reduces bandwidth)


 total amount of memory used by VASP MPI-rank0    50248. kBytes
=======================================================================

   base      :      30000. kBytes
   nonlr-proj:       8316. kBytes
   fftplans  :       1007. kBytes
   grid      :       7709. kBytes
   one-center:       1005. kBytes
   wavefun   :       2211. kBytes
 
     INWAV:  cpu time    0.2160: real time    0.3408
 Broyden mixing: mesh for mixing (old mesh)
   NGX = 27   NGY = 27   NGZ = 27
  (NGX  = 84   NGY  = 84   NGZ  = 84)
  gives a total of  19683 points

 charge density for first step will be calculated from the start-wavefunctions


--------------------------------------------------------------------------------------------------------


 Maximum index for non-local projection operator         1345
 Maximum index for augmentation-charges          361 (set IRDMAX)


--------------------------------------------------------------------------------------------------------


 initial charge from wavefunction
 First call to EWALD:  gamma=   0.211
 Maximum number of real-space cells 3x 3x 3
 Maximum number of reciprocal cells 3x 3x 3

    FEWALD:  cpu time    0.0000: real time    0.0026


--------------------------------------- Iteration      1(   1)  ---------------------------------------


    POTLOK:  cpu time    0.0320: real time    0.0326
    SETDIJ:  cpu time    0.5080: real time    0.5068
     EDDAV:  cpu time    0.6400: real time    0.6486
       DOS:  cpu time    0.0000: real time    0.0004
    CHARGE:  cpu time    0.0360: real time    0.0360
    MIXING:  cpu time    0.0000: real time    0.0005
    --------------------------------------------
      LOOP:  cpu time    1.2160: real time    1.2249

 eigenvalue-minimisations  :   792
 total energy-change (2. order) :-0.3731421E+03  (-0.4240164E-07)
 number of electron     250.0002276 magnetization      -0.0000000
 augmentation part       20.5739338 magnetization      -0.0000000

 Broyden mixing:
  rms(total) = 0.80019E-04    rms(broyden)= 0.79906E-04
  rms(prec ) = 0.14547E-03
  weight for this iteration     100.00

 Free energy of the ion-electron system (eV)
  ---------------------------------------------------
  alpha Z        PSCENC =       588.18717815
  Ewald energy   TEWEN  =    -10779.13686719
  -Hartree energ DENC   =     -4569.37967578
  -exchange      EXHF   =         0.00000000
  -V(xc)+E(xc)   XCENC  =      -536.36921775
  PAW double counting   =     17253.54667391   -15728.46680916
  entropy T*S    EENTRO =        -0.00000000
  eigenvalues    EBANDS =      -654.44047392
  atomic energy  EATOM  =     14052.91706009
  Solvation  Ediel_sol  =         0.00000000
  ---------------------------------------------------
  free energy    TOTEN  =      -373.14213165 eV

  energy without entropy =     -373.14213165  energy(sigma->0) =     -373.14213165


--------------------------------------------------------------------------------------------------------




--------------------------------------- Iteration      1(   2)  ---------------------------------------


    POTLOK:  cpu time    0.0320: real time    0.0386
    SETDIJ:  cpu time    0.5120: real time    0.5120
     EDDAV:  cpu time    0.3840: real time    0.3812
       DOS:  cpu time    0.0000: real time    0.0005
    --------------------------------------------
      LOOP:  cpu time    0.9280: real time    0.9323

 eigenvalue-minimisations  :   432
 total energy-change (2. order) : 0.1507033E-07  (-0.1713090E-07)
 number of electron     250.0002276 magnetization      -0.0000000
 augmentation part       20.5739338 magnetization      -0.0000000

 Free energy of the ion-electron system (eV)
  ---------------------------------------------------
  alpha Z        PSCENC =       588.18717815
  Ewald energy   TEWEN  =    -10779.13686719
  -Hartree energ DENC   =     -4569.38131200
  -exchange      EXHF   =         0.00000000
  -V(xc)+E(xc)   XCENC  =      -536.36915392
  PAW double counting   =     17253.54940643   -15728.46955647
  entropy T*S    EENTRO =        -0.00000000
  eigenvalues    EBANDS =      -654.43888673
  atomic energy  EATOM  =     14052.91706009
  Solvation  Ediel_sol  =         0.00000000
  ---------------------------------------------------
  free energy    TOTEN  =      -373.14213163 eV

  energy without entropy =     -373.14213163  energy(sigma->0) =     -373.14213163


--------------------------------------------------------------------------------------------------------




 average (electrostatic) potential at core
  the test charge radii are     1.0714  0.7215
  (the norm of the test charge is              1.0000)
       1 -34.5444       2 -34.5444       3 -34.9776       4 -34.6536       5 -34.9660
       6 -34.9660       7 -35.1641       8 -34.9666       9 -34.9666      10 -34.9666
      11 -34.9666      12 -35.1987      13 -35.1987      14 -35.1987      15 -35.1987
      16 -35.0526      17 -35.0526      18 -35.1849      19 -35.1849      20 -34.9584
      21 -34.9584      22 -35.1818      23 -35.1818      24 -35.0526      25 -35.1849
      26 -35.0526      27 -35.1849      28 -34.9584      29 -35.1818      30 -34.9584
      31 -35.1818      32 -69.9095      33 -69.9095      34 -70.0707      35 -69.2831
      36 -69.8441      37 -69.8441      38 -70.0699      39 -70.1007      40 -70.1007
      41 -70.1007      42 -70.1007      43 -70.0570      44 -70.0570      45 -70.0570
      46 -70.0570      47 -69.3364      48 -69.3364      49 -69.8477      50 -69.8477
      51 -69.8888      52 -69.8888      53 -70.0631      54 -70.0631      55 -69.3364
      56 -69.8477      57 -69.3364      58 -69.8477      59 -69.8888      60 -70.0631
      61 -69.8888      62 -70.0631
 
 
 
 E-fermi :   6.2469     XC(G=0): -11.1901     alpha+bet :-12.7896


 spin component 1

 k-point     1 :       0.2500    0.2500    0.2500
  band No.  band energies     occupation 
      1     -14.2978      1.00000
      2     -13.9185      1.00000
      3     -13.9052      1.00000
      4     -13.8616      1.00000
      5     -13.5926      1.00000
      6     -13.5819      1.00000
      7     -13.5460      1.00000
      8     -13.3780      1.00000
      9     -13.3597      1.00000
     10     -13.3494      1.00000
     11     -13.3404      1.00000
     12     -13.2226      1.00000
     13     -13.2175      1.00000
     14     -13.2029      1.00000
     15     -13.1779      1.00000
     16     -13.1626      1.00000
     17     -13.0889      1.00000
     18     -13.0465      1.00000
     19     -12.9900      1.00000
     20     -12.9879      1.00000
     21     -12.9736      1.00000
     22     -12.9519      1.00000
     23     -12.9435      1.00000
     24     -12.9080      1.00000
     25     -12.8975      1.00000
     26     -12.8001      1.00000
     27     -12.6507      1.00000
     28     -12.5646      1.00000
     29     -12.5433      1.00000
     30     -12.4540      1.00000
     31     -12.4502      1.00000
     32      -1.6822      1.00000
     33      -1.6504      1.00000
     34      -1.5778      1.00000
     35      -1.3876      1.00000
     36      -1.2125      1.00000
     37      -1.1832      1.00000
     38      -1.1802      1.00000
     39      -1.0939      1.00000
     40      -1.0883      1.00000
     41      -1.0564      1.00000
     42      -1.0533      1.00000
     43      -1.0228      1.00000
     44      -0.9778      1.00000
     45      -0.9550      1.00000
     46      -0.9323      1.00000
     47      -0.8441      1.00000
     48      -0.8165      1.00000
     49      -0.7819      1.00000
     50      -0.7723      1.00000
     51      -0.7342      1.00000
     52      -0.6975      1.00000
     53      -0.6222      1.00000
     54      -0.5412      1.00000
     55      -0.4618      1.00000
     56      -0.4615      1.00000
     57      -0.3179      1.00000
     58      -0.2881      1.00000
     59       0.0353      1.00000
     60       0.1724      1.00000
     61       0.1987      1.00000
     62       0.2394      1.00000
     63       0.2602      1.00000
     64       0.3442      1.00000
     65       0.3868      1.00000
     66       0.3984      1.00000
     67       0.4658      1.00000
     68       0.4796      1.00000
     69       0.5228      1.00000
     70       0.6610      1.00000
     71       0.7404      1.00000
     72       0.9701      1.00000
     73       1.0010      1.00000
     74       1.0170      1.00000
     75       1.0499      1.00000
     76       1.1060      1.00000
     77       1.1221      1.00000
     78       1.1926      1.00000
     79       1.2054      1.00000
     80       1.2369      1.00000
     81       1.3539      1.00000
     82       1.3750      1.00000
     83       1.3936      1.00000
     84       1.4104      1.00000
     85       1.4382      1.00000
     86       1.4969      1.00000
     87       1.5313      1.00000
     88       1.5391      1.00000
     89       1.5736      1.00000
     90       1.5839      1.00000
     91       1.6128      1.00000
     92       1.6156      1.00000
     93       1.6596      1.00000
     94       1.6619      1.00000
     95       1.7560      1.00000
     96       1.7681      1.00000
     97       1.7941      1.00000
     98       1.8191      1.00000
     99       1.8701      1.00000
    100       1.8738      1.00000
    101       1.8939      1.00000
    102       1.9067      1.00000
    103       1.9227      1.00000
    104       1.9374      1.00000
    105       1.9513      1.00000
    106       1.9661      1.00000
    107       1.9680      1.00000
    108       2.0153      1.00000
    109       2.0730      1.00000
    110       2.0997      1.00000
    111       2.1939      1.00000
    112       2.1957      1.00000
    113       2.2465      1.00000
    114       2.2650      1.00000
    115       2.3251      1.00000
    116       2.3264      1.00000
    117       2.3754      1.00000
    118       2.3910      1.00000
    119       2.4338      1.00000
    120       2.4551      1.00000
    121       2.5601      1.00000
    122       2.7196      1.00000
    123       2.8301      1.00000
    124       2.8684      1.00000
    125       5.6858      1.00000
    126       8.4984      0.00000
    127       9.3562      0.00000
    128       9.5474      0.00000
    129       9.9990      0.00000
    130      10.2803      0.00000
    131      10.5153      0.00000
    132      10.5238      0.00000
    133      10.6243      0.00000
    134      11.0062      0.00000
    135      11.1186      0.00000
    136      11.3579      0.00000
    137      11.4468      0.00000
    138      11.4981      0.00000
    139      11.8492      0.00000
    140      11.9532      0.00000
    141      11.9767      0.00000
    142      12.1256      0.00000
    143      12.2245      0.00000
    144      12.2925      0.00000
    145      12.2943      0.00000
    146      12.3507      0.00000
    147      12.3602      0.00000
    148      12.4309      0.00000
    149      12.5794      0.00000
    150      12.6112      0.00000
    151      12.6579      0.00000
    152      12.8820      0.00000
    153      12.9784      0.00000
    154      13.0753      0.00000
    155      13.1529      0.00000
    156      13.3147      0.00000
    157      13.3217      0.00000
    158      13.3551      0.00000
    159      13.3735      0.00000
    160      13.4016      0.00000
    161      13.4395      0.00000
    162      13.4559      0.00000
    163      13.5867      0.00000
    164      13.6213      0.00000
    165      13.8000      0.00000
    166      14.3166      0.00000
    167      14.3235      0.00000
    168      14.3524      0.00000
    169      14.3838      0.00000
    170      14.4027      0.00000
    171      14.4354      0.00000
    172      14.4989      0.00000
    173      14.5061      0.00000
    174      14.5792      0.00000
    175      14.6123      0.00000
    176      14.7233      0.00000
    177      14.8135      0.00000
    178      14.8458      0.00000
    179      14.9107      0.00000
    180      14.9245      0.00000
    181      14.9443      0.00000
    182      15.0085      0.00000
    183      15.0343      0.00000
    184      15.0705      0.00000
    185      15.0984      0.00000
    186      15.1179      0.00000
    187      15.1995      0.00000
    188      15.2172      0.00000
    189      15.2332      0.00000
    190      15.2791      0.00000
    191      15.2876      0.00000
    192      15.3131      0.00000
    193      15.3255      0.00000
    194      15.6164      0.00000
    195      15.6466      0.00000
    196      15.6466      0.00000
    197      15.8126      0.00000
    198      15.8891      0.00000
    199      15.8902      0.00000
    200      16.5631      0.00000
    201      16.6136      0.00000
    202      16.6223      0.00000
    203      16.6564      0.00000
    204      16.6883      0.00000
    205      16.6904      0.00000
    206      16.8892      0.00000
    207      16.9189      0.00000
    208      16.9213      0.00000
    209      17.0047      0.00000
    210      17.4254      0.00000
    211      17.5829      0.00000
    212      17.6128      0.00000
    213      17.8148      0.00000
    214      18.2672      0.00000
    215      18.2728      0.00000
    216      18.3934      0.00000

 spin component 2

 k-point     1 :       0.2500    0.2500    0.2500
  band No.  band energies     occupation 
      1     -14.2978      1.00000
      2     -13.9185      1.00000
      3     -13.9052      1.00000
      4     -13.8616      1.00000
      5     -13.5926      1.00000
      6     -13.5819      1.00000
      7     -13.5460      1.00000
      8     -13.3780      1.00000
      9     -13.3597      1.00000
     10     -13.3494      1.00000
     11     -13.3404      1.00000
     12     -13.2226      1.00000
     13     -13.2175      1.00000
     14     -13.2029      1.00000
     15     -13.1779      1.00000
     16     -13.1626      1.00000
     17     -13.0889      1.00000
     18     -13.0465      1.00000
     19     -12.9900      1.00000
     20     -12.9879      1.00000
     21     -12.9736      1.00000
     22     -12.9519      1.00000
     23     -12.9435      1.00000
     24     -12.9080      1.00000
     25     -12.8975      1.00000
     26     -12.8001      1.00000
     27     -12.6507      1.00000
     28     -12.5646      1.00000
     29     -12.5433      1.00000
     30     -12.4540      1.00000
     31     -12.4502      1.00000
     32      -1.6822      1.00000
     33      -1.6504      1.00000
     34      -1.5778      1.00000
     35      -1.3876      1.00000
     36      -1.2125      1.00000
     37      -1.1832      1.00000
     38      -1.1802      1.00000
     39      -1.0939      1.00000
     40      -1.0883      1.00000
     41      -1.0564      1.00000
     42      -1.0533      1.00000
     43      -1.0228      1.00000
     44      -0.9778      1.00000
     45      -0.9550      1.00000
     46      -0.9323      1.00000
     47      -0.8441      1.00000
     48      -0.8165      1.00000
     49      -0.7819      1.00000
     50      -0.7723      1.00000
     51      -0.7342      1.00000
     52      -0.6975      1.00000
     53      -0.6222      1.00000
     54      -0.5412      1.00000
     55      -0.4618      1.00000
     56      -0.4615      1.00000
     57      -0.3179      1.00000
     58      -0.2881      1.00000
     59       0.0353      1.00000
     60       0.1724      1.00000
     61       0.1987      1.00000
     62       0.2394      1.00000
     63       0.2602      1.00000
     64       0.3442      1.00000
     65       0.3868      1.00000
     66       0.3984      1.00000
     67       0.4658      1.00000
     68       0.4796      1.00000
     69       0.5228      1.00000
     70       0.6610      1.00000
     71       0.7404      1.00000
     72       0.9701      1.00000
     73       1.0010      1.00000
     74       1.0170      1.00000
     75       1.0499      1.00000
     76       1.1060      1.00000
     77       1.1221      1.00000
     78       1.1926      1.00000
     79       1.2054      1.00000
     80       1.2369      1.00000
     81       1.3539      1.00000
     82       1.3750      1.00000
     83       1.3936      1.00000
     84       1.4104      1.00000
     85       1.4382      1.00000
     86       1.4969      1.00000
     87       1.5313      1.00000
     88       1.5391      1.00000
     89       1.5736      1.00000
     90       1.5839      1.00000
     91       1.6128      1.00000
     92       1.6156      1.00000
     93       1.6596      1.00000
     94       1.6619      1.00000
     95       1.7560      1.00000
     96       1.7681      1.00000
     97       1.7941      1.00000
     98       1.8191      1.00000
     99       1.8701      1.00000
    100       1.8738      1.00000
    101       1.8939      1.00000
    102       1.9067      1.00000
    103       1.9227      1.00000
    104       1.9374      1.00000
    105       1.9513      1.00000
    106       1.9661      1.00000
    107       1.9680      1.00000
    108       2.0153      1.00000
    109       2.0730      1.00000
    110       2.0997      1.00000
    111       2.1939      1.00000
    112       2.1957      1.00000
    113       2.2465      1.00000
    114       2.2650      1.00000
    115       2.3251      1.00000
    116       2.3264      1.00000
    117       2.3754      1.00000
    118       2.3910      1.00000
    119       2.4338      1.00000
    120       2.4551      1.00000
    121       2.5601      1.00000
    122       2.7196      1.00000
    123       2.8301      1.00000
    124       2.8684      1.00000
    125       5.6858      1.00000
    126       8.4984      0.00000
    127       9.3562      0.00000
    128       9.5474      0.00000
    129       9.9990      0.00000
    130      10.2803      0.00000
    131      10.5153      0.00000
    132      10.5238      0.00000
    133      10.6243      0.00000
    134      11.0062      0.00000
    135      11.1186      0.00000
    136      11.3579      0.00000
    137      11.4468      0.00000
    138      11.4981      0.00000
    139      11.8492      0.00000
    140      11.9532      0.00000
    141      11.9767      0.00000
    142      12.1256      0.00000
    143      12.2245      0.00000
    144      12.2925      0.00000
    145      12.2943      0.00000
    146      12.3507      0.00000
    147      12.3602      0.00000
    148      12.4309      0.00000
    149      12.5794      0.00000
    150      12.6112      0.00000
    151      12.6579      0.00000
    152      12.8820      0.00000
    153      12.9784      0.00000
    154      13.0753      0.00000
    155      13.1529      0.00000
    156      13.3147      0.00000
    157      13.3217      0.00000
    158      13.3551      0.00000
    159      13.3735      0.00000
    160      13.4016      0.00000
    161      13.4395      0.00000
    162      13.4559      0.00000
    163      13.5867      0.00000
    164      13.6213      0.00000
    165      13.8000      0.00000
    166      14.3166      0.00000
    167      14.3235      0.00000
    168      14.3524      0.00000
    169      14.3838      0.00000
    170      14.4027      0.00000
    171      14.4354      0.00000
    172      14.4989      0.00000
    173      14.5061      0.00000
    174      14.5792      0.00000
    175      14.6123      0.00000
    176      14.7233      0.00000
    177      14.8135      0.00000
    178      14.8458      0.00000
    179      14.9107      0.00000
    180      14.9245      0.00000
    181      14.9443      0.00000
    182      15.0085      0.00000
    183      15.0343      0.00000
    184      15.0705      0.00000
    185      15.0984      0.00000
    186      15.1179      0.00000
    187      15.1995      0.00000
    188      15.2172      0.00000
    189      15.2332      0.00000
    190      15.2791      0.00000
    191      15.2876      0.00000
    192      15.3131      0.00000
    193      15.3255      0.00000
    194      15.6164      0.00000
    195      15.6466      0.00000
    196      15.6466      0.00000
    197      15.8126      0.00000
    198      15.8891      0.00000
    199      15.8902      0.00000
    200      16.5631      0.00000
    201      16.6136      0.00000
    202      16.6223      0.00000
    203      16.6564      0.00000
    204      16.6883      0.00000
    205      16.6904      0.00000
    206      16.8892      0.00000
    207      16.9189      0.00000
    208      16.9213      0.00000
    209      17.0047      0.00000
    210      17.4254      0.00000
    211      17.5829      0.00000
    212      17.6128      0.00000
    213      17.8148      0.00000
    214      18.2672      0.00000
    215      18.2728      0.00000
    216      18.3934      0.00000


--------------------------------------------------------------------------------------------------------


 soft charge-density along one line, spin component           1
         0         1         2         3         4         5         6         7         8         9
 total charge-density along one line
 
 soft charge-density along one line, spin component           2
         0         1         2         3         4         5         6         7         8         9
 total charge-density along one line
 
 pseudopotential strength for first ion, spin component:           1
  2.996   9.496   0.000  -0.000   0.000   0.000  -0.000   0.000
  9.496  29.942   0.000  -0.000   0.001   0.000  -0.000   0.002
  0.000   0.000   7.404   0.000  -0.000  10.685   0.000  -0.000
 -0.000  -0.000   0.000   7.403  -0.000   0.000  10.680  -0.000
  0.000   0.001  -0.000  -0.000   7.404  -0.000  -0.000  10.685
  0.000   0.000  10.685   0.000  -0.000  14.648   0.000  -0.000
 -0.000  -0.000   0.000  10.680  -0.000   0.000  14.637  -0.000
  0.000   0.002  -0.000  -0.000  10.685  -0.000  -0.000  14.648
 -0.000  -0.000   0.000   0.000   0.000   0.001   0.000   0.000
  0.000   0.000  -0.000   0.000   0.000  -0.000   0.000   0.000
 -0.002  -0.006  -0.000  -0.000  -0.000  -0.000  -0.000  -0.000
 -0.000  -0.000   0.000   0.001  -0.000   0.000   0.001  -0.000
  0.000   0.000  -0.000   0.000   0.001  -0.000   0.000   0.001
 pseudopotential strength for first ion, spin component:           2
  2.996   9.496   0.000  -0.000   0.000   0.000  -0.000   0.000
  9.496  29.942   0.000  -0.000   0.001   0.000  -0.000   0.002
  0.000   0.000   7.404   0.000  -0.000  10.685   0.000  -0.000
 -0.000  -0.000   0.000   7.403  -0.000   0.000  10.680  -0.000
  0.000   0.001  -0.000  -0.000   7.404  -0.000  -0.000  10.685
  0.000   0.000  10.685   0.000  -0.000  14.648   0.000  -0.000
 -0.000  -0.000   0.000  10.680  -0.000   0.000  14.637  -0.000
  0.000   0.002  -0.000  -0.000  10.685  -0.000  -0.000  14.648
 -0.000  -0.000   0.000   0.000   0.000   0.001   0.000   0.000
  0.000   0.000  -0.000   0.000   0.000  -0.000   0.000   0.000
 -0.002  -0.006  -0.000  -0.000  -0.000  -0.000  -0.000  -0.000
 -0.000  -0.000   0.000   0.001  -0.000   0.000   0.001  -0.000
  0.000   0.000  -0.000   0.000   0.001  -0.000   0.000   0.001
 total augmentation occupancy for first ion, spin component:           1
  1.163  -0.060   0.000   0.000  -0.003   0.000  -0.000   0.000   0.000  -0.000   0.063   0.000   0.000
 -0.060   0.004   0.000  -0.000   0.000   0.000   0.000  -0.000   0.000   0.000  -0.003   0.000  -0.000
  0.000   0.000   0.117   0.000   0.000  -0.013   0.000   0.000   0.000   0.000   0.000   0.000   0.000
  0.000  -0.000   0.000   0.180   0.000   0.000  -0.019   0.000   0.000   0.000   0.000   0.001  -0.000
 -0.003   0.000   0.000   0.000   0.118   0.000   0.000  -0.013   0.000   0.000   0.001   0.000  -0.001
  0.000   0.000  -0.013   0.000   0.000   0.001   0.000   0.000  -0.000   0.000   0.000   0.000   0.000
  0.000   0.000   0.000  -0.019   0.000   0.000   0.002   0.000   0.000   0.000   0.000  -0.000  -0.000
  0.000  -0.000   0.000   0.000  -0.013   0.000   0.000   0.001   0.000   0.000  -0.000   0.000   0.000
  0.000   0.000   0.000   0.000   0.000  -0.000   0.000   0.000   0.012   0.000   0.000   0.000   0.000
 -0.000   0.000   0.000   0.000   0.000   0.000   0.000   0.000   0.000   0.017   0.000   0.000   0.000
  0.063  -0.003   0.000   0.000   0.001   0.000   0.000  -0.000   0.000   0.000   0.074  -0.000  -0.000
 -0.000   0.000   0.000   0.001   0.000   0.000  -0.000   0.000   0.000   0.000  -0.000   0.017   0.000
  0.000  -0.000   0.000   0.000  -0.001   0.000  -0.000   0.000   0.000   0.000  -0.000   0.000   0.048
 total augmentation occupancy for first ion, spin component:           2
 -0.000   0.000   0.000  -0.000  -0.000   0.000  -0.000   0.000  -0.000   0.000   0.000   0.000   0.000
  0.000   0.000  -0.000   0.000   0.000   0.000   0.000  -0.000   0.000  -0.000  -0.000   0.000  -0.000
  0.000  -0.000  -0.000  -0.000  -0.000  -0.000   0.000   0.000  -0.000   0.000  -0.000   0.000   0.000
 -0.000   0.000  -0.000   0.000   0.000   0.000  -0.000   0.000  -0.000  -0.000   0.000   0.000   0.000
 -0.000   0.000  -0.000   0.000  -0.000   0.000   0.000   0.000   0.000   0.000   0.000  -0.000   0.000
  0.000   0.000  -0.000   0.000   0.000   0.000   0.000   0.000   0.000   0.000   0.000   0.000   0.000
 -0.000   0.000   0.000  -0.000   0.000   0.000   0.000   0.000   0.000   0.000   0.000  -0.000   0.000
  0.000  -0.000   0.000   0.000   0.000   0.000   0.000  -0.000  -0.000   0.000  -0.000  -0.000  -0.000
 -0.000   0.000  -0.000  -0.000   0.000   0.000   0.000  -0.000   0.000   0.000  -0.000  -0.000   0.000
  0.000  -0.000   0.000  -0.000   0.000   0.000   0.000   0.000   0.000  -0.000   0.000   0.000   0.000
  0.000  -0.000  -0.000  -0.000   0.000   0.000   0.000  -0.000  -0.000   0.000   0.000  -0.000  -0.000
  0.000   0.000   0.000   0.000  -0.000   0.000  -0.000  -0.000  -0.000   0.000   0.000   0.000   0.000
  0.000  -0.000   0.000   0.000   0.000   0.000   0.000  -0.000   0.000  -0.000  -0.000   0.000  -0.000


------------------------ aborting loop because EDIFF is reached ----------------------------------------


 


 total charge     
 
# of ion       s       p       d       tot
------------------------------------------
    1        0.165   0.205   0.093   0.463
    2        0.165   0.205   0.093   0.463
    3        0.154   0.189   0.084   0.427
    4        0.172   0.190   0.074   0.435
    5        0.155   0.190   0.085   0.431
    6        0.155   0.190   0.085   0.431
    7        0.154   0.188   0.084   0.425
    8        0.152   0.183   0.081   0.416
    9        0.152   0.183   0.081   0.416
   10        0.152   0.183   0.081   0.416
   11        0.152   0.183   0.081   0.416
   12        0.152   0.183   0.081   0.416
   13        0.152   0.183   0.081   0.416
   14        0.152   0.183   0.081   0.416
   15        0.152   0.183   0.081   0.416
   16        0.162   0.177   0.070   0.409
   17        0.162   0.177   0.070   0.408
   18        0.153   0.185   0.082   0.420
   19        0.153   0.185   0.082   0.420
   20        0.153   0.183   0.081   0.417
   21        0.152   0.183   0.081   0.416
   22        0.152   0.184   0.081   0.417
   23        0.152   0.184   0.081   0.417
   24        0.162   0.177   0.070   0.409
   25        0.153   0.185   0.082   0.420
   26        0.162   0.177   0.070   0.408
   27        0.153   0.185   0.082   0.420
   28        0.153   0.183   0.081   0.417
   29        0.152   0.184   0.081   0.417
   30        0.152   0.183   0.081   0.416
   31        0.152   0.184   0.081   0.417
   32        1.564   3.560   0.000   5.124
   33        1.564   3.560   0.000   5.124
   34        1.564   3.561   0.000   5.126
   35        1.564   3.569   0.000   5.134
   36        1.565   3.558   0.000   5.122
   37        1.565   3.558   0.000   5.122
   38        1.564   3.560   0.000   5.123
   39        1.567   3.562   0.000   5.129
   40        1.568   3.556   0.000   5.123
   41        1.568   3.556   0.000   5.123
   42        1.566   3.562   0.000   5.129
   43        1.564   3.564   0.000   5.128
   44        1.564   3.564   0.000   5.128
   45        1.564   3.564   0.000   5.128
   46        1.564   3.564   0.000   5.128
   47        1.566   3.564   0.000   5.131
   48        1.566   3.571   0.000   5.137
   49        1.564   3.557   0.000   5.121
   50        1.564   3.557   0.000   5.121
   51        1.567   3.555   0.000   5.122
   52        1.568   3.549   0.000   5.117
   53        1.564   3.559   0.000   5.123
   54        1.564   3.559   0.000   5.123
   55        1.566   3.564   0.000   5.131
   56        1.564   3.557   0.000   5.121
   57        1.566   3.571   0.000   5.137
   58        1.564   3.557   0.000   5.121
   59        1.567   3.555   0.000   5.122
   60        1.564   3.559   0.000   5.123
   61        1.568   3.549   0.000   5.117
   62        1.564   3.559   0.000   5.123
--------------------------------------------------
tot         53.336 116.096   2.504 171.935
 


 magnetization (x)
 
# of ion       s       p       d       tot
------------------------------------------
    1       -0.000   0.000   0.000   0.000
    2        0.000   0.000   0.000   0.000
    3       -0.000   0.000   0.000   0.000
    4       -0.000   0.000  -0.000  -0.000
    5        0.000   0.000   0.000   0.000
    6       -0.000   0.000  -0.000   0.000
    7        0.000   0.000   0.000   0.000
    8       -0.000   0.000  -0.000  -0.000
    9        0.000   0.000   0.000   0.000
   10       -0.000   0.000   0.000  -0.000
   11       -0.000  -0.000  -0.000  -0.000
   12        0.000  -0.000  -0.000   0.000
   13       -0.000   0.000   0.000   0.000
   14       -0.000   0.000  -0.000  -0.000
   15       -0.000   0.000   0.000   0.000
   16        0.000   0.000  -0.000   0.000
   17       -0.000   0.000   0.000  -0.000
   18        0.000   0.000   0.000   0.000
   19       -0.000   0.000   0.000   0.000
   20       -0.000  -0.000  -0.000  -0.000
   21       -0.000   0.000  -0.000  -0.000
   22       -0.000   0.000   0.000   0.000
   23       -0.000  -0.000   0.000  -0.000
   24        0.000   0.000   0.000   0.000
   25        0.000   0.000   0.000   0.000
   26       -0.000  -0.000   0.000  -0.000
   27       -0.000   0.000  -0.000   0.000
   28       -0.000  -0.000  -0.000  -0.000
   29        0.000   0.000  -0.000   0.000
   30       -0.000   0.000  -0.000   0.000
   31        0.000   0.000   0.000   0.000
   32       -0.000  -0.000   0.000  -0.000
   33        0.000  -0.000   0.000  -0.000
   34       -0.000  -0.000   0.000  -0.000
   35        0.000   0.000   0.000   0.000
   36        0.000  -0.000   0.000  -0.000
   37       -0.000  -0.000   0.000  -0.000
   38        0.000  -0.000   0.000  -0.000
   39       -0.000  -0.000   0.000  -0.000
   40       -0.000   0.000   0.000  -0.000
   41       -0.000   0.000   0.000  -0.000
   42        0.000  -0.000   0.000   0.000
   43        0.000  -0.000   0.000   0.000
   44       -0.000  -0.000   0.000  -0.000
   45        0.000  -0.000   0.000  -0.000
   46        0.000  -0.000   0.000  -0.000
   47       -0.000  -0.000   0.000  -0.000
   48       -0.000   0.000   0.000  -0.000
   49        0.000   0.000   0.000   0.000
   50        0.000   0.000   0.000   0.000
   51       -0.000   0.000   0.000  -0.000
   52        0.000  -0.000   0.000   0.000
   53       -0.000  -0.000   0.000  -0.000
   54       -0.000  -0.000   0.000  -0.000
   55       -0.000   0.000   0.000  -0.000
   56       -0.000   0.000   0.000   0.000
   57       -0.000   0.000   0.000  -0.000
   58       -0.000  -0.000   0.000  -0.000
   59        0.000  -0.000   0.000   0.000
   60        0.000  -0.000   0.000  -0.000
   61       -0.000  -0.000   0.000  -0.000
   62        0.000  -0.000   0.000  -0.000
--------------------------------------------------
tot         -0.000  -0.000   0.000  -0.000
 
    CHARGE:  cpu time    0.0360: real time    0.0383
    FORLOC:  cpu time    0.0040: real time    0.0039
    FORNL :  cpu time    0.1360: real time    0.1361
    STRESS:  cpu time    0.4600: real time    0.4733
    FORCOR:  cpu time    0.0280: real time    0.0270
    FORHAR:  cpu time    0.0040: real time    0.0065
    MIXING:  cpu time    0.0040: real time    0.0037
    OFIELD:  cpu time    0.0000: real time    0.0000

  FORCE on cell =-STRESS in cart. coord.  units (eV):
  Direction    XX          YY          ZZ          XY          YZ          ZX
  --------------------------------------------------------------------------------------
  Alpha Z   588.18718   588.18718   588.18718
  Ewald   -3510.92686 -3634.13414 -3634.13414    -0.00000    -0.00000    -0.00000
  Hartree  1570.37294  1499.50591  1499.50591    -0.00000    -0.00000    -0.00000
  E(xc)   -1123.06449 -1123.11368 -1123.11368     0.00000    -0.00000     0.00000
  Local   -1559.96398 -1368.71432 -1368.71432     0.00000     0.00000     0.00000
  n-local  -576.99331  -577.24879  -577.24879     0.01556     0.02711     0.01539
  augment   212.13888   212.39295   212.39295    -0.00000    -0.00000    -0.00000
  Kinetic  4397.42340  4402.31723  4402.31723    -1.06408    -1.00009    -1.06408
  Fock        0.00000     0.00000     0.00000     0.00000     0.00000     0.00000
  -------------------------------------------------------------------------------------
  Total      -2.82624    -0.80765    -0.80765     0.00000     0.00000     0.00000
  in kB      -7.58697    -2.16811    -2.16811     0.00000     0.00000     0.00000
  external pressure =       -3.97 kB  Pullay stress =        0.00 kB


 VOLUME and BASIS-vectors are now :
 -----------------------------------------------------------------------------
  energy-cutoff  :      400.00
  volume of cell :      596.83
      direct lattice vectors                 reciprocal lattice vectors
     8.419456000  0.000000000  0.000000000     0.118772519  0.000000000  0.000000000
     0.000000000  8.419456000  0.000000000     0.000000000  0.118772519  0.000000000
     0.000000000  0.000000000  8.419456000     0.000000000  0.000000000  0.118772519

  length of vectors
     8.419456000  8.419456000  8.419456000     0.118772519  0.118772519  0.118772519


 FORCES acting on ions
    electron-ion (+dipol)            ewald-force                    non-local-force                 convergence-correction
 -----------------------------------------------------------------------------------------------
   -.412E+01 -.103E-13 -.314E-06   0.402E+01 -.622E-14 0.550E-15   0.986E-01 0.000E+00 -.434E-18   0.560E-04 -.260E-14 -.360E-14
   -.412E+01 0.191E-12 -.311E-06   0.402E+01 0.377E-14 -.556E-15   0.986E-01 0.000E+00 0.000E+00   0.560E-04 0.613E-15 0.406E-14
   -.152E+01 -.408E-12 -.121E-06   0.150E+01 0.200E-13 0.804E-14   0.200E-01 0.000E+00 0.136E-19   0.582E-04 0.202E-14 -.417E-14
   0.430E+02 0.838E-13 0.337E-06   -.425E+02 0.102E-13 -.100E-14   -.558E+00 0.000E+00 0.000E+00   -.401E-04 -.237E-14 0.576E-14
   0.419E+01 0.699E-13 0.827E-06   -.409E+01 0.000E+00 0.212E-15   -.969E-01 0.000E+00 0.000E+00   -.558E-04 -.969E-15 -.465E-14
   0.419E+01 0.146E-11 0.820E-06   -.409E+01 0.187E-13 -.630E-14   -.969E-01 0.000E+00 0.136E-19   -.558E-04 0.204E-14 0.491E-14
   0.159E+01 -.446E-12 0.148E-06   -.157E+01 0.142E-13 0.646E-15   -.128E-01 0.000E+00 0.000E+00   -.548E-04 0.938E-15 -.410E-14
   -.604E+01 0.105E+02 0.105E+02   0.603E+01 -.111E+02 -.111E+02   0.136E-01 0.572E+00 0.572E+00   0.579E-04 -.220E-03 -.220E-03
   -.604E+01 0.105E+02 -.105E+02   0.603E+01 -.111E+02 0.111E+02   0.136E-01 0.572E+00 -.572E+00   0.579E-04 -.220E-03 0.220E-03
   -.604E+01 -.105E+02 0.105E+02   0.603E+01 0.111E+02 -.111E+02   0.136E-01 -.572E+00 0.572E+00   0.579E-04 0.220E-03 -.220E-03
   -.604E+01 -.105E+02 -.105E+02   0.603E+01 0.111E+02 0.111E+02   0.136E-01 -.572E+00 -.572E+00   0.579E-04 0.220E-03 0.220E-03
   0.625E+01 0.702E+01 0.702E+01   -.622E+01 -.719E+01 -.719E+01   -.263E-01 0.168E+00 0.168E+00   -.524E-04 -.209E-03 -.209E-03
   0.625E+01 0.702E+01 -.702E+01   -.622E+01 -.719E+01 0.719E+01   -.263E-01 0.168E+00 -.168E+00   -.524E-04 -.209E-03 0.209E-03
   0.625E+01 -.702E+01 0.702E+01   -.622E+01 0.719E+01 -.719E+01   -.263E-01 -.168E+00 0.168E+00   -.524E-04 0.209E-03 -.209E-03
   0.625E+01 -.702E+01 -.702E+01   -.622E+01 0.719E+01 0.719E+01   -.263E-01 -.168E+00 -.168E+00   -.524E-04 0.209E-03 0.209E-03
   0.957E+00 -.135E-13 0.438E+02   -.148E+01 -.888E-15 -.438E+02   0.523E+00 0.867E-18 -.182E-01   0.104E-03 -.202E-14 -.204E-03
   0.957E+00 0.287E-13 -.438E+02   -.148E+01 0.799E-14 0.438E+02   0.523E+00 0.000E+00 0.182E-01   0.104E-03 -.741E-15 0.204E-03
   -.184E-01 -.790E-13 0.480E+01   -.183E+00 0.115E-13 -.488E+01   0.206E+00 0.000E+00 0.815E-01   0.121E-03 0.105E-14 -.219E-03
   -.184E-01 0.280E-12 -.480E+01   -.183E+00 0.711E-14 0.488E+01   0.206E+00 0.867E-18 -.815E-01   0.121E-03 0.792E-15 0.219E-03
   -.473E+01 0.000E+00 0.865E+01   0.522E+01 0.977E-14 -.924E+01   -.495E+00 0.136E-19 0.599E+00   -.109E-03 -.618E-15 -.214E-03
   -.473E+01 0.743E-13 -.865E+01   0.522E+01 0.178E-14 0.924E+01   -.495E+00 0.000E+00 -.599E+00   -.109E-03 -.915E-15 0.214E-03
   -.676E-01 -.587E-12 0.200E+01   0.274E+00 0.355E-14 -.220E+01   -.204E+00 0.000E+00 0.200E+00   -.118E-03 0.321E-15 -.218E-03
   -.676E-01 0.693E-12 -.200E+01   0.274E+00 0.355E-14 0.220E+01   -.204E+00 0.000E+00 -.200E+00   -.118E-03 0.158E-14 0.218E-03
   0.957E+00 0.438E+02 -.285E-05   -.148E+01 -.438E+02 0.249E-14   0.523E+00 -.182E-01 0.000E+00   0.104E-03 -.204E-03 0.334E-14
   -.184E-01 0.480E+01 -.202E-05   -.183E+00 -.488E+01 0.877E-14   0.206E+00 0.815E-01 -.867E-18   0.121E-03 -.219E-03 -.298E-14
   0.957E+00 -.438E+02 -.102E-05   -.148E+01 0.438E+02 -.835E-17   0.523E+00 0.182E-01 -.867E-18   0.104E-03 0.204E-03 0.381E-14
   -.184E-01 -.480E+01 -.482E-06   -.183E+00 0.488E+01 0.105E-13   0.206E+00 -.815E-01 0.000E+00   0.121E-03 0.219E-03 -.392E-14
   -.473E+01 0.865E+01 -.149E-07   0.522E+01 -.924E+01 -.874E-14   -.495E+00 0.599E+00 0.000E+00   -.109E-03 -.214E-03 0.549E-14
   -.676E-01 0.200E+01 0.177E-06   0.274E+00 -.220E+01 -.869E-15   -.204E+00 0.200E+00 0.000E+00   -.118E-03 -.218E-03 -.531E-14
   -.473E+01 -.865E+01 0.318E-05   0.522E+01 0.924E+01 -.700E-14   -.495E+00 -.599E+00 0.000E+00   -.109E-03 0.214E-03 0.492E-14
   -.676E-01 -.200E+01 0.283E-05   0.274E+00 0.220E+01 -.703E-14   -.204E+00 -.200E+00 0.000E+00   -.118E-03 0.218E-03 -.429E-14
   0.129E+01 0.738E-15 0.379E-04   -.157E+01 -.213E-13 -.630E-14   0.276E+00 0.000E+00 0.000E+00   0.948E-03 -.761E-14 -.754E-14
   0.129E+01 -.483E-13 0.360E-04   -.157E+01 0.329E-13 0.679E-15   0.276E+00 0.000E+00 0.000E+00   0.948E-03 -.196E-14 0.321E-13
   0.102E+01 -.105E-11 0.174E-04   -.121E+01 0.355E-13 0.782E-14   0.209E+00 0.000E+00 -.542E-19   0.817E-04 0.475E-14 -.133E-13
   -.428E+02 0.933E-14 -.775E-05   0.484E+02 0.107E-13 0.195E-13   -.561E+01 0.000E+00 -.108E-18   0.563E-03 -.211E-14 0.385E-13
   -.126E+01 0.350E-14 -.264E-04   0.156E+01 -.142E-13 -.132E-13   -.284E+00 0.000E+00 0.000E+00   -.953E-03 -.258E-14 -.209E-13
   -.126E+01 0.247E-11 -.251E-04   0.156E+01 -.160E-13 0.120E-14   -.284E+00 0.000E+00 0.000E+00   -.953E-03 0.137E-13 0.209E-13
   -.115E+01 0.219E-11 -.157E-04   0.128E+01 -.284E-13 -.151E-13   -.126E+00 0.000E+00 0.000E+00   -.388E-03 0.117E-13 -.284E-13
   0.545E+01 0.440E+02 0.440E+02   -.527E+01 -.443E+02 -.443E+02   -.165E+00 0.270E+00 0.270E+00   0.346E-03 -.119E-02 -.119E-02
   0.545E+01 0.440E+02 -.440E+02   -.527E+01 -.443E+02 0.443E+02   -.165E+00 0.270E+00 -.270E+00   0.346E-03 -.119E-02 0.119E-02
   0.545E+01 -.440E+02 0.440E+02   -.527E+01 0.443E+02 -.443E+02   -.165E+00 -.270E+00 0.270E+00   0.346E-03 0.119E-02 -.119E-02
   0.545E+01 -.440E+02 -.440E+02   -.527E+01 0.443E+02 0.443E+02   -.165E+00 -.270E+00 -.270E+00   0.346E-03 0.119E-02 0.119E-02
   -.681E+01 0.162E+02 0.162E+02   0.664E+01 -.161E+02 -.161E+02   0.173E+00 -.147E+00 -.147E+00   -.434E-03 -.790E-03 -.790E-03
   -.681E+01 0.162E+02 -.162E+02   0.664E+01 -.161E+02 0.161E+02   0.173E+00 -.147E+00 0.147E+00   -.434E-03 -.790E-03 0.790E-03
   -.681E+01 -.162E+02 0.162E+02   0.664E+01 0.161E+02 -.161E+02   0.173E+00 0.147E+00 -.147E+00   -.434E-03 0.790E-03 -.790E-03
   -.681E+01 -.162E+02 -.162E+02   0.664E+01 0.161E+02 0.161E+02   0.173E+00 0.147E+00 0.147E+00   -.434E-03 0.790E-03 0.790E-03
   -.302E+02 0.304E-12 0.825E+02   0.303E+02 0.266E-13 -.891E+02   -.791E-01 -.542E-19 0.657E+01   0.446E-03 -.204E-13 -.889E-03
   -.302E+02 -.280E-12 -.825E+02   0.303E+02 -.355E-14 0.891E+02   -.791E-01 0.000E+00 -.657E+01   0.446E-03 -.824E-14 0.889E-03
   -.736E+01 0.374E-12 0.995E+01   0.738E+01 0.622E-14 -.103E+02   -.239E-01 -.542E-19 0.342E+00   0.492E-04 -.165E-14 -.440E-03
   -.736E+01 0.388E-12 -.995E+01   0.738E+01 0.888E-15 0.103E+02   -.239E-01 0.000E+00 -.342E+00   0.492E-04 -.169E-14 0.440E-03
   0.364E+02 0.725E-13 0.417E+02   -.366E+02 0.711E-14 -.425E+02   0.131E+00 0.000E+00 0.856E+00   -.228E-04 -.128E-13 -.383E-03
   0.364E+02 -.507E-13 -.417E+02   -.366E+02 -.711E-14 0.425E+02   0.131E+00 0.108E-18 -.856E+00   -.228E-04 -.712E-14 0.383E-03
   0.752E+01 -.471E-12 0.984E+01   -.759E+01 -.142E-13 -.101E+02   0.691E-01 0.000E+00 0.236E+00   -.370E-03 -.246E-14 -.117E-02
   0.752E+01 0.934E-12 -.984E+01   -.759E+01 0.284E-13 0.101E+02   0.691E-01 0.000E+00 -.236E+00   -.370E-03 0.754E-14 0.117E-02
   -.302E+02 0.825E+02 0.407E-04   0.303E+02 -.891E+02 0.172E-13   -.791E-01 0.657E+01 0.542E-19   0.446E-03 -.889E-03 0.267E-13
   -.736E+01 0.995E+01 0.352E-04   0.738E+01 -.103E+02 0.157E-14   -.239E-01 0.342E+00 0.542E-19   0.492E-04 -.440E-03 -.105E-13
   -.302E+02 -.825E+02 -.288E-04   0.303E+02 0.891E+02 -.849E-14   -.791E-01 -.657E+01 0.000E+00   0.446E-03 0.889E-03 0.341E-13
   -.736E+01 -.995E+01 -.314E-04   0.738E+01 0.103E+02 0.130E-13   -.239E-01 -.342E+00 0.000E+00   0.492E-04 0.440E-03 -.855E-14
   0.364E+02 0.417E+02 0.392E-04   -.366E+02 -.425E+02 -.128E-14   0.131E+00 0.856E+00 0.000E+00   -.228E-04 -.383E-03 0.457E-13
   0.752E+01 0.984E+01 0.232E-04   -.759E+01 -.101E+02 0.154E-13   0.691E-01 0.236E+00 0.000E+00   -.370E-03 -.117E-02 -.662E-14
   0.364E+02 -.417E+02 -.150E-04   -.366E+02 0.425E+02 -.138E-14   0.131E+00 -.856E+00 0.000E+00   -.228E-04 0.383E-03 0.314E-13
   0.752E+01 -.984E+01 -.135E-04   -.759E+01 0.101E+02 0.159E-13   0.691E-01 -.236E+00 0.000E+00   -.370E-03 0.117E-02 -.490E-14
 -----------------------------------------------------------------------------------------------
   0.561E+01 0.152E-11 0.149E-03   0.400E-13 0.373E-13 -.227E-13   -.559E+01 0.278E-16 0.108E-18   0.280E-03 -.615E-13 0.158E-12
 
 
 POSITION                                       TOTAL-FORCE (eV/Angst)
 -----------------------------------------------------------------------------------
      8.41559      0.00000      4.20973        -0.002498      0.000000     -0.000000
      8.41559      4.20973      0.00000        -0.002498      0.000000     -0.000000
      8.41823      4.20973      4.20973         0.006283      0.000000     -0.000000
      4.17131      0.00000      0.00000        -0.012273      0.000000     -0.000000
      4.22006      0.00000      4.20973         0.000756     -0.000000     -0.000000
      4.22006      4.20973      0.00000         0.000756      0.000000     -0.000000
      4.21123      4.20973      4.20973         0.013027      0.000000     -0.000000
      0.00241      2.04739      2.04739         0.001421      0.000260      0.000260
      0.00241      2.04739      6.37207         0.001421      0.000260     -0.000260
      0.00241      6.37207      2.04739         0.001421     -0.000260      0.000260
      0.00241      6.37207      6.37207         0.001421     -0.000260     -0.000260
      4.21266      2.09068      2.09068         0.000358      0.000014      0.000014
      4.21266      2.09068      6.32877         0.000358      0.000014     -0.000014
      4.21266      6.32877      2.09068         0.000358     -0.000014      0.000014
      4.21266      6.32877      6.32877         0.000358     -0.000014     -0.000014
      2.05529      0.00000      2.07579        -0.000692     -0.000000      0.004839
      2.05529      0.00000      6.34366        -0.000692     -0.000000     -0.004839
      2.09179      4.20973      2.09694         0.004417      0.000000      0.000404
      2.09179      4.20973      6.32252         0.004417     -0.000000     -0.000404
      6.37218      0.00000      2.04449        -0.005654      0.000000      0.002214
      6.37218      0.00000      6.37496        -0.005654      0.000000     -0.002214
      6.33067      4.20973      2.09089         0.002842      0.000000     -0.001294
      6.33067      4.20973      6.32857         0.002842      0.000000      0.001294
      2.05529      2.07579      0.00000        -0.000692      0.004839     -0.000000
      2.09179      2.09694      4.20973         0.004417      0.000404     -0.000000
      2.05529      6.34366      0.00000        -0.000692     -0.004839     -0.000000
      2.09179      6.32252      4.20973         0.004417     -0.000404     -0.000000
      6.37218      2.04449      0.00000        -0.005654      0.002214     -0.000000
      6.33067      2.09089      4.20973         0.002842     -0.001294     -0.000000
      6.37218      6.37496      0.00000        -0.005654     -0.002214     -0.000000
      6.33067      6.32857      4.20973         0.002842      0.001294     -0.000000
      2.13108      0.00000      4.20973        -0.010179     -0.000000     -0.000000
      2.13108      4.20973      0.00000        -0.010179      0.000000     -0.000000
      2.11394      4.20973      4.20973         0.016932     -0.000000     -0.000000
      6.17138      0.00000      0.00000        -0.020769      0.000000     -0.000000
      6.29750      0.00000      4.20973         0.008999      0.000000     -0.000000
      6.29750      4.20973      0.00000         0.008999      0.000000     -0.000000
      6.30642      4.20973      4.20973         0.001082      0.000000     -0.000000
      2.10846      2.11593      2.11593         0.005565      0.006645      0.006645
      2.10846      2.11593      6.30352         0.005565      0.006645     -0.006645
      2.10846      6.30352      2.11593         0.005565     -0.006645      0.006645
      2.10846      6.30352      6.30352         0.005565     -0.006645     -0.006645
      6.31597      2.10700      2.10700        -0.004274      0.000549      0.000549
      6.31597      2.10700      6.31245        -0.004274      0.000549     -0.000549
      6.31597      6.31245      2.10700        -0.004274     -0.000549      0.000549
      6.31597      6.31245      6.31245        -0.004274     -0.000549     -0.000549
      0.00395      0.00000      2.23133        -0.003949      0.000000     -0.003143
      0.00395      0.00000      6.18813        -0.003949      0.000000      0.003143
      0.00097      4.20973      2.12737         0.002484      0.000000     -0.007056
      0.00097      4.20973      6.29209         0.002484      0.000000      0.007056
      4.21832      0.00000      2.13809        -0.006075      0.000000     -0.001917
      4.21832      0.00000      6.28136        -0.006075      0.000000      0.001917
      4.21220      4.20973      2.11444         0.003947     -0.000000      0.010483
      4.21220      4.20973      6.30501         0.003947      0.000000     -0.010483
      0.00395      2.23133      0.00000        -0.003949     -0.003143     -0.000000
      0.00097      2.12737      4.20973         0.002484     -0.007056     -0.000000
      0.00395      6.18813      0.00000        -0.003949      0.003143     -0.000000
      0.00097      6.29209      4.20973         0.002484      0.007056     -0.000000
      4.21832      2.13809      0.00000        -0.006075     -0.001917     -0.000000
      4.21220      2.11444      4.20973         0.003947      0.010483     -0.000000
      4.21832      6.28136      0.00000        -0.006075      0.001917     -0.000000
      4.21220      6.30501      4.20973         0.003947     -0.010483     -0.000000
 -----------------------------------------------------------------------------------
    total drift:                                0.018757      0.000000      0.000149


--------------------------------------------------------------------------------------------------------



  FREE ENERGIE OF THE ION-ELECTRON SYSTEM (eV)
  ---------------------------------------------------
  free  energy   TOTEN  =      -373.14213163 eV

  energy  without entropy=     -373.14213163  energy(sigma->0) =     -373.14213163
 


--------------------------------------------------------------------------------------------------------


    POTLOK:  cpu time    0.5520: real time    0.5505


--------------------------------------------------------------------------------------------------------




--------------------------------------------------------------------------------------------------------


  
 reached required accuracy - stopping structural energy minimisation
 writing wavefunctions
     LOOP+:  cpu time    4.3800: real time    4.7727
    4ORBIT:  cpu time    0.0000: real time    0.0000
 


 total charge     
 
# of ion       s       p       d       tot
------------------------------------------
    1        0.165   0.205   0.093   0.463
    2        0.165   0.205   0.093   0.463
    3        0.154   0.189   0.084   0.427
    4        0.172   0.190   0.074   0.435
    5        0.155   0.190   0.085   0.431
    6        0.155   0.190   0.085   0.431
    7        0.154   0.188   0.084   0.425
    8        0.152   0.183   0.081   0.416
    9        0.152   0.183   0.081   0.416
   10        0.152   0.183   0.081   0.416
   11        0.152   0.183   0.081   0.416
   12        0.152   0.183   0.081   0.416
   13        0.152   0.183   0.081   0.416
   14        0.152   0.183   0.081   0.416
   15        0.152   0.183   0.081   0.416
   16        0.162   0.177   0.070   0.409
   17        0.162   0.177   0.070   0.408
   18        0.153   0.185   0.082   0.420
   19        0.153   0.185   0.082   0.420
   20        0.153   0.183   0.081   0.417
   21        0.152   0.183   0.081   0.416
   22        0.152   0.184   0.081   0.417
   23        0.152   0.184   0.081   0.417
   24        0.162   0.177   0.070   0.409
   25        0.153   0.185   0.082   0.420
   26        0.162   0.177   0.070   0.408
   27        0.153   0.185   0.082   0.420
   28        0.153   0.183   0.081   0.417
   29        0.152   0.184   0.081   0.417
   30        0.152   0.183   0.081   0.416
   31        0.152   0.184   0.081   0.417
   32        1.564   3.560   0.000   5.124
   33        1.564   3.560   0.000   5.124
   34        1.564   3.561   0.000   5.126
   35        1.564   3.569   0.000   5.134
   36        1.565   3.558   0.000   5.122
   37        1.565   3.558   0.000   5.122
   38        1.564   3.560   0.000   5.123
   39        1.567   3.562   0.000   5.129
   40        1.568   3.556   0.000   5.123
   41        1.568   3.556   0.000   5.123
   42        1.566   3.562   0.000   5.129
   43        1.564   3.564   0.000   5.128
   44        1.564   3.564   0.000   5.128
   45        1.564   3.564   0.000   5.128
   46        1.564   3.564   0.000   5.128
   47        1.566   3.564   0.000   5.131
   48        1.566   3.571   0.000   5.137
   49        1.564   3.557   0.000   5.121
   50        1.564   3.557   0.000   5.121
   51        1.567   3.555   0.000   5.122
   52        1.568   3.549   0.000   5.117
   53        1.564   3.559   0.000   5.123
   54        1.564   3.559   0.000   5.123
   55        1.566   3.564   0.000   5.131
   56        1.564   3.557   0.000   5.121
   57        1.566   3.571   0.000   5.137
   58        1.564   3.557   0.000   5.121
   59        1.567   3.555   0.000   5.122
   60        1.564   3.559   0.000   5.123
   61        1.568   3.549   0.000   5.117
   62        1.564   3.559   0.000   5.123
--------------------------------------------------
tot         53.336 116.096   2.504 171.935
 


 magnetization (x)
 
# of ion       s       p       d       tot
------------------------------------------
    1       -0.000   0.000   0.000   0.000
    2        0.000   0.000   0.000   0.000
    3       -0.000   0.000   0.000   0.000
    4       -0.000   0.000  -0.000  -0.000
    5        0.000   0.000   0.000   0.000
    6       -0.000   0.000  -0.000   0.000
    7        0.000   0.000   0.000   0.000
    8       -0.000   0.000  -0.000  -0.000
    9        0.000   0.000   0.000   0.000
   10       -0.000   0.000   0.000  -0.000
   11       -0.000  -0.000  -0.000  -0.000
   12        0.000  -0.000  -0.000   0.000
   13       -0.000   0.000   0.000   0.000
   14       -0.000   0.000  -0.000  -0.000
   15       -0.000   0.000   0.000   0.000
   16        0.000   0.000  -0.000   0.000
   17       -0.000   0.000   0.000  -0.000
   18        0.000   0.000   0.000   0.000
   19       -0.000   0.000   0.000   0.000
   20       -0.000  -0.000  -0.000  -0.000
   21       -0.000   0.000  -0.000  -0.000
   22       -0.000   0.000   0.000   0.000
   23       -0.000  -0.000   0.000  -0.000
   24        0.000   0.000   0.000   0.000
   25        0.000   0.000   0.000   0.000
   26       -0.000  -0.000   0.000  -0.000
   27       -0.000   0.000  -0.000   0.000
   28       -0.000  -0.000  -0.000  -0.000
   29        0.000   0.000  -0.000   0.000
   30       -0.000   0.000  -0.000   0.000
   31        0.000   0.000   0.000   0.000
   32       -0.000  -0.000   0.000  -0.000
   33        0.000  -0.000   0.000  -0.000
   34       -0.000  -0.000   0.000  -0.000
   35        0.000   0.000   0.000   0.000
   36        0.000  -0.000   0.000  -0.000
   37       -0.000  -0.000   0.000  -0.000
   38        0.000  -0.000   0.000  -0.000
   39       -0.000  -0.000   0.000  -0.000
   40       -0.000   0.000   0.000  -0.000
   41       -0.000   0.000   0.000  -0.000
   42        0.000  -0.000   0.000   0.000
   43        0.000  -0.000   0.000   0.000
   44       -0.000  -0.000   0.000  -0.000
   45        0.000  -0.000   0.000  -0.000
   46        0.000  -0.000   0.000  -0.000
   47       -0.000  -0.000   0.000  -0.000
   48       -0.000   0.000   0.000  -0.000
   49        0.000   0.000   0.000   0.000
   50        0.000   0.000   0.000   0.000
   51       -0.000   0.000   0.000  -0.000
   52        0.000  -0.000   0.000   0.000
   53       -0.000  -0.000   0.000  -0.000
   54       -0.000  -0.000   0.000  -0.000
   55       -0.000   0.000   0.000  -0.000
   56       -0.000   0.000   0.000   0.000
   57       -0.000   0.000   0.000  -0.000
   58       -0.000  -0.000   0.000  -0.000
   59        0.000  -0.000   0.000   0.000
   60        0.000  -0.000   0.000  -0.000
   61       -0.000  -0.000   0.000  -0.000
   62        0.000  -0.000   0.000  -0.000
--------------------------------------------------
tot         -0.000  -0.000   0.000  -0.000
 

 total amount of memory used by VASP MPI-rank0    50248. kBytes
=======================================================================

   base      :      30000. kBytes
   nonlr-proj:       8316. kBytes
   fftplans  :       1007. kBytes
   grid      :       7709. kBytes
   one-center:       1005. kBytes
   wavefun   :       2211. kBytes
 
  
  
 General timing and accounting informations for this job:
 ========================================================
  
                  Total CPU time used (sec):        6.096
                            User time (sec):        5.736
                          System time (sec):        0.360
                         Elapsed time (sec):        6.939
  
                   Maximum memory used (kb):       99140.
                   Average memory used (kb):           0.
  
                          Minor page faults:        28376
                          Major page faults:           10
                 Voluntary context switches:         2506
