   16   16   20    2
  0.9574673E+01  0.6006014E-09  0.6006014E-09  0.6006014E-09  0.5000000E-15
  1.000000000000000E-004
  CAR 
 unknown system                          
     64     16     52
 
  0.2500000E+00  0.2500000E+00  0.2500000E+00  0.6250000E-01
    1      -13.874369    -13.874369   1.000000   1.000000
    2      -13.011120    -13.011122   1.000000   1.000000
    3      -12.825479    -12.825482   1.000000   1.000000
    4      -12.821545    -12.821548   1.000000   1.000000
    5      -12.575734    -12.575737   1.000000   1.000000
    6      -12.574191    -12.574194   1.000000   1.000000
    7      -12.124483    -12.124468   1.000000   1.000000
    8      -12.043154    -12.043141   1.000000   1.000000
    9       -1.926750     -1.926727   1.000000   1.000000
   10       -0.810378     -0.810358   1.000000   1.000000
   11       -0.808872     -0.808852   1.000000   1.000000
   12       -0.797891     -0.797872   1.000000   1.000000
   13       -0.619874     -0.619855   1.000000   1.000000
   14       -0.610837     -0.610818   1.000000   1.000000
   15       -0.609671     -0.609652   1.000000   1.000000
   16        1.492071      1.492086   1.000000   1.000000
   17        1.495959      1.495975   1.000000   1.000000
   18        1.510434      1.510454   1.000000   1.000000
   19        1.869266      1.869282   1.000000   1.000000
   20        1.869822      1.869838   1.000000   1.000000
   21        2.019293      2.019311   1.000000   1.000000
   22        2.021713      2.021731   1.000000   1.000000
   23        2.029427      2.029439   1.000000   1.000000
   24        2.437850      2.437872   1.000000   1.000000
   25        2.471913      2.471926   1.000000   1.000000
   26        2.473161      2.473174   1.000000   1.000000
   27        2.546933      2.546944   1.000000   1.000000
   28        2.555618      2.555639   1.000000   1.000000
   29        2.944511      2.944532   1.000000   1.000000
   30        2.946168      2.946190   1.000000   1.000000
   31        3.269379      3.269399   1.000000   1.000000
   32        3.269565      3.269586   1.000000   1.000000
   33        8.245775      8.245848   0.000000   0.000000
   34       10.540491     10.540560   0.000000   0.000000
   35       11.360477     11.360545   0.000000   0.000000
   36       11.363650     11.363718   0.000000   0.000000
   37       11.786207     11.786272   0.000000   0.000000
   38       11.914307     11.914374   0.000000   0.000000
   39       12.809972     12.810027   0.000000   0.000000
   40       12.810795     12.810850   0.000000   0.000000
   41       12.972606     12.972663   0.000000   0.000000
   42       13.718196     13.718262   0.000000   0.000000
   43       13.719802     13.719868   0.000000   0.000000
   44       14.445931     14.446021   0.000000   0.000000
   45       15.556901     15.556986   0.000000   0.000000
   46       15.631076     15.631164   0.000000   0.000000
   47       15.631780     15.631868   0.000000   0.000000
   48       15.853815     15.853904   0.000000   0.000000
   49       15.920901     15.920984   0.000000   0.000000
   50       15.926026     15.926110   0.000000   0.000000
   51       16.915114     16.915175   0.000000   0.000000
   52       17.451121     17.451176   0.000000   0.000000
 
  0.2500000E+00  0.0000000E+00  0.0000000E+00  0.6250000E-01
    1      -13.874228    -13.874228   1.000000   1.000000
    2      -13.012056    -13.012058   1.000000   1.000000
    3      -12.824590    -12.824593   1.000000   1.000000
    4      -12.821586    -12.821589   1.000000   1.000000
    5      -12.575874    -12.575877   1.000000   1.000000
    6      -12.574111    -12.574115   1.000000   1.000000
    7      -12.124518    -12.124504   1.000000   1.000000
    8      -12.043118    -12.043105   1.000000   1.000000
    9       -1.926362     -1.926339   1.000000   1.000000
   10       -0.810124     -0.810104   1.000000   1.000000
   11       -0.808620     -0.808601   1.000000   1.000000
   12       -0.798446     -0.798427   1.000000   1.000000
   13       -0.620035     -0.620016   1.000000   1.000000
   14       -0.610674     -0.610655   1.000000   1.000000
   15       -0.609980     -0.609961   1.000000   1.000000
   16        1.492300      1.492316   1.000000   1.000000
   17        1.495260      1.495276   1.000000   1.000000
   18        1.509317      1.509338   1.000000   1.000000
   19        1.869548      1.869565   1.000000   1.000000
   20        1.870484      1.870501   1.000000   1.000000
   21        2.019314      2.019332   1.000000   1.000000
   22        2.021383      2.021401   1.000000   1.000000
   23        2.030054      2.030064   1.000000   1.000000
   24        2.437865      2.437890   1.000000   1.000000
   25        2.472443      2.472456   1.000000   1.000000
   26        2.473089      2.473102   1.000000   1.000000
   27        2.546622      2.546632   1.000000   1.000000
   28        2.556393      2.556416   1.000000   1.000000
   29        2.944338      2.944358   1.000000   1.000000
   30        2.945972      2.945992   1.000000   1.000000
   31        3.269098      3.269117   1.000000   1.000000
   32        3.269421      3.269441   1.000000   1.000000
   33        8.245963      8.246037   0.000000   0.000000
   34       10.539636     10.539705   0.000000   0.000000
   35       11.362184     11.362252   0.000000   0.000000
   36       11.362828     11.362896   0.000000   0.000000
   37       11.785966     11.786033   0.000000   0.000000
   38       11.914725     11.914792   0.000000   0.000000
   39       12.808529     12.808585   0.000000   0.000000
   40       12.812270     12.812325   0.000000   0.000000
   41       12.971238     12.971295   0.000000   0.000000
   42       13.719442     13.719507   0.000000   0.000000
   43       13.721037     13.721102   0.000000   0.000000
   44       14.446450     14.446540   0.000000   0.000000
   45       15.561677     15.561762   0.000000   0.000000
   46       15.624438     15.624525   0.000000   0.000000
   47       15.629272     15.629360   0.000000   0.000000
   48       15.860261     15.860351   0.000000   0.000000
   49       15.921485     15.921569   0.000000   0.000000
   50       15.924960     15.925044   0.000000   0.000000
   51       16.915134     16.915194   0.000000   0.000000
   52       17.446799     17.446867   0.000000   0.000000
 
  0.0000000E+00  0.0000000E+00 -0.2500000E+00  0.6250000E-01
    1      -13.874298    -13.874298   1.000000   1.000000
    2      -13.011709    -13.011711   1.000000   1.000000
    3      -12.825412    -12.825415   1.000000   1.000000
    4      -12.820981    -12.820984   1.000000   1.000000
    5      -12.575746    -12.575750   1.000000   1.000000
    6      -12.574274    -12.574277   1.000000   1.000000
    7      -12.124501    -12.124487   1.000000   1.000000
    8      -12.043160    -12.043147   1.000000   1.000000
    9       -1.926520     -1.926497   1.000000   1.000000
   10       -0.810453     -0.810434   1.000000   1.000000
   11       -0.809110     -0.809090   1.000000   1.000000
   12       -0.797788     -0.797769   1.000000   1.000000
   13       -0.620364     -0.620345   1.000000   1.000000
   14       -0.610674     -0.610655   1.000000   1.000000
   15       -0.609443     -0.609424   1.000000   1.000000
   16        1.491990      1.492006   1.000000   1.000000
   17        1.495966      1.495982   1.000000   1.000000
   18        1.510206      1.510227   1.000000   1.000000
   19        1.869789      1.869806   1.000000   1.000000
   20        1.870432      1.870449   1.000000   1.000000
   21        2.019082      2.019100   1.000000   1.000000
   22        2.021180      2.021198   1.000000   1.000000
   23        2.029789      2.029800   1.000000   1.000000
   24        2.437894      2.437918   1.000000   1.000000
   25        2.471950      2.471963   1.000000   1.000000
   26        2.473170      2.473182   1.000000   1.000000
   27        2.546640      2.546650   1.000000   1.000000
   28        2.556068      2.556092   1.000000   1.000000
   29        2.944251      2.944270   1.000000   1.000000
   30        2.945994      2.946015   1.000000   1.000000
   31        3.269041      3.269059   1.000000   1.000000
   32        3.269453      3.269473   1.000000   1.000000
   33        8.246041      8.246115   0.000000   0.000000
   34       10.540630     10.540700   0.000000   0.000000
   35       11.360487     11.360555   0.000000   0.000000
   36       11.363598     11.363666   0.000000   0.000000
   37       11.786255     11.786321   0.000000   0.000000
   38       11.914614     11.914681   0.000000   0.000000
   39       12.809605     12.809660   0.000000   0.000000
   40       12.811056     12.811112   0.000000   0.000000
   41       12.972500     12.972557   0.000000   0.000000
   42       13.718236     13.718302   0.000000   0.000000
   43       13.720133     13.720199   0.000000   0.000000
   44       14.446206     14.446296   0.000000   0.000000
   45       15.557926     15.558012   0.000000   0.000000
   46       15.629244     15.629331   0.000000   0.000000
   47       15.630153     15.630241   0.000000   0.000000
   48       15.855950     15.856039   0.000000   0.000000
   49       15.919914     15.919998   0.000000   0.000000
   50       15.926788     15.926872   0.000000   0.000000
   51       16.915310     16.915371   0.000000   0.000000
   52       17.449877     17.449932   0.000000   0.000000
 
  0.0000000E+00  0.2500000E+00  0.0000000E+00  0.6250000E-01
    1      -13.874210    -13.874210   1.000000   1.000000
    2      -13.012264    -13.012266   1.000000   1.000000
    3      -12.824307    -12.824310   1.000000   1.000000
    4      -12.821589    -12.821592   1.000000   1.000000
    5      -12.575924    -12.575928   1.000000   1.000000
    6      -12.574160    -12.574163   1.000000   1.000000
    7      -12.124520    -12.124506   1.000000   1.000000
    8      -12.043106    -12.043094   1.000000   1.000000
    9       -1.926331     -1.926308   1.000000   1.000000
   10       -0.810754     -0.810735   1.000000   1.000000
   11       -0.808602     -0.808583   1.000000   1.000000
   12       -0.797765     -0.797746   1.000000   1.000000
   13       -0.620922     -0.620903   1.000000   1.000000
   14       -0.610576     -0.610557   1.000000   1.000000
   15       -0.609272     -0.609253   1.000000   1.000000
   16        1.492746      1.492762   1.000000   1.000000
   17        1.494084      1.494101   1.000000   1.000000
   18        1.509757      1.509778   1.000000   1.000000
   19        1.869413      1.869430   1.000000   1.000000
   20        1.870897      1.870913   1.000000   1.000000
   21        2.019153      2.019170   1.000000   1.000000
   22        2.021510      2.021528   1.000000   1.000000
   23        2.030116      2.030127   1.000000   1.000000
   24        2.437861      2.437886   1.000000   1.000000
   25        2.472364      2.472376   1.000000   1.000000
   26        2.473164      2.473177   1.000000   1.000000
   27        2.546582      2.546592   1.000000   1.000000
   28        2.556408      2.556431   1.000000   1.000000
   29        2.944469      2.944490   1.000000   1.000000
   30        2.945885      2.945905   1.000000   1.000000
   31        3.269127      3.269146   1.000000   1.000000
   32        3.269347      3.269367   1.000000   1.000000
   33        8.245947      8.246021   0.000000   0.000000
   34       10.539528     10.539598   0.000000   0.000000
   35       11.362225     11.362293   0.000000   0.000000
   36       11.362885     11.362953   0.000000   0.000000
   37       11.786005     11.786072   0.000000   0.000000
   38       11.914684     11.914751   0.000000   0.000000
   39       12.808721     12.808778   0.000000   0.000000
   40       12.812191     12.812247   0.000000   0.000000
   41       12.971000     12.971058   0.000000   0.000000
   42       13.719529     13.719594   0.000000   0.000000
   43       13.721217     13.721282   0.000000   0.000000
   44       14.446517     14.446606   0.000000   0.000000
   45       15.562315     15.562400   0.000000   0.000000
   46       15.624374     15.624461   0.000000   0.000000
   47       15.628531     15.628618   0.000000   0.000000
   48       15.860584     15.860673   0.000000   0.000000
   49       15.921837     15.921921   0.000000   0.000000
   50       15.924929     15.925013   0.000000   0.000000
   51       16.914803     16.914864   0.000000   0.000000
   52       17.446342     17.446401   0.000000   0.000000
 
 -0.2500000E+00  0.2500000E+00  0.2500000E+00  0.6250000E-01
    1      -13.584689    -13.584691   1.000000   1.000000
    2      -13.156551    -13.156552   1.000000   1.000000
    3      -12.920689    -12.920691   1.000000   1.000000
    4      -12.862276    -12.862279   1.000000   1.000000
    5      -12.688247    -12.688250   1.000000   1.000000
    6      -12.544238    -12.544242   1.000000   1.000000
    7      -12.131738    -12.131724   1.000000   1.000000
    8      -12.067972    -12.067960   1.000000   1.000000
    9       -1.315909     -1.315886   1.000000   1.000000
   10       -0.595242     -0.595222   1.000000   1.000000
   11       -0.267251     -0.267233   1.000000   1.000000
   12       -0.205294     -0.205274   1.000000   1.000000
   13       -0.154836     -0.154817   1.000000   1.000000
   14       -0.067695     -0.067675   1.000000   1.000000
   15        0.156841      0.156860   1.000000   1.000000
   16        0.648029      0.648046   1.000000   1.000000
   17        0.727226      0.727244   1.000000   1.000000
   18        0.812811      0.812830   1.000000   1.000000
   19        1.210332      1.210353   1.000000   1.000000
   20        1.554658      1.554672   1.000000   1.000000
   21        1.615537      1.615557   1.000000   1.000000
   22        1.824280      1.824300   1.000000   1.000000
   23        1.966792      1.966805   1.000000   1.000000
   24        2.146579      2.146597   1.000000   1.000000
   25        2.210161      2.210181   1.000000   1.000000
   26        2.235989      2.236004   1.000000   1.000000
   27        2.439733      2.439752   1.000000   1.000000
   28        2.469946      2.469958   1.000000   1.000000
   29        2.707564      2.707583   1.000000   1.000000
   30        2.930524      2.930541   1.000000   1.000000
   31        2.934741      2.934761   1.000000   1.000000
   32        3.044242      3.044262   1.000000   1.000000
   33        9.817211      9.817287   0.000000   0.000000
   34       10.688478     10.688551   0.000000   0.000000
   35       11.805165     11.805239   0.000000   0.000000
   36       12.218961     12.219035   0.000000   0.000000
   37       12.428568     12.428639   0.000000   0.000000
   38       12.863638     12.863706   0.000000   0.000000
   39       13.409369     13.409434   0.000000   0.000000
   40       13.681176     13.681241   0.000000   0.000000
   41       13.884683     13.884743   0.000000   0.000000
   42       14.147121     14.147193   0.000000   0.000000
   43       14.414620     14.414697   0.000000   0.000000
   44       14.557007     14.557081   0.000000   0.000000
   45       15.132142     15.132219   0.000000   0.000000
   46       15.186566     15.186640   0.000000   0.000000
   47       15.283201     15.283275   0.000000   0.000000
   48       15.426700     15.426778   0.000000   0.000000
   49       15.674215     15.674282   0.000000   0.000000
   50       15.680140     15.680207   0.000000   0.000000
   51       15.787858     15.787916   0.000000   0.000000
   52       16.670427     16.670594   0.000000   0.000000
 
  0.2500000E+00 -0.2500000E+00  0.2500000E+00  0.6250000E-01
    1      -13.584517    -13.584519   1.000000   1.000000
    2      -13.157026    -13.157027   1.000000   1.000000
    3      -12.921463    -12.921465   1.000000   1.000000
    4      -12.860956    -12.860959   1.000000   1.000000
    5      -12.688674    -12.688677   1.000000   1.000000
    6      -12.543902    -12.543905   1.000000   1.000000
    7      -12.131682    -12.131668   1.000000   1.000000
    8      -12.068196    -12.068184   1.000000   1.000000
    9       -1.315466     -1.315444   1.000000   1.000000
   10       -0.595545     -0.595525   1.000000   1.000000
   11       -0.266816     -0.266798   1.000000   1.000000
   12       -0.206193     -0.206174   1.000000   1.000000
   13       -0.154465     -0.154446   1.000000   1.000000
   14       -0.067101     -0.067082   1.000000   1.000000
   15        0.156775      0.156794   1.000000   1.000000
   16        0.648787      0.648804   1.000000   1.000000
   17        0.725757      0.725776   1.000000   1.000000
   18        0.812977      0.812996   1.000000   1.000000
   19        1.209921      1.209941   1.000000   1.000000
   20        1.554494      1.554508   1.000000   1.000000
   21        1.615620      1.615640   1.000000   1.000000
   22        1.823742      1.823762   1.000000   1.000000
   23        1.967312      1.967325   1.000000   1.000000
   24        2.147587      2.147604   1.000000   1.000000
   25        2.209983      2.210003   1.000000   1.000000
   26        2.236050      2.236065   1.000000   1.000000
   27        2.439855      2.439874   1.000000   1.000000
   28        2.469617      2.469628   1.000000   1.000000
   29        2.707442      2.707461   1.000000   1.000000
   30        2.930627      2.930645   1.000000   1.000000
   31        2.934481      2.934501   1.000000   1.000000
   32        3.044066      3.044086   1.000000   1.000000
   33        9.817253      9.817328   0.000000   0.000000
   34       10.688497     10.688570   0.000000   0.000000
   35       11.805470     11.805544   0.000000   0.000000
   36       12.220130     12.220204   0.000000   0.000000
   37       12.428903     12.428974   0.000000   0.000000
   38       12.864556     12.864624   0.000000   0.000000
   39       13.409112     13.409177   0.000000   0.000000
   40       13.680143     13.680208   0.000000   0.000000
   41       13.883715     13.883774   0.000000   0.000000
   42       14.147190     14.147263   0.000000   0.000000
   43       14.414068     14.414143   0.000000   0.000000
   44       14.556260     14.556334   0.000000   0.000000
   45       15.133391     15.133467   0.000000   0.000000
   46       15.187554     15.187628   0.000000   0.000000
   47       15.284597     15.284671   0.000000   0.000000
   48       15.427469     15.427547   0.000000   0.000000
   49       15.674789     15.674856   0.000000   0.000000
   50       15.677357     15.677423   0.000000   0.000000
   51       15.786275     15.786332   0.000000   0.000000
   52       16.668220     16.667956   0.000000   0.000000
 
  0.2500000E+00  0.2500000E+00 -0.2500000E+00  0.6250000E-01
    1      -13.585123    -13.585124   1.000000   1.000000
    2      -13.155618    -13.155619   1.000000   1.000000
    3      -12.919235    -12.919237   1.000000   1.000000
    4      -12.864333    -12.864336   1.000000   1.000000
    5      -12.687416    -12.687419   1.000000   1.000000
    6      -12.545336    -12.545340   1.000000   1.000000
    7      -12.131843    -12.131829   1.000000   1.000000
    8      -12.067465    -12.067453   1.000000   1.000000
    9       -1.317062     -1.317039   1.000000   1.000000
   10       -0.594560     -0.594540   1.000000   1.000000
   11       -0.268418     -0.268400   1.000000   1.000000
   12       -0.203209     -0.203189   1.000000   1.000000
   13       -0.155517     -0.155498   1.000000   1.000000
   14       -0.069319     -0.069300   1.000000   1.000000
   15        0.157162      0.157180   1.000000   1.000000
   16        0.646456      0.646474   1.000000   1.000000
   17        0.729771      0.729790   1.000000   1.000000
   18        0.813753      0.813772   1.000000   1.000000
   19        1.211308      1.211328   1.000000   1.000000
   20        1.554989      1.555003   1.000000   1.000000
   21        1.615164      1.615184   1.000000   1.000000
   22        1.825659      1.825679   1.000000   1.000000
   23        1.965653      1.965666   1.000000   1.000000
   24        2.145651      2.145668   1.000000   1.000000
   25        2.210947      2.210967   1.000000   1.000000
   26        2.234160      2.234175   1.000000   1.000000
   27        2.439260      2.439278   1.000000   1.000000
   28        2.470468      2.470480   1.000000   1.000000
   29        2.707860      2.707880   1.000000   1.000000
   30        2.930407      2.930425   1.000000   1.000000
   31        2.934882      2.934903   1.000000   1.000000
   32        3.044785      3.044805   1.000000   1.000000
   33        9.817159      9.817234   0.000000   0.000000
   34       10.688925     10.688999   0.000000   0.000000
   35       11.804802     11.804876   0.000000   0.000000
   36       12.215129     12.215203   0.000000   0.000000
   37       12.428392     12.428462   0.000000   0.000000
   38       12.861670     12.861738   0.000000   0.000000
   39       13.410095     13.410161   0.000000   0.000000
   40       13.684369     13.684434   0.000000   0.000000
   41       13.887417     13.887476   0.000000   0.000000
   42       14.147027     14.147100   0.000000   0.000000
   43       14.413854     14.413930   0.000000   0.000000
   44       14.555958     14.556031   0.000000   0.000000
   45       15.127428     15.127505   0.000000   0.000000
   46       15.181914     15.181988   0.000000   0.000000
   47       15.284810     15.284885   0.000000   0.000000
   48       15.423793     15.423872   0.000000   0.000000
   49       15.672919     15.672986   0.000000   0.000000
   50       15.686904     15.686971   0.000000   0.000000
   51       15.793473     15.793531   0.000000   0.000000
   52       16.677726     16.702024   0.000000   0.000000
 
  0.2500000E+00  0.0000000E+00  0.5000000E+00  0.6250000E-01
    1      -13.584845    -13.584846   1.000000   1.000000
    2      -13.155832    -13.155834   1.000000   1.000000
    3      -12.922753    -12.922755   1.000000   1.000000
    4      -12.860725    -12.860728   1.000000   1.000000
    5      -12.688373    -12.688376   1.000000   1.000000
    6      -12.543954    -12.543958   1.000000   1.000000
    7      -12.131686    -12.131672   1.000000   1.000000
    8      -12.068228    -12.068216   1.000000   1.000000
    9       -1.315986     -1.315964   1.000000   1.000000
   10       -0.594983     -0.594963   1.000000   1.000000
   11       -0.267022     -0.267004   1.000000   1.000000
   12       -0.206665     -0.206646   1.000000   1.000000
   13       -0.154265     -0.154247   1.000000   1.000000
   14       -0.067406     -0.067386   1.000000   1.000000
   15        0.157274      0.157293   1.000000   1.000000
   16        0.649693      0.649710   1.000000   1.000000
   17        0.726105      0.726124   1.000000   1.000000
   18        0.812755      0.812774   1.000000   1.000000
   19        1.209525      1.209545   1.000000   1.000000
   20        1.554215      1.554228   1.000000   1.000000
   21        1.615986      1.616007   1.000000   1.000000
   22        1.823826      1.823846   1.000000   1.000000
   23        1.967419      1.967431   1.000000   1.000000
   24        2.146811      2.146828   1.000000   1.000000
   25        2.210241      2.210261   1.000000   1.000000
   26        2.236366      2.236380   1.000000   1.000000
   27        2.439168      2.439187   1.000000   1.000000
   28        2.469908      2.469919   1.000000   1.000000
   29        2.707557      2.707578   1.000000   1.000000
   30        2.930804      2.930823   1.000000   1.000000
   31        2.933797      2.933816   1.000000   1.000000
   32        3.044195      3.044213   1.000000   1.000000
   33        9.817168      9.817243   0.000000   0.000000
   34       10.690356     10.690430   0.000000   0.000000
   35       11.802454     11.802529   0.000000   0.000000
   36       12.221402     12.221475   0.000000   0.000000
   37       12.429025     12.429095   0.000000   0.000000
   38       12.866051     12.866120   0.000000   0.000000
   39       13.410601     13.410667   0.000000   0.000000
   40       13.679334     13.679399   0.000000   0.000000
   41       13.882734     13.882794   0.000000   0.000000
   42       14.148110     14.148182   0.000000   0.000000
   43       14.411047     14.411123   0.000000   0.000000
   44       14.550005     14.550078   0.000000   0.000000
   45       15.132131     15.132207   0.000000   0.000000
   46       15.186250     15.186324   0.000000   0.000000
   47       15.289189     15.289263   0.000000   0.000000
   48       15.428426     15.428505   0.000000   0.000000
   49       15.673742     15.673808   0.000000   0.000000
   50       15.678926     15.678993   0.000000   0.000000
   51       15.789462     15.789520   0.000000   0.000000
   52       16.666635     16.666899   0.000000   0.000000
 
 -0.2500000E+00  0.5000000E+00  0.5000000E+00  0.6250000E-01
    1      -13.585189    -13.585190   1.000000   1.000000
    2      -13.154815    -13.154816   1.000000   1.000000
    3      -12.922207    -12.922209   1.000000   1.000000
    4      -12.862183    -12.862186   1.000000   1.000000
    5      -12.687983    -12.687986   1.000000   1.000000
    6      -12.544287    -12.544290   1.000000   1.000000
    7      -12.131706    -12.131692   1.000000   1.000000
    8      -12.068003    -12.067991   1.000000   1.000000
    9       -1.316911     -1.316888   1.000000   1.000000
   10       -0.594015     -0.593995   1.000000   1.000000
   11       -0.267584     -0.267565   1.000000   1.000000
   12       -0.205655     -0.205635   1.000000   1.000000
   13       -0.154663     -0.154644   1.000000   1.000000
   14       -0.067943     -0.067923   1.000000   1.000000
   15        0.157557      0.157576   1.000000   1.000000
   16        0.648623      0.648640   1.000000   1.000000
   17        0.727630      0.727648   1.000000   1.000000
   18        0.812439      0.812457   1.000000   1.000000
   19        1.209984      1.210004   1.000000   1.000000
   20        1.554134      1.554147   1.000000   1.000000
   21        1.615489      1.615509   1.000000   1.000000
   22        1.824376      1.824396   1.000000   1.000000
   23        1.966886      1.966899   1.000000   1.000000
   24        2.146221      2.146239   1.000000   1.000000
   25        2.210764      2.210784   1.000000   1.000000
   26        2.236011      2.236026   1.000000   1.000000
   27        2.438649      2.438668   1.000000   1.000000
   28        2.470363      2.470375   1.000000   1.000000
   29        2.707689      2.707709   1.000000   1.000000
   30        2.930788      2.930808   1.000000   1.000000
   31        2.934120      2.934140   1.000000   1.000000
   32        3.044780      3.044799   1.000000   1.000000
   33        9.816865      9.816940   0.000000   0.000000
   34       10.689826     10.689899   0.000000   0.000000
   35       11.802536     11.802611   0.000000   0.000000
   36       12.219704     12.219777   0.000000   0.000000
   37       12.429427     12.429497   0.000000   0.000000
   38       12.864679     12.864747   0.000000   0.000000
   39       13.410003     13.410068   0.000000   0.000000
   40       13.681383     13.681448   0.000000   0.000000
   41       13.884650     13.884710   0.000000   0.000000
   42       14.148571     14.148644   0.000000   0.000000
   43       14.409218     14.409294   0.000000   0.000000
   44       14.549855     14.549929   0.000000   0.000000
   45       15.131468     15.131544   0.000000   0.000000
   46       15.184006     15.184080   0.000000   0.000000
   47       15.290722     15.290797   0.000000   0.000000
   48       15.428253     15.428332   0.000000   0.000000
   49       15.673848     15.673915   0.000000   0.000000
   50       15.679632     15.679699   0.000000   0.000000
   51       15.791287     15.791345   0.000000   0.000000
   52       16.670654     16.670078   0.000000   0.000000
 
  0.2500000E+00  0.5000000E+00  0.0000000E+00  0.6250000E-01
    1      -13.584851    -13.584852   1.000000   1.000000
    2      -13.156116    -13.156117   1.000000   1.000000
    3      -12.920101    -12.920103   1.000000   1.000000
    4      -12.863380    -12.863383   1.000000   1.000000
    5      -12.687146    -12.687149   1.000000   1.000000
    6      -12.545457    -12.545460   1.000000   1.000000
    7      -12.131874    -12.131860   1.000000   1.000000
    8      -12.067425    -12.067413   1.000000   1.000000
    9       -1.316599     -1.316577   1.000000   1.000000
   10       -0.594929     -0.594909   1.000000   1.000000
   11       -0.268540     -0.268522   1.000000   1.000000
   12       -0.203672     -0.203652   1.000000   1.000000
   13       -0.154568     -0.154549   1.000000   1.000000
   14       -0.069319     -0.069300   1.000000   1.000000
   15        0.156901      0.156920   1.000000   1.000000
   16        0.646696      0.646713   1.000000   1.000000
   17        0.728746      0.728765   1.000000   1.000000
   18        0.813737      0.813756   1.000000   1.000000
   19        1.211258      1.211279   1.000000   1.000000
   20        1.554228      1.554241   1.000000   1.000000
   21        1.615940      1.615961   1.000000   1.000000
   22        1.825359      1.825380   1.000000   1.000000
   23        1.965782      1.965794   1.000000   1.000000
   24        2.145236      2.145254   1.000000   1.000000
   25        2.210668      2.210688   1.000000   1.000000
   26        2.235597      2.235611   1.000000   1.000000
   27        2.438969      2.438988   1.000000   1.000000
   28        2.470628      2.470639   1.000000   1.000000
   29        2.707946      2.707967   1.000000   1.000000
   30        2.930641      2.930661   1.000000   1.000000
   31        2.935177      2.935196   1.000000   1.000000
   32        3.044367      3.044385   1.000000   1.000000
   33        9.816718      9.816793   0.000000   0.000000
   34       10.689074     10.689148   0.000000   0.000000
   35       11.801534     11.801608   0.000000   0.000000