   16   16   20    2
  0.9574673E+01  0.6006014E-09  0.6006014E-09  0.6006014E-09  0.5000000E-15
  1.000000000000000E-004
  CAR 
 unknown system                          
     64      8     52
 
  0.0000000E+00  0.0000000E+00  0.0000000E+00  0.1250000E+00
    1      -14.001242    -14.001246   1.000000   1.000000
    2      -12.835108    -12.835117   1.000000   1.000000
    3      -12.833276    -12.833286   1.000000   1.000000
    4      -12.832403    -12.832412   1.000000   1.000000
    5      -12.521395    -12.521406   1.000000   1.000000
    6      -12.520582    -12.520593   1.000000   1.000000
    7      -12.090766    -12.090756   1.000000   1.000000
    8      -11.999975    -11.999968   1.000000   1.000000
    9       -2.240507     -2.240484   1.000000   1.000000
   10       -1.055563     -1.055544   1.000000   1.000000
   11       -1.055305     -1.055286   1.000000   1.000000
   12       -1.054737     -1.054718   1.000000   1.000000
   13       -0.851207     -0.851189   1.000000   1.000000
   14       -0.851081     -0.851064   1.000000   1.000000
   15       -0.850827     -0.850809   1.000000   1.000000
   16        1.884043      1.884059   1.000000   1.000000
   17        1.885782      1.885798   1.000000   1.000000
   18        1.886522      1.886538   1.000000   1.000000
   19        1.960117      1.960122   1.000000   1.000000
   20        1.960403      1.960407   1.000000   1.000000
   21        1.960703      1.960708   1.000000   1.000000
   22        2.252606      2.252619   1.000000   1.000000
   23        2.254221      2.254233   1.000000   1.000000
   24        2.663062      2.663063   1.000000   1.000000
   25        2.663219      2.663220   1.000000   1.000000
   26        2.663430      2.663432   1.000000   1.000000
   27        2.970865      2.970879   1.000000   1.000000
   28        2.971184      2.971200   1.000000   1.000000
   29        2.971793      2.971807   1.000000   1.000000
   30        3.367574      3.367585   1.000000   1.000000
   31        3.367845      3.367858   1.000000   1.000000
   32        3.368019      3.368032   1.000000   1.000000
   33        7.311875      7.311954   0.000000   0.000000
   34       10.662807     10.662877   0.000000   0.000000
   35       10.663725     10.663796   0.000000   0.000000
   36       10.663949     10.664019   0.000000   0.000000
   37       11.329927     11.329999   0.000000   0.000000
   38       11.411384     11.411461   0.000000   0.000000
   39       12.372242     12.372301   0.000000   0.000000
   40       12.372543     12.372602   0.000000   0.000000
   41       12.373695     12.373755   0.000000   0.000000
   42       13.315743     13.315813   0.000000   0.000000
   43       13.315772     13.315843   0.000000   0.000000
   44       14.556626     14.556715   0.000000   0.000000
   45       15.819465     15.819558   0.000000   0.000000
   46       15.820961     15.821055   0.000000   0.000000
   47       15.821792     15.821886   0.000000   0.000000
   48       16.060109     16.060203   0.000000   0.000000
   49       16.062177     16.062271   0.000000   0.000000
   50       16.063172     16.063266   0.000000   0.000000
   51       18.046481     18.046357   0.000000   0.000000
   52       18.050867     18.056121   0.000000   0.000000
 
  0.5000000E+00  0.0000000E+00  0.0000000E+00  0.1250000E+00
    1      -13.602288    -13.602294   1.000000   1.000000
    2      -13.279104    -13.279110   1.000000   1.000000
    3      -12.767560    -12.767570   1.000000   1.000000
    4      -12.765171    -12.765181   1.000000   1.000000
    5      -12.609290    -12.609300   1.000000   1.000000
    6      -12.608737    -12.608747   1.000000   1.000000
    7      -12.101052    -12.101043   1.000000   1.000000
    8      -12.069182    -12.069174   1.000000   1.000000
    9       -1.407246     -1.407225   1.000000   1.000000
   10       -0.914877     -0.914858   1.000000   1.000000
   11       -0.350790     -0.350772   1.000000   1.000000
   12       -0.349963     -0.349946   1.000000   1.000000
   13       -0.318608     -0.318590   1.000000   1.000000
   14       -0.316403     -0.316386   1.000000   1.000000
   15        0.406297      0.406312   1.000000   1.000000
   16        0.756916      0.756934   1.000000   1.000000
   17        1.017144      1.017158   1.000000   1.000000
   18        1.021661      1.021674   1.000000   1.000000
   19        1.343928      1.343940   1.000000   1.000000
   20        1.346341      1.346353   1.000000   1.000000
   21        1.782075      1.782097   1.000000   1.000000
   22        1.927872      1.927892   1.000000   1.000000
   23        2.184099      2.184108   1.000000   1.000000
   24        2.185068      2.185077   1.000000   1.000000
   25        2.190858      2.190861   1.000000   1.000000
   26        2.309945      2.309956   1.000000   1.000000
   27        2.310230      2.310239   1.000000   1.000000
   28        2.396542      2.396545   1.000000   1.000000
   29        3.044023      3.044035   1.000000   1.000000
   30        3.045383      3.045396   1.000000   1.000000
   31        3.130848      3.130861   1.000000   1.000000
   32        3.131027      3.131038   1.000000   1.000000
   33        9.699445      9.699523   0.000000   0.000000
   34        9.768329      9.768399   0.000000   0.000000
   35       12.353306     12.353379   0.000000   0.000000
   36       12.390788     12.390862   0.000000   0.000000
   37       12.395396     12.395469   0.000000   0.000000
   38       12.489938     12.490006   0.000000   0.000000
   39       12.976632     12.976699   0.000000   0.000000
   40       12.981341     12.981408   0.000000   0.000000
   41       13.881040     13.881111   0.000000   0.000000
   42       14.272405     14.272486   0.000000   0.000000
   43       14.411088     14.411165   0.000000   0.000000
   44       14.414686     14.414763   0.000000   0.000000
   45       15.192641     15.192723   0.000000   0.000000
   46       15.196080     15.196162   0.000000   0.000000
   47       15.359331     15.359415   0.000000   0.000000
   48       15.424103     15.424184   0.000000   0.000000
   49       16.144246     16.144315   0.000000   0.000000
   50       16.150424     16.150494   0.000000   0.000000
   51       16.179634     16.179708   0.000000   0.000000
   52       16.230195     16.230262   0.000000   0.000000
 
  0.0000000E+00  0.5000000E+00  0.0000000E+00  0.1250000E+00
    1      -13.602299    -13.602305   1.000000   1.000000
    2      -13.279092    -13.279098   1.000000   1.000000
    3      -12.766848    -12.766857   1.000000   1.000000
    4      -12.765866    -12.765875   1.000000   1.000000
    5      -12.609424    -12.609434   1.000000   1.000000
    6      -12.608623    -12.608633   1.000000   1.000000
    7      -12.101042    -12.101033   1.000000   1.000000
    8      -12.069191    -12.069183   1.000000   1.000000
    9       -1.407262     -1.407242   1.000000   1.000000
   10       -0.914872     -0.914853   1.000000   1.000000
   11       -0.350916     -0.350899   1.000000   1.000000
   12       -0.349767     -0.349749   1.000000   1.000000
   13       -0.317782     -0.317764   1.000000   1.000000
   14       -0.317313     -0.317296   1.000000   1.000000
   15        0.406331      0.406346   1.000000   1.000000
   16        0.756902      0.756920   1.000000   1.000000
   17        1.019317      1.019330   1.000000   1.000000
   18        1.019540      1.019553   1.000000   1.000000
   19        1.344182      1.344194   1.000000   1.000000
   20        1.346108      1.346120   1.000000   1.000000
   21        1.782089      1.782111   1.000000   1.000000
   22        1.927848      1.927868   1.000000   1.000000
   23        2.183903      2.183912   1.000000   1.000000
   24        2.185279      2.185290   1.000000   1.000000
   25        2.190832      2.190835   1.000000   1.000000
   26        2.309923      2.309934   1.000000   1.000000
   27        2.310187      2.310198   1.000000   1.000000
   28        2.396556      2.396559   1.000000   1.000000
   29        3.044663      3.044675   1.000000   1.000000
   30        3.044725      3.044735   1.000000   1.000000
   31        3.130752      3.130765   1.000000   1.000000
   32        3.131134      3.131146   1.000000   1.000000
   33        9.699459      9.699538   0.000000   0.000000
   34        9.768338      9.768409   0.000000   0.000000
   35       12.353433     12.353507   0.000000   0.000000
   36       12.392276     12.392350   0.000000   0.000000
   37       12.393919     12.393993   0.000000   0.000000
   38       12.489768     12.489837   0.000000   0.000000
   39       12.977959     12.978025   0.000000   0.000000
   40       12.980118     12.980185   0.000000   0.000000
   41       13.881280     13.881351   0.000000   0.000000
   42       14.272164     14.272245   0.000000   0.000000
   43       14.412501     14.412579   0.000000   0.000000
   44       14.412950     14.413027   0.000000   0.000000
   45       15.192893     15.192975   0.000000   0.000000
   46       15.196151     15.196232   0.000000   0.000000
   47       15.359177     15.359261   0.000000   0.000000
   48       15.423867     15.423947   0.000000   0.000000
   49       16.145552     16.145616   0.000000   0.000000
   50       16.148846     16.148913   0.000000   0.000000
   51       16.179795     16.179869   0.000000   0.000000
   52       16.230451     16.230519   0.000000   0.000000
 
  0.5000000E+00  0.5000000E+00  0.0000000E+00  0.1250000E+00
    1      -13.491525    -13.491531   1.000000   1.000000
    2      -13.101949    -13.101954   1.000000   1.000000
    3      -12.897774    -12.897783   1.000000   1.000000
    4      -12.895929    -12.895938   1.000000   1.000000
    5      -12.805395    -12.805404   1.000000   1.000000
    6      -12.477259    -12.477270   1.000000   1.000000
    7      -12.158862    -12.158851   1.000000   1.000000
    8      -12.025852    -12.025846   1.000000   1.000000
    9       -1.185051     -1.185030   1.000000   1.000000
   10       -0.145918     -0.145902   1.000000   1.000000
   11       -0.096733     -0.096717   1.000000   1.000000
   12       -0.095269     -0.095253   1.000000   1.000000
   13        0.170876      0.170893   1.000000   1.000000
   14        0.172774      0.172791   1.000000   1.000000
   15        0.405195      0.405211   1.000000   1.000000
   16        0.420971      0.420991   1.000000   1.000000
   17        0.548988      0.549002   1.000000   1.000000
   18        0.550417      0.550432   1.000000   1.000000
   19        0.966483      0.966499   1.000000   1.000000
   20        1.396255      1.396264   1.000000   1.000000
   21        1.396726      1.396734   1.000000   1.000000
   22        1.568387      1.568394   1.000000   1.000000
   23        1.806181      1.806203   1.000000   1.000000
   24        1.867791      1.867813   1.000000   1.000000
   25        2.253115      2.253127   1.000000   1.000000
   26        2.309619      2.309627   1.000000   1.000000
   27        2.311159      2.311167   1.000000   1.000000
   28        2.661644      2.661646   1.000000   1.000000
   29        2.851002      2.851017   1.000000   1.000000
   30        2.851416      2.851431   1.000000   1.000000
   31        2.946782      2.946794   1.000000   1.000000
   32        2.947187      2.947200   1.000000   1.000000
   33       10.266091     10.266166   0.000000   0.000000
   34       11.187765     11.187841   0.000000   0.000000
   35       12.067927     12.068001   0.000000   0.000000
   36       12.120061     12.120137   0.000000   0.000000
   37       12.121553     12.121628   0.000000   0.000000
   38       12.603578     12.603650   0.000000   0.000000
   39       14.067571     14.067651   0.000000   0.000000
   40       14.314773     14.314837   0.000000   0.000000
   41       14.453607     14.453677   0.000000   0.000000
   42       14.459473     14.459543   0.000000   0.000000
   43       14.552346     14.552420   0.000000   0.000000
   44       14.734444     14.734519   0.000000   0.000000
   45       14.738450     14.738525   0.000000   0.000000
   46       14.742455     14.742520   0.000000   0.000000
   47       15.295736     15.295818   0.000000   0.000000
   48       15.375113     15.375192   0.000000   0.000000
   49       15.381581     15.381660   0.000000   0.000000
   50       15.424005     15.424074   0.000000   0.000000
   51       16.001259     16.001330   0.000000   0.000000
   52       16.666112     16.665867   0.000000   0.000000
 
  0.0000000E+00  0.0000000E+00  0.5000000E+00  0.1250000E+00
    1      -13.602362    -13.602368   1.000000   1.000000
    2      -13.278930    -13.278936   1.000000   1.000000
    3      -12.767928    -12.767937   1.000000   1.000000
    4      -12.764987    -12.764996   1.000000   1.000000
    5      -12.609174    -12.609184   1.000000   1.000000
    6      -12.608810    -12.608820   1.000000   1.000000
    7      -12.101016    -12.101007   1.000000   1.000000
    8      -12.069177    -12.069169   1.000000   1.000000
    9       -1.407634     -1.407613   1.000000   1.000000
   10       -0.914580     -0.914561   1.000000   1.000000
   11       -0.350527     -0.350510   1.000000   1.000000
   12       -0.349916     -0.349899   1.000000   1.000000
   13       -0.318294     -0.318277   1.000000   1.000000
   14       -0.316991     -0.316973   1.000000   1.000000
   15        0.406636      0.406651   1.000000   1.000000
   16        0.756974      0.756993   1.000000   1.000000
   17        1.017275      1.017288   1.000000   1.000000
   18        1.021556      1.021568   1.000000   1.000000
   19        1.343977      1.343989   1.000000   1.000000
   20        1.346378      1.346389   1.000000   1.000000
   21        1.782140      1.782163   1.000000   1.000000
   22        1.927774      1.927795   1.000000   1.000000
   23        2.183946      2.183956   1.000000   1.000000
   24        2.185430      2.185439   1.000000   1.000000
   25        2.190567      2.190571   1.000000   1.000000
   26        2.309561      2.309572   1.000000   1.000000
   27        2.309948      2.309958   1.000000   1.000000
   28        2.396693      2.396696   1.000000   1.000000
   29        3.044252      3.044263   1.000000   1.000000
   30        3.045318      3.045331   1.000000   1.000000
   31        3.130797      3.130810   1.000000   1.000000
   32        3.131004      3.131015   1.000000   1.000000
   33        9.699553      9.699631   0.000000   0.000000
   34        9.768035      9.768106   0.000000   0.000000
   35       12.353244     12.353317   0.000000   0.000000
   36       12.390481     12.390555   0.000000   0.000000
   37       12.395734     12.395807   0.000000   0.000000
   38       12.489604     12.489673   0.000000   0.000000
   39       12.976150     12.976217   0.000000   0.000000
   40       12.982311     12.982379   0.000000   0.000000
   41       13.882183     13.882254   0.000000   0.000000
   42       14.270946     14.271027   0.000000   0.000000
   43       14.411135     14.411212   0.000000   0.000000
   44       14.415283     14.415361   0.000000   0.000000
   45       15.192406     15.192487   0.000000   0.000000
   46       15.196212     15.196294   0.000000   0.000000
   47       15.360782     15.360866   0.000000   0.000000
   48       15.425020     15.425101   0.000000   0.000000
   49       16.143073     16.143142   0.000000   0.000000
   50       16.150412     16.150480   0.000000   0.000000
   51       16.178443     16.178516   0.000000   0.000000
   52       16.229334     16.229400   0.000000   0.000000
 
  0.5000000E+00  0.0000000E+00  0.5000000E+00  0.1250000E+00
    1      -13.491027    -13.491034   1.000000   1.000000
    2      -13.103974    -13.103979   1.000000   1.000000
    3      -12.896012    -12.896021   1.000000   1.000000
    4      -12.895120    -12.895129   1.000000   1.000000
    5      -12.806686    -12.806695   1.000000   1.000000
    6      -12.476565    -12.476575   1.000000   1.000000
    7      -12.158857    -12.158846   1.000000   1.000000
    8      -12.026344    -12.026337   1.000000   1.000000
    9       -1.183987     -1.183966   1.000000   1.000000
   10       -0.144711     -0.144696   1.000000   1.000000
   11       -0.098146     -0.098129   1.000000   1.000000
   12       -0.097395     -0.097378   1.000000   1.000000
   13        0.173828      0.173845   1.000000   1.000000
   14        0.174719      0.174737   1.000000   1.000000
   15        0.408300      0.408315   1.000000   1.000000
   16        0.418736      0.418756   1.000000   1.000000
   17        0.548134      0.548149   1.000000   1.000000
   18        0.548910      0.548925   1.000000   1.000000
   19        0.961959      0.961974   1.000000   1.000000
   20        1.397097      1.397106   1.000000   1.000000
   21        1.397460      1.397469   1.000000   1.000000
   22        1.568574      1.568581   1.000000   1.000000
   23        1.805402      1.805423   1.000000   1.000000
   24        1.867937      1.867959   1.000000   1.000000
   25        2.254074      2.254086   1.000000   1.000000
   26        2.310469      2.310477   1.000000   1.000000
   27        2.311590      2.311598   1.000000   1.000000
   28        2.661413      2.661415   1.000000   1.000000
   29        2.850734      2.850748   1.000000   1.000000
   30        2.850973      2.850988   1.000000   1.000000
   31        2.946406      2.946418   1.000000   1.000000
   32        2.946778      2.946791   1.000000   1.000000
   33       10.267160     10.267235   0.000000   0.000000
   34       11.186929     11.187005   0.000000   0.000000
   35       12.066092     12.066166   0.000000   0.000000
   36       12.121854     12.121930   0.000000   0.000000
   37       12.123184     12.123259   0.000000   0.000000
   38       12.609513     12.609586   0.000000   0.000000
   39       14.068485     14.068565   0.000000   0.000000
   40       14.309195     14.309259   0.000000   0.000000
   41       14.452173     14.452243   0.000000   0.000000
   42       14.455336     14.455406   0.000000   0.000000
   43       14.553416     14.553490   0.000000   0.000000
   44       14.733476     14.733551   0.000000   0.000000
   45       14.736097     14.736172   0.000000   0.000000
   46       14.742257     14.742321   0.000000   0.000000
   47       15.295872     15.295953   0.000000   0.000000
   48       15.379986     15.380065   0.000000   0.000000
   49       15.384143     15.384222   0.000000   0.000000
   50       15.425201     15.425269   0.000000   0.000000
   51       15.999337     15.999409   0.000000   0.000000
   52       16.664106     16.663239   0.000000   0.000000
 
  0.0000000E+00  0.5000000E+00  0.5000000E+00  0.1250000E+00
    1      -13.491368    -13.491375   1.000000   1.000000
    2      -13.102585    -13.102590   1.000000   1.000000
    3      -12.897745    -12.897753   1.000000   1.000000
    4      -12.895141    -12.895150   1.000000   1.000000
    5      -12.805816    -12.805826   1.000000   1.000000
    6      -12.477033    -12.477043   1.000000   1.000000
    7      -12.158860    -12.158850   1.000000   1.000000
    8      -12.026010    -12.026004   1.000000   1.000000
    9       -1.184713     -1.184692   1.000000   1.000000
   10       -0.145615     -0.145599   1.000000   1.000000
   11       -0.097554     -0.097537   1.000000   1.000000
   12       -0.095514     -0.095498   1.000000   1.000000
   13        0.171364      0.171381   1.000000   1.000000
   14        0.173901      0.173918   1.000000   1.000000
   15        0.406882      0.406897   1.000000   1.000000
   16        0.419592      0.419612   1.000000   1.000000
   17        0.548241      0.548256   1.000000   1.000000
   18        0.550407      0.550422   1.000000   1.000000
   19        0.964978      0.964993   1.000000   1.000000
   20        1.396386      1.396395   1.000000   1.000000
   21        1.397110      1.397119   1.000000   1.000000
   22        1.568448      1.568455   1.000000   1.000000
   23        1.805916      1.805938   1.000000   1.000000
   24        1.867839      1.867862   1.000000   1.000000
   25        2.253157      2.253169   1.000000   1.000000
   26        2.309486      2.309494   1.000000   1.000000
   27        2.311951      2.311959   1.000000   1.000000
   28        2.661555      2.661557   1.000000   1.000000
   29        2.850875      2.850888   1.000000   1.000000
   30        2.851330      2.851344   1.000000   1.000000
   31        2.946547      2.946559   1.000000   1.000000
   32        2.947178      2.947191   1.000000   1.000000
   33       10.266455     10.266530   0.000000   0.000000
   34       11.187489     11.187565   0.000000   0.000000
   35       12.067016     12.067089   0.000000   0.000000
   36       12.120197     12.120273   0.000000   0.000000
   37       12.122841     12.122916   0.000000   0.000000
   38       12.605540     12.605612   0.000000   0.000000
   39       14.067868     14.067948   0.000000   0.000000
   40       14.312946     14.313010   0.000000   0.000000
   41       14.451225     14.451296   0.000000   0.000000
   42       14.459958     14.460028   0.000000   0.000000
   43       14.552718     14.552792   0.000000   0.000000
   44       14.733997     14.734072   0.000000   0.000000
   45       14.737909     14.737984   0.000000   0.000000
   46       14.742388     14.742453   0.000000   0.000000
   47       15.295744     15.295826   0.000000   0.000000
   48       15.374760     15.374839   0.000000   0.000000
   49       15.384383     15.384462   0.000000   0.000000
   50       15.424470     15.424539   0.000000   0.000000
   51       16.000599     16.000671   0.000000   0.000000
   52       16.665554     16.665136   0.000000   0.000000
 
  0.5000000E+00  0.5000000E+00  0.5000000E+00  0.1250000E+00
    1      -13.602907    -13.602913   1.000000   1.000000
    2      -13.277925    -13.277931   1.000000   1.000000
    3      -12.767950    -12.767960   1.000000   1.000000
    4      -12.765657    -12.765667   1.000000   1.000000
    5      -12.608963    -12.608973   1.000000   1.000000
    6      -12.608795    -12.608805   1.000000   1.000000
    7      -12.100816    -12.100807   1.000000   1.000000
    8      -12.069340    -12.069332   1.000000   1.000000
    9       -1.408841     -1.408820   1.000000   1.000000
   10       -0.913303     -0.913284   1.000000   1.000000
   11       -0.350492     -0.350475   1.000000   1.000000
   12       -0.349906     -0.349888   1.000000   1.000000
   13       -0.318780     -0.318762   1.000000   1.000000
   14       -0.316705     -0.316688   1.000000   1.000000
   15        0.407359      0.407373   1.000000   1.000000
   16        0.756763      0.756780   1.000000   1.000000
   17        1.017511      1.017523   1.000000   1.000000
   18        1.021435      1.021447   1.000000   1.000000
   19        1.344168      1.344179   1.000000   1.000000
   20        1.345453      1.345464   1.000000   1.000000
   21        1.782285      1.782306   1.000000   1.000000
   22        1.926976      1.926995   1.000000   1.000000
   23        2.184140      2.184151   1.000000   1.000000
   24        2.185216      2.185227   1.000000   1.000000
   25        2.189799      2.189803   1.000000   1.000000
   26        2.309661      2.309672   1.000000   1.000000
   27        2.310190      2.310201   1.000000   1.000000
   28        2.397393      2.397397   1.000000   1.000000
   29        3.044235      3.044248   1.000000   1.000000
   30        3.045306      3.045319   1.000000   1.000000
   31        3.131148      3.131162   1.000000   1.000000
   32        3.131581      3.131594   1.000000   1.000000
   33        9.699522      9.699600   0.000000   0.000000
   34        9.767418      9.767487   0.000000   0.000000
   35       12.354874     12.354946   0.000000   0.000000
   36       12.391264     12.391338   0.000000   0.000000
   37       12.393335     12.393409   0.000000   0.000000
   38       12.488223     12.488291   0.000000   0.000000
   39       12.978647     12.978714   0.000000   0.000000
   40       12.981196     12.981262   0.000000   0.000000
   41       13.887667     13.887737   0.000000   0.000000
   42       14.264377     14.264458   0.000000   0.000000
   43       14.409096     14.409175   0.000000   0.000000
   44       14.412240     14.412318   0.000000   0.000000
   45       15.196209     15.196291   0.000000   0.000000
   46       15.200920     15.201002   0.000000   0.000000
   47       15.358150     15.358236   0.000000   0.000000
   48       15.421269     15.421350   0.000000   0.000000
   49       16.141255     16.141314   0.000000   0.000000
   50       16.147480     16.147547   0.000000   0.000000
   51       16.180170     16.180243   0.000000   0.000000
   52       16.232147     16.232213   0.000000   0.000000
