 vasp.5.4.1 05Feb16 (build Mar 31 2016 13:39:20) complex                        
  
 executed on           IFC91_ompi date 2018.04.28  12:47:35
 running on   16 total cores
 distrk:  each k-point on   16 cores,    1 groups
 distr:  one band on NCORES_PER_BAND=   4 cores,    4 groups


--------------------------------------------------------------------------------------------------------


 INCAR:
 POTCAR:    PAW_PBE Al 04Jan2001                  
 POTCAR:    PAW_PBE Mg 13Apr2007                  
 POTCAR:    PAW_PBE O 08Apr2002                   
 POTCAR:    PAW_PBE Al 04Jan2001                  
   VRHFIN =Al: s2p1                                                             
   LEXCH  = PE                                                                  
   EATOM  =    53.5387 eV,    3.9350 Ry                                         
                                                                                
   TITEL  = PAW_PBE Al 04Jan2001                                                
   LULTRA =        F    use ultrasoft PP ?                                      
   IUNSCR =        1    unscreen: 0-lin 1-nonlin 2-no                           
   RPACOR =    1.500    partial core radius                                     
   POMASS =   26.981; ZVAL   =    3.000    mass and valenz                      
   RCORE  =    1.900    outmost cutoff radius                                   
   RWIGS  =    2.650; RWIGS  =    1.402    wigner-seitz radius (au A)           
   ENMAX  =  240.300; ENMIN  =  180.225 eV                                      
   ICORE  =        2    local potential                                         
   LCOR   =        T    correct aug charges                                     
   LPAW   =        T    paw PP                                                  
   EAUG   =  291.052                                                            
   DEXC   =    0.000                                                            
   RMAX   =    1.939    core radius for proj-oper                               
   RAUG   =    1.300    factor for augmentation sphere                          
   RDEP   =    1.966    radius for radial grids                                 
   RDEPT  =    1.856    core radius for aug-charge                              
                                                                                
   Atomic configuration                                                         
    6 entries                                                                   
     n  l   j            E        occ.                                          
     1  0  0.50     -1511.1048   2.0000                                         
     2  0  0.50      -108.1629   2.0000                                         
     2  1  1.50       -69.6402   6.0000                                         
     3  0  0.50        -7.7528   2.0000                                         
     3  1  1.50        -2.7121   1.0000                                         
     3  2  2.50        -2.7212   0.0000                                         
   Description                                                                  
     l       E           TYP  RCUT    TYP  RCUT                                 
     0     -7.7528455     23  1.900                                             
     0     -3.3096929     23  1.900                                             
     1     -2.7120682     23  1.900                                             
     1     13.6058260     23  1.900                                             
     2     -2.7211652      7  1.900                                             
  local pseudopotential read in
  partial core-charges read in
  partial kinetic energy density read in
  atomic valenz-charges read in
  non local Contribution for L=           0  read in
    real space projection operators read in
  non local Contribution for L=           0  read in
    real space projection operators read in
  non local Contribution for L=           1  read in
    real space projection operators read in
  non local Contribution for L=           1  read in
    real space projection operators read in
    PAW grid and wavefunctions read in
 
   number of l-projection  operators is LMAX  =           4
   number of lm-projection operators is LMMAX =           8
 
 POTCAR:    PAW_PBE Mg 13Apr2007                  
   VRHFIN =Mg: s2p0                                                             
   LEXCH  = PE                                                                  
   EATOM  =    23.0369 eV,    1.6932 Ry                                         
                                                                                
   TITEL  = PAW_PBE Mg 13Apr2007                                                
   LULTRA =        F    use ultrasoft PP ?                                      
   IUNSCR =        1    unscreen: 0-lin 1-nonlin 2-no                           
   RPACOR =    1.500    partial core radius                                     
   POMASS =   24.305; ZVAL   =    2.000    mass and valenz                      
   RCORE  =    2.000    outmost cutoff radius                                   
   RWIGS  =    2.880; RWIGS  =    1.524    wigner-seitz radius (au A)           
   ENMAX  =  126.143; ENMIN  =   94.607 eV                                      
   RCLOC  =    1.506    cutoff for local pot                                    
   LCOR   =        T    correct aug charges                                     
   LPAW   =        T    paw PP                                                  
   EAUG   =  454.734                                                            
   DEXC   =    0.000                                                            
   RMAX   =    2.045    core radius for proj-oper                               
   RAUG   =    1.300    factor for augmentation sphere                          
   RDEP   =    2.025    radius for radial grids                                 
   RDEPT  =    1.942    core radius for aug-charge                              
                                                                                
   Atomic configuration                                                         
    6 entries                                                                   
     n  l   j            E        occ.                                          
     1  0  0.50     -1259.6230   2.0000                                         
     2  0  0.50       -79.8442   2.0000                                         
     2  1  1.50       -46.6121   6.0000                                         
     3  0  0.50        -4.7055   2.0000                                         
     3  1  0.50        -1.3660   0.0000                                         
     3  2  1.50        -1.3606   0.0000                                         
   Description                                                                  
     l       E           TYP  RCUT    TYP  RCUT                                 
     0     -4.7054661     23  2.000                                             
     0     27.2116520     23  2.000                                             
     1      1.3605826     23  2.000                                             
     1     27.2116520     23  2.000                                             
     2     -1.3605826     23  2.000                                             
  local pseudopotential read in
  partial core-charges read in
  partial kinetic energy density read in
  atomic valenz-charges read in
  non local Contribution for L=           0  read in
    real space projection operators read in
  non local Contribution for L=           0  read in
    real space projection operators read in
  non local Contribution for L=           1  read in
    real space projection operators read in
  non local Contribution for L=           1  read in
    real space projection operators read in
  non local Contribution for L=           2  read in
    real space projection operators read in
    PAW grid and wavefunctions read in
 
   number of l-projection  operators is LMAX  =           5
   number of lm-projection operators is LMMAX =          13
 
 POTCAR:    PAW_PBE O 08Apr2002                   
   VRHFIN =O: s2p4                                                              
   LEXCH  = PE                                                                  
   EATOM  =   432.3788 eV,   31.7789 Ry                                         
                                                                                
   TITEL  = PAW_PBE O 08Apr2002                                                 
   LULTRA =        F    use ultrasoft PP ?                                      
   IUNSCR =        1    unscreen: 0-lin 1-nonlin 2-no                           
   RPACOR =    1.200    partial core radius                                     
   POMASS =   16.000; ZVAL   =    6.000    mass and valenz                      
   RCORE  =    1.520    outmost cutoff radius                                   
   RWIGS  =    1.550; RWIGS  =    0.820    wigner-seitz radius (au A)           
   ENMAX  =  400.000; ENMIN  =  300.000 eV                                      
   ICORE  =        2    local potential                                         
   LCOR   =        T    correct aug charges                                     
   LPAW   =        T    paw PP                                                  
   EAUG   =  605.392                                                            
   DEXC   =    0.000                                                            
   RMAX   =    1.553    core radius for proj-oper                               
   RAUG   =    1.300    factor for augmentation sphere                          
   RDEP   =    1.550    radius for radial grids                                 
   RDEPT  =    1.329    core radius for aug-charge                              
                                                                                
   Atomic configuration                                                         
    4 entries                                                                   
     n  l   j            E        occ.                                          
     1  0  0.50      -514.6923   2.0000                                         
     2  0  0.50       -23.9615   2.0000                                         
     2  1  0.50        -9.0305   4.0000                                         
     3  2  1.50        -9.5241   0.0000                                         
   Description                                                                  
     l       E           TYP  RCUT    TYP  RCUT                                 
     0    -23.9615318     23  1.200                                             
     0     -9.5240782     23  1.200                                             
     1     -9.0304911     23  1.520                                             
     1      8.1634956     23  1.520                                             
     2     -9.5240782      7  1.500                                             
  local pseudopotential read in
  partial core-charges read in
  partial kinetic energy density read in
  kinetic energy density of atom read in
  atomic valenz-charges read in
  non local Contribution for L=           0  read in
    real space projection operators read in
  non local Contribution for L=           0  read in
    real space projection operators read in
  non local Contribution for L=           1  read in
    real space projection operators read in
  non local Contribution for L=           1  read in
    real space projection operators read in
    PAW grid and wavefunctions read in
 
   number of l-projection  operators is LMAX  =           4
   number of lm-projection operators is LMMAX =           8
 
 Optimization of the real space projectors (new method)

 maximal supplied QI-value         = 19.84
 optimisation between [QCUT,QGAM] = [ 10.12, 20.44] = [ 28.68,116.96] Ry 
 Optimized for a Real-space Cutoff    1.23 Angstroem

   l    n(q)    QCUT    max X(q) W(low)/X(q) W(high)/X(q)  e(spline) 
   0      7    10.119   176.870    0.49E-04    0.18E-03    0.39E-07
   0      7    10.119   105.762    0.46E-04    0.18E-03    0.38E-07
   1      7    10.119    55.370    0.30E-03    0.37E-03    0.12E-06
   1      7    10.119    20.208    0.27E-03    0.35E-03    0.11E-06
 Optimization of the real space projectors (new method)

 maximal supplied QI-value         = 18.90
 optimisation between [QCUT,QGAM] = [ 10.20, 20.41] = [ 29.16,116.64] Ry 
 Optimized for a Real-space Cutoff    1.30 Angstroem

   l    n(q)    QCUT    max X(q) W(low)/X(q) W(high)/X(q)  e(spline) 
   0      8    10.205    28.265    0.22E-03    0.17E-03    0.53E-07
   0      8    10.205    10.429    0.17E-03    0.15E-03    0.43E-07
   1      7    10.205    13.073    0.71E-04    0.41E-03    0.76E-07
   1      7    10.205     9.625    0.71E-04    0.33E-03    0.63E-07
   2      7    10.205     4.652    0.24E-03    0.41E-03    0.55E-07
 Optimization of the real space projectors (new method)

 maximal supplied QI-value         = 24.76
 optimisation between [QCUT,QGAM] = [ 10.15, 20.30] = [ 28.85,115.39] Ry 
 Optimized for a Real-space Cutoff    1.38 Angstroem

   l    n(q)    QCUT    max X(q) W(low)/X(q) W(high)/X(q)  e(spline) 
   0      8    10.150    20.381    0.22E-03    0.32E-03    0.29E-06
   0      8    10.150    15.268    0.23E-03    0.35E-03    0.30E-06
   1      8    10.150     5.964    0.46E-03    0.53E-03    0.21E-06
   1      8    10.150     5.382    0.38E-03    0.45E-03    0.19E-06
  PAW_PBE Al 04Jan2001                  :
 energy of atom  1       EATOM=  -53.5387
 kinetic energy error for atom=    0.0005 (will be added to EATOM!!)
  PAW_PBE Mg 13Apr2007                  :
 energy of atom  2       EATOM=  -23.0369
 kinetic energy error for atom=    0.0001 (will be added to EATOM!!)
  PAW_PBE O 08Apr2002                   :
 energy of atom  3       EATOM= -432.3788
 kinetic energy error for atom=    0.1156 (will be added to EATOM!!)
 
 
 POSCAR: Mg7 Al1 O8                              
  positions in direct lattice
  velocities in cartesian coordinates
 exchange correlation table for  LEXCH =        8
   RHO(1)=    0.500       N(1)  =     2000
   RHO(2)=  100.500       N(2)  =     4000
 


--------------------------------------------------------------------------------------------------------


 ion  position               nearest neighbor table
   1  0.003  0.998  0.001-  10 2.02  11 2.02  12 2.03  14 2.03  13 2.03  15 2.03   6 3.00   5 3.00
                             3 3.00   7 3.00   4 3.00   2 3.00   2 3.00   4 3.00   7 3.00   3 3.00
   2  0.002  0.998  0.501-   9 2.12  16 2.12  12 2.13  13 2.13  11 2.13  14 2.13   6 3.00   3 3.00
                             8 3.00   4 3.00   1 3.00   5 3.00   5 3.00   1 3.00   4 3.00   8 3.00
   3  0.002  0.498  0.002-  16 2.12   9 2.12  15 2.13  13 2.13  12 2.13  10 2.13   5 3.00   4 3.00
                             7 3.00   1 3.00   2 3.00   8 3.00   8 3.00   2 3.00   1 3.00   7 3.00
   4  0.002  0.498  0.501-  16 2.12  15 2.12   9 2.12  11 2.13  10 2.13  14 2.13   6 3.00   3 3.00
                             2 3.00   1 3.00   7 3.00   8 3.00   8 3.00   7 3.00   1 3.00   2 3.00
   5  0.502  0.997  0.002-   9 2.12  16 2.12  14 2.13  15 2.13  11 2.13  10 2.13   6 3.00   3 3.00
                             1 3.00   8 3.00   7 3.00   2 3.00   2 3.00   7 3.00   8 3.00   1 3.00
   6  0.502  0.997  0.501-   9 2.12  15 2.12  16 2.12  12 2.12  13 2.13  10 2.13   5 3.00   4 3.00
                             1 3.00   2 3.00   7 3.00   8 3.00   8 3.00   7 3.00   2 3.00   1 3.00
   7  0.502  0.497  0.001-  16 2.12   9 2.12  14 2.12  13 2.12  11 2.13  12 2.13   3 3.00   5 3.00
                             1 3.00   8 3.00   6 3.00   4 3.00   4 3.00   6 3.00   8 3.00   1 3.00
   8  0.502  0.497  0.502-  10 2.22  15 2.22  13 2.22  12 2.22  14 2.22  11 2.22   5 3.00   7 3.00
                             2 3.00   6 3.00   3 3.00   4 3.00   4 3.00   3 3.00   6 3.00   2 3.00
   9  0.252  0.247  0.251-   2 2.12   5 2.12   6 2.12   3 2.12   4 2.12   7 2.12
  10  0.241  0.236  0.763-   1 2.02   4 2.13   6 2.13   3 2.13   5 2.13   8 2.22
  11  0.241  0.759  0.240-   1 2.02   4 2.13   7 2.13   5 2.13   2 2.13   8 2.22
  12  0.241  0.759  0.763-   1 2.03   6 2.12   2 2.13   7 2.13   3 2.13   8 2.22
  13  0.763  0.236  0.240-   1 2.03   7 2.12   3 2.13   6 2.13   2 2.13   8 2.22
  14  0.763  0.236  0.763-   1 2.03   7 2.12   5 2.13   4 2.13   2 2.13   8 2.22
  15  0.763  0.759  0.240-   1 2.03   6 2.12   4 2.12   3 2.13   5 2.13   8 2.22
  16  0.752  0.748  0.751-   2 2.12   3 2.12   4 2.12   5 2.12   6 2.12   7 2.12
 
  LATTYP: Found a face centered cubic cell.
 ALAT       =     8.4937860000
  
  Lattice vectors:
  
 A1 = (   0.0000000000,   4.2468930000,   4.2468930000)
 A2 = (   4.2468930000,   0.0000000000,   4.2468930000)
 A3 = (   4.2468930000,   4.2468930000,   0.0000000000)


Analysis of symmetry for initial positions (statically):
=====================================================================
 Subroutine PRICEL returns:
 Original cell was already a primitive cell.
 

 Routine SETGRP: Setting up the symmetry group for a 
 face centered cubic supercell.


 Subroutine GETGRP returns: Found  1 space group operations
 (whereof  1 operations were pure point group operations)
 out of a pool of 48 trial point group operations.


The static configuration has the point symmetry C_1 .


Analysis of symmetry for dynamics (positions and initial velocities):
=====================================================================
 Subroutine PRICEL returns:
 Original cell was already a primitive cell.
 

 Routine SETGRP: Setting up the symmetry group for a 
 face centered cubic supercell.


 Subroutine GETGRP returns: Found  1 space group operations
 (whereof  1 operations were pure point group operations)
 out of a pool of 48 trial point group operations.


The dynamic configuration has the point symmetry C_1 .


Analysis of structural, dynamic, and magnetic symmetry:
=====================================================================
 Subroutine PRICEL returns:
 Original cell was already a primitive cell.
 

 Routine SETGRP: Setting up the symmetry group for a 
 face centered cubic supercell.


 Subroutine GETGRP returns: Found  1 space group operations
 (whereof  1 operations were pure point group operations)
 out of a pool of 48 trial point group operations.


The magnetic configuration has the point symmetry C_1 .


 Subroutine INISYM returns: Found  1 space group operations
 (whereof  1 operations are pure point group operations),
 and found     1 'primitive' translations

 
 
 KPOINTS: k-point mesh                            

Automatic generation of k-mesh.
Space group operators:
 irot       det(A)        alpha          n_x          n_y          n_z        tau_x        tau_y        tau_z
    1     1.000000     0.000000     1.000000     0.000000     0.000000     0.000000     0.000000     0.000000
 
 Subroutine IBZKPT returns following result:
 ===========================================
 
 Found      8 irreducible k-points:
 
 Following reciprocal coordinates:
            Coordinates               Weight
  0.000000  0.000000  0.000000      1.000000
  0.500000  0.000000  0.000000      1.000000
  0.000000  0.500000  0.000000      1.000000
  0.500000  0.500000  0.000000      1.000000
  0.000000  0.000000  0.500000      1.000000
  0.500000  0.000000  0.500000      1.000000
  0.000000  0.500000  0.500000      1.000000
  0.500000  0.500000  0.500000      1.000000
 
 Following cartesian coordinates:
            Coordinates               Weight
  0.000000  0.000000  0.000000      1.000000
 -0.058867  0.058867  0.058867      1.000000
  0.058867 -0.058867  0.058867      1.000000
  0.000000  0.000000  0.117733      1.000000
  0.058867  0.058867 -0.058867      1.000000
  0.000000  0.117733  0.000000      1.000000
  0.117733  0.000000  0.000000      1.000000
  0.058867  0.058867  0.058867      1.000000
 


--------------------------------------------------------------------------------------------------------




 Dimension of arrays:
   k-points           NKPTS =      8   k-points in BZ     NKDIM =      8   number of bands    NBANDS=     52
   number of dos      NEDOS =    301   number of ions     NIONS =     16
   non local maximal  LDIM  =      5   non local SUM 2l+1 LMDIM =     13
   total plane-waves  NPLWV =  27000
   max r-space proj   IRMAX =   1992   max aug-charges    IRDMAX=   7686
   dimension x,y,z NGX =    30 NGY =   30 NGZ =   30
   dimension x,y,z NGXF=    60 NGYF=   60 NGZF=   60
   support grid    NGXF=    60 NGYF=   60 NGZF=   60
   ions per type =               1   7   8
 NGX,Y,Z   is equivalent  to a cutoff of   8.30,  8.30,  8.30 a.u.
 NGXF,Y,Z  is equivalent  to a cutoff of  16.61, 16.61, 16.61 a.u.


 I would recommend the setting:
   dimension x,y,z NGX =    29 NGY =   29 NGZ =   29
 SYSTEM =  unknown system                          
 POSCAR =  Mg7 Al1 O8                              

 Startparameter for this run:
   NWRITE =      2    write-flag & timer
   PREC   = n         normal or accurate (medium, high low for compatibility)
   ISTART =      0    job   : 0-new  1-cont  2-samecut
   ICHARG =      2    charge: 1-file 2-atom 10-const
   ISPIN  =      2    spin polarized calculation?
   LNONCOLLINEAR =      F non collinear calculations
   LSORBIT =      F    spin-orbit coupling
   INIWAV =      1    electr: 0-lowe 1-rand  2-diag
   LASPH  =      T    aspherical Exc in radial PAW
   METAGGA=      F    non-selfconsistent MetaGGA calc.

 Electronic Relaxation 1
   ENCUT  =  400.0 eV  29.40 Ry    5.42 a.u.   9.79  9.79  9.79*2*pi/ulx,y,z
   ENINI  =  400.0     initial cutoff
   ENAUG  =  605.4 eV  augmentation charge cutoff
   NELM   =    100;   NELMIN=  4; NELMDL=  0     # of ELM steps 
   EDIFF  = 0.1E-05   stopping-criterion for ELM
   LREAL  =      T    real-space projection
   NLSPLINE    = F    spline interpolate recip. space projectors
   LCOMPAT=      F    compatible to vasp.4.4
   GGA_COMPAT  = T    GGA compatible to vasp.4.4-vasp.4.6
   LMAXPAW     = -100 max onsite density
   LMAXMIX     =    2 max onsite mixed and CHGCAR
   VOSKOWN=      0    Vosko Wilk Nusair interpolation
   ROPT   =   -0.00050  -0.00050  -0.00050
 Ionic relaxation
   EDIFFG = -.5E-01   stopping-criterion for IOM
   NSW    =     20    number of steps for IOM
   NBLOCK =      1;   KBLOCK =     20    inner block; outer block 
   IBRION =      2    ionic relax: 0-MD 1-quasi-New 2-CG
   NFREE  =      1    steps in history (QN), initial steepest desc. (CG)
   ISIF   =      2    stress and relaxation
   IWAVPR =     11    prediction:  0-non 1-charg 2-wave 3-comb
   ISYM   =      2    0-nonsym 1-usesym 2-fastsym
   LCORR  =      T    Harris-Foulkes like correction to forces

   POTIM  = 0.5000    time-step for ionic-motion
   TEIN   =    0.0    initial temperature
   TEBEG  =    0.0;   TEEND  =   0.0 temperature during run
   SMASS  =  -3.00    Nose mass-parameter (am)
   estimated Nose-frequenzy (Omega)   =  0.10E-29 period in steps =****** mass=  -0.824E-27a.u.
   SCALEE = 1.0000    scale energy and forces
   NPACO  =    256;   APACO  = 16.0  distance and # of slots for P.C.
   PSTRESS=    0.0 pullay stress

  Mass of Ions in am
   POMASS =  26.98 24.30 16.00
  Ionic Valenz
   ZVAL   =   3.00  2.00  6.00
  Atomic Wigner-Seitz radii
   RWIGS  =  -1.00 -1.00 -1.00
  virtual crystal weights 
   VCA    =   1.00  1.00  1.00
   NELECT =      64.0000    total number of electrons
   NUPDOWN=      -1.0000    fix difference up-down

 DOS related values:
   EMIN   =  10.00;   EMAX   =-10.00  energy-range for DOS
   EFERMI =   0.00
   ISMEAR =     0;   SIGMA  =   0.05  broadening in eV -4-tet -1-fermi 0-gaus

 Electronic relaxation 2 (details)
   IALGO  =     38    algorithm
   LDIAG  =      T    sub-space diagonalisation (order eigenvalues)
   LSUBROT=      F    optimize rotation matrix (better conditioning)
   TURBO    =      0    0=normal 1=particle mesh
   IRESTART =      0    0=no restart 2=restart with 2 vectors
   NREBOOT  =      0    no. of reboots
   NMIN     =      0    reboot dimension
   EREF     =   0.00    reference energy to select bands
   IMIX   =      4    mixing-type and parameters
     AMIX     =   0.40;   BMIX     =  1.00
     AMIX_MAG =   1.60;   BMIX_MAG =  1.00
     AMIN     =   0.10
     WC   =   100.;   INIMIX=   1;  MIXPRE=   1;  MAXMIX= -45

 Intra band minimization:
   WEIMIN = 0.0010     energy-eigenvalue tresh-hold
   EBREAK =  0.48E-08  absolut break condition
   DEPER  =   0.30     relativ break condition  

   TIME   =   0.40     timestep for ELM

  volume/ion in A,a.u.               =       9.57        64.61
  Fermi-wavevector in a.u.,A,eV,Ry     =   1.223827  2.312698 20.378173  1.497753
  Thomas-Fermi vector in A             =   2.358924
 
 Write flags
   LWAVE  =      F    write WAVECAR
   LCHARG =      F    write CHGCAR
   LVTOT  =      F    write LOCPOT, total local potential
   LVHAR  =      F    write LOCPOT, Hartree potential only
   LELF   =      F    write electronic localiz. function (ELF)
   LORBIT =     12    0 simple, 1 ext, 2 COOP (PROOUT)


 Dipole corrections
   LMONO  =      F    monopole corrections only (constant potential shift)
   LDIPOL =      F    correct potential (dipole corrections)
   IDIPOL =      0    1-x, 2-y, 3-z, 4-all directions 
   EPSILON=  1.0000000 bulk dielectric constant

 Exchange correlation treatment:
   GGA     =    --    GGA type
   LEXCH   =     8    internal setting for exchange type
   VOSKOWN=      0    Vosko Wilk Nusair interpolation
   LHFCALC =     F    Hartree Fock is set to
   LHFONE  =     F    Hartree Fock one center treatment
   AEXX    =    0.0000 exact exchange contribution

 Linear response parameters
   LEPSILON=     F    determine dielectric tensor
   LRPA    =     F    only Hartree local field effects (RPA)
   LNABLA  =     F    use nabla operator in PAW spheres
   LVEL    =     F    velocity operator in full k-point grid
   LINTERFAST=   F  fast interpolation
   KINTER  =     0    interpolate to denser k-point grid
   CSHIFT  =0.1000    complex shift for real part using Kramers Kronig
   OMEGAMAX=  -1.0    maximum frequency
   DEG_THRESHOLD= 0.2000000E-02 threshold for treating states as degnerate
   RTIME   =    0.100 relaxation time in fs

 Orbital magnetization related:
   ORBITALMAG=     F  switch on orbital magnetization
   LCHIMAG   =     F  perturbation theory with respect to B field
   DQ        =  0.001000  dq finite difference perturbation B field



--------------------------------------------------------------------------------------------------------


 conjugate gradient relaxation of ions
 charge density and potential will be updated during run
 spin polarized calculation
 Variant of blocked Davidson
 Davidson routine will perform the subspace rotation
 perform sub-space diagonalisation
    after iterative eigenvector-optimisation
 modified Broyden-mixing scheme, WC =      100.0
 initial mixing is a Kerker type mixing with AMIX =  0.4000 and BMIX =      1.0000
 Hartree-type preconditioning will be used
 using additional bands           20
 real space projection scheme for non local part
 use partial core corrections
 calculate Harris-corrections to forces 
   (improved forces if not selfconsistent)
 use gradient corrections 
 use of overlap-Matrix (Vanderbilt PP)
 Gauss-broadening in eV      SIGMA  =   0.05


--------------------------------------------------------------------------------------------------------


  energy-cutoff  :      400.00
  volume of cell :      153.19
      direct lattice vectors                 reciprocal lattice vectors
     0.000000000  4.246893000  4.246893000    -0.117733129  0.117733129  0.117733129
     4.246893000  0.000000000  4.246893000     0.117733129 -0.117733129  0.117733129
     4.246893000  4.246893000  0.000000000     0.117733129  0.117733129 -0.117733129

  length of vectors
     6.006013679  6.006013679  6.006013679     0.203919761  0.203919761  0.203919761


 
 k-points in units of 2pi/SCALE and weight: k-point mesh                            
   0.00000000  0.00000000  0.00000000       0.125
  -0.05886656  0.05886656  0.05886656       0.125
   0.05886656 -0.05886656  0.05886656       0.125
   0.00000000  0.00000000  0.11773313       0.125
   0.05886656  0.05886656 -0.05886656       0.125
   0.00000000  0.11773313  0.00000000       0.125
   0.11773313  0.00000000  0.00000000       0.125
   0.05886656  0.05886656  0.05886656       0.125
 
 k-points in reciprocal lattice and weights: k-point mesh                            
   0.00000000  0.00000000  0.00000000       0.125
   0.50000000  0.00000000  0.00000000       0.125
   0.00000000  0.50000000  0.00000000       0.125
   0.50000000  0.50000000  0.00000000       0.125
   0.00000000  0.00000000  0.50000000       0.125
   0.50000000  0.00000000  0.50000000       0.125
   0.00000000  0.50000000  0.50000000       0.125
   0.50000000  0.50000000  0.50000000       0.125
 
 position of ions in fractional coordinates (direct lattice) 
   0.00255478  0.99765627  0.00116089
   0.00211407  0.99754635  0.50141774
   0.00185950  0.49761105  0.00160808
   0.00199168  0.49771773  0.50129763
   0.50223317  0.99747138  0.00153665
   0.50217553  0.99738197  0.50128880
   0.50220013  0.49744914  0.00143700
   0.50199179  0.49731976  0.50167214
   0.25200529  0.24744336  0.25147911
   0.24062541  0.23619880  0.76269591
   0.24056523  0.75900256  0.23979258
   0.24080033  0.75893656  0.76277064
   0.76327356  0.23626070  0.24008347
   0.76344533  0.23612407  0.76306329
   0.76320204  0.75859948  0.24049848
   0.75216118  0.74760182  0.75140859
 
 position of ions in cartesian coordinates  (Angst):
   4.24186963  0.01578006  4.24778933
   6.36594008  2.13844570  4.24545082
   2.12013022  0.01472643  2.12119797
   4.24271131  2.13741582  2.12221238
   4.24268021  2.13945649  6.36908474
   6.36469443  4.26160565  6.36846025
   2.11871605  2.13889298  4.24540349
   4.24261171  4.26245334  4.24396922
   2.11887035  2.13824439  2.12110498
   4.24219895  4.26099830  2.02502141
   4.24177612  2.04002823  4.24505745
   6.46252765  4.26205852  4.24577558
   2.02298272  4.26114992  4.24491506
   4.24344181  6.48291879  4.24506428
   4.24306212  4.26260870  6.46292820
   6.36613681  6.38549992  6.36933297
 


--------------------------------------------------------------------------------------------------------


 k-point  1 :   0.0000 0.0000 0.0000  plane waves:    2733
 k-point  2 :   0.5000 0.0000 0.0000  plane waves:    2788
 k-point  3 :   0.0000 0.5000 0.0000  plane waves:    2788
 k-point  4 :   0.5000 0.5000 0.0000  plane waves:    2778
 k-point  5 :   0.0000 0.0000 0.5000  plane waves:    2788
 k-point  6 :   0.5000 0.0000 0.5000  plane waves:    2778
 k-point  7 :   0.0000 0.5000 0.5000  plane waves:    2778
 k-point  8 :   0.5000 0.5000 0.5000  plane waves:    2788

 maximum and minimum number of plane-waves per node :       715      668

 maximum number of plane-waves:      2788
 maximum index in each direction: 
   IXMAX=    9   IYMAX=    9   IZMAX=    9
   IXMIN=  -10   IYMIN=  -10   IZMIN=  -10

 WARNING: aliasing errors must be expected set NGX to  40 to avoid them
 WARNING: aliasing errors must be expected set NGY to  40 to avoid them
 WARNING: aliasing errors must be expected set NGZ to  40 to avoid them
 aliasing errors are usually negligible using standard VASP settings
 and one can safely disregard these warnings

 real space projection operators:
  total allocation   :       2134.05 KBytes
  max/ min on nodes  :        577.90        487.79


 parallel 3D FFT for wavefunctions:
    minimum data exchange during FFTs selected (reduces bandwidth)
 parallel 3D FFT for charge:
    minimum data exchange during FFTs selected (reduces bandwidth)


 total amount of memory used by VASP on root node    36425. kBytes
========================================================================

   base      :      30000. kBytes
   nonlr-proj:       1239. kBytes
   fftplans  :        708. kBytes
   grid      :       1885. kBytes
   one-center:         64. kBytes
   wavefun   :       2529. kBytes
 
     INWAV:  cpu time    0.0000: real time    0.0001
 Broyden mixing: mesh for mixing (old mesh)
   NGX = 19   NGY = 19   NGZ = 19
  (NGX  = 60   NGY  = 60   NGZ  = 60)
  gives a total of   6859 points

 initial charge density was supplied:
 charge density of overlapping atoms calculated
 number of electron      65.0000000 magnetization      16.0000000
 keeping initial charge density in first step


--------------------------------------------------------------------------------------------------------


 Maximum index for non-local projection operator          524
 Maximum index for augmentation-charges          481 (set IRDMAX)


--------------------------------------------------------------------------------------------------------


 First call to EWALD:  gamma=   0.331
 Maximum number of real-space cells 3x 3x 3
 Maximum number of reciprocal cells 3x 3x 3

 FEWALD executed in parallel
    FEWALD:  cpu time    0.0000: real time    0.0017


----------------------------------------- Iteration    1(   1)  ---------------------------------------


    POTLOK:  cpu time    0.0200: real time    0.0213
    SETDIJ:  cpu time    0.6760: real time    0.6771
     EDDAV:  cpu time    0.5680: real time    0.5681
       DOS:  cpu time    0.0000: real time    0.0005
    --------------------------------------------
      LOOP:  cpu time    1.2680: real time    1.2703

 eigenvalue-minimisations  :  1704
 total energy-change (2. order) : 0.2490349E+03  (-0.2656713E+04)
 number of electron      65.0000000 magnetization      16.0000000
 augmentation part       65.0000000 magnetization      16.0000000

 Free energy of the ion-electron system (eV)
  ---------------------------------------------------
  alpha Z        PSCENC =       144.97063842
  Ewald energy   TEWEN  =     -2880.25483082
  -Hartree energ DENC   =      -993.08743346
  -exchange      EXHF   =         0.00000000
  -V(xc)+E(xc)   XCENC  =      -138.32660970
  PAW double counting   =      3293.59363178    -2912.95377936
  entropy T*S    EENTRO =        -0.00001535
  eigenvalues    EBANDS =        62.19211165
  atomic energy  EATOM  =      3672.90113687
  Solvation  Ediel_sol  =         0.00000000
  ---------------------------------------------------
  free energy    TOTEN  =       249.03485001 eV

  energy without entropy =      249.03486537  energy(sigma->0) =      249.03485769


--------------------------------------------------------------------------------------------------------




----------------------------------------- Iteration    1(   2)  ---------------------------------------


     EDDAV:  cpu time    0.6640: real time    0.6638
       DOS:  cpu time    0.0000: real time    0.0002
    --------------------------------------------
      LOOP:  cpu time    0.6640: real time    0.6682

 eigenvalue-minimisations  :  2152
 total energy-change (2. order) :-0.3395703E+03  (-0.3276636E+03)
 number of electron      65.0000000 magnetization      16.0000000
 augmentation part       65.0000000 magnetization      16.0000000

 Free energy of the ion-electron system (eV)
  ---------------------------------------------------
  alpha Z        PSCENC =       144.97063842
  Ewald energy   TEWEN  =     -2880.25483082
  -Hartree energ DENC   =      -993.08743346
  -exchange      EXHF   =         0.00000000
  -V(xc)+E(xc)   XCENC  =      -138.32660970
  PAW double counting   =      3293.59363178    -2912.95377936
  entropy T*S    EENTRO =        -0.00000000
  eigenvalues    EBANDS =      -277.37824953
  atomic energy  EATOM  =      3672.90113687
  Solvation  Ediel_sol  =         0.00000000
  ---------------------------------------------------
  free energy    TOTEN  =       -90.53549582 eV

  energy without entropy =      -90.53549582  energy(sigma->0) =      -90.53549582


--------------------------------------------------------------------------------------------------------




----------------------------------------- Iteration    1(   3)  ---------------------------------------


     EDDAV:  cpu time    0.6440: real time    0.6479
       DOS:  cpu time    0.0040: real time    0.0003
    --------------------------------------------
      LOOP:  cpu time    0.6480: real time    0.6515

 eigenvalue-minimisations  :  2064
 total energy-change (2. order) :-0.1759063E+02  (-0.1748308E+02)
 number of electron      65.0000000 magnetization      16.0000000
 augmentation part       65.0000000 magnetization      16.0000000

 Free energy of the ion-electron system (eV)
  ---------------------------------------------------
  alpha Z        PSCENC =       144.97063842
  Ewald energy   TEWEN  =     -2880.25483082
  -Hartree energ DENC   =      -993.08743346
  -exchange      EXHF   =         0.00000000
  -V(xc)+E(xc)   XCENC  =      -138.32660970
  PAW double counting   =      3293.59363178    -2912.95377936
  entropy T*S    EENTRO =        -0.00000000
  eigenvalues    EBANDS =      -294.96887854
  atomic energy  EATOM  =      3672.90113687
  Solvation  Ediel_sol  =         0.00000000
  ---------------------------------------------------
  free energy    TOTEN  =      -108.12612483 eV

  energy without entropy =     -108.12612483  energy(sigma->0) =     -108.12612483


--------------------------------------------------------------------------------------------------------




----------------------------------------- Iteration    1(   4)  ---------------------------------------


     EDDAV:  cpu time    0.6120: real time    0.6148
       DOS:  cpu time    0.0000: real time    0.0002
    --------------------------------------------
      LOOP:  cpu time    0.6120: real time    0.6183

 eigenvalue-minimisations  :  1976
 total energy-change (2. order) :-0.1111784E+00  (-0.1111037E+00)
 number of electron      65.0000000 magnetization      16.0000000
 augmentation part       65.0000000 magnetization      16.0000000

 Free energy of the ion-electron system (eV)
  ---------------------------------------------------
  alpha Z        PSCENC =       144.97063842
  Ewald energy   TEWEN  =     -2880.25483082
  -Hartree energ DENC   =      -993.08743346
  -exchange      EXHF   =         0.00000000
  -V(xc)+E(xc)   XCENC  =      -138.32660970
  PAW double counting   =      3293.59363178    -2912.95377936
  entropy T*S    EENTRO =        -0.00000000
  eigenvalues    EBANDS =      -295.08005690
  atomic energy  EATOM  =      3672.90113687
  Solvation  Ediel_sol  =         0.00000000
  ---------------------------------------------------
  free energy    TOTEN  =      -108.23730318 eV

  energy without entropy =     -108.23730318  energy(sigma->0) =     -108.23730318


--------------------------------------------------------------------------------------------------------




----------------------------------------- Iteration    1(   5)  ---------------------------------------


     EDDAV:  cpu time    0.6080: real time    0.6108
       DOS:  cpu time    0.0000: real time    0.0002
    CHARGE:  cpu time    0.0200: real time    0.0206
    MIXING:  cpu time    0.0040: real time    0.0007
    --------------------------------------------
      LOOP:  cpu time    0.6360: real time    0.6356

 eigenvalue-minimisations  :  1956
 total energy-change (2. order) :-0.7980966E-03  (-0.7979819E-03)
 number of electron      64.0000072 magnetization       0.0909436
 augmentation part        6.2522205 magnetization       0.1555911

 Broyden mixing:
  rms(total) = 0.28175E+01    rms(broyden)= 0.28157E+01
  rms(prec ) = 0.46082E+01
  weight for this iteration     100.00

 Free energy of the ion-electron system (eV)
  ---------------------------------------------------
  alpha Z        PSCENC =       144.97063842
  Ewald energy   TEWEN  =     -2880.25483082
  -Hartree energ DENC   =      -993.08743346
  -exchange      EXHF   =         0.00000000
  -V(xc)+E(xc)   XCENC  =      -138.32660970
  PAW double counting   =      3293.59363178    -2912.95377936
  entropy T*S    EENTRO =        -0.00000000
  eigenvalues    EBANDS =      -295.08085500
  atomic energy  EATOM  =      3672.90113687
  Solvation  Ediel_sol  =         0.00000000
  ---------------------------------------------------
  free energy    TOTEN  =      -108.23810128 eV

  energy without entropy =     -108.23810128  energy(sigma->0) =     -108.23810128


--------------------------------------------------------------------------------------------------------




----------------------------------------- Iteration    1(   6)  ---------------------------------------


    POTLOK:  cpu time    0.0200: real time    0.0209
    SETDIJ:  cpu time    0.6840: real time    0.6828
     EDDAV:  cpu time    0.6000: real time    0.6002
       DOS:  cpu time    0.0000: real time    0.0003
    CHARGE:  cpu time    0.0200: real time    0.0210
    MIXING:  cpu time    0.0000: real time    0.0005
    --------------------------------------------
      LOOP:  cpu time    1.3240: real time    1.3289

 eigenvalue-minimisations  :  1892
 total energy-change (2. order) : 0.4926901E+01  (-0.3547663E+01)
 number of electron      64.0000062 magnetization       0.0057125
 augmentation part        5.2182557 magnetization      -0.1175364

 Broyden mixing:
  rms(total) = 0.78478E+00    rms(broyden)= 0.78352E+00
  rms(prec ) = 0.10704E+01
  weight for this iteration     100.00

 eigenvalues of (default mixing * dielectric matrix)
  average eigenvalue GAMMA=   0.8309
  0.8309

 Free energy of the ion-electron system (eV)
  ---------------------------------------------------
  alpha Z        PSCENC =       144.97063842
  Ewald energy   TEWEN  =     -2880.25483082
  -Hartree energ DENC   =     -1133.69892728
  -exchange      EXHF   =         0.00000000
  -V(xc)+E(xc)   XCENC  =      -134.19016974
  PAW double counting   =      3915.75048581    -3537.53420716
  entropy T*S    EENTRO =        -0.00000000
  eigenvalues    EBANDS =      -151.25532624
  atomic energy  EATOM  =      3672.90113687
  Solvation  Ediel_sol  =         0.00000000
  ---------------------------------------------------
  free energy    TOTEN  =      -103.31120014 eV

  energy without entropy =     -103.31120014  energy(sigma->0) =     -103.31120014


--------------------------------------------------------------------------------------------------------




----------------------------------------- Iteration    1(   7)  ---------------------------------------


    POTLOK:  cpu time    0.0240: real time    0.0216
    SETDIJ:  cpu time    0.6840: real time    0.6848
     EDDAV:  cpu time    0.6080: real time    0.6075
       DOS:  cpu time    0.0000: real time    0.0003
    CHARGE:  cpu time    0.0200: real time    0.0208
    MIXING:  cpu time    0.0000: real time    0.0006
    --------------------------------------------
      LOOP:  cpu time    1.3360: real time    1.3391

 eigenvalue-minimisations  :  1864
 total energy-change (2. order) :-0.1993473E+00  (-0.1149197E+00)
 number of electron      64.0000062 magnetization      -0.0023745
 augmentation part        5.2096496 magnetization      -0.0116640

 Broyden mixing:
  rms(total) = 0.41001E+00    rms(broyden)= 0.40994E+00
  rms(prec ) = 0.63582E+00
  weight for this iteration     100.00

 eigenvalues of (default mixing * dielectric matrix)
  average eigenvalue GAMMA=   0.9607
  0.9607  0.9607

 Free energy of the ion-electron system (eV)
  ---------------------------------------------------
  alpha Z        PSCENC =       144.97063842
  Ewald energy   TEWEN  =     -2880.25483082
  -Hartree energ DENC   =     -1136.71082846
  -exchange      EXHF   =         0.00000000
  -V(xc)+E(xc)   XCENC  =      -133.89450014
  PAW double counting   =      4161.62145381    -3783.15378217
  entropy T*S    EENTRO =        -0.00000000
  eigenvalues    EBANDS =      -148.98983499
  atomic energy  EATOM  =      3672.90113687
  Solvation  Ediel_sol  =         0.00000000
  ---------------------------------------------------
  free energy    TOTEN  =      -103.51054748 eV

  energy without entropy =     -103.51054748  energy(sigma->0) =     -103.51054748


--------------------------------------------------------------------------------------------------------




----------------------------------------- Iteration    1(   8)  ---------------------------------------


    POTLOK:  cpu time    0.0200: real time    0.0209
    SETDIJ:  cpu time    0.6840: real time    0.6829
     EDDAV:  cpu time    0.6000: real time    0.6009
       DOS:  cpu time    0.0000: real time    0.0003
    CHARGE:  cpu time    0.0240: real time    0.0206
    MIXING:  cpu time    0.0000: real time    0.0006
    --------------------------------------------
      LOOP:  cpu time    1.3280: real time    1.3294

 eigenvalue-minimisations  :  1908
 total energy-change (2. order) : 0.6209301E-01  (-0.1360923E-01)
 number of electron      64.0000062 magnetization      -0.0022084
 augmentation part        5.2315495 magnetization      -0.0031953

 Broyden mixing:
  rms(total) = 0.17805E+00    rms(broyden)= 0.17804E+00
  rms(prec ) = 0.26465E+00
  weight for this iteration     100.00

 eigenvalues of (default mixing * dielectric matrix)
  average eigenvalue GAMMA=   1.1931
  1.8949  0.9006  0.7839

 Free energy of the ion-electron system (eV)
  ---------------------------------------------------
  alpha Z        PSCENC =       144.97063842
  Ewald energy   TEWEN  =     -2880.25483082
  -Hartree energ DENC   =     -1141.08879078
  -exchange      EXHF   =         0.00000000
  -V(xc)+E(xc)   XCENC  =      -133.22832674
  PAW double counting   =      4410.51449476    -4031.81469493
  entropy T*S    EENTRO =        -0.00000000
  eigenvalues    EBANDS =      -145.44808125
  atomic energy  EATOM  =      3672.90113687
  Solvation  Ediel_sol  =         0.00000000
  ---------------------------------------------------
  free energy    TOTEN  =      -103.44845447 eV

  energy without entropy =     -103.44845447  energy(sigma->0) =     -103.44845447


--------------------------------------------------------------------------------------------------------




----------------------------------------- Iteration    1(   9)  ---------------------------------------


    POTLOK:  cpu time    0.0200: real time    0.0207
    SETDIJ:  cpu time    0.6840: real time    0.6849
     EDDAV:  cpu time    0.6200: real time    0.6196
       DOS:  cpu time    0.0000: real time    0.0003
    CHARGE:  cpu time    0.0200: real time    0.0205
    MIXING:  cpu time    0.0000: real time    0.0006
    --------------------------------------------
      LOOP:  cpu time    1.3480: real time    1.3515

 eigenvalue-minimisations  :  1984
 total energy-change (2. order) : 0.2220126E-02  (-0.4321268E-02)
 number of electron      64.0000062 magnetization      -0.0008115
 augmentation part        5.2257867 magnetization       0.0002905

 Broyden mixing:
  rms(total) = 0.71702E-01    rms(broyden)= 0.71698E-01
  rms(prec ) = 0.78428E-01
  weight for this iteration     100.00

 eigenvalues of (default mixing * dielectric matrix)
  average eigenvalue GAMMA=   1.2268
  2.4062  0.9468  0.9468  0.6074

 Free energy of the ion-electron system (eV)
  ---------------------------------------------------
  alpha Z        PSCENC =       144.97063842
  Ewald energy   TEWEN  =     -2880.25483082
  -Hartree energ DENC   =     -1146.48626887
  -exchange      EXHF   =         0.00000000
  -V(xc)+E(xc)   XCENC  =      -132.59806117
  PAW double counting   =      4543.52157808    -4164.74977661
  entropy T*S    EENTRO =        -0.00000000
  eigenvalues    EBANDS =      -140.75065025
  atomic energy  EATOM  =      3672.90113687
  Solvation  Ediel_sol  =         0.00000000
  ---------------------------------------------------
  free energy    TOTEN  =      -103.44623435 eV

  energy without entropy =     -103.44623435  energy(sigma->0) =     -103.44623435


--------------------------------------------------------------------------------------------------------




----------------------------------------- Iteration    1(  10)  ---------------------------------------


    POTLOK:  cpu time    0.0200: real time    0.0204
    SETDIJ:  cpu time    0.6800: real time    0.6812
     EDDAV:  cpu time    0.6200: real time    0.6191
       DOS:  cpu time    0.0000: real time    0.0003
    CHARGE:  cpu time    0.0200: real time    0.0205
    MIXING:  cpu time    0.0000: real time    0.0006
    --------------------------------------------
      LOOP:  cpu time    1.3400: real time    1.3456

 eigenvalue-minimisations  :  1992
 total energy-change (2. order) : 0.1084384E-02  (-0.3520226E-03)
 number of electron      64.0000062 magnetization       0.0002317
 augmentation part        5.2203599 magnetization       0.0014188

 Broyden mixing:
  rms(total) = 0.19984E-01    rms(broyden)= 0.19981E-01
  rms(prec ) = 0.25052E-01
  weight for this iteration     100.00

 eigenvalues of (default mixing * dielectric matrix)
  average eigenvalue GAMMA=   1.1957
  2.4824  1.1368  0.9224  0.8232  0.6135

 Free energy of the ion-electron system (eV)
  ---------------------------------------------------
  alpha Z        PSCENC =       144.97063842
  Ewald energy   TEWEN  =     -2880.25483082
  -Hartree energ DENC   =     -1147.40549034
  -exchange      EXHF   =         0.00000000
  -V(xc)+E(xc)   XCENC  =      -132.50727570
  PAW double counting   =      4539.23790933    -4160.48152452
  entropy T*S    EENTRO =        -0.00000000
  eigenvalues    EBANDS =      -139.90571320
  atomic energy  EATOM  =      3672.90113687
  Solvation  Ediel_sol  =         0.00000000
  ---------------------------------------------------
  free energy    TOTEN  =      -103.44514996 eV

  energy without entropy =     -103.44514996  energy(sigma->0) =     -103.44514996


--------------------------------------------------------------------------------------------------------




----------------------------------------- Iteration    1(  11)  ---------------------------------------


    POTLOK:  cpu time    0.0200: real time    0.0206
    SETDIJ:  cpu time    0.6840: real time    0.6823
     EDDAV:  cpu time    0.5960: real time    0.5959
       DOS:  cpu time    0.0000: real time    0.0003
    CHARGE:  cpu time    0.0200: real time    0.0204
    MIXING:  cpu time    0.0000: real time    0.0007
    --------------------------------------------
      LOOP:  cpu time    1.3200: real time    1.3231

 eigenvalue-minimisations  :  1884
 total energy-change (2. order) :-0.5245120E-03  (-0.5036444E-04)
 number of electron      64.0000062 magnetization       0.0002700
 augmentation part        5.2195173 magnetization       0.0001080

 Broyden mixing:
  rms(total) = 0.10176E-01    rms(broyden)= 0.10175E-01
  rms(prec ) = 0.12785E-01
  weight for this iteration     100.00

 eigenvalues of (default mixing * dielectric matrix)
  average eigenvalue GAMMA=   1.3617
  2.7370  2.1476  0.9665  0.9665  0.7328  0.6197

 Free energy of the ion-electron system (eV)
  ---------------------------------------------------
  alpha Z        PSCENC =       144.97063842
  Ewald energy   TEWEN  =     -2880.25483082
  -Hartree energ DENC   =     -1147.54084392
  -exchange      EXHF   =         0.00000000
  -V(xc)+E(xc)   XCENC  =      -132.48378492
  PAW double counting   =      4523.28612267    -4144.54306304
  entropy T*S    EENTRO =        -0.00000000
  eigenvalues    EBANDS =      -139.78104973
  atomic energy  EATOM  =      3672.90113687
  Solvation  Ediel_sol  =         0.00000000
  ---------------------------------------------------
  free energy    TOTEN  =      -103.44567447 eV

  energy without entropy =     -103.44567447  energy(sigma->0) =     -103.44567447


--------------------------------------------------------------------------------------------------------




----------------------------------------- Iteration    1(  12)  ---------------------------------------


    POTLOK:  cpu time    0.0200: real time    0.0205
    SETDIJ:  cpu time    0.6840: real time    0.6829
     EDDAV:  cpu time    0.5960: real time    0.5947
       DOS:  cpu time    0.0000: real time    0.0003
    CHARGE:  cpu time    0.0200: real time    0.0204
    MIXING:  cpu time    0.0000: real time    0.0007
    --------------------------------------------
      LOOP:  cpu time    1.3200: real time    1.3225

 eigenvalue-minimisations  :  1872
 total energy-change (2. order) :-0.2389293E-03  (-0.1975138E-04)
 number of electron      64.0000062 magnetization       0.0000397
 augmentation part        5.2201472 magnetization      -0.0003715

 Broyden mixing:
  rms(total) = 0.23652E-02    rms(broyden)= 0.23645E-02
  rms(prec ) = 0.31177E-02
  weight for this iteration     100.00

 eigenvalues of (default mixing * dielectric matrix)
  average eigenvalue GAMMA=   1.3304
  2.8413  2.3769  0.9908  0.9908  0.8005  0.6170  0.6953

 Free energy of the ion-electron system (eV)
  ---------------------------------------------------
  alpha Z        PSCENC =       144.97063842
  Ewald energy   TEWEN  =     -2880.25483082
  -Hartree energ DENC   =     -1147.51305910
  -exchange      EXHF   =         0.00000000
  -V(xc)+E(xc)   XCENC  =      -132.47119494
  PAW double counting   =      4508.33885418    -4129.60501047
  entropy T*S    EENTRO =        -0.00000000
  eigenvalues    EBANDS =      -139.81244754
  atomic energy  EATOM  =      3672.90113687
  Solvation  Ediel_sol  =         0.00000000
  ---------------------------------------------------
  free energy    TOTEN  =      -103.44591340 eV

  energy without entropy =     -103.44591340  energy(sigma->0) =     -103.44591340


--------------------------------------------------------------------------------------------------------




----------------------------------------- Iteration    1(  13)  ---------------------------------------


    POTLOK:  cpu time    0.0240: real time    0.0227
    SETDIJ:  cpu time    0.6800: real time    0.6792
     EDDAV:  cpu time    0.6280: real time    0.6289
       DOS:  cpu time    0.0000: real time    0.0003
    CHARGE:  cpu time    0.0200: real time    0.0208
    MIXING:  cpu time    0.0000: real time    0.0008
    --------------------------------------------
      LOOP:  cpu time    1.3520: real time    1.3559

 eigenvalue-minimisations  :  2004
 total energy-change (2. order) :-0.1150611E-04  (-0.1568120E-05)
 number of electron      64.0000062 magnetization      -0.0000221
 augmentation part        5.2202591 magnetization      -0.0000916

 Broyden mixing:
  rms(total) = 0.96819E-03    rms(broyden)= 0.96765E-03
  rms(prec ) = 0.13036E-02
  weight for this iteration     100.00

 eigenvalues of (default mixing * dielectric matrix)
  average eigenvalue GAMMA=   1.2815
  2.8062  2.4420  1.0187  0.9439  0.8769  0.8769  0.6223  0.6652

 Free energy of the ion-electron system (eV)
  ---------------------------------------------------
  alpha Z        PSCENC =       144.97063842
  Ewald energy   TEWEN  =     -2880.25483082
  -Hartree energ DENC   =     -1147.51688672
  -exchange      EXHF   =         0.00000000
  -V(xc)+E(xc)   XCENC  =      -132.46991279
  PAW double counting   =      4506.66519304    -4127.93264071
  entropy T*S    EENTRO =        -0.00000000
  eigenvalues    EBANDS =      -139.80862220
  atomic energy  EATOM  =      3672.90113687
  Solvation  Ediel_sol  =         0.00000000
  ---------------------------------------------------
  free energy    TOTEN  =      -103.44592491 eV

  energy without entropy =     -103.44592491  energy(sigma->0) =     -103.44592491


--------------------------------------------------------------------------------------------------------




----------------------------------------- Iteration    1(  14)  ---------------------------------------


    POTLOK:  cpu time    0.0200: real time    0.0208
    SETDIJ:  cpu time    0.6800: real time    0.6820
     EDDAV:  cpu time    0.5880: real time    0.5882
       DOS:  cpu time    0.0000: real time    0.0003
    CHARGE:  cpu time    0.0200: real time    0.0204
    MIXING:  cpu time    0.0040: real time    0.0008
    --------------------------------------------
      LOOP:  cpu time    1.3160: real time    1.3159

 eigenvalue-minimisations  :  1844
 total energy-change (2. order) :-0.1739811E-05  (-0.3235013E-06)
 number of electron      64.0000062 magnetization      -0.0000021
 augmentation part        5.2202192 magnetization       0.0000149

 Broyden mixing:
  rms(total) = 0.29687E-03    rms(broyden)= 0.29663E-03
  rms(prec ) = 0.48031E-03
  weight for this iteration     100.00

 eigenvalues of (default mixing * dielectric matrix)
  average eigenvalue GAMMA=   1.2587
  2.8184  2.4526  1.0736  0.9925  0.9925  0.9658  0.7678  0.6182  0.6467

 Free energy of the ion-electron system (eV)
  ---------------------------------------------------
  alpha Z        PSCENC =       144.97063842
  Ewald energy   TEWEN  =     -2880.25483082
  -Hartree energ DENC   =     -1147.52598307
  -exchange      EXHF   =         0.00000000
  -V(xc)+E(xc)   XCENC  =      -132.46926694
  PAW double counting   =      4505.96506151    -4127.23334904
  entropy T*S    EENTRO =        -0.00000000
  eigenvalues    EBANDS =      -139.79933357
  atomic energy  EATOM  =      3672.90113687
  Solvation  Ediel_sol  =         0.00000000
  ---------------------------------------------------
  free energy    TOTEN  =      -103.44592665 eV

  energy without entropy =     -103.44592665  energy(sigma->0) =     -103.44592665


--------------------------------------------------------------------------------------------------------




----------------------------------------- Iteration    1(  15)  ---------------------------------------


    POTLOK:  cpu time    0.0200: real time    0.0205
    SETDIJ:  cpu time    0.6800: real time    0.6796
     EDDAV:  cpu time    0.4120: real time    0.4142
       DOS:  cpu time    0.0000: real time    0.0003
    --------------------------------------------
      LOOP:  cpu time    1.1120: real time    1.1178

 eigenvalue-minimisations  :  1092
 total energy-change (2. order) :-0.1246544E-06  (-0.5905136E-07)
 number of electron      64.0000062 magnetization      -0.0000021
 augmentation part        5.2202192 magnetization       0.0000149

 Free energy of the ion-electron system (eV)
  ---------------------------------------------------
  alpha Z        PSCENC =       144.97063842
  Ewald energy   TEWEN  =     -2880.25483082
  -Hartree energ DENC   =     -1147.52861404
  -exchange      EXHF   =         0.00000000
  -V(xc)+E(xc)   XCENC  =      -132.46923585
  PAW double counting   =      4505.84787446    -4127.11639700
  entropy T*S    EENTRO =        -0.00000000
  eigenvalues    EBANDS =      -139.79649880
  atomic energy  EATOM  =      3672.90113687
  Solvation  Ediel_sol  =         0.00000000
  ---------------------------------------------------
  free energy    TOTEN  =      -103.44592677 eV

  energy without entropy =     -103.44592677  energy(sigma->0) =     -103.44592677


--------------------------------------------------------------------------------------------------------




 average (electrostatic) potential at core
  the test charge radii are     1.0406  1.0714  0.7215
  (the norm of the test charge is              1.0000)
       1 -75.0171       2 -34.5723       3 -34.5717       4 -34.5688       5 -34.5722
       6 -34.5680       7 -34.5692       8 -35.8771       9 -69.0379      10 -69.7380
      11 -69.7379      12 -69.7365      13 -69.7346      14 -69.7354      15 -69.7322
      16 -69.0378
 
 
 
 E-fermi :   3.6877     XC(G=0): -10.9224     alpha+bet :-13.2908


 spin component 1

 k-point     1 :       0.0000    0.0000    0.0000
  band No.  band energies     occupation 
      1     -14.0012      1.00000
      2     -12.8351      1.00000
      3     -12.8333      1.00000
      4     -12.8324      1.00000
      5     -12.5214      1.00000
      6     -12.5206      1.00000
      7     -12.0908      1.00000
      8     -12.0000      1.00000
      9      -2.2405      1.00000
     10      -1.0556      1.00000
     11      -1.0553      1.00000
     12      -1.0547      1.00000
     13      -0.8512      1.00000
     14      -0.8511      1.00000
     15      -0.8508      1.00000
     16       1.8840      1.00000
     17       1.8858      1.00000
     18       1.8865      1.00000
     19       1.9601      1.00000
     20       1.9604      1.00000
     21       1.9607      1.00000
     22       2.2526      1.00000
     23       2.2542      1.00000
     24       2.6631      1.00000
     25       2.6632      1.00000
     26       2.6634      1.00000
     27       2.9709      1.00000
     28       2.9712      1.00000
     29       2.9718      1.00000
     30       3.3676      1.00000
     31       3.3678      1.00000
     32       3.3680      1.00000
     33       7.3119      0.00000
     34      10.6628      0.00000
     35      10.6637      0.00000
     36      10.6639      0.00000
     37      11.3299      0.00000
     38      11.4114      0.00000
     39      12.3722      0.00000
     40      12.3725      0.00000
     41      12.3737      0.00000
     42      13.3157      0.00000
     43      13.3158      0.00000
     44      14.5566      0.00000
     45      15.8195      0.00000
     46      15.8210      0.00000
     47      15.8218      0.00000
     48      16.0601      0.00000
     49      16.0622      0.00000
     50      16.0632      0.00000
     51      18.0465      0.00000
     52      18.0509      0.00000

 k-point     2 :       0.5000    0.0000    0.0000
  band No.  band energies     occupation 
      1     -13.6023      1.00000
      2     -13.2791      1.00000
      3     -12.7676      1.00000
      4     -12.7652      1.00000
      5     -12.6093      1.00000
      6     -12.6087      1.00000
      7     -12.1011      1.00000
      8     -12.0692      1.00000
      9      -1.4072      1.00000
     10      -0.9149      1.00000
     11      -0.3508      1.00000
     12      -0.3500      1.00000
     13      -0.3186      1.00000
     14      -0.3164      1.00000
     15       0.4063      1.00000
     16       0.7569      1.00000
     17       1.0171      1.00000
     18       1.0217      1.00000
     19       1.3439      1.00000
     20       1.3463      1.00000
     21       1.7821      1.00000
     22       1.9279      1.00000
     23       2.1841      1.00000
     24       2.1851      1.00000
     25       2.1909      1.00000
     26       2.3099      1.00000
     27       2.3102      1.00000
     28       2.3965      1.00000
     29       3.0440      1.00000
     30       3.0454      1.00000
     31       3.1308      1.00000
     32       3.1310      1.00000
     33       9.6994      0.00000
     34       9.7683      0.00000
     35      12.3533      0.00000
     36      12.3908      0.00000
     37      12.3954      0.00000
     38      12.4899      0.00000
     39      12.9766      0.00000
     40      12.9813      0.00000
     41      13.8810      0.00000
     42      14.2724      0.00000
     43      14.4111      0.00000
     44      14.4147      0.00000
     45      15.1926      0.00000
     46      15.1961      0.00000
     47      15.3593      0.00000
     48      15.4241      0.00000
     49      16.1442      0.00000
     50      16.1504      0.00000
     51      16.1796      0.00000
     52      16.2302      0.00000

 k-point     3 :       0.0000    0.5000    0.0000
  band No.  band energies     occupation 
      1     -13.6023      1.00000
      2     -13.2791      1.00000
      3     -12.7668      1.00000
      4     -12.7659      1.00000
      5     -12.6094      1.00000
      6     -12.6086      1.00000
      7     -12.1010      1.00000
      8     -12.0692      1.00000
      9      -1.4073      1.00000
     10      -0.9149      1.00000
     11      -0.3509      1.00000
     12      -0.3498      1.00000
     13      -0.3178      1.00000
     14      -0.3173      1.00000
     15       0.4063      1.00000
     16       0.7569      1.00000
     17       1.0193      1.00000
     18       1.0195      1.00000
     19       1.3442      1.00000
     20       1.3461      1.00000
     21       1.7821      1.00000
     22       1.9278      1.00000
     23       2.1839      1.00000
     24       2.1853      1.00000
     25       2.1908      1.00000
     26       2.3099      1.00000
     27       2.3102      1.00000
     28       2.3966      1.00000
     29       3.0447      1.00000
     30       3.0447      1.00000
     31       3.1308      1.00000
     32       3.1311      1.00000
     33       9.6995      0.00000
     34       9.7683      0.00000
     35      12.3534      0.00000
     36      12.3923      0.00000
     37      12.3939      0.00000
     38      12.4898      0.00000
     39      12.9780      0.00000
     40      12.9801      0.00000
     41      13.8813      0.00000
     42      14.2722      0.00000
     43      14.4125      0.00000
     44      14.4129      0.00000
     45      15.1929      0.00000
     46      15.1962      0.00000
     47      15.3592      0.00000
     48      15.4239      0.00000
     49      16.1456      0.00000
     50      16.1488      0.00000
     51      16.1798      0.00000
     52      16.2305      0.00000

 k-point     4 :       0.5000    0.5000    0.0000
  band No.  band energies     occupation 
      1     -13.4915      1.00000
      2     -13.1019      1.00000
      3     -12.8978      1.00000
      4     -12.8959      1.00000
      5     -12.8054      1.00000
      6     -12.4773      1.00000
      7     -12.1589      1.00000
      8     -12.0259      1.00000
      9      -1.1851      1.00000
     10      -0.1459      1.00000
     11      -0.0967      1.00000
     12      -0.0953      1.00000
     13       0.1709      1.00000
     14       0.1728      1.00000
     15       0.4052      1.00000
     16       0.4210      1.00000
     17       0.5490      1.00000
     18       0.5504      1.00000
     19       0.9665      1.00000
     20       1.3963      1.00000
     21       1.3967      1.00000
     22       1.5684      1.00000
     23       1.8062      1.00000
     24       1.8678      1.00000
     25       2.2531      1.00000
     26       2.3096      1.00000
     27       2.3112      1.00000
     28       2.6616      1.00000
     29       2.8510      1.00000
     30       2.8514      1.00000
     31       2.9468      1.00000
     32       2.9472      1.00000
     33      10.2661      0.00000
     34      11.1878      0.00000
     35      12.0679      0.00000
     36      12.1201      0.00000
     37      12.1216      0.00000
     38      12.6036      0.00000
     39      14.0676      0.00000
     40      14.3148      0.00000
     41      14.4536      0.00000
     42      14.4595      0.00000
     43      14.5523      0.00000
     44      14.7344      0.00000
     45      14.7384      0.00000
     46      14.7425      0.00000
     47      15.2957      0.00000
     48      15.3751      0.00000
     49      15.3816      0.00000
     50      15.4240      0.00000
     51      16.0013      0.00000
     52      16.6661      0.00000

 k-point     5 :       0.0000    0.0000    0.5000
  band No.  band energies     occupation 
      1     -13.6024      1.00000
      2     -13.2789      1.00000
      3     -12.7679      1.00000
      4     -12.7650      1.00000
      5     -12.6092      1.00000
      6     -12.6088      1.00000
      7     -12.1010      1.00000
      8     -12.0692      1.00000
      9      -1.4076      1.00000
     10      -0.9146      1.00000
     11      -0.3505      1.00000
     12      -0.3499      1.00000
     13      -0.3183      1.00000
     14      -0.3170      1.00000
     15       0.4066      1.00000
     16       0.7570      1.00000
     17       1.0173      1.00000
     18       1.0216      1.00000
     19       1.3440      1.00000
     20       1.3464      1.00000
     21       1.7821      1.00000
     22       1.9278      1.00000
     23       2.1839      1.00000
     24       2.1854      1.00000
     25       2.1906      1.00000
     26       2.3096      1.00000
     27       2.3099      1.00000
     28       2.3967      1.00000
     29       3.0443      1.00000
     30       3.0453      1.00000
     31       3.1308      1.00000
     32       3.1310      1.00000
     33       9.6996      0.00000
     34       9.7680      0.00000
     35      12.3532      0.00000
     36      12.3905      0.00000
     37      12.3957      0.00000
     38      12.4896      0.00000
     39      12.9762      0.00000
     40      12.9823      0.00000
     41      13.8822      0.00000
     42      14.2709      0.00000
     43      14.4111      0.00000
     44      14.4153      0.00000
     45      15.1924      0.00000
     46      15.1962      0.00000
     47      15.3608      0.00000
     48      15.4250      0.00000
     49      16.1431      0.00000
     50      16.1504      0.00000
     51      16.1784      0.00000
     52      16.2293      0.00000

 k-point     6 :       0.5000    0.0000    0.5000
  band No.  band energies     occupation 
      1     -13.4910      1.00000
      2     -13.1040      1.00000
      3     -12.8960      1.00000
      4     -12.8951      1.00000
      5     -12.8067      1.00000
      6     -12.4766      1.00000
      7     -12.1589      1.00000
      8     -12.0263      1.00000
      9      -1.1840      1.00000
     10      -0.1447      1.00000
     11      -0.0981      1.00000
     12      -0.0974      1.00000
     13       0.1738      1.00000
     14       0.1747      1.00000
     15       0.4083      1.00000
     16       0.4187      1.00000
     17       0.5481      1.00000
     18       0.5489      1.00000
     19       0.9620      1.00000
     20       1.3971      1.00000
     21       1.3975      1.00000
     22       1.5686      1.00000
     23       1.8054      1.00000
     24       1.8679      1.00000
     25       2.2541      1.00000
     26       2.3105      1.00000
     27       2.3116      1.00000
     28       2.6614      1.00000
     29       2.8507      1.00000
     30       2.8510      1.00000
     31       2.9464      1.00000
     32       2.9468      1.00000
     33      10.2672      0.00000
     34      11.1869      0.00000
     35      12.0661      0.00000
     36      12.1219      0.00000
     37      12.1232      0.00000
     38      12.6095      0.00000
     39      14.0685      0.00000
     40      14.3092      0.00000
     41      14.4522      0.00000
     42      14.4553      0.00000
     43      14.5534      0.00000
     44      14.7335      0.00000
     45      14.7361      0.00000
     46      14.7423      0.00000
     47      15.2959      0.00000
     48      15.3800      0.00000
     49      15.3841      0.00000
     50      15.4252      0.00000
     51      15.9993      0.00000
     52      16.6641      0.00000

 k-point     7 :       0.0000    0.5000    0.5000
  band No.  band energies     occupation 
      1     -13.4914      1.00000
      2     -13.1026      1.00000
      3     -12.8977      1.00000
      4     -12.8951      1.00000
      5     -12.8058      1.00000
      6     -12.4770      1.00000
      7     -12.1589      1.00000
      8     -12.0260      1.00000
      9      -1.1847      1.00000
     10      -0.1456      1.00000
     11      -0.0976      1.00000
     12      -0.0955      1.00000
     13       0.1714      1.00000
     14       0.1739      1.00000
     15       0.4069      1.00000
     16       0.4196      1.00000
     17       0.5482      1.00000
     18       0.5504      1.00000
     19       0.9650      1.00000
     20       1.3964      1.00000
     21       1.3971      1.00000
     22       1.5684      1.00000
     23       1.8059      1.00000
     24       1.8678      1.00000
     25       2.2532      1.00000
     26       2.3095      1.00000
     27       2.3120      1.00000
     28       2.6616      1.00000
     29       2.8509      1.00000
     30       2.8513      1.00000
     31       2.9465      1.00000
     32       2.9472      1.00000
     33      10.2665      0.00000
     34      11.1875      0.00000
     35      12.0670      0.00000
     36      12.1202      0.00000
     37      12.1228      0.00000
     38      12.6055      0.00000
     39      14.0679      0.00000
     40      14.3129      0.00000
     41      14.4512      0.00000
     42      14.4600      0.00000
     43      14.5527      0.00000
     44      14.7340      0.00000
     45      14.7379      0.00000
     46      14.7424      0.00000
     47      15.2957      0.00000
     48      15.3748      0.00000
     49      15.3844      0.00000
     50      15.4245      0.00000
     51      16.0006      0.00000
     52      16.6656      0.00000

 k-point     8 :       0.5000    0.5000    0.5000
  band No.  band energies     occupation 
      1     -13.6029      1.00000
      2     -13.2779      1.00000
      3     -12.7680      1.00000
      4     -12.7657      1.00000
      5     -12.6090      1.00000
      6     -12.6088      1.00000
      7     -12.1008      1.00000
      8     -12.0693      1.00000
      9      -1.4088      1.00000
     10      -0.9133      1.00000
     11      -0.3505      1.00000
     12      -0.3499      1.00000
     13      -0.3188      1.00000
     14      -0.3167      1.00000
     15       0.4074      1.00000
     16       0.7568      1.00000
     17       1.0175      1.00000
     18       1.0214      1.00000
     19       1.3442      1.00000
     20       1.3455      1.00000
     21       1.7823      1.00000
     22       1.9270      1.00000
     23       2.1841      1.00000
     24       2.1852      1.00000
     25       2.1898      1.00000
     26       2.3097      1.00000
     27       2.3102      1.00000
     28       2.3974      1.00000
     29       3.0442      1.00000
     30       3.0453      1.00000
     31       3.1311      1.00000
     32       3.1316      1.00000
     33       9.6995      0.00000
     34       9.7674      0.00000
     35      12.3549      0.00000
     36      12.3913      0.00000
     37      12.3933      0.00000
     38      12.4882      0.00000
     39      12.9786      0.00000
     40      12.9812      0.00000
     41      13.8877      0.00000
     42      14.2644      0.00000
     43      14.4091      0.00000
     44      14.4122      0.00000
     45      15.1962      0.00000
     46      15.2009      0.00000
     47      15.3582      0.00000
     48      15.4213      0.00000
     49      16.1413      0.00000
     50      16.1475      0.00000
     51      16.1802      0.00000
     52      16.2321      0.00000

 spin component 2

 k-point     1 :       0.0000    0.0000    0.0000
  band No.  band energies     occupation 
      1     -14.0012      1.00000
      2     -12.8351      1.00000
      3     -12.8333      1.00000
      4     -12.8324      1.00000
      5     -12.5214      1.00000
      6     -12.5206      1.00000
      7     -12.0908      1.00000
      8     -12.0000      1.00000
      9      -2.2405      1.00000
     10      -1.0555      1.00000
     11      -1.0553      1.00000
     12      -1.0547      1.00000
     13      -0.8512      1.00000
     14      -0.8511      1.00000
     15      -0.8508      1.00000
     16       1.8841      1.00000
     17       1.8858      1.00000
     18       1.8865      1.00000
     19       1.9601      1.00000
     20       1.9604      1.00000
     21       1.9607      1.00000
     22       2.2526      1.00000
     23       2.2542      1.00000
     24       2.6631      1.00000
     25       2.6632      1.00000
     26       2.6634      1.00000
     27       2.9709      1.00000
     28       2.9712      1.00000
     29       2.9718      1.00000
     30       3.3676      1.00000
     31       3.3679      1.00000
     32       3.3680      1.00000
     33       7.3120      0.00000
     34      10.6629      0.00000
     35      10.6638      0.00000
     36      10.6640      0.00000
     37      11.3300      0.00000
     38      11.4115      0.00000
     39      12.3723      0.00000
     40      12.3726      0.00000
     41      12.3738      0.00000
     42      13.3158      0.00000
     43      13.3158      0.00000
     44      14.5567      0.00000
     45      15.8196      0.00000
     46      15.8211      0.00000
     47      15.8219      0.00000
     48      16.0602      0.00000
     49      16.0623      0.00000
     50      16.0633      0.00000
     51      18.0464      0.00000
     52      18.0561      0.00000

 k-point     2 :       0.5000    0.0000    0.0000
  band No.  band energies     occupation 
      1     -13.6023      1.00000
      2     -13.2791      1.00000
      3     -12.7676      1.00000
      4     -12.7652      1.00000
      5     -12.6093      1.00000
      6     -12.6087      1.00000
      7     -12.1010      1.00000
      8     -12.0692      1.00000
      9      -1.4072      1.00000
     10      -0.9149      1.00000
     11      -0.3508      1.00000
     12      -0.3499      1.00000
     13      -0.3186      1.00000
     14      -0.3164      1.00000
     15       0.4063      1.00000
     16       0.7569      1.00000
     17       1.0172      1.00000
     18       1.0217      1.00000
     19       1.3439      1.00000
     20       1.3464      1.00000
     21       1.7821      1.00000
     22       1.9279      1.00000
     23       2.1841      1.00000
     24       2.1851      1.00000
     25       2.1909      1.00000
     26       2.3100      1.00000
     27       2.3102      1.00000
     28       2.3965      1.00000
     29       3.0440      1.00000
     30       3.0454      1.00000
     31       3.1309      1.00000
     32       3.1310      1.00000
     33       9.6995      0.00000
     34       9.7684      0.00000
     35      12.3534      0.00000
     36      12.3909      0.00000
     37      12.3955      0.00000
     38      12.4900      0.00000
     39      12.9767      0.00000
     40      12.9814      0.00000
     41      13.8811      0.00000
     42      14.2725      0.00000
     43      14.4112      0.00000
     44      14.4148      0.00000
     45      15.1927      0.00000
     46      15.1962      0.00000
     47      15.3594      0.00000
     48      15.4242      0.00000
     49      16.1443      0.00000
     50      16.1505      0.00000
     51      16.1797      0.00000
     52      16.2303      0.00000

 k-point     3 :       0.0000    0.5000    0.0000
  band No.  band energies     occupation 
      1     -13.6023      1.00000
      2     -13.2791      1.00000
      3     -12.7669      1.00000
      4     -12.7659      1.00000
      5     -12.6094      1.00000
      6     -12.6086      1.00000
      7     -12.1010      1.00000
      8     -12.0692      1.00000
      9      -1.4072      1.00000
     10      -0.9149      1.00000
     11      -0.3509      1.00000
     12      -0.3497      1.00000
     13      -0.3178      1.00000
     14      -0.3173      1.00000
     15       0.4063      1.00000
     16       0.7569      1.00000
     17       1.0193      1.00000
     18       1.0196      1.00000
     19       1.3442      1.00000
     20       1.3461      1.00000
     21       1.7821      1.00000
     22       1.9279      1.00000
     23       2.1839      1.00000
     24       2.1853      1.00000
     25       2.1908      1.00000
     26       2.3099      1.00000
     27       2.3102      1.00000
     28       2.3966      1.00000
     29       3.0447      1.00000
     30       3.0447      1.00000
     31       3.1308      1.00000
     32       3.1311      1.00000
     33       9.6995      0.00000
     34       9.7684      0.00000
     35      12.3535      0.00000
     36      12.3923      0.00000
     37      12.3940      0.00000
     38      12.4898      0.00000
     39      12.9780      0.00000
     40      12.9802      0.00000
[...]
     10      -0.1447      1.00000
     11      -0.0981      1.00000
     12      -0.0974      1.00000
     13       0.1738      1.00000
     14       0.1747      1.00000
     15       0.4083      1.00000
     16       0.4188      1.00000
     17       0.5481      1.00000
     18       0.5489      1.00000
     19       0.9620      1.00000
     20       1.3971      1.00000
     21       1.3975      1.00000
     22       1.5686      1.00000
     23       1.8054      1.00000
     24       1.8680      1.00000
     25       2.2541      1.00000
     26       2.3105      1.00000
     27       2.3116      1.00000
     28       2.6614      1.00000
     29       2.8507      1.00000
     30       2.8510      1.00000
     31       2.9464      1.00000
     32       2.9468      1.00000
     33      10.2672      0.00000
     34      11.1870      0.00000
     35      12.0662      0.00000
     36      12.1219      0.00000
     37      12.1233      0.00000
     38      12.6096      0.00000
     39      14.0686      0.00000
     40      14.3093      0.00000
     41      14.4522      0.00000
     42      14.4554      0.00000
     43      14.5535      0.00000
     44      14.7336      0.00000
     45      14.7362      0.00000
     46      14.7423      0.00000
     47      15.2960      0.00000
     48      15.3801      0.00000
     49      15.3842      0.00000
     50      15.4253      0.00000
     51      15.9994      0.00000
     52      16.6632      0.00000

 k-point     7 :       0.0000    0.5000    0.5000
  band No.  band energies     occupation 
      1     -13.4914      1.00000
      2     -13.1026      1.00000
      3     -12.8978      1.00000
      4     -12.8951      1.00000
      5     -12.8058      1.00000
      6     -12.4770      1.00000
      7     -12.1588      1.00000
      8     -12.0260      1.00000
      9      -1.1847      1.00000
     10      -0.1456      1.00000
     11      -0.0975      1.00000
     12      -0.0955      1.00000
     13       0.1714      1.00000
     14       0.1739      1.00000
     15       0.4069      1.00000
     16       0.4196      1.00000
     17       0.5483      1.00000
     18       0.5504      1.00000
     19       0.9650      1.00000
     20       1.3964      1.00000
     21       1.3971      1.00000
     22       1.5685      1.00000
     23       1.8059      1.00000
     24       1.8679      1.00000
     25       2.2532      1.00000
     26       2.3095      1.00000
     27       2.3120      1.00000
     28       2.6616      1.00000
     29       2.8509      1.00000
     30       2.8513      1.00000
     31       2.9466      1.00000
     32       2.9472      1.00000
     33      10.2665      0.00000
     34      11.1876      0.00000
     35      12.0671      0.00000
     36      12.1203      0.00000
     37      12.1229      0.00000
     38      12.6056      0.00000
     39      14.0679      0.00000
     40      14.3130      0.00000
     41      14.4513      0.00000
     42      14.4600      0.00000
     43      14.5528      0.00000
     44      14.7341      0.00000
     45      14.7380      0.00000
     46      14.7425      0.00000
     47      15.2958      0.00000
     48      15.3748      0.00000
     49      15.3845      0.00000
     50      15.4245      0.00000
     51      16.0007      0.00000
     52      16.6651      0.00000

 k-point     8 :       0.5000    0.5000    0.5000
  band No.  band energies     occupation 
      1     -13.6029      1.00000
      2     -13.2779      1.00000
      3     -12.7680      1.00000
      4     -12.7657      1.00000
      5     -12.6090      1.00000
      6     -12.6088      1.00000
      7     -12.1008      1.00000
      8     -12.0693      1.00000
      9      -1.4088      1.00000
     10      -0.9133      1.00000
     11      -0.3505      1.00000
     12      -0.3499      1.00000
     13      -0.3188      1.00000
     14      -0.3167      1.00000
     15       0.4074      1.00000
     16       0.7568      1.00000
     17       1.0175      1.00000
     18       1.0214      1.00000
     19       1.3442      1.00000
     20       1.3455      1.00000
     21       1.7823      1.00000
     22       1.9270      1.00000
     23       2.1842      1.00000
     24       2.1852      1.00000
     25       2.1898      1.00000
     26       2.3097      1.00000
     27       2.3102      1.00000
     28       2.3974      1.00000
     29       3.0442      1.00000
     30       3.0453      1.00000
     31       3.1312      1.00000
     32       3.1316      1.00000
     33       9.6996      0.00000
     34       9.7675      0.00000
     35      12.3549      0.00000
     36      12.3913      0.00000
     37      12.3934      0.00000
     38      12.4883      0.00000
     39      12.9787      0.00000
     40      12.9813      0.00000
     41      13.8877      0.00000
     42      14.2645      0.00000
     43      14.4092      0.00000
     44      14.4123      0.00000
     45      15.1963      0.00000
     46      15.2010      0.00000
     47      15.3582      0.00000
     48      15.4214      0.00000
     49      16.1413      0.00000
     50      16.1475      0.00000
     51      16.1802      0.00000
     52      16.2322      0.00000


--------------------------------------------------------------------------------------------------------


 soft charge-density along one line, spin component           1
         0         1         2         3         4         5         6         7         8         9
 total charge-density along one line
 
 soft charge-density along one line, spin component           2
         0         1         2         3         4         5         6         7         8         9
 total charge-density along one line
 
 pseudopotential strength for first ion, spin component:           1
  8.486  14.468  -0.000  -0.000   0.000  -0.000  -0.000   0.000
 14.468  24.667  -0.000  -0.000   0.000  -0.000  -0.000   0.000
 -0.000  -0.000   1.967   0.000   0.000   5.690   0.000   0.000
 -0.000  -0.000   0.000   1.967   0.000   0.000   5.690   0.000
  0.000   0.000   0.000   0.000   1.967   0.000   0.000   5.690
 -0.000  -0.000   5.690   0.000   0.000  16.368   0.000   0.000
 -0.000  -0.000   0.000   5.690   0.000   0.000  16.368   0.000
  0.000   0.000   0.000   0.000   5.690   0.000   0.000  16.368
 pseudopotential strength for first ion, spin component:           2
  8.486  14.468  -0.000  -0.000   0.000  -0.000  -0.000   0.000
 14.468  24.667  -0.000  -0.000   0.000  -0.000  -0.000   0.000
 -0.000  -0.000   1.967   0.000   0.000   5.690   0.000   0.000
 -0.000  -0.000   0.000   1.967   0.000   0.000   5.690   0.000
  0.000   0.000   0.000   0.000   1.967   0.000   0.000   5.690
 -0.000  -0.000   5.690   0.000   0.000  16.368   0.000   0.000
 -0.000  -0.000   0.000   5.690   0.000   0.000  16.368   0.000
  0.000   0.000   0.000   0.000   5.690   0.000   0.000  16.368
 total augmentation occupancy for first ion, spin component:           1
  3.954  -1.319   0.002   0.009  -0.002  -0.000  -0.001   0.000
 -1.319   0.470  -0.001  -0.003   0.001   0.000   0.000  -0.000
  0.002  -0.001   1.215  -0.000   0.000  -0.111   0.000  -0.000
  0.009  -0.003  -0.000   1.210  -0.000   0.000  -0.111   0.000
 -0.002   0.001   0.000  -0.000   1.212  -0.000   0.000  -0.111
 -0.000   0.000  -0.111   0.000  -0.000   0.011  -0.000   0.000
 -0.001   0.000   0.000  -0.111   0.000  -0.000   0.011  -0.000
  0.000  -0.000  -0.000   0.000  -0.111   0.000  -0.000   0.011
 total augmentation occupancy for first ion, spin component:           2
 -0.000   0.000   0.000   0.000  -0.000  -0.000  -0.000   0.000
  0.000  -0.000  -0.000  -0.000   0.000   0.000   0.000  -0.000
  0.000  -0.000  -0.000  -0.000   0.000   0.000  -0.000  -0.000
  0.000  -0.000  -0.000  -0.000   0.000   0.000   0.000   0.000
 -0.000   0.000   0.000   0.000  -0.000  -0.000   0.000   0.000
 -0.000   0.000   0.000   0.000  -0.000  -0.000   0.000   0.000
 -0.000   0.000  -0.000   0.000   0.000   0.000  -0.000  -0.000
  0.000  -0.000  -0.000   0.000   0.000   0.000  -0.000  -0.000


------------------------ aborting loop because EDIFF is reached ----------------------------------------


 


 total charge     
 
# of ion     s       p       d       tot
----------------------------------------
  1        0.282   0.317   0.000   0.600
  2        0.139   0.165   0.071   0.376
  3        0.139   0.165   0.071   0.376
  4        0.139   0.165   0.071   0.376
  5        0.139   0.165   0.071   0.376
  6        0.139   0.165   0.071   0.376
  7        0.139   0.165   0.071   0.376
  8        0.123   0.131   0.053   0.307
  9        1.564   3.545   0.000   5.109
 10        1.565   3.543   0.000   5.108
 11        1.565   3.543   0.000   5.108
 12        1.565   3.543   0.000   5.108
 13        1.565   3.543   0.000   5.108
 14        1.565   3.543   0.000   5.108
 15        1.565   3.543   0.000   5.108
 16        1.564   3.545   0.000   5.109
------------------------------------------------
tot       13.761  29.786   0.481  44.028
 


 magnetization (x)
 
# of ion     s       p       d       tot
----------------------------------------
  1       -0.000  -0.000   0.000  -0.000
  2        0.000   0.000  -0.000   0.000
  3        0.000   0.000  -0.000   0.000
  4        0.000   0.000  -0.000   0.000
  5        0.000   0.000  -0.000   0.000
  6        0.000   0.000  -0.000   0.000
  7        0.000   0.000  -0.000   0.000
  8        0.000   0.000   0.000   0.000
  9        0.000   0.000   0.000   0.000
 10        0.000   0.000   0.000   0.000
 11        0.000  -0.000   0.000   0.000
 12        0.000  -0.000   0.000   0.000
 13        0.000  -0.000   0.000   0.000
 14        0.000   0.000   0.000   0.000
 15        0.000   0.000   0.000   0.000
 16        0.000   0.000   0.000   0.000
------------------------------------------------
tot        0.000   0.000   0.000   0.000
 
    CHARGE:  cpu time    0.0200: real time    0.0202
    FORLOC:  cpu time    0.0000: real time    0.0017
    FORNL :  cpu time    0.1480: real time    0.1457
    STRESS:  cpu time    0.4400: real time    0.4390
    FORCOR:  cpu time    0.0200: real time    0.0219
    FORHAR:  cpu time    0.0040: real time    0.0033
    MIXING:  cpu time    0.0000: real time    0.0009
    OFIELD:  cpu time    0.0000: real time    0.0000

  FORCE on cell =-STRESS in cart. coord.  units (eV):
  Direction    XX          YY          ZZ          XY          YZ          ZX
  --------------------------------------------------------------------------------------
  Alpha Z   144.97064   144.97064   144.97064
  Ewald    -960.11963  -959.92961  -960.21180    -0.06712    -0.06674    -0.07186
  Hartree   382.50695   382.52485   382.49700    -0.02943    -0.04222    -0.04638
  E(xc)    -289.58232  -289.58297  -289.58211    -0.00158    -0.00161    -0.00161
  Local    -333.97366  -334.17343  -333.87541     0.10193     0.11719     0.12636
  n-local  -145.18260  -145.15295  -145.19186     0.00763     0.00538     0.00808
  augment    53.53906    53.53852    53.53953     0.00166     0.00125     0.00129
  Kinetic  1130.92894  1130.91363  1130.93620     0.02738     0.02033     0.02055
  Fock        0.00000     0.00000     0.00000     0.00000     0.00000     0.00000
  -------------------------------------------------------------------------------------
  Total     -16.91262   -16.89131   -16.91782     0.04047     0.03358     0.03642
  in kB    -176.87947  -176.65664  -176.93385     0.42328     0.35121     0.38086
  external pressure =     -176.82 kB  Pullay stress =        0.00 kB


 VOLUME and BASIS-vectors are now :
 -----------------------------------------------------------------------------
  energy-cutoff  :      400.00
  volume of cell :      153.19
      direct lattice vectors                 reciprocal lattice vectors
     0.000000000  4.246893000  4.246893000    -0.117733129  0.117733129  0.117733129
     4.246893000  0.000000000  4.246893000     0.117733129 -0.117733129  0.117733129
     4.246893000  4.246893000  0.000000000     0.117733129  0.117733129 -0.117733129

  length of vectors
     6.006013679  6.006013679  6.006013679     0.203919761  0.203919761  0.203919761


 FORCES acting on ions
    electron-ion (+dipol)            ewald-force                    non-local-force                 convergence-correction
 -----------------------------------------------------------------------------------------------
   -.764E-01 0.112E+00 0.396E+00   0.597E-01 -.890E-01 -.319E+00   0.181E-01 -.199E-01 -.924E-01   -.417E-06 -.113E-05 0.112E-05
   -.253E-03 0.105E-01 0.270E-01   0.162E-02 -.943E-02 -.258E-01   0.157E-02 -.204E-02 -.293E-02   0.256E-06 0.548E-06 -.798E-06
   0.418E-01 -.168E-01 -.636E-01   -.330E-01 0.147E-01 0.579E-01   -.121E-01 0.481E-02 0.114E-01   -.168E-05 -.283E-06 0.117E-05
   0.145E-01 -.660E-01 0.666E-02   -.130E-01 0.560E-01 -.507E-02   -.267E-02 0.162E-01 -.607E-02   0.209E-06 0.193E-05 0.335E-06
   0.132E-01 0.573E-01 0.124E-01   -.121E-01 -.464E-01 -.717E-02   -.223E-02 -.151E-01 -.769E-02   -.146E-06 -.138E-05 0.865E-06
   -.669E-01 -.175E-01 -.392E-01   0.551E-01 0.156E-01 0.384E-01   0.192E-01 0.557E-02 0.497E-02   0.153E-05 0.530E-07 0.343E-06
   -.312E-01 0.412E-01 0.246E-01   0.264E-01 -.346E-01 -.236E-01   0.708E-02 -.917E-02 -.227E-02   -.262E-06 -.252E-06 -.450E-06
   -.109E-01 0.553E-01 0.487E-01   0.768E-02 -.464E-01 -.399E-01   0.293E-02 -.105E-01 -.438E-02   0.482E-06 -.165E-06 -.236E-05
   0.401E-01 0.823E-01 -.239E-01   -.269E-01 -.815E-01 0.399E-01   -.137E-01 0.383E-03 -.124E-01   -.458E-10 -.456E-05 0.746E-05
   -.911E-01 -.821E-01 -.479E+02   0.816E-01 0.748E-01 0.508E+02   0.852E-02 0.976E-02 -.288E+01   0.576E-05 0.439E-05 0.991E-03
   -.984E-01 -.479E+02 0.802E-02   0.894E-01 0.508E+02 -.103E-01   0.109E-01 -.290E+01 0.625E-03   0.684E-05 0.999E-03 -.197E-06
   0.478E+02 0.811E-01 0.230E+00   -.506E+02 -.704E-01 -.237E+00   0.285E+01 -.903E-02 0.359E-02   -.981E-03 -.243E-05 -.226E-04
   -.477E+02 -.965E-01 0.426E-01   0.505E+02 0.937E-01 -.643E-01   -.283E+01 0.495E-02 0.181E-01   0.968E-03 0.106E-04 -.106E-04
   0.107E+00 0.478E+02 0.151E+00   -.107E+00 -.506E+02 -.135E+00   -.392E-02 0.284E+01 -.105E-01   -.137E-04 -.975E-03 -.641E-05
   0.965E-01 0.120E+00 0.474E+02   -.911E-01 -.117E+00 -.502E+02   -.614E-02 -.591E-02 0.277E+01   -.737E-05 -.899E-05 -.944E-03
   -.745E-01 -.454E-01 -.923E-01   0.734E-01 0.310E-01 0.860E-01   0.109E-02 0.166E-01 0.433E-02   -.106E-05 0.773E-06 0.168E-05
 -----------------------------------------------------------------------------------------------
   -.573E-01 0.863E-01 0.211E+00   -.799E-14 -.134E-13 0.830E-14   0.572E-01 -.714E-01 -.207E+00   -.224E-04 0.225E-04 0.163E-04
 
 
 POSITION                                       TOTAL-FORCE (eV/Angst)
 -----------------------------------------------------------------------------------
      4.24187      0.01578      4.24779         0.001389      0.002420     -0.015706
      6.36594      2.13845      4.24545         0.002951     -0.001934     -0.001975
      2.12013      0.01473      2.12120        -0.003282      0.001823      0.005412
      4.24271      2.13742      2.12221        -0.001185      0.005285     -0.004756
      4.24268      2.13946      6.36908        -0.001159     -0.005124     -0.002743
      6.36469      4.26161      6.36846         0.007459      0.002690      0.003925
      2.11872      2.13889      4.24540         0.002276     -0.003518     -0.001462
      4.24261      4.26245      4.24397        -0.000247     -0.002526      0.004195
      2.11887      2.13824      2.12110        -0.000465      0.000182      0.003375
      4.24220      4.26100      2.02502        -0.001005      0.001582      0.003494
      4.24178      2.04003      4.24506         0.001902      0.002577     -0.001952
      6.46253      4.26206      4.24578        -0.000243      0.000715     -0.003437
      2.02298      4.26115      4.24492        -0.003906      0.001319     -0.003828
      4.24344      6.48292      4.24506        -0.003626     -0.002665      0.005571
      4.24306      4.26261      6.46293        -0.000795     -0.004102      0.012181
      6.36614      6.38550      6.36933        -0.000063      0.001277     -0.002294
 -----------------------------------------------------------------------------------
    total drift:                               -0.000106      0.014871      0.004297


--------------------------------------------------------------------------------------------------------



  FREE ENERGIE OF THE ION-ELECTRON SYSTEM (eV)
  ---------------------------------------------------
  free  energy   TOTEN  =      -103.44592677 eV

  energy  without entropy=     -103.44592677  energy(sigma->0) =     -103.44592677
 


--------------------------------------------------------------------------------------------------------


    POTLOK:  cpu time    0.6960: real time    0.6967


--------------------------------------------------------------------------------------------------------




--------------------------------------------------------------------------------------------------------


  
 reached required accuracy - stopping structural energy minimisation
     LOOP+:  cpu time   18.9480: real time   19.0048
    4ORBIT:  cpu time    0.0000: real time    0.0000
 


 total charge     
 
# of ion     s       p       d       tot
----------------------------------------
  1        0.282   0.317   0.000   0.600
  2        0.139   0.165   0.071   0.376
  3        0.139   0.165   0.071   0.376
  4        0.139   0.165   0.071   0.376
  5        0.139   0.165   0.071   0.376
  6        0.139   0.165   0.071   0.376
  7        0.139   0.165   0.071   0.376
  8        0.123   0.131   0.053   0.307
  9        1.564   3.545   0.000   5.109
 10        1.565   3.543   0.000   5.108
 11        1.565   3.543   0.000   5.108
 12        1.565   3.543   0.000   5.108
 13        1.565   3.543   0.000   5.108
 14        1.565   3.543   0.000   5.108
 15        1.565   3.543   0.000   5.108
 16        1.564   3.545   0.000   5.109
------------------------------------------------
tot       13.761  29.786   0.481  44.028
 


 magnetization (x)
 
# of ion     s       p       d       tot
----------------------------------------
  1       -0.000  -0.000   0.000  -0.000
  2        0.000   0.000  -0.000   0.000
  3        0.000   0.000  -0.000   0.000
  4        0.000   0.000  -0.000   0.000
  5        0.000   0.000  -0.000   0.000
  6        0.000   0.000  -0.000   0.000
  7        0.000   0.000  -0.000   0.000
  8        0.000   0.000   0.000   0.000
  9        0.000   0.000   0.000   0.000
 10        0.000   0.000   0.000   0.000
 11        0.000  -0.000   0.000   0.000
 12        0.000  -0.000   0.000   0.000
 13        0.000  -0.000   0.000   0.000
 14        0.000   0.000   0.000   0.000
 15        0.000   0.000   0.000   0.000
 16        0.000   0.000   0.000   0.000
------------------------------------------------
tot        0.000   0.000   0.000   0.000
 

 total amount of memory used by VASP on root node    36425. kBytes
========================================================================

   base      :      30000. kBytes
   nonlr-proj:       1239. kBytes
   fftplans  :        708. kBytes
   grid      :       1885. kBytes
   one-center:         64. kBytes
   wavefun   :       2529. kBytes
 
  
  
 General timing and accounting informations for this job:
 ========================================================
  
                  Total CPU time used (sec):       20.212
                            User time (sec):       20.020
                          System time (sec):        0.192
                         Elapsed time (sec):       20.473
  
                   Maximum memory used (kb):       64576.
                   Average memory used (kb):           0.
  
                          Minor page faults:        17372
                          Major page faults:            9
                 Voluntary context switches:         1650
