<?xml version="1.0" encoding="ISO-8859-1"?>
<modeling>
 <generator>
  <i name="program" type="string">vasp </i>
  <i name="version" type="string">5.4.1  </i>
  <i name="subversion" type="string">05Feb16 (build Mar 31 2016 13:39:20) complex                          parallel </i>
  <i name="platform" type="string">IFC91_ompi </i>
  <i name="date" type="string">2018 04 12 </i>
  <i name="time" type="string">14:15:02 </i>
 </generator>
 <incar>
  <i type="string" name="PREC">n</i>
  <i type="string" name="ALGO"> N</i>
  <i type="int" name="ISPIN">     2</i>
  <i type="int" name="NELM">   100</i>
  <i type="int" name="NELMIN">     4</i>
  <i type="int" name="IBRION">     2</i>
  <i name="EDIFF">      0.00000100</i>
  <i name="EDIFFG">     -0.05000000</i>
  <i type="int" name="NSW">    20</i>
  <i type="int" name="ISIF">     2</i>
  <i name="ENCUT">    400.00000000</i>
  <i name="NELECT">     64.00000000</i>
  <i type="string" name="LREAL"> A</i>
  <i type="int" name="ISMEAR">     0</i>
  <i name="SIGMA">      0.05000000</i>
  <i type="logical" name="LWAVE"> F  </i>
  <i type="logical" name="LCHARG"> F  </i>
  <i type="logical" name="LORBIT"> F  </i>
  <i type="logical" name="LASPH"> T  </i>
  <v type="int" name="KPOINT_BSE">    -1     0     0     0</v>
  <i type="int" name="NELM">   100</i>
  <i type="logical" name="LASPH"> T  </i>
 </incar>
 <kpoints>
  <generation param="Monkhorst-Pack">
   <v type="int" name="divisions">       2        2        2 </v>
   <v name="usershift">      0.00000000       0.00000000       0.00000000 </v>
   <v name="genvec1">      0.50000000       0.00000000       0.00000000 </v>
   <v name="genvec2">      0.00000000       0.50000000       0.00000000 </v>
   <v name="genvec3">      0.00000000       0.00000000       0.50000000 </v>
   <v name="shift">      0.50000000       0.50000000       0.50000000 </v>
  </generation>
  <varray name="kpointlist" >
   <v>       0.25000000       0.25000000       0.25000000 </v>
   <v>       0.25000000       0.00000000       0.00000000 </v>
   <v>       0.00000000       0.00000000      -0.25000000 </v>
   <v>       0.00000000       0.25000000       0.00000000 </v>
   <v>      -0.25000000       0.25000000       0.25000000 </v>
   <v>       0.25000000      -0.25000000       0.25000000 </v>
   <v>       0.25000000       0.25000000      -0.25000000 </v>
   <v>       0.25000000       0.00000000       0.50000000 </v>
   <v>      -0.25000000       0.50000000       0.50000000 </v>
   <v>       0.25000000       0.50000000       0.00000000 </v>
   <v>       0.00000000       0.50000000      -0.25000000 </v>
   <v>       0.50000000       0.00000000      -0.25000000 </v>
   <v>       0.50000000       0.50000000       0.25000000 </v>
   <v>       0.50000000      -0.25000000       0.50000000 </v>
   <v>       0.00000000       0.25000000       0.50000000 </v>
   <v>       0.50000000       0.25000000       0.00000000 </v>
  </varray>
  <varray name="weights" >
   <v>       0.06250000 </v>
   <v>       0.06250000 </v>
   <v>       0.06250000 </v>
   <v>       0.06250000 </v>
   <v>       0.06250000 </v>
   <v>       0.06250000 </v>
   <v>       0.06250000 </v>
   <v>       0.06250000 </v>
   <v>       0.06250000 </v>
   <v>       0.06250000 </v>
   <v>       0.06250000 </v>
   <v>       0.06250000 </v>
   <v>       0.06250000 </v>
   <v>       0.06250000 </v>
   <v>       0.06250000 </v>
   <v>       0.06250000 </v>
  </varray>
 </kpoints>
 <parameters>
  <separator name="general" >
   <i type="string" name="SYSTEM">unknown system</i>
   <i type="logical" name="LCOMPAT"> F  </i>
  </separator>
  <separator name="electronic" >
   <i type="string" name="PREC">n</i>
   <i name="ENMAX">    400.00000000</i>
   <i name="ENAUG">    605.39200000</i>
   <i name="EDIFF">      0.00000100</i>
   <i type="int" name="IALGO">    38</i>
   <i type="int" name="IWAVPR">    11</i>
   <i type="int" name="NBANDS">    52</i>
   <i name="NELECT">     64.00000000</i>
   <i type="int" name="TURBO">     0</i>
   <i type="int" name="IRESTART">     0</i>
   <i type="int" name="NREBOOT">     0</i>
   <i type="int" name="NMIN">     0</i>
   <i name="EREF">      0.00000000</i>
   <separator name="electronic smearing" >
    <i type="int" name="ISMEAR">     0</i>
    <i name="SIGMA">      0.05000000</i>
    <i name="KSPACING">      0.50000000</i>
    <i type="logical" name="KGAMMA"> T  </i>
   </separator>
   <separator name="electronic projectors" >
    <i type="logical" name="LREAL"> T  </i>
    <v name="ROPT">     -0.00050000     -0.00050000     -0.00050000</v>
    <i type="int" name="LMAXPAW">  -100</i>
    <i type="int" name="LMAXMIX">     2</i>
    <i type="logical" name="NLSPLINE"> F  </i>
   </separator>
   <separator name="electronic startup" >
    <i type="int" name="ISTART">     0</i>
    <i type="int" name="ICHARG">     2</i>
    <i type="int" name="INIWAV">     1</i>
   </separator>
   <separator name="electronic spin" >
    <i type="int" name="ISPIN">     2</i>
    <i type="logical" name="LNONCOLLINEAR"> F  </i>
    <v name="MAGMOM">      1.00000000      1.00000000      1.00000000      1.00000000      1.00000000      1.00000000      1.00000000      1.00000000      1.00000000      1.00000000      1.00000000      1.00000000      1.00000000      1.00000000      1.00000000      1.00000000</v>
    <i name="NUPDOWN">     -1.00000000</i>
    <i type="logical" name="LSORBIT"> F  </i>
    <v name="SAXIS">      0.00000000      0.00000000      1.00000000</v>
    <i type="logical" name="LSPIRAL"> F  </i>
    <v name="QSPIRAL">      0.00000000      0.00000000      0.00000000</v>
    <i type="logical" name="LZEROZ"> F  </i>
   </separator>
   <separator name="electronic exchange-correlation" >
    <i type="logical" name="LASPH"> T  </i>
    <i type="logical" name="LMETAGGA"> F  </i>
   </separator>
   <separator name="electronic convergence" >
    <i type="int" name="NELM">   100</i>
    <i type="int" name="NELMDL">     0</i>
    <i type="int" name="NELMIN">     4</i>
    <i name="ENINI">    400.00000000</i>
    <separator name="electronic convergence detail" >
     <i type="logical" name="LDIAG"> T  </i>
     <i type="logical" name="LSUBROT"> F  </i>
     <i name="WEIMIN">      0.00100000</i>
     <i name="EBREAK">      0.00000000</i>
     <i name="DEPER">      0.30000000</i>
     <i type="int" name="NRMM">     4</i>
     <i name="TIME">      0.40000000</i>
    </separator>
   </separator>
   <separator name="electronic mixer" >
    <i name="AMIX">      0.40000000</i>
    <i name="BMIX">      1.00000000</i>
    <i name="AMIN">      0.10000000</i>
    <i name="AMIX_MAG">      1.60000000</i>
    <i name="BMIX_MAG">      1.00000000</i>
    <separator name="electronic mixer details" >
     <i type="int" name="IMIX">     4</i>
     <i type="logical" name="MIXFIRST"> F  </i>
     <i type="int" name="MAXMIX">   -45</i>
     <i name="WC">    100.00000000</i>
     <i type="int" name="INIMIX">     1</i>
     <i type="int" name="MIXPRE">     1</i>
     <i type="int" name="MREMOVE">     5</i>
    </separator>
   </separator>
   <separator name="electronic dipolcorrection" >
    <i type="logical" name="LDIPOL"> F  </i>
    <i type="logical" name="LMONO"> F  </i>
    <i type="int" name="IDIPOL">     0</i>
    <i name="EPSILON">      1.00000000</i>
    <v name="DIPOL">   -100.00000000   -100.00000000   -100.00000000</v>
    <i name="EFIELD">      0.00000000</i>
   </separator>
  </separator>
  <separator name="grids" >
   <i type="int" name="NGX">    30</i>
   <i type="int" name="NGY">    30</i>
   <i type="int" name="NGZ">    30</i>
   <i type="int" name="NGXF">    60</i>
   <i type="int" name="NGYF">    60</i>
   <i type="int" name="NGZF">    60</i>
   <i type="logical" name="ADDGRID"> F  </i>
  </separator>
  <separator name="ionic" >
   <i type="int" name="NSW">    20</i>
   <i type="int" name="IBRION">     2</i>
   <i type="int" name="ISIF">     2</i>
   <i name="PSTRESS">      0.00000000</i>
   <i name="EDIFFG">     -0.05000000</i>
   <i type="int" name="NFREE">     1</i>
   <i name="POTIM">      0.50000000</i>
   <i name="SMASS">     -3.00000000</i>
   <i name="SCALEE">      1.00000000</i>
  </separator>
  <separator name="ionic md" >
   <i name="TEBEG">      0.00010000</i>
   <i name="TEEND">      0.00010000</i>
   <i type="int" name="NBLOCK">     1</i>
   <i type="int" name="KBLOCK">    20</i>
   <i type="int" name="NPACO">   256</i>
   <i name="APACO">     16.00000000</i>
  </separator>
  <separator name="symmetry" >
   <i type="int" name="ISYM">     2</i>
   <i name="SYMPREC">      0.00001000</i>
  </separator>
  <separator name="dos" >
   <i type="logical" name="LORBIT"> F  </i>
   <v name="RWIGS">     -1.00000000     -1.00000000     -1.00000000</v>
   <i type="int" name="NEDOS">   301</i>
   <i name="EMIN">     10.00000000</i>
   <i name="EMAX">    -10.00000000</i>
   <i name="EFERMI">      0.00000000</i>
  </separator>
  <separator name="writing" >
   <i type="int" name="NWRITE">     2</i>
   <i type="logical" name="LWAVE"> F  </i>
   <i type="logical" name="LCHARG"> F  </i>
   <i type="logical" name="LPARD"> F  </i>
   <i type="logical" name="LVTOT"> F  </i>
   <i type="logical" name="LVHAR"> F  </i>
   <i type="logical" name="LELF"> F  </i>
   <i type="logical" name="LOPTICS"> F  </i>
   <v name="STM">      0.00000000      0.00000000      0.00000000      0.00000000      0.00000000      0.00000000      0.00000000</v>
  </separator>
  <separator name="performance" >
   <i type="int" name="NPAR">     4</i>
   <i type="int" name="NSIM">     4</i>
   <i type="int" name="NBLK">    -1</i>
   <i type="logical" name="LPLANE"> T  </i>
   <i type="logical" name="LSCALAPACK"> T  </i>
   <i type="logical" name="LSCAAWARE"> F  </i>
   <i type="logical" name="LSCALU"> F  </i>
   <i type="logical" name="LASYNC"> F  </i>
   <i type="logical" name="LORBITALREAL"> F  </i>
  </separator>
  <separator name="miscellaneous" >
   <i type="int" name="IDIOT">     3</i>
   <i type="logical" name="LMUSIC"> F  </i>
   <v name="POMASS">     26.98100000     24.30500000     16.00000000</v>
   <v name="DARWINR">      0.00000000      0.00000000      0.00000000</v>
   <v name="DARWINV">      1.00000000      1.00000000      1.00000000</v>
   <i type="logical" name="LCORR"> T  </i>
  </separator>
  <i type="logical" name="GGA_COMPAT"> T  </i>
  <i type="logical" name="LBERRY"> F  </i>
  <i type="int" name="ICORELEVEL">     0</i>
  <i type="logical" name="LDAU"> F  </i>
  <i type="int" name="I_CONSTRAINED_M">     0</i>
  <separator name="electronic exchange-correlation" >
   <i type="string" name="GGA">--</i>
   <i type="int" name="VOSKOWN">     0</i>
   <i type="logical" name="LHFCALC"> F  </i>
   <i type="string" name="PRECFOCK"></i>
   <i type="logical" name="LSYMGRAD"> F  </i>
   <i type="logical" name="LHFONE"> F  </i>
   <i type="logical" name="LRHFCALC"> F  </i>
   <i type="logical" name="LTHOMAS"> F  </i>
   <i type="logical" name="LMODELHF"> F  </i>
   <i name="ENCUT4O">     -1.00000000</i>
   <i type="int" name="EXXOEP">     0</i>
   <i type="int" name="FOURORBIT">     0</i>
   <i name="AEXX">      0.00000000</i>
   <i name="HFALPHA">      0.00000000</i>
   <i name="MCALPHA">      0.00000000</i>
   <i name="ALDAX">      1.00000000</i>
   <i name="AGGAX">      1.00000000</i>
   <i name="ALDAC">      1.00000000</i>
   <i name="AGGAC">      1.00000000</i>
   <i type="int" name="NKREDX">     1</i>
   <i type="int" name="NKREDY">     1</i>
   <i type="int" name="NKREDZ">     1</i>
   <i type="logical" name="SHIFTRED"> F  </i>
   <i type="logical" name="ODDONLY"> F  </i>
   <i type="logical" name="EVENONLY"> F  </i>
   <i type="int" name="LMAXFOCK">     0</i>
   <i type="int" name="NMAXFOCKAE">     0</i>
   <i type="logical" name="LFOCKAEDFT"> F  </i>
   <i name="HFSCREEN">      0.00000000</i>
   <i name="HFSCREENC">      0.00000000</i>
   <i type="int" name="NBANDSGWLOW">     0</i>
  </separator>
  <separator name="vdW DFT" >
   <i type="logical" name="LUSE_VDW"> F  </i>
   <i name="Zab_VDW">     -0.84910000</i>
   <i name="PARAM1">      0.12340000</i>
   <i name="PARAM2">      1.00000000</i>
   <i name="PARAM3">      0.00000000</i>
  </separator>
  <separator name="model GW" >
   <i type="int" name="MODEL_GW">     0</i>
   <i name="MODEL_EPS0">      5.74480406</i>
   <i name="MODEL_ALPHA">      1.00000000</i>
  </separator>
  <separator name="linear response parameters" >
   <i type="logical" name="LEPSILON"> F  </i>
   <i type="logical" name="LRPA"> F  </i>
   <i type="logical" name="LNABLA"> F  </i>
   <i type="logical" name="LVEL"> F  </i>
   <i type="int" name="KINTER">     0</i>
   <i name="CSHIFT">      0.10000000</i>
   <i name="OMEGAMAX">     -1.00000000</i>
   <i name="DEG_THRESHOLD">      0.00200000</i>
  </separator>
  <separator name="orbital magnetization" >
   <i type="logical" name="NUCIND"> F  </i>
   <v name="MAGPOS">      0.00000000      0.00000000      0.00000000</v>
   <i type="logical" name="LNICSALL"> T  </i>
   <i type="logical" name="ORBITALMAG"> F  </i>
   <i type="logical" name="LMAGBLOCH"> F  </i>
   <i type="logical" name="LCHIMAG"> F  </i>
   <i type="logical" name="LGAUGE"> T  </i>
   <i type="int" name="MAGATOM">     0</i>
   <v name="MAGDIPOL">      0.00000000      0.00000000      0.00000000</v>
   <v name="AVECCONST">      0.00000000      0.00000000      0.00000000</v>
  </separator>
  <separator name="response functions" >
   <i type="logical" name="LADDER"> F  </i>
   <i type="logical" name="LFXC"> F  </i>
   <i type="logical" name="LHARTREE"> T  </i>
   <i type="int" name="IBSE">     0</i>
   <v type="int" name="KPOINT">    -1     0     0     0</v>
   <i type="logical" name="LTCTE"> F  </i>
   <i type="logical" name="LTETE"> F  </i>
   <i type="logical" name="LTRIPLET"> F  </i>
   <i type="logical" name="LFXCEPS"> F  </i>
   <i type="logical" name="LFXHEG"> F  </i>
   <i type="int" name="NATURALO">     0</i>
   <i type="logical" name="L2ORDER"> F  </i>
   <i type="logical" name="LUSEW"> F  </i>
   <i name="ENCUTGW">     -2.00000000</i>
   <i name="ENCUTGWSOFT">     -2.00000000</i>
   <i name="ENCUTLF">     -1.00000000</i>
   <i type="int" name="LMAXMP2">    -1</i>
   <i name="SCISSOR">      0.00000000</i>
   <i type="int" name="NOMEGA">     0</i>
   <i type="int" name="NOMEGAR">     0</i>
   <i type="int" name="NBANDSGW">    -1</i>
   <i type="int" name="NBANDSO">    -1</i>
   <i type="int" name="NBANDSV">    -1</i>
   <i type="int" name="NELM">   100</i>
   <i type="int" name="NELMHF">     1</i>
   <i type="int" name="DIM">     3</i>
   <i type="int" name="ANTIRES">     0</i>
   <i name="OMEGAMAX">    -30.00000000</i>
   <i name="OMEGAMIN">    -30.00000000</i>
   <i name="OMEGATL">   -200.00000000</i>
   <i type="int" name="OMEGAGRID">     0</i>
   <i name="CSHIFT">     -0.10000000</i>
   <i type="logical" name="SELFENERGY"> F  </i>
   <i type="logical" name="LSPECTRAL"> F  </i>
   <i type="logical" name="LSPECTRALGW"> F  </i>
   <i type="logical" name="LSINGLES"> F  </i>
   <i type="logical" name="LFERMIGW"> F  </i>
   <i type="logical" name="ODDONLYGW"> F  </i>
   <i type="logical" name="EVENONLYGW"> F  </i>
   <i type="int" name="NKREDLFX">     1</i>
   <i type="int" name="NKREDLFY">     1</i>
   <i type="int" name="NKREDLFZ">     1</i>
   <i type="int" name="MAXMEM">  1800</i>
   <i type="int" name="TELESCOPE">     0</i>
   <i type="int" name="TAUPAR">     1</i>
   <i type="int" name="OMEGAPAR">    -1</i>
   <i name="LAMBDA">      1.00000000</i>
  </separator>
  <separator name="External order field" >
   <i name="OFIELD_KAPPA">      0.00000000</i>
   <v name="OFIELD_K">      0.00000000      0.00000000      0.00000000</v>
   <i name="OFIELD_Q6_NEAR">      0.00000000</i>
   <i name="OFIELD_Q6_FAR">      0.00000000</i>
   <i name="OFIELD_A">      0.00000000</i>
  </separator>
 </parameters>
 <atominfo>
  <atoms>      16 </atoms>
  <types>       3 </types>
  <array name="atoms" >
   <dimension dim="1">ion</dimension>
   <field type="string">element</field>
   <field type="int">atomtype</field>
   <set>
    <rc><c>Al</c><c>   1</c></rc>
    <rc><c>Mg</c><c>   2</c></rc>
    <rc><c>Mg</c><c>   2</c></rc>
    <rc><c>Mg</c><c>   2</c></rc>
    <rc><c>Mg</c><c>   2</c></rc>
    <rc><c>Mg</c><c>   2</c></rc>
    <rc><c>Mg</c><c>   2</c></rc>
    <rc><c>Mg</c><c>   2</c></rc>
    <rc><c>O </c><c>   3</c></rc>
    <rc><c>O </c><c>   3</c></rc>
    <rc><c>O </c><c>   3</c></rc>
    <rc><c>O </c><c>   3</c></rc>
    <rc><c>O </c><c>   3</c></rc>
    <rc><c>O </c><c>   3</c></rc>
    <rc><c>O </c><c>   3</c></rc>
    <rc><c>O </c><c>   3</c></rc>
   </set>
  </array>
  <array name="atomtypes" >
   <dimension dim="1">type</dimension>
   <field type="int">atomspertype</field>
   <field type="string">element</field>
   <field>mass</field>
   <field>valence</field>
   <field type="string">pseudopotential</field>
   <set>
    <rc><c>   1</c><c>Al</c><c>     26.98100000</c><c>      3.00000000</c><c>  PAW_PBE Al 04Jan2001                  </c></rc>
    <rc><c>   7</c><c>Mg</c><c>     24.30500000</c><c>      2.00000000</c><c>  PAW_PBE Mg 13Apr2007                  </c></rc>
    <rc><c>   8</c><c>O </c><c>     16.00000000</c><c>      6.00000000</c><c>  PAW_PBE O 08Apr2002                   </c></rc>
   </set>
  </array>
 </atominfo>
 <structure name="initialpos" >
  <crystal>
   <varray name="basis" >
    <v>       0.00000000       4.24689300       4.24689300 </v>
    <v>       4.24689300       0.00000000       4.24689300 </v>
    <v>       4.24689300       4.24689300       0.00000000 </v>
   </varray>
   <i name="volume">    153.19477498 </i>
   <varray name="rec_basis" >
    <v>      -0.11773313       0.11773313       0.11773313 </v>
    <v>       0.11773313      -0.11773313       0.11773313 </v>
    <v>       0.11773313       0.11773313      -0.11773313 </v>
   </varray>
  </crystal>
  <varray name="positions" >
   <v>       0.00294802       0.99800993       0.00074059 </v>
   <v>       0.00205268       0.99746519       0.50148081 </v>
   <v>       0.00190095       0.49779219       0.00153587 </v>
   <v>       0.00186274       0.49785287       0.50134321 </v>
   <v>       0.50210477       0.99743302       0.00175741 </v>
   <v>       0.50229463       0.99749889       0.50116621 </v>
   <v>       0.50199574       0.49753876       0.00156009 </v>
   <v>       0.50206090       0.49741927       0.50153761 </v>
   <v>       0.25217156       0.24743196       0.25135253 </v>
   <v>       0.24063282       0.23613273       0.76270537 </v>
   <v>       0.24046039       0.75918709       0.23942446 </v>
   <v>       0.24061594       0.75900251       0.76311685 </v>
   <v>       0.76339180       0.23602008       0.23994163 </v>
   <v>       0.76364798       0.23601324       0.76318529 </v>
   <v>       0.76292234       0.75819646       0.24080117 </v>
   <v>       0.75213574       0.74732680       0.75156190 </v>
  </varray>
 </structure>
 <calculation>
  <scstep>
   <time name="dav">    0.72    0.72</time>
   <time name="total">    1.09    1.10</time>
   <energy>
    <i name="alphaZ">    144.97063842 </i>
    <i name="ewald">  -2880.04102873 </i>
    <i name="hartreedc">   -993.27461430 </i>
    <i name="XCdc">   -138.32502926 </i>
    <i name="pawpsdc">   3293.59363178 </i>
    <i name="pawaedc">  -2912.95377936 </i>
    <i name="eentropy">     -0.00150837 </i>
    <i name="bandstr">     62.52677967 </i>
    <i name="atom">   3672.90113687 </i>
    <i name="e_fr_energy">    249.39622672 </i>
    <i name="e_wo_entrp">    249.39773508 </i>
    <i name="e_0_energy">    249.39698090 </i>
   </energy>
  </scstep>
  <scstep>
   <time name="dav">    0.79    0.79</time>
   <time name="total">    0.79    0.80</time>
   <energy>
    <i name="e_fr_energy">    -91.02079595 </i>
    <i name="e_wo_entrp">    -91.02079595 </i>
    <i name="e_0_energy">    -91.02079595 </i>
   </energy>
  </scstep>
  <scstep>
   <time name="dav">    0.77    0.77</time>
   <time name="total">    0.77    0.78</time>
   <energy>
    <i name="e_fr_energy">   -108.17685572 </i>
    <i name="e_wo_entrp">   -108.17685572 </i>
    <i name="e_0_energy">   -108.17685572 </i>
   </energy>
  </scstep>
  <scstep>
   <time name="dav">    0.76    0.76</time>
   <time name="total">    0.76    0.77</time>
   <energy>
    <i name="e_fr_energy">   -108.28279118 </i>
    <i name="e_wo_entrp">   -108.28279118 </i>
    <i name="e_0_energy">   -108.28279118 </i>
   </energy>
  </scstep>
  <scstep>
   <time name="dav">    0.74    0.74</time>
   <time name="total">    0.76    0.76</time>
   <energy>
    <i name="e_fr_energy">   -108.28358494 </i>
    <i name="e_wo_entrp">   -108.28358494 </i>
    <i name="e_0_energy">   -108.28358494 </i>
   </energy>
  </scstep>
  <scstep>
   <time name="dav">    0.68    0.68</time>
   <time name="total">    1.06    1.07</time>
   <energy>
    <i name="e_fr_energy">   -103.43174612 </i>
    <i name="e_wo_entrp">   -103.43174612 </i>
    <i name="e_0_energy">   -103.43174612 </i>
   </energy>
  </scstep>
  <scstep>
   <time name="dav">    0.74    0.74</time>
   <time name="total">    1.12    1.13</time>
   <energy>
    <i name="e_fr_energy">   -103.62823561 </i>
    <i name="e_wo_entrp">   -103.62823561 </i>
    <i name="e_0_energy">   -103.62823561 </i>
   </energy>
  </scstep>
  <scstep>
   <time name="dav">    0.73    0.73</time>
   <time name="total">    1.12    1.12</time>
   <energy>
    <i name="e_fr_energy">   -103.56534534 </i>
    <i name="e_wo_entrp">   -103.56534534 </i>
    <i name="e_0_energy">   -103.56534534 </i>
   </energy>
  </scstep>
  <scstep>
   <time name="dav">    0.76    0.76</time>
   <time name="total">    1.14    1.15</time>
   <energy>
    <i name="e_fr_energy">   -103.56330822 </i>
    <i name="e_wo_entrp">   -103.56330822 </i>
    <i name="e_0_energy">   -103.56330822 </i>
   </energy>
  </scstep>
  <scstep>
   <time name="dav">    0.76    0.76</time>
   <time name="total">    1.15    1.15</time>
   <energy>
    <i name="e_fr_energy">   -103.56228599 </i>
    <i name="e_wo_entrp">   -103.56228599 </i>
    <i name="e_0_energy">   -103.56228599 </i>
   </energy>
  </scstep>
  <scstep>
   <time name="dav">    0.78    0.78</time>
   <time name="total">    1.17    1.17</time>
   <energy>
    <i name="e_fr_energy">   -103.56278491 </i>
    <i name="e_wo_entrp">   -103.56278491 </i>
    <i name="e_0_energy">   -103.56278491 </i>
   </energy>
  </scstep>
  <scstep>
   <time name="dav">    0.70    0.70</time>
   <time name="total">    1.09    1.09</time>
   <energy>
    <i name="e_fr_energy">   -103.56303198 </i>
    <i name="e_wo_entrp">   -103.56303198 </i>
    <i name="e_0_energy">   -103.56303198 </i>
   </energy>
  </scstep>
  <scstep>
   <time name="dav">    0.80    0.80</time>
   <time name="total">    1.19    1.19</time>
   <energy>
    <i name="e_fr_energy">   -103.56304017 </i>
    <i name="e_wo_entrp">   -103.56304017 </i>
    <i name="e_0_energy">   -103.56304017 </i>
   </energy>
  </scstep>
  <scstep>
   <time name="dav">    0.70    0.70</time>
   <time name="total">    1.08    1.09</time>
   <energy>
    <i name="e_fr_energy">   -103.56304204 </i>
    <i name="e_wo_entrp">   -103.56304204 </i>
    <i name="e_0_energy">   -103.56304204 </i>
   </energy>
  </scstep>
  <scstep>
   <time name="dav">    0.51    0.51</time>
   <time name="total">    0.88    0.88</time>
   <energy>
    <i name="alphaZ">    144.97063842 </i>
    <i name="ewald">  -2880.04102873 </i>
    <i name="hartreedc">  -1146.83546470 </i>
    <i name="XCdc">   -132.53285534 </i>
    <i name="pawpsdc">   4501.98627992 </i>
    <i name="pawaedc">  -4123.21661080 </i>
    <i name="eentropy">     -0.00000000 </i>
    <i name="bandstr">   -140.79513773 </i>
    <i name="atom">   3672.90113687 </i>
    <i name="e_fr_energy">   -103.56304209 </i>
    <i name="e_wo_entrp">   -103.56304209 </i>
    <i name="e_0_energy">   -103.56304209 </i>
   </energy>
  </scstep>
  <structure>
   <crystal>
    <varray name="basis" >
     <v>       0.00000000       4.24689300       4.24689300 </v>
     <v>       4.24689300       0.00000000       4.24689300 </v>
     <v>       4.24689300       4.24689300       0.00000000 </v>
    </varray>
    <i name="volume">    153.19477498 </i>
    <varray name="rec_basis" >
     <v>      -0.11773313       0.11773313       0.11773313 </v>
     <v>       0.11773313      -0.11773313       0.11773313 </v>
     <v>       0.11773313       0.11773313      -0.11773313 </v>
    </varray>
   </crystal>
   <varray name="positions" >
    <v>       0.00294802       0.99800993       0.00074059 </v>
    <v>       0.00205268       0.99746519       0.50148081 </v>
    <v>       0.00190095       0.49779219       0.00153587 </v>
    <v>       0.00186274       0.49785287       0.50134321 </v>
    <v>       0.50210477       0.99743302       0.00175741 </v>
    <v>       0.50229463       0.99749889       0.50116621 </v>
    <v>       0.50199574       0.49753876       0.00156009 </v>
    <v>       0.50206090       0.49741927       0.50153761 </v>
    <v>       0.25217156       0.24743196       0.25135253 </v>
    <v>       0.24063282       0.23613273       0.76270537 </v>
    <v>       0.24046039       0.75918709       0.23942446 </v>
    <v>       0.24061594       0.75900251       0.76311685 </v>
    <v>       0.76339180       0.23602008       0.23994163 </v>
    <v>       0.76364798       0.23601324       0.76318529 </v>
    <v>       0.76292234       0.75819646       0.24080117 </v>
    <v>       0.75213574       0.74732680       0.75156190 </v>
   </varray>
  </structure>
  <varray name="forces" >
   <v>       0.00460258      -0.00535319      -0.04413260 </v>
   <v>       0.00758690      -0.00260929       0.00335800 </v>
   <v>       0.00154332       0.00469778      -0.00617184 </v>
   <v>      -0.00877252      -0.00191694      -0.00860305 </v>
   <v>      -0.00850401       0.00078612       0.01007196 </v>
   <v>      -0.00228034       0.00332744      -0.00480839 </v>
   <v>      -0.01090885       0.00103642       0.00213963 </v>
   <v>      -0.00037869       0.00501731       0.00774014 </v>
   <v>       0.00604215       0.00006125      -0.00653340 </v>
   <v>       0.00079524       0.00081808       0.01667578 </v>
   <v>       0.01567769       0.01918302      -0.00829032 </v>
   <v>      -0.01370227      -0.01208932       0.00341723 </v>
   <v>       0.00614072       0.00708694       0.00161937 </v>
   <v>      -0.00861650      -0.01097358      -0.00128708 </v>
   <v>       0.00476260      -0.00550346       0.02216717 </v>
   <v>       0.00601199      -0.00356857       0.01263738 </v>
  </varray>
  <varray name="stress" >
   <v>    -176.16238384       0.42221355       0.38970300 </v>
   <v>       0.42221363    -175.90937444       0.35265217 </v>
   <v>       0.38970299       0.35265222    -176.30738714 </v>
  </varray>
  <energy>
   <i name="e_fr_energy">   -103.56304209 </i>
   <i name="e_wo_entrp">   -103.56304209 </i>
   <i name="e_0_energy">     -0.00000000 </i>
  </energy>
  <time name="totalsc">   16.47   16.54</time>
  <eigenvalues>
   <array>
    <dimension dim="1">band</dimension>
    <dimension dim="2">kpoint</dimension>
    <dimension dim="3">spin</dimension>
    <field>eigene</field>
    <field>occ</field>
    <set>
     <set comment="spin 1">
      <set comment="kpoint 1">
       <r>  -13.8744    1.0000 </r>
       <r>  -13.0111    1.0000 </r>
       <r>  -12.8255    1.0000 </r>
       <r>  -12.8215    1.0000 </r>
       <r>  -12.5757    1.0000 </r>
       <r>  -12.5742    1.0000 </r>
       <r>  -12.1245    1.0000 </r>
       <r>  -12.0432    1.0000 </r>
       <r>   -1.9268    1.0000 </r>
       <r>   -0.8104    1.0000 </r>
       <r>   -0.8089    1.0000 </r>
       <r>   -0.7979    1.0000 </r>
       <r>   -0.6199    1.0000 </r>
       <r>   -0.6108    1.0000 </r>
       <r>   -0.6097    1.0000 </r>
       <r>    1.4921    1.0000 </r>
       <r>    1.4960    1.0000 </r>
       <r>    1.5104    1.0000 </r>
       <r>    1.8693    1.0000 </r>
       <r>    1.8698    1.0000 </r>
       <r>    2.0193    1.0000 </r>
       <r>    2.0217    1.0000 </r>
       <r>    2.0294    1.0000 </r>
       <r>    2.4378    1.0000 </r>
       <r>    2.4719    1.0000 </r>
       <r>    2.4732    1.0000 </r>
       <r>    2.5469    1.0000 </r>
       <r>    2.5556    1.0000 </r>
       <r>    2.9445    1.0000 </r>
       <r>    2.9462    1.0000 </r>
       <r>    3.2694    1.0000 </r>
       <r>    3.2696    1.0000 </r>
       <r>    8.2458    0.0000 </r>
       <r>   10.5405    0.0000 </r>
       <r>   11.3605    0.0000 </r>
       <r>   11.3637    0.0000 </r>
       <r>   11.7862    0.0000 </r>
       <r>   11.9143    0.0000 </r>
       <r>   12.8100    0.0000 </r>
       <r>   12.8108    0.0000 </r>
       <r>   12.9726    0.0000 </r>
       <r>   13.7182    0.0000 </r>
       <r>   13.7198    0.0000 </r>
       <r>   14.4459    0.0000 </r>
       <r>   15.5569    0.0000 </r>
       <r>   15.6311    0.0000 </r>
       <r>   15.6318    0.0000 </r>
       <r>   15.8538    0.0000 </r>
       <r>   15.9209    0.0000 </r>
       <r>   15.9260    0.0000 </r>
       <r>   16.9151    0.0000 </r>
       <r>   17.4511    0.0000 </r>
      </set>
      <set comment="kpoint 2">
       <r>  -13.8742    1.0000 </r>
       <r>  -13.0121    1.0000 </r>
       <r>  -12.8246    1.0000 </r>
       <r>  -12.8216    1.0000 </r>
       <r>  -12.5759    1.0000 </r>
       <r>  -12.5741    1.0000 </r>
       <r>  -12.1245    1.0000 </r>
       <r>  -12.0431    1.0000 </r>
       <r>   -1.9264    1.0000 </r>
       <r>   -0.8101    1.0000 </r>
       <r>   -0.8086    1.0000 </r>
       <r>   -0.7984    1.0000 </r>
       <r>   -0.6200    1.0000 </r>
       <r>   -0.6107    1.0000 </r>
       <r>   -0.6100    1.0000 </r>
       <r>    1.4923    1.0000 </r>
       <r>    1.4953    1.0000 </r>
       <r>    1.5093    1.0000 </r>
       <r>    1.8695    1.0000 </r>
       <r>    1.8705    1.0000 </r>
       <r>    2.0193    1.0000 </r>
       <r>    2.0214    1.0000 </r>
       <r>    2.0301    1.0000 </r>
       <r>    2.4379    1.0000 </r>
       <r>    2.4724    1.0000 </r>
       <r>    2.4731    1.0000 </r>
       <r>    2.5466    1.0000 </r>
       <r>    2.5564    1.0000 </r>
       <r>    2.9443    1.0000 </r>
       <r>    2.9460    1.0000 </r>
       <r>    3.2691    1.0000 </r>
       <r>    3.2694    1.0000 </r>
       <r>    8.2460    0.0000 </r>
       <r>   10.5396    0.0000 </r>
       <r>   11.3622    0.0000 </r>
       <r>   11.3628    0.0000 </r>
       <r>   11.7860    0.0000 </r>
       <r>   11.9147    0.0000 </r>
       <r>   12.8085    0.0000 </r>
       <r>   12.8123    0.0000 </r>
       <r>   12.9712    0.0000 </r>
       <r>   13.7194    0.0000 </r>
       <r>   13.7210    0.0000 </r>
       <r>   14.4465    0.0000 </r>
       <r>   15.5617    0.0000 </r>
       <r>   15.6244    0.0000 </r>
       <r>   15.6293    0.0000 </r>
       <r>   15.8603    0.0000 </r>
       <r>   15.9215    0.0000 </r>
       <r>   15.9250    0.0000 </r>
       <r>   16.9151    0.0000 </r>
       <r>   17.4468    0.0000 </r>
      </set>
      <set comment="kpoint 3">
       <r>  -13.8743    1.0000 </r>
       <r>  -13.0117    1.0000 </r>
       <r>  -12.8254    1.0000 </r>
       <r>  -12.8210    1.0000 </r>
       <r>  -12.5757    1.0000 </r>
       <r>  -12.5743    1.0000 </r>
       <r>  -12.1245    1.0000 </r>
       <r>  -12.0432    1.0000 </r>
       <r>   -1.9265    1.0000 </r>
       <r>   -0.8105    1.0000 </r>
       <r>   -0.8091    1.0000 </r>
       <r>   -0.7978    1.0000 </r>
       <r>   -0.6204    1.0000 </r>
       <r>   -0.6107    1.0000 </r>
       <r>   -0.6094    1.0000 </r>
       <r>    1.4920    1.0000 </r>
       <r>    1.4960    1.0000 </r>
       <r>    1.5102    1.0000 </r>
       <r>    1.8698    1.0000 </r>
       <r>    1.8704    1.0000 </r>
       <r>    2.0191    1.0000 </r>
       <r>    2.0212    1.0000 </r>
       <r>    2.0298    1.0000 </r>
       <r>    2.4379    1.0000 </r>
       <r>    2.4719    1.0000 </r>
       <r>    2.4732    1.0000 </r>
       <r>    2.5466    1.0000 </r>
       <r>    2.5561    1.0000 </r>
       <r>    2.9443    1.0000 </r>
       <r>    2.9460    1.0000 </r>
       <r>    3.2690    1.0000 </r>
       <r>    3.2695    1.0000 </r>
       <r>    8.2460    0.0000 </r>
       <r>   10.5406    0.0000 </r>
       <r>   11.3605    0.0000 </r>
       <r>   11.3636    0.0000 </r>
       <r>   11.7863    0.0000 </r>
       <r>   11.9146    0.0000 </r>
       <r>   12.8096    0.0000 </r>
       <r>   12.8111    0.0000 </r>
       <r>   12.9725    0.0000 </r>
       <r>   13.7182    0.0000 </r>
       <r>   13.7201    0.0000 </r>
       <r>   14.4462    0.0000 </r>
       <r>   15.5579    0.0000 </r>
       <r>   15.6292    0.0000 </r>
       <r>   15.6302    0.0000 </r>
       <r>   15.8559    0.0000 </r>
       <r>   15.9199    0.0000 </r>
       <r>   15.9268    0.0000 </r>
       <r>   16.9153    0.0000 </r>
       <r>   17.4499    0.0000 </r>
      </set>
      <set comment="kpoint 4">
       <r>  -13.8742    1.0000 </r>
       <r>  -13.0123    1.0000 </r>
       <r>  -12.8243    1.0000 </r>
       <r>  -12.8216    1.0000 </r>
       <r>  -12.5759    1.0000 </r>
       <r>  -12.5742    1.0000 </r>
       <r>  -12.1245    1.0000 </r>
       <r>  -12.0431    1.0000 </r>
       <r>   -1.9263    1.0000 </r>
       <r>   -0.8108    1.0000 </r>
       <r>   -0.8086    1.0000 </r>
       <r>   -0.7978    1.0000 </r>
       <r>   -0.6209    1.0000 </r>
       <r>   -0.6106    1.0000 </r>
       <r>   -0.6093    1.0000 </r>
       <r>    1.4927    1.0000 </r>
       <r>    1.4941    1.0000 </r>
       <r>    1.5098    1.0000 </r>
       <r>    1.8694    1.0000 </r>
       <r>    1.8709    1.0000 </r>
       <r>    2.0192    1.0000 </r>
       <r>    2.0215    1.0000 </r>
       <r>    2.0301    1.0000 </r>
       <r>    2.4379    1.0000 </r>
       <r>    2.4724    1.0000 </r>
       <r>    2.4732    1.0000 </r>
       <r>    2.5466    1.0000 </r>
       <r>    2.5564    1.0000 </r>
       <r>    2.9445    1.0000 </r>
       <r>    2.9459    1.0000 </r>
       <r>    3.2691    1.0000 </r>
       <r>    3.2693    1.0000 </r>
       <r>    8.2459    0.0000 </r>
       <r>   10.5395    0.0000 </r>
       <r>   11.3622    0.0000 </r>
       <r>   11.3629    0.0000 </r>
       <r>   11.7860    0.0000 </r>
       <r>   11.9147    0.0000 </r>
       <r>   12.8087    0.0000 </r>
       <r>   12.8122    0.0000 </r>
       <r>   12.9710    0.0000 </r>
       <r>   13.7195    0.0000 </r>
       <r>   13.7212    0.0000 </r>
       <r>   14.4465    0.0000 </r>
       <r>   15.5623    0.0000 </r>
       <r>   15.6244    0.0000 </r>
       <r>   15.6285    0.0000 </r>
       <r>   15.8606    0.0000 </r>
       <r>   15.9218    0.0000 </r>
       <r>   15.9249    0.0000 </r>
       <r>   16.9148    0.0000 </r>
       <r>   17.4463    0.0000 </r>
      </set>
      <set comment="kpoint 5">
       <r>  -13.5847    1.0000 </r>
       <r>  -13.1566    1.0000 </r>
       <r>  -12.9207    1.0000 </r>
       <r>  -12.8623    1.0000 </r>
       <r>  -12.6882    1.0000 </r>
       <r>  -12.5442    1.0000 </r>
       <r>  -12.1317    1.0000 </r>
       <r>  -12.0680    1.0000 </r>
       <r>   -1.3159    1.0000 </r>
       <r>   -0.5952    1.0000 </r>
       <r>   -0.2673    1.0000 </r>
       <r>   -0.2053    1.0000 </r>
       <r>   -0.1548    1.0000 </r>
       <r>   -0.0677    1.0000 </r>
       <r>    0.1568    1.0000 </r>
       <r>    0.6480    1.0000 </r>
       <r>    0.7272    1.0000 </r>
       <r>    0.8128    1.0000 </r>
       <r>    1.2103    1.0000 </r>
       <r>    1.5547    1.0000 </r>
       <r>    1.6155    1.0000 </r>
       <r>    1.8243    1.0000 </r>
       <r>    1.9668    1.0000 </r>
       <r>    2.1466    1.0000 </r>
       <r>    2.2102    1.0000 </r>
       <r>    2.2360    1.0000 </r>
       <r>    2.4397    1.0000 </r>
       <r>    2.4699    1.0000 </r>
       <r>    2.7076    1.0000 </r>
       <r>    2.9305    1.0000 </r>
       <r>    2.9347    1.0000 </r>
       <r>    3.0442    1.0000 </r>
       <r>    9.8172    0.0000 </r>
       <r>   10.6885    0.0000 </r>
       <r>   11.8052    0.0000 </r>
       <r>   12.2190    0.0000 </r>
       <r>   12.4286    0.0000 </r>
       <r>   12.8636    0.0000 </r>
       <r>   13.4094    0.0000 </r>
       <r>   13.6812    0.0000 </r>
       <r>   13.8847    0.0000 </r>
       <r>   14.1471    0.0000 </r>
       <r>   14.4146    0.0000 </r>
       <r>   14.5570    0.0000 </r>
       <r>   15.1321    0.0000 </r>
       <r>   15.1866    0.0000 </r>
       <r>   15.2832    0.0000 </r>
       <r>   15.4267    0.0000 </r>
       <r>   15.6742    0.0000 </r>
       <r>   15.6801    0.0000 </r>
       <r>   15.7879    0.0000 </r>
       <r>   16.6704    0.0000 </r>
      </set>
      <set comment="kpoint 6">
       <r>  -13.5845    1.0000 </r>
       <r>  -13.1570    1.0000 </r>
       <r>  -12.9215    1.0000 </r>
       <r>  -12.8610    1.0000 </r>
       <r>  -12.6887    1.0000 </r>
       <r>  -12.5439    1.0000 </r>
       <r>  -12.1317    1.0000 </r>
       <r>  -12.0682    1.0000 </r>
       <r>   -1.3155    1.0000 </r>
       <r>   -0.5955    1.0000 </r>
       <r>   -0.2668    1.0000 </r>
       <r>   -0.2062    1.0000 </r>
       <r>   -0.1545    1.0000 </r>
       <r>   -0.0671    1.0000 </r>
       <r>    0.1568    1.0000 </r>
       <r>    0.6488    1.0000 </r>
       <r>    0.7258    1.0000 </r>
       <r>    0.8130    1.0000 </r>
       <r>    1.2099    1.0000 </r>
       <r>    1.5545    1.0000 </r>
       <r>    1.6156    1.0000 </r>
       <r>    1.8237    1.0000 </r>
       <r>    1.9673    1.0000 </r>
       <r>    2.1476    1.0000 </r>
       <r>    2.2100    1.0000 </r>
       <r>    2.2361    1.0000 </r>
       <r>    2.4399    1.0000 </r>
       <r>    2.4696    1.0000 </r>
       <r>    2.7074    1.0000 </r>
       <r>    2.9306    1.0000 </r>
       <r>    2.9345    1.0000 </r>
       <r>    3.0441    1.0000 </r>
       <r>    9.8173    0.0000 </r>
       <r>   10.6885    0.0000 </r>
       <r>   11.8055    0.0000 </r>
       <r>   12.2201    0.0000 </r>
       <r>   12.4289    0.0000 </r>
       <r>   12.8646    0.0000 </r>
       <r>   13.4091    0.0000 </r>
       <r>   13.6801    0.0000 </r>
       <r>   13.8837    0.0000 </r>
       <r>   14.1472    0.0000 </r>
       <r>   14.4141    0.0000 </r>
       <r>   14.5563    0.0000 </r>
       <r>   15.1334    0.0000 </r>
       <r>   15.1876    0.0000 </r>
       <r>   15.2846    0.0000 </r>
       <r>   15.4275    0.0000 </r>
       <r>   15.6748    0.0000 </r>
       <r>   15.6774    0.0000 </r>
       <r>   15.7863    0.0000 </r>
       <r>   16.6682    0.0000 </r>
      </set>
      <set comment="kpoint 7">
       <r>  -13.5851    1.0000 </r>
       <r>  -13.1556    1.0000 </r>
       <r>  -12.9192    1.0000 </r>
       <r>  -12.8643    1.0000 </r>
       <r>  -12.6874    1.0000 </r>
       <r>  -12.5453    1.0000 </r>
       <r>  -12.1318    1.0000 </r>
       <r>  -12.0675    1.0000 </r>
       <r>   -1.3171    1.0000 </r>
       <r>   -0.5946    1.0000 </r>
       <r>   -0.2684    1.0000 </r>
       <r>   -0.2032    1.0000 </r>
       <r>   -0.1555    1.0000 </r>
       <r>   -0.0693    1.0000 </r>
       <r>    0.1572    1.0000 </r>
       <r>    0.6465    1.0000 </r>
       <r>    0.7298    1.0000 </r>
       <r>    0.8138    1.0000 </r>
       <r>    1.2113    1.0000 </r>
       <r>    1.5550    1.0000 </r>
       <r>    1.6152    1.0000 </r>
       <r>    1.8257    1.0000 </r>
       <r>    1.9657    1.0000 </r>
       <r>    2.1457    1.0000 </r>
       <r>    2.2109    1.0000 </r>
       <r>    2.2342    1.0000 </r>
       <r>    2.4393    1.0000 </r>
       <r>    2.4705    1.0000 </r>
       <r>    2.7079    1.0000 </r>
       <r>    2.9304    1.0000 </r>
       <r>    2.9349    1.0000 </r>
       <r>    3.0448    1.0000 </r>
       <r>    9.8172    0.0000 </r>
       <r>   10.6889    0.0000 </r>
       <r>   11.8048    0.0000 </r>
       <r>   12.2151    0.0000 </r>
       <r>   12.4284    0.0000 </r>
       <r>   12.8617    0.0000 </r>
       <r>   13.4101    0.0000 </r>
       <r>   13.6844    0.0000 </r>
       <r>   13.8874    0.0000 </r>
       <r>   14.1470    0.0000 </r>
       <r>   14.4139    0.0000 </r>
       <r>   14.5560    0.0000 </r>
       <r>   15.1274    0.0000 </r>
       <r>   15.1819    0.0000 </r>
       <r>   15.2848    0.0000 </r>
       <r>   15.4238    0.0000 </r>
       <r>   15.6729    0.0000 </r>
       <r>   15.6869    0.0000 </r>
       <r>   15.7935    0.0000 </r>
       <r>   16.6777    0.0000 </r>
      </set>
      <set comment="kpoint 8">
       <r>  -13.5848    1.0000 </r>
       <r>  -13.1558    1.0000 </r>
       <r>  -12.9228    1.0000 </r>
       <r>  -12.8607    1.0000 </r>
       <r>  -12.6884    1.0000 </r>
       <r>  -12.5440    1.0000 </r>
       <r>  -12.1317    1.0000 </r>
       <r>  -12.0682    1.0000 </r>
       <r>   -1.3160    1.0000 </r>
       <r>   -0.5950    1.0000 </r>
       <r>   -0.2670    1.0000 </r>
       <r>   -0.2067    1.0000 </r>
       <r>   -0.1543    1.0000 </r>
       <r>   -0.0674    1.0000 </r>
       <r>    0.1573    1.0000 </r>
       <r>    0.6497    1.0000 </r>
       <r>    0.7261    1.0000 </r>
       <r>    0.8128    1.0000 </r>
       <r>    1.2095    1.0000 </r>
       <r>    1.5542    1.0000 </r>
       <r>    1.6160    1.0000 </r>
       <r>    1.8238    1.0000 </r>
       <r>    1.9674    1.0000 </r>
       <r>    2.1468    1.0000 </r>
       <r>    2.2102    1.0000 </r>
       <r>    2.2364    1.0000 </r>
       <r>    2.4392    1.0000 </r>
       <r>    2.4699    1.0000 </r>
       <r>    2.7076    1.0000 </r>
       <r>    2.9308    1.0000 </r>
       <r>    2.9338    1.0000 </r>
       <r>    3.0442    1.0000 </r>
       <r>    9.8172    0.0000 </r>
       <r>   10.6904    0.0000 </r>
       <r>   11.8025    0.0000 </r>
       <r>   12.2214    0.0000 </r>
       <r>   12.4290    0.0000 </r>
       <r>   12.8661    0.0000 </r>
       <r>   13.4106    0.0000 </r>
       <r>   13.6793    0.0000 </r>
       <r>   13.8827    0.0000 </r>
       <r>   14.1481    0.0000 </r>
       <r>   14.4110    0.0000 </r>
       <r>   14.5500    0.0000 </r>
       <r>   15.1321    0.0000 </r>
       <r>   15.1863    0.0000 </r>
       <r>   15.2892    0.0000 </r>
       <r>   15.4284    0.0000 </r>
       <r>   15.6737    0.0000 </r>
       <r>   15.6789    0.0000 </r>
       <r>   15.7895    0.0000 </r>
       <r>   16.6666    0.0000 </r>
      </set>
      <set comment="kpoint 9">
       <r>  -13.5852    1.0000 </r>
       <r>  -13.1548    1.0000 </r>
       <r>  -12.9222    1.0000 </r>
       <r>  -12.8622    1.0000 </r>
       <r>  -12.6880    1.0000 </r>
       <r>  -12.5443    1.0000 </r>
       <r>  -12.1317    1.0000 </r>
       <r>  -12.0680    1.0000 </r>
       <r>   -1.3169    1.0000 </r>
       <r>   -0.5940    1.0000 </r>
       <r>   -0.2676    1.0000 </r>
       <r>   -0.2057    1.0000 </r>
       <r>   -0.1547    1.0000 </r>
       <r>   -0.0679    1.0000 </r>
       <r>    0.1576    1.0000 </r>
       <r>    0.6486    1.0000 </r>
       <r>    0.7276    1.0000 </r>
       <r>    0.8124    1.0000 </r>
       <r>    1.2100    1.0000 </r>
       <r>    1.5541    1.0000 </r>
       <r>    1.6155    1.0000 </r>
       <r>    1.8244    1.0000 </r>
       <r>    1.9669    1.0000 </r>
       <r>    2.1462    1.0000 </r>
       <r>    2.2108    1.0000 </r>
       <r>    2.2360    1.0000 </r>
       <r>    2.4386    1.0000 </r>
       <r>    2.4704    1.0000 </r>
       <r>    2.7077    1.0000 </r>
       <r>    2.9308    1.0000 </r>
       <r>    2.9341    1.0000 </r>
       <r>    3.0448    1.0000 </r>
       <r>    9.8169    0.0000 </r>
       <r>   10.6898    0.0000 </r>
       <r>   11.8025    0.0000 </r>
       <r>   12.2197    0.0000 </r>
       <r>   12.4294    0.0000 </r>
       <r>   12.8647    0.0000 </r>
       <r>   13.4100    0.0000 </r>
       <r>   13.6814    0.0000 </r>
       <r>   13.8847    0.0000 </r>
       <r>   14.1486    0.0000 </r>
       <r>   14.4092    0.0000 </r>
       <r>   14.5499    0.0000 </r>
       <r>   15.1315    0.0000 </r>
       <r>   15.1840    0.0000 </r>
       <r>   15.2907    0.0000 </r>
       <r>   15.4283    0.0000 </r>
       <r>   15.6738    0.0000 </r>
       <r>   15.6796    0.0000 </r>
       <r>   15.7913    0.0000 </r>
       <r>   16.6707    0.0000 </r>
      </set>
      <set comment="kpoint 10">
       <r>  -13.5849    1.0000 </r>
       <r>  -13.1561    1.0000 </r>
       <r>  -12.9201    1.0000 </r>
       <r>  -12.8634    1.0000 </r>
       <r>  -12.6871    1.0000 </r>
       <r>  -12.5455    1.0000 </r>
       <r>  -12.1319    1.0000 </r>
       <r>  -12.0674    1.0000 </r>
       <r>   -1.3166    1.0000 </r>
       <r>   -0.5949    1.0000 </r>
       <r>   -0.2685    1.0000 </r>
       <r>   -0.2037    1.0000 </r>
       <r>   -0.1546    1.0000 </r>
       <r>   -0.0693    1.0000 </r>
       <r>    0.1569    1.0000 </r>
       <r>    0.6467    1.0000 </r>
       <r>    0.7287    1.0000 </r>
       <r>    0.8137    1.0000 </r>
       <r>    1.2113    1.0000 </r>
       <r>    1.5542    1.0000 </r>
       <r>    1.6159    1.0000 </r>
       <r>    1.8254    1.0000 </r>
       <r>    1.9658    1.0000 </r>
       <r>    2.1452    1.0000 </r>
       <r>    2.2107    1.0000 </r>
       <r>    2.2356    1.0000 </r>
       <r>    2.4390    1.0000 </r>
       <r>    2.4706    1.0000 </r>
       <r>    2.7079    1.0000 </r>
       <r>    2.9306    1.0000 </r>
       <r>    2.9352    1.0000 </r>
       <r>    3.0444    1.0000 </r>
       <r>    9.8167    0.0000 </r>
       <r>   10.6891    0.0000 </r>
       <r>   11.8015    0.0000 </r>
       <r>   12.2199    0.0000 </r>
       <r>   12.4274    0.0000 </r>
       <r>   12.8617    0.0000 </r>
       <r>   13.4089    0.0000 </r>
       <r>   13.6828    0.0000 </r>
       <r>   13.8849    0.0000 </r>
       <r>   14.1503    0.0000 </r>
       <r>   14.4168    0.0000 </r>
       <r>   14.5565    0.0000 </r>
       <r>   15.1346    0.0000 </r>
       <r>   15.1853    0.0000 </r>
       <r>   15.2767    0.0000 </r>
       <r>   15.4279    0.0000 </r>
       <r>   15.6722    0.0000 </r>
       <r>   15.6846    0.0000 </r>
       <r>   15.7905    0.0000 </r>
       <r>   16.6754    0.0000 </r>
      </set>
      <set comment="kpoint 11">
       <r>  -13.5846    1.0000 </r>
       <r>  -13.1566    1.0000 </r>
       <r>  -12.9215    1.0000 </r>
       <r>  -12.8613    1.0000 </r>
       <r>  -12.6883    1.0000 </r>
       <r>  -12.5443    1.0000 </r>
       <r>  -12.1318    1.0000 </r>
       <r>  -12.0679    1.0000 </r>
       <r>   -1.3158    1.0000 </r>
       <r>   -0.5953    1.0000 </r>
       <r>   -0.2675    1.0000 </r>
       <r>   -0.2053    1.0000 </r>
       <r>   -0.1545    1.0000 </r>
       <r>   -0.0677    1.0000 </r>
       <r>    0.1568    1.0000 </r>
       <r>    0.6482    1.0000 </r>
       <r>    0.7272    1.0000 </r>
       <r>    0.8126    1.0000 </r>
       <r>    1.2102    1.0000 </r>
       <r>    1.5543    1.0000 </r>
       <r>    1.6162    1.0000 </r>
       <r>    1.8241    1.0000 </r>
       <r>    1.9670    1.0000 </r>
       <r>    2.1467    1.0000 </r>
       <r>    2.2102    1.0000 </r>
       <r>    2.2359    1.0000 </r>
       <r>    2.4395    1.0000 </r>
       <r>    2.4699    1.0000 </r>
       <r>    2.7077    1.0000 </r>
       <r>    2.9309    1.0000 </r>
       <r>    2.9345    1.0000 </r>
       <r>    3.0440    1.0000 </r>
       <r>    9.8170    0.0000 </r>
       <r>   10.6890    0.0000 </r>
       <r>   11.8041    0.0000 </r>
       <r>   12.2199    0.0000 </r>
       <r>   12.4281    0.0000 </r>
       <r>   12.8643    0.0000 </r>
       <r>   13.4096    0.0000 </r>
       <r>   13.6801    0.0000 </r>
       <r>   13.8840    0.0000 </r>
       <r>   14.1486    0.0000 </r>
       <r>   14.4146    0.0000 </r>
       <r>   14.5561    0.0000 </r>
       <r>   15.1342    0.0000 </r>
       <r>   15.1870    0.0000 </r>
       <r>   15.2826    0.0000 </r>
       <r>   15.4275    0.0000 </r>
       <r>   15.6745    0.0000 </r>
       <r>   15.6791    0.0000 </r>
       <r>   15.7874    0.0000 </r>
       <r>   16.6698    0.0000 </r>
      </set>
      <set comment="kpoint 12">
       <r>  -13.5846    1.0000 </r>
       <r>  -13.1565    1.0000 </r>
       <r>  -12.9223    1.0000 </r>
       <r>  -12.8608    1.0000 </r>
       <r>  -12.6883    1.0000 </r>
       <r>  -12.5440    1.0000 </r>
       <r>  -12.1317    1.0000 </r>
       <r>  -12.0682    1.0000 </r>
       <r>   -1.3155    1.0000 </r>
       <r>   -0.5954    1.0000 </r>
       <r>   -0.2669    1.0000 </r>
       <r>   -0.2073    1.0000 </r>
       <r>   -0.1535    1.0000 </r>
       <r>   -0.0669    1.0000 </r>
       <r>    0.1568    1.0000 </r>
       <r>    0.6493    1.0000 </r>
       <r>    0.7255    1.0000 </r>
       <r>    0.8124    1.0000 </r>
       <r>    1.2099    1.0000 </r>
       <r>    1.5545    1.0000 </r>
       <r>    1.6159    1.0000 </r>
       <r>    1.8239    1.0000 </r>
       <r>    1.9673    1.0000 </r>
       <r>    2.1471    1.0000 </r>
       <r>    2.2101    1.0000 </r>
       <r>    2.2363    1.0000 </r>
       <r>    2.4395    1.0000 </r>
       <r>    2.4698    1.0000 </r>
       <r>    2.7077    1.0000 </r>
       <r>    2.9310    1.0000 </r>
       <r>    2.9338    1.0000 </r>
       <r>    3.0441    1.0000 </r>
       <r>    9.8171    0.0000 </r>
       <r>   10.6892    0.0000 </r>
       <r>   11.8046    0.0000 </r>
       <r>   12.2208    0.0000 </r>
       <r>   12.4282    0.0000 </r>
       <r>   12.8657    0.0000 </r>
       <r>   13.4088    0.0000 </r>
       <r>   13.6791    0.0000 </r>
       <r>   13.8829    0.0000 </r>
       <r>   14.1493    0.0000 </r>
       <r>   14.4137    0.0000 </r>
       <r>   14.5539    0.0000 </r>
       <r>   15.1347    0.0000 </r>
       <r>   15.1873    0.0000 </r>
       <r>   15.2858    0.0000 </r>
       <r>   15.4279    0.0000 </r>
       <r>   15.6741    0.0000 </r>
       <r>   15.6772    0.0000 </r>
       <r>   15.7869    0.0000 </r>
       <r>   16.6669    0.0000 </r>
      </set>
      <set comment="kpoint 13">
       <r>  -13.5854    1.0000 </r>
       <r>  -13.1546    1.0000 </r>
       <r>  -12.9202    1.0000 </r>
       <r>  -12.8643    1.0000 </r>
       <r>  -12.6872    1.0000 </r>
       <r>  -12.5453    1.0000 </r>
       <r>  -12.1318    1.0000 </r>
       <r>  -12.0674    1.0000 </r>
       <r>   -1.3177    1.0000 </r>
       <r>   -0.5936    1.0000 </r>
       <r>   -0.2685    1.0000 </r>
       <r>   -0.2033    1.0000 </r>
       <r>   -0.1553    1.0000 </r>
       <r>   -0.0697    1.0000 </r>
       <r>    0.1575    1.0000 </r>
       <r>    0.6465    1.0000 </r>
       <r>    0.7305    1.0000 </r>
       <r>    0.8128    1.0000 </r>
       <r>    1.2109    1.0000 </r>
       <r>    1.5544    1.0000 </r>
       <r>    1.6154    1.0000 </r>
       <r>    1.8257    1.0000 </r>
       <r>    1.9658    1.0000 </r>
       <r>    2.1456    1.0000 </r>
       <r>    2.2111    1.0000 </r>
       <r>    2.2343    1.0000 </r>
       <r>    2.4388    1.0000 </r>
       <r>    2.4706    1.0000 </r>
       <r>    2.7080    1.0000 </r>
       <r>    2.9308    1.0000 </r>
       <r>    2.9348    1.0000 </r>
       <r>    3.0450    1.0000 </r>
       <r>    9.8167    0.0000 </r>
       <r>   10.6892    0.0000 </r>
       <r>   11.8037    0.0000 </r>
       <r>   12.2153    0.0000 </r>
       <r>   12.4288    0.0000 </r>
       <r>   12.8619    0.0000 </r>
       <r>   13.4110    0.0000 </r>
       <r>   13.6840    0.0000 </r>
       <r>   13.8878    0.0000 </r>
       <r>   14.1472    0.0000 </r>
       <r>   14.4111    0.0000 </r>
       <r>   14.5538    0.0000 </r>
       <r>   15.1281    0.0000 </r>
       <r>   15.1817    0.0000 </r>
       <r>   15.2876    0.0000 </r>
       <r>   15.4249    0.0000 </r>
       <r>   15.6728    0.0000 </r>
       <r>   15.6861    0.0000 </r>
       <r>   15.7936    0.0000 </r>
       <r>   16.6824    0.0000 </r>
      </set>
      <set comment="kpoint 14">
       <r>  -13.5851    1.0000 </r>
       <r>  -13.1549    1.0000 </r>
       <r>  -12.9234    1.0000 </r>
       <r>  -12.8609    1.0000 </r>
       <r>  -12.6883    1.0000 </r>
       <r>  -12.5440    1.0000 </r>
       <r>  -12.1316    1.0000 </r>
       <r>  -12.0682    1.0000 </r>
       <r>   -1.3166    1.0000 </r>
       <r>   -0.5942    1.0000 </r>
       <r>   -0.2672    1.0000 </r>
       <r>   -0.2069    1.0000 </r>
       <r>   -0.1540    1.0000 </r>
       <r>   -0.0673    1.0000 </r>
       <r>    0.1575    1.0000 </r>
       <r>    0.6495    1.0000 </r>
       <r>    0.7268    1.0000 </r>
       <r>    0.8120    1.0000 </r>
       <r>    1.2096    1.0000 </r>
       <r>    1.5539    1.0000 </r>
       <r>    1.6155    1.0000 </r>
       <r>    1.8239    1.0000 </r>
       <r>    1.9673    1.0000 </r>
       <r>    2.1473    1.0000 </r>
       <r>    2.2106    1.0000 </r>
       <r>    2.2360    1.0000 </r>
       <r>    2.4387    1.0000 </r>
       <r>    2.4701    1.0000 </r>
       <r>    2.7076    1.0000 </r>
       <r>    2.9309    1.0000 </r>
       <r>    2.9337    1.0000 </r>
       <r>    3.0447    1.0000 </r>
       <r>    9.8169    0.0000 </r>
       <r>   10.6900    0.0000 </r>
       <r>   11.8026    0.0000 </r>
       <r>   12.2209    0.0000 </r>
       <r>   12.4299    0.0000 </r>
       <r>   12.8657    0.0000 </r>
       <r>   13.4097    0.0000 </r>
       <r>   13.6803    0.0000 </r>
       <r>   13.8837    0.0000 </r>
       <r>   14.1485    0.0000 </r>
       <r>   14.4084    0.0000 </r>
       <r>   14.5487    0.0000 </r>
       <r>   15.1322    0.0000 </r>
       <r>   15.1849    0.0000 </r>
       <r>   15.2927    0.0000 </r>
       <r>   15.4290    0.0000 </r>
       <r>   15.6745    0.0000 </r>
       <r>   15.6769    0.0000 </r>
       <r>   15.7902    0.0000 </r>
       <r>   16.6671    0.0000 </r>
      </set>
      <set comment="kpoint 15">
       <r>  -13.5849    1.0000 </r>
       <r>  -13.1556    1.0000 </r>
       <r>  -12.9225    1.0000 </r>
       <r>  -12.8612    1.0000 </r>
       <r>  -12.6881    1.0000 </r>
       <r>  -12.5444    1.0000 </r>
       <r>  -12.1317    1.0000 </r>
       <r>  -12.0680    1.0000 </r>
       <r>   -1.3163    1.0000 </r>
       <r>   -0.5948    1.0000 </r>
       <r>   -0.2678    1.0000 </r>
       <r>   -0.2057    1.0000 </r>
       <r>   -0.1544    1.0000 </r>
       <r>   -0.0678    1.0000 </r>
       <r>    0.1572    1.0000 </r>
       <r>    0.6488    1.0000 </r>
       <r>    0.7277    1.0000 </r>
       <r>    0.8125    1.0000 </r>
       <r>    1.2101    1.0000 </r>
       <r>    1.5543    1.0000 </r>
       <r>    1.6159    1.0000 </r>
       <r>    1.8241    1.0000 </r>
       <r>    1.9669    1.0000 </r>
       <r>    2.1465    1.0000 </r>
       <r>    2.2106    1.0000 </r>
       <r>    2.2358    1.0000 </r>
       <r>    2.4390    1.0000 </r>
       <r>    2.4702    1.0000 </r>
       <r>    2.7077    1.0000 </r>
       <r>    2.9308    1.0000 </r>
       <r>    2.9340    1.0000 </r>
       <r>    3.0444    1.0000 </r>
       <r>    9.8171    0.0000 </r>
       <r>   10.6902    0.0000 </r>
       <r>   11.8021    0.0000 </r>
       <r>   12.2206    0.0000 </r>
       <r>   12.4287    0.0000 </r>
       <r>   12.8651    0.0000 </r>
       <r>   13.4097    0.0000 </r>
       <r>   13.6807    0.0000 </r>
       <r>   13.8836    0.0000 </r>
       <r>   14.1492    0.0000 </r>
       <r>   14.4118    0.0000 </r>
       <r>   14.5507    0.0000 </r>
       <r>   15.1318    0.0000 </r>
       <r>   15.1850    0.0000 </r>
       <r>   15.2874    0.0000 </r>
       <r>   15.4281    0.0000 </r>
       <r>   15.6733    0.0000 </r>
       <r>   15.6809    0.0000 </r>
       <r>   15.7910    0.0000 </r>
       <r>   16.6707    0.0000 </r>
      </set>
      <set comment="kpoint 16">
       <r>  -13.5849    1.0000 </r>
       <r>  -13.1558    1.0000 </r>
       <r>  -12.9205    1.0000 </r>
       <r>  -12.8634    1.0000 </r>
       <r>  -12.6870    1.0000 </r>
       <r>  -12.5454    1.0000 </r>
       <r>  -12.1319    1.0000 </r>
       <r>  -12.0674    1.0000 </r>
       <r>   -1.3167    1.0000 </r>
       <r>   -0.5947    1.0000 </r>
       <r>   -0.2686    1.0000 </r>
       <r>   -0.2036    1.0000 </r>
       <r>   -0.1546    1.0000 </r>
       <r>   -0.0696    1.0000 </r>
       <r>    0.1570    1.0000 </r>
       <r>    0.6467    1.0000 </r>
       <r>    0.7298    1.0000 </r>
       <r>    0.8130    1.0000 </r>
       <r>    1.2111    1.0000 </r>
       <r>    1.5541    1.0000 </r>
       <r>    1.6160    1.0000 </r>
       <r>    1.8254    1.0000 </r>
       <r>    1.9658    1.0000 </r>
       <r>    2.1453    1.0000 </r>
       <r>    2.2106    1.0000 </r>
       <r>    2.2356    1.0000 </r>
       <r>    2.4391    1.0000 </r>
       <r>    2.4706    1.0000 </r>
       <r>    2.7079    1.0000 </r>
       <r>    2.9306    1.0000 </r>
       <r>    2.9353    1.0000 </r>
       <r>    3.0443    1.0000 </r>
       <r>    9.8167    0.0000 </r>
       <r>   10.6893    0.0000 </r>
       <r>   11.8010    0.0000 </r>
       <r>   12.2200    0.0000 </r>
       <r>   12.4277    0.0000 </r>
       <r>   12.8616    0.0000 </r>
       <r>   13.4098    0.0000 </r>
       <r>   13.6827    0.0000 </r>
       <r>   13.8850    0.0000 </r>
       <r>   14.1492    0.0000 </r>
       <r>   14.4166    0.0000 </r>
       <r>   14.5565    0.0000 </r>
       <r>   15.1334    0.0000 </r>
       <r>   15.1859    0.0000 </r>
       <r>   15.2766    0.0000 </r>
       <r>   15.4279    0.0000 </r>
       <r>   15.6721    0.0000 </r>
       <r>   15.6855    0.0000 </r>
       <r>   15.7906    0.0000 </r>
       <r>   16.6747    0.0000 </r>
      </set>
     </set>
     <set comment="spin 2">
      <set comment="kpoint 1">
       <r>  -13.8744    1.0000 </r>
       <r>  -13.0111    1.0000 </r>
       <r>  -12.8255    1.0000 </r>
       <r>  -12.8215    1.0000 </r>
       <r>  -12.5757    1.0000 </r>
       <r>  -12.5742    1.0000 </r>
       <r>  -12.1245    1.0000 </r>
       <r>  -12.0431    1.0000 </r>
       <r>   -1.9267    1.0000 </r>
       <r>   -0.8104    1.0000 </r>
       <r>   -0.8089    1.0000 </r>
       <r>   -0.7979    1.0000 </r>
       <r>   -0.6199    1.0000 </r>
       <r>   -0.6108    1.0000 </r>
       <r>   -0.6097    1.0000 </r>
       <r>    1.4921    1.0000 </r>
       <r>    1.4960    1.0000 </r>
       <r>    1.5105    1.0000 </r>
       <r>    1.8693    1.0000 </r>
       <r>    1.8698    1.0000 </r>
       <r>    2.0193    1.0000 </r>
       <r>    2.0217    1.0000 </r>
       <r>    2.0294    1.0000 </r>
       <r>    2.4379    1.0000 </r>
       <r>    2.4719    1.0000 </r>
       <r>    2.4732    1.0000 </r>
       <r>    2.5469    1.0000 </r>
       <r>    2.5556    1.0000 </r>
       <r>    2.9445    1.0000 </r>
       <r>    2.9462    1.0000 </r>
       <r>    3.2694    1.0000 </r>
       <r>    3.2696    1.0000 </r>
       <r>    8.2458    0.0000 </r>
       <r>   10.5406    0.0000 </r>
       <r>   11.3605    0.0000 </r>
       <r>   11.3637    0.0000 </r>
       <r>   11.7863    0.0000 </r>
       <r>   11.9144    0.0000 </r>
       <r>   12.8100    0.0000 </r>
       <r>   12.8109    0.0000 </r>
       <r>   12.9727    0.0000 </r>
       <r>   13.7183    0.0000 </r>
       <r>   13.7199    0.0000 </r>
       <r>   14.4460    0.0000 </r>
       <r>   15.5570    0.0000 </r>
       <r>   15.6312    0.0000 </r>
       <r>   15.6319    0.0000 </r>
       <r>   15.8539    0.0000 </r>
       <r>   15.9210    0.0000 </r>
       <r>   15.9261    0.0000 </r>
       <r>   16.9152    0.0000 </r>
       <r>   17.4512    0.0000 </r>
      </set>
      <set comment="kpoint 2">
       <r>  -13.8742    1.0000 </r>
       <r>  -13.0121    1.0000 </r>
       <r>  -12.8246    1.0000 </r>
       <r>  -12.8216    1.0000 </r>
       <r>  -12.5759    1.0000 </r>
       <r>  -12.5741    1.0000 </r>
       <r>  -12.1245    1.0000 </r>
       <r>  -12.0431    1.0000 </r>
       <r>   -1.9263    1.0000 </r>
       <r>   -0.8101    1.0000 </r>
       <r>   -0.8086    1.0000 </r>
       <r>   -0.7984    1.0000 </r>
       <r>   -0.6200    1.0000 </r>
       <r>   -0.6107    1.0000 </r>
       <r>   -0.6100    1.0000 </r>
       <r>    1.4923    1.0000 </r>
       <r>    1.4953    1.0000 </r>
       <r>    1.5093    1.0000 </r>
       <r>    1.8696    1.0000 </r>
       <r>    1.8705    1.0000 </r>
       <r>    2.0193    1.0000 </r>
       <r>    2.0214    1.0000 </r>
       <r>    2.0301    1.0000 </r>
       <r>    2.4379    1.0000 </r>
       <r>    2.4725    1.0000 </r>
       <r>    2.4731    1.0000 </r>
       <r>    2.5466    1.0000 </r>
       <r>    2.5564    1.0000 </r>
       <r>    2.9444    1.0000 </r>
       <r>    2.9460    1.0000 </r>
       <r>    3.2691    1.0000 </r>
       <r>    3.2694    1.0000 </r>
       <r>    8.2460    0.0000 </r>
       <r>   10.5397    0.0000 </r>
       <r>   11.3623    0.0000 </r>
       <r>   11.3629    0.0000 </r>
       <r>   11.7860    0.0000 </r>
       <r>   11.9148    0.0000 </r>
       <r>   12.8086    0.0000 </r>
       <r>   12.8123    0.0000 </r>
       <r>   12.9713    0.0000 </r>
       <r>   13.7195    0.0000 </r>
       <r>   13.7211    0.0000 </r>
       <r>   14.4465    0.0000 </r>
       <r>   15.5618    0.0000 </r>
       <r>   15.6245    0.0000 </r>
       <r>   15.6294    0.0000 </r>
       <r>   15.8604    0.0000 </r>
       <r>   15.9216    0.0000 </r>
       <r>   15.9250    0.0000 </r>
       <r>   16.9152    0.0000 </r>
       <r>   17.4469    0.0000 </r>
      </set>
      <set comment="kpoint 3">
       <r>  -13.8743    1.0000 </r>
       <r>  -13.0117    1.0000 </r>
       <r>  -12.8254    1.0000 </r>
       <r>  -12.8210    1.0000 </r>
       <r>  -12.5757    1.0000 </r>
       <r>  -12.5743    1.0000 </r>
       <r>  -12.1245    1.0000 </r>
       <r>  -12.0431    1.0000 </r>
       <r>   -1.9265    1.0000 </r>
       <r>   -0.8104    1.0000 </r>
       <r>   -0.8091    1.0000 </r>
       <r>   -0.7978    1.0000 </r>
       <r>   -0.6203    1.0000 </r>
       <r>   -0.6107    1.0000 </r>
       <r>   -0.6094    1.0000 </r>
       <r>    1.4920    1.0000 </r>
       <r>    1.4960    1.0000 </r>
       <r>    1.5102    1.0000 </r>
       <r>    1.8698    1.0000 </r>
       <r>    1.8704    1.0000 </r>
       <r>    2.0191    1.0000 </r>
       <r>    2.0212    1.0000 </r>
       <r>    2.0298    1.0000 </r>
       <r>    2.4379    1.0000 </r>
       <r>    2.4720    1.0000 </r>
       <r>    2.4732    1.0000 </r>
       <r>    2.5467    1.0000 </r>
       <r>    2.5561    1.0000 </r>
       <r>    2.9443    1.0000 </r>
       <r>    2.9460    1.0000 </r>
       <r>    3.2691    1.0000 </r>
       <r>    3.2695    1.0000 </r>
       <r>    8.2461    0.0000 </r>
       <r>   10.5407    0.0000 </r>
       <r>   11.3606    0.0000 </r>
       <r>   11.3637    0.0000 </r>
       <r>   11.7863    0.0000 </r>
       <r>   11.9147    0.0000 </r>
       <r>   12.8097    0.0000 </r>
       <r>   12.8111    0.0000 </r>
       <r>   12.9726    0.0000 </r>
       <r>   13.7183    0.0000 </r>
       <r>   13.7202    0.0000 </r>
       <r>   14.4463    0.0000 </r>
       <r>   15.5580    0.0000 </r>
       <r>   15.6293    0.0000 </r>
       <r>   15.6302    0.0000 </r>
       <r>   15.8560    0.0000 </r>
       <r>   15.9200    0.0000 </r>
       <r>   15.9269    0.0000 </r>
       <r>   16.9154    0.0000 </r>
       <r>   17.4499    0.0000 </r>
      </set>
      <set comment="kpoint 4">
       <r>  -13.8742    1.0000 </r>
       <r>  -13.0123    1.0000 </r>
       <r>  -12.8243    1.0000 </r>
       <r>  -12.8216    1.0000 </r>
       <r>  -12.5759    1.0000 </r>
       <r>  -12.5742    1.0000 </r>
       <r>  -12.1245    1.0000 </r>
       <r>  -12.0431    1.0000 </r>
       <r>   -1.9263    1.0000 </r>
       <r>   -0.8107    1.0000 </r>
       <r>   -0.8086    1.0000 </r>
       <r>   -0.7977    1.0000 </r>
       <r>   -0.6209    1.0000 </r>
       <r>   -0.6106    1.0000 </r>
       <r>   -0.6093    1.0000 </r>
       <r>    1.4928    1.0000 </r>
       <r>    1.4941    1.0000 </r>
       <r>    1.5098    1.0000 </r>
       <r>    1.8694    1.0000 </r>
       <r>    1.8709    1.0000 </r>
       <r>    2.0192    1.0000 </r>
       <r>    2.0215    1.0000 </r>
       <r>    2.0301    1.0000 </r>
       <r>    2.4379    1.0000 </r>
       <r>    2.4724    1.0000 </r>
       <r>    2.4732    1.0000 </r>
       <r>    2.5466    1.0000 </r>
       <r>    2.5564    1.0000 </r>
       <r>    2.9445    1.0000 </r>
       <r>    2.9459    1.0000 </r>
       <r>    3.2691    1.0000 </r>
       <r>    3.2694    1.0000 </r>
       <r>    8.2460    0.0000 </r>
       <r>   10.5396    0.0000 </r>
       <r>   11.3623    0.0000 </r>
       <r>   11.3630    0.0000 </r>
       <r>   11.7861    0.0000 </r>
       <r>   11.9148    0.0000 </r>
       <r>   12.8088    0.0000 </r>
       <r>   12.8122    0.0000 </r>
       <r>   12.9711    0.0000 </r>
       <r>   13.7196    0.0000 </r>
       <r>   13.7213    0.0000 </r>
       <r>   14.4466    0.0000 </r>
       <r>   15.5624    0.0000 </r>
       <r>   15.6245    0.0000 </r>
       <r>   15.6286    0.0000 </r>
       <r>   15.8607    0.0000 </r>
       <r>   15.9219    0.0000 </r>
       <r>   15.9250    0.0000 </r>
       <r>   16.9149    0.0000 </r>
       <r>   17.4464    0.0000 </r>
      </set>
      <set comment="kpoint 5">
       <r>  -13.5847    1.0000 </r>
       <r>  -13.1566    1.0000 </r>
       <r>  -12.9207    1.0000 </r>
       <r>  -12.8623    1.0000 </r>
       <r>  -12.6882    1.0000 </r>
       <r>  -12.5442    1.0000 </r>
       <r>  -12.1317    1.0000 </r>
       <r>  -12.0680    1.0000 </r>
       <r>   -1.3159    1.0000 </r>
       <r>   -0.5952    1.0000 </r>
       <r>   -0.2672    1.0000 </r>
       <r>   -0.2053    1.0000 </r>
       <r>   -0.1548    1.0000 </r>
       <r>   -0.0677    1.0000 </r>
       <r>    0.1569    1.0000 </r>
       <r>    0.6480    1.0000 </r>
       <r>    0.7272    1.0000 </r>
       <r>    0.8128    1.0000 </r>
       <r>    1.2104    1.0000 </r>
       <r>    1.5547    1.0000 </r>
       <r>    1.6156    1.0000 </r>
       <r>    1.8243    1.0000 </r>
       <r>    1.9668    1.0000 </r>
       <r>    2.1466    1.0000 </r>
       <r>    2.2102    1.0000 </r>
       <r>    2.2360    1.0000 </r>
       <r>    2.4398    1.0000 </r>
       <r>    2.4700    1.0000 </r>
       <r>    2.7076    1.0000 </r>
       <r>    2.9305    1.0000 </r>
       <r>    2.9348    1.0000 </r>
       <r>    3.0443    1.0000 </r>
       <r>    9.8173    0.0000 </r>
       <r>   10.6886    0.0000 </r>
       <r>   11.8052    0.0000 </r>
       <r>   12.2190    0.0000 </r>
       <r>   12.4286    0.0000 </r>
       <r>   12.8637    0.0000 </r>
       <r>   13.4094    0.0000 </r>
       <r>   13.6812    0.0000 </r>
       <r>   13.8847    0.0000 </r>
       <r>   14.1472    0.0000 </r>
       <r>   14.4147    0.0000 </r>
       <r>   14.5571    0.0000 </r>
       <r>   15.1322    0.0000 </r>
       <r>   15.1866    0.0000 </r>
       <r>   15.2833    0.0000 </r>
       <r>   15.4268    0.0000 </r>
       <r>   15.6743    0.0000 </r>
       <r>   15.6802    0.0000 </r>
       <r>   15.7879    0.0000 </r>
       <r>   16.6706    0.0000 </r>
      </set>
      <set comment="kpoint 6">
       <r>  -13.5845    1.0000 </r>
       <r>  -13.1570    1.0000 </r>
       <r>  -12.9215    1.0000 </r>
       <r>  -12.8610    1.0000 </r>
       <r>  -12.6887    1.0000 </r>
       <r>  -12.5439    1.0000 </r>
       <r>  -12.1317    1.0000 </r>
       <r>  -12.0682    1.0000 </r>
       <r>   -1.3154    1.0000 </r>
       <r>   -0.5955    1.0000 </r>
       <r>   -0.2668    1.0000 </r>
       <r>   -0.2062    1.0000 </r>
       <r>   -0.1544    1.0000 </r>
       <r>   -0.0671    1.0000 </r>
       <r>    0.1568    1.0000 </r>
       <r>    0.6488    1.0000 </r>
       <r>    0.7258    1.0000 </r>
       <r>    0.8130    1.0000 </r>
       <r>    1.2099    1.0000 </r>
       <r>    1.5545    1.0000 </r>
       <r>    1.6156    1.0000 </r>
       <r>    1.8238    1.0000 </r>
       <r>    1.9673    1.0000 </r>
       <r>    2.1476    1.0000 </r>
       <r>    2.2100    1.0000 </r>
       <r>    2.2361    1.0000 </r>
       <r>    2.4399    1.0000 </r>
       <r>    2.4696    1.0000 </r>
       <r>    2.7075    1.0000 </r>
       <r>    2.9306    1.0000 </r>
       <r>    2.9345    1.0000 </r>
       <r>    3.0441    1.0000 </r>
       <r>    9.8173    0.0000 </r>
       <r>   10.6886    0.0000 </r>
       <r>   11.8055    0.0000 </r>
       <r>   12.2202    0.0000 </r>
       <r>   12.4290    0.0000 </r>
       <r>   12.8646    0.0000 </r>
       <r>   13.4092    0.0000 </r>
       <r>   13.6802    0.0000 </r>
       <r>   13.8838    0.0000 </r>
       <r>   14.1473    0.0000 </r>
       <r>   14.4141    0.0000 </r>
       <r>   14.5563    0.0000 </r>
       <r>   15.1335    0.0000 </r>
       <r>   15.1876    0.0000 </r>
       <r>   15.2847    0.0000 </r>
       <r>   15.4275    0.0000 </r>
       <r>   15.6749    0.0000 </r>
       <r>   15.6774    0.0000 </r>
       <r>   15.7863    0.0000 </r>
       <r>   16.6680    0.0000 </r>
      </set>
      <set comment="kpoint 7">
       <r>  -13.5851    1.0000 </r>
       <r>  -13.1556    1.0000 </r>
       <r>  -12.9192    1.0000 </r>
       <r>  -12.8643    1.0000 </r>
       <r>  -12.6874    1.0000 </r>
       <r>  -12.5453    1.0000 </r>
       <r>  -12.1318    1.0000 </r>
       <r>  -12.0675    1.0000 </r>
       <r>   -1.3170    1.0000 </r>
       <r>   -0.5945    1.0000 </r>
       <r>   -0.2684    1.0000 </r>
       <r>   -0.2032    1.0000 </r>
       <r>   -0.1555    1.0000 </r>
       <r>   -0.0693    1.0000 </r>
       <r>    0.1572    1.0000 </r>
       <r>    0.6465    1.0000 </r>
       <r>    0.7298    1.0000 </r>
       <r>    0.8138    1.0000 </r>
       <r>    1.2113    1.0000 </r>
       <r>    1.5550    1.0000 </r>
       <r>    1.6152    1.0000 </r>
       <r>    1.8257    1.0000 </r>
       <r>    1.9657    1.0000 </r>
       <r>    2.1457    1.0000 </r>
       <r>    2.2110    1.0000 </r>
       <r>    2.2342    1.0000 </r>
       <r>    2.4393    1.0000 </r>
       <r>    2.4705    1.0000 </r>
       <r>    2.7079    1.0000 </r>
       <r>    2.9304    1.0000 </r>
       <r>    2.9349    1.0000 </r>
       <r>    3.0448    1.0000 </r>
       <r>    9.8172    0.0000 </r>
       <r>   10.6890    0.0000 </r>
       <r>   11.8049    0.0000 </r>
       <r>   12.2152    0.0000 </r>
       <r>   12.4285    0.0000 </r>
       <r>   12.8617    0.0000 </r>
       <r>   13.4102    0.0000 </r>
       <r>   13.6844    0.0000 </r>
       <r>   13.8875    0.0000 </r>
       <r>   14.1471    0.0000 </r>
       <r>   14.4139    0.0000 </r>
       <r>   14.5560    0.0000 </r>
       <r>   15.1275    0.0000 </r>
       <r>   15.1820    0.0000 </r>
       <r>   15.2849    0.0000 </r>
       <r>   15.4239    0.0000 </r>
       <r>   15.6730    0.0000 </r>
       <r>   15.6870    0.0000 </r>
       <r>   15.7935    0.0000 </r>
       <r>   16.7020    0.0000 </r>
      </set>
      <set comment="kpoint 8">
       <r>  -13.5848    1.0000 </r>
       <r>  -13.1558    1.0000 </r>
       <r>  -12.9228    1.0000 </r>
       <r>  -12.8607    1.0000 </r>
       <r>  -12.6884    1.0000 </r>
       <r>  -12.5440    1.0000 </r>
       <r>  -12.1317    1.0000 </r>
       <r>  -12.0682    1.0000 </r>
       <r>   -1.3160    1.0000 </r>
       <r>   -0.5950    1.0000 </r>
       <r>   -0.2670    1.0000 </r>
       <r>   -0.2066    1.0000 </r>
       <r>   -0.1542    1.0000 </r>
       <r>   -0.0674    1.0000 </r>
       <r>    0.1573    1.0000 </r>
       <r>    0.6497    1.0000 </r>
       <r>    0.7261    1.0000 </r>
       <r>    0.8128    1.0000 </r>
       <r>    1.2095    1.0000 </r>
       <r>    1.5542    1.0000 </r>
       <r>    1.6160    1.0000 </r>
       <r>    1.8238    1.0000 </r>
       <r>    1.9674    1.0000 </r>
       <r>    2.1468    1.0000 </r>
       <r>    2.2103    1.0000 </r>
       <r>    2.2364    1.0000 </r>
       <r>    2.4392    1.0000 </r>
       <r>    2.4699    1.0000 </r>
       <r>    2.7076    1.0000 </r>
       <r>    2.9308    1.0000 </r>
       <r>    2.9338    1.0000 </r>
       <r>    3.0442    1.0000 </r>
       <r>    9.8172    0.0000 </r>
       <r>   10.6904    0.0000 </r>
       <r>   11.8025    0.0000 </r>
       <r>   12.2215    0.0000 </r>
       <r>   12.4291    0.0000 </r>
       <r>   12.8661    0.0000 </r>
       <r>   13.4107    0.0000 </r>
       <r>   13.6794    0.0000 </r>
       <r>   13.8828    0.0000 </r>
       <r>   14.1482    0.0000 </r>
       <r>   14.4111    0.0000 </r>
       <r>   14.5501    0.0000 </r>
       <r>   15.1322    0.0000 </r>
       <r>   15.1863    0.0000 </r>
       <r>   15.2893    0.0000 </r>
       <r>   15.4285    0.0000 </r>
       <r>   15.6738    0.0000 </r>
       <r>   15.6790    0.0000 </r>
       <r>   15.7895    0.0000 </r>
       <r>   16.6669    0.0000 </r>
      </set>
      <set comment="kpoint 9">
       <r>  -13.5852    1.0000 </r>
       <r>  -13.1548    1.0000 </r>
       <r>  -12.9222    1.0000 </r>
       <r>  -12.8622    1.0000 </r>
       <r>  -12.6880    1.0000 </r>
       <r>  -12.5443    1.0000 </r>
       <r>  -12.1317    1.0000 </r>
       <r>  -12.0680    1.0000 </r>
       <r>   -1.3169    1.0000 </r>
       <r>   -0.5940    1.0000 </r>
       <r>   -0.2676    1.0000 </r>
       <r>   -0.2056    1.0000 </r>
       <r>   -0.1546    1.0000 </r>
       <r>   -0.0679    1.0000 </r>
       <r>    0.1576    1.0000 </r>
       <r>    0.6486    1.0000 </r>
       <r>    0.7276    1.0000 </r>
       <r>    0.8125    1.0000 </r>
       <r>    1.2100    1.0000 </r>
       <r>    1.5541    1.0000 </r>
       <r>    1.6155    1.0000 </r>
       <r>    1.8244    1.0000 </r>
       <r>    1.9669    1.0000 </r>
       <r>    2.1462    1.0000 </r>
       <r>    2.2108    1.0000 </r>
       <r>    2.2360    1.0000 </r>
       <r>    2.4387    1.0000 </r>
       <r>    2.4704    1.0000 </r>
       <r>    2.7077    1.0000 </r>
       <r>    2.9308    1.0000 </r>
       <r>    2.9341    1.0000 </r>
       <r>    3.0448    1.0000 </r>
       <r>    9.8169    0.0000 </r>
       <r>   10.6899    0.0000 </r>
       <r>   11.8026    0.0000 </r>
       <r>   12.2198    0.0000 </r>
       <r>   12.4295    0.0000 </r>
       <r>   12.8647    0.0000 </r>
       <r>   13.4101    0.0000 </r>
       <r>   13.6814    0.0000 </r>
       <r>   13.8847    0.0000 </r>
       <r>   14.1486    0.0000 </r>
       <r>   14.4093    0.0000 </r>
       <r>   14.5499    0.0000 </r>
       <r>   15.1315    0.0000 </r>
       <r>   15.1841    0.0000 </r>
       <r>   15.2908    0.0000 </r>
       <r>   15.4283    0.0000 </r>
       <r>   15.6739    0.0000 </r>
       <r>   15.6797    0.0000 </r>
       <r>   15.7913    0.0000 </r>
       <r>   16.6701    0.0000 </r>
      </set>
      <set comment="kpoint 10">
       <r>  -13.5849    1.0000 </r>
       <r>  -13.1561    1.0000 </r>
       <r>  -12.9201    1.0000 </r>
       <r>  -12.8634    1.0000 </r>
       <r>  -12.6871    1.0000 </r>
       <r>  -12.5455    1.0000 </r>
       <r>  -12.1319    1.0000 </r>
       <r>  -12.0674    1.0000 </r>
       <r>   -1.3166    1.0000 </r>
       <r>   -0.5949    1.0000 </r>
       <r>   -0.2685    1.0000 </r>
       <r>   -0.2037    1.0000 </r>
       <r>   -0.1545    1.0000 </r>
       <r>   -0.0693    1.0000 </r>
       <r>    0.1569    1.0000 </r>
       <r>    0.6467    1.0000 </r>
       <r>    0.7288    1.0000 </r>
       <r>    0.8138    1.0000 </r>
       <r>    1.2113    1.0000 </r>
       <r>    1.5542    1.0000 </r>
       <r>    1.6160    1.0000 </r>
       <r>    1.8254    1.0000 </r>
       <r>    1.9658    1.0000 </r>
       <r>    2.1453    1.0000 </r>
       <r>    2.2107    1.0000 </r>
       <r>    2.2356    1.0000 </r>
       <r>    2.4390    1.0000 </r>
       <r>    2.4706    1.0000 </r>
       <r>    2.7080    1.0000 </r>
       <r>    2.9307    1.0000 </r>
       <r>    2.9352    1.0000 </r>
       <r>    3.0444    1.0000 </r>
       <r>    9.8168    0.0000 </r>
       <r>   10.6891    0.0000 </r>
       <r>   11.8016    0.0000 </r>
       <r>   12.2200    0.0000 </r>
       <r>   12.4275    0.0000 </r>
       <r>   12.8618    0.0000 </r>
       <r>   13.4090    0.0000 </r>
       <r>   13.6828    0.0000 </r>
       <r>   13.8850    0.0000 </r>
       <r>   14.1504    0.0000 </r>
       <r>   14.4169    0.0000 </r>
       <r>   14.5566    0.0000 </r>
       <r>   15.1346    0.0000 </r>
       <r>   15.1854    0.0000 </r>
       <r>   15.2768    0.0000 </r>
       <r>   15.4279    0.0000 </r>
       <r>   15.6722    0.0000 </r>
       <r>   15.6846    0.0000 </r>
       <r>   15.7906    0.0000 </r>
       <r>   16.6762    0.0000 </r>
      </set>
      <set comment="kpoint 11">
       <r>  -13.5846    1.0000 </r>
       <r>  -13.1566    1.0000 </r>
       <r>  -12.9215    1.0000 </r>
       <r>  -12.8613    1.0000 </r>
       <r>  -12.6883    1.0000 </r>
       <r>  -12.5443    1.0000 </r>
       <r>  -12.1317    1.0000 </r>
       <r>  -12.0679    1.0000 </r>
       <r>   -1.3158    1.0000 </r>
       <r>   -0.5953    1.0000 </r>
       <r>   -0.2675    1.0000 </r>
       <r>   -0.2053    1.0000 </r>
       <r>   -0.1545    1.0000 </r>
       <r>   -0.0677    1.0000 </r>
       <r>    0.1569    1.0000 </r>
       <r>    0.6482    1.0000 </r>
       <r>    0.7272    1.0000 </r>
       <r>    0.8126    1.0000 </r>
       <r>    1.2102    1.0000 </r>
       <r>    1.5543    1.0000 </r>
       <r>    1.6162    1.0000 </r>
       <r>    1.8241    1.0000 </r>
       <r>    1.9670    1.0000 </r>
       <r>    2.1467    1.0000 </r>
       <r>    2.2102    1.0000 </r>
       <r>    2.2360    1.0000 </r>
       <r>    2.4396    1.0000 </r>
       <r>    2.4699    1.0000 </r>
       <r>    2.7078    1.0000 </r>
       <r>    2.9309    1.0000 </r>
       <r>    2.9345    1.0000 </r>
       <r>    3.0440    1.0000 </r>
       <r>    9.8171    0.0000 </r>
       <r>   10.6890    0.0000 </r>
       <r>   11.8042    0.0000 </r>
       <r>   12.2200    0.0000 </r>
       <r>   12.4282    0.0000 </r>
       <r>   12.8643    0.0000 </r>
       <r>   13.4097    0.0000 </r>
       <r>   13.6802    0.0000 </r>
       <r>   13.8841    0.0000 </r>
       <r>   14.1486    0.0000 </r>
       <r>   14.4147    0.0000 </r>
       <r>   14.5561    0.0000 </r>
       <r>   15.1342    0.0000 </r>
       <r>   15.1871    0.0000 </r>
       <r>   15.2827    0.0000 </r>
       <r>   15.4275    0.0000 </r>
       <r>   15.6745    0.0000 </r>
       <r>   15.6791    0.0000 </r>
       <r>   15.7874    0.0000 </r>
       <r>   16.6712    0.0000 </r>
      </set>
      <set comment="kpoint 12">
       <r>  -13.5846    1.0000 </r>
       <r>  -13.1565    1.0000 </r>
       <r>  -12.9223    1.0000 </r>
       <r>  -12.8608    1.0000 </r>
       <r>  -12.6883    1.0000 </r>
       <r>  -12.5440    1.0000 </r>
       <r>  -12.1317    1.0000 </r>
       <r>  -12.0682    1.0000 </r>
       <r>   -1.3155    1.0000 </r>
       <r>   -0.5954    1.0000 </r>
       <r>   -0.2669    1.0000 </r>
       <r>   -0.2073    1.0000 </r>
       <r>   -0.1535    1.0000 </r>
       <r>   -0.0669    1.0000 </r>
       <r>    0.1568    1.0000 </r>
       <r>    0.6494    1.0000 </r>
       <r>    0.7255    1.0000 </r>
       <r>    0.8124    1.0000 </r>
       <r>    1.2099    1.0000 </r>
       <r>    1.5545    1.0000 </r>
       <r>    1.6159    1.0000 </r>
       <r>    1.8239    1.0000 </r>
       <r>    1.9673    1.0000 </r>
       <r>    2.1471    1.0000 </r>
       <r>    2.2101    1.0000 </r>
       <r>    2.2363    1.0000 </r>
[...]
        <r>  0.0000  0.0022  0.0000  0.0022  0.0000  0.0000  0.0000  0.0000  0.0000 </r>
        <r>  0.0063  0.0190  0.0038  0.0148  0.0000  0.0000  0.0000  0.0000  0.0000 </r>
        <r>  0.0062  0.0149  0.0039  0.0191  0.0000  0.0000  0.0000  0.0000  0.0000 </r>
        <r>  0.0064  0.0146  0.0038  0.0189  0.0000  0.0000  0.0000  0.0000  0.0000 </r>
        <r>  0.0065  0.0188  0.0038  0.0147  0.0000  0.0000  0.0000  0.0000  0.0000 </r>
        <r>  0.0000  0.0023  0.0000  0.0024  0.0000  0.0000  0.0000  0.0000  0.0000 </r>
        <r>  0.0000  0.0022  0.0000  0.0023  0.0000  0.0000  0.0000  0.0000  0.0000 </r>
       </set>
       <set comment="band 41">
        <r>  0.0015  0.0011  0.0001  0.0011  0.0000  0.0000  0.0000  0.0000  0.0000 </r>
        <r>  0.0002  0.0002  0.0006  0.0003  0.0198  0.0014  0.0003  0.0015  0.0000 </r>
        <r>  0.0000  0.0004  0.0000  0.0000  0.0122  0.0014  0.0000  0.0025  0.0001 </r>
        <r>  0.0000  0.0000  0.0000  0.0004  0.0122  0.0025  0.0000  0.0014  0.0001 </r>
        <r>  0.0020  0.0002  0.0000  0.0065  0.0076  0.0002  0.0000  0.0003  0.0000 </r>
        <r>  0.0019  0.0065  0.0000  0.0002  0.0076  0.0003  0.0000  0.0002  0.0000 </r>
        <r>  0.0019  0.0000  0.0029  0.0000  0.0162  0.0001  0.0004  0.0001  0.0000 </r>
        <r>  0.0016  0.0038  0.0026  0.0037  0.0173  0.0000  0.0000  0.0000  0.0000 </r>
        <r>  0.0033  0.0052  0.0050  0.0051  0.0000  0.0000  0.0000  0.0000  0.0000 </r>
        <r>  0.0005  0.0006  0.0042  0.0006  0.0000  0.0000  0.0000  0.0000  0.0000 </r>
        <r>  0.0002  0.0097  0.0005  0.0018  0.0000  0.0000  0.0000  0.0000  0.0000 </r>
        <r>  0.0002  0.0018  0.0005  0.0097  0.0000  0.0000  0.0000  0.0000  0.0000 </r>
        <r>  0.0002  0.0018  0.0005  0.0097  0.0000  0.0000  0.0000  0.0000  0.0000 </r>
        <r>  0.0002  0.0098  0.0005  0.0018  0.0000  0.0000  0.0000  0.0000  0.0000 </r>
        <r>  0.0004  0.0005  0.0042  0.0005  0.0000  0.0000  0.0000  0.0000  0.0000 </r>
        <r>  0.0035  0.0051  0.0049  0.0051  0.0000  0.0000  0.0000  0.0000  0.0000 </r>
       </set>
       <set comment="band 42">
        <r>  0.0742  0.0022  0.0026  0.0023  0.0000  0.0000  0.0000  0.0000  0.0000 </r>
        <r>  0.0325  0.0000  0.0001  0.0000  0.0008  0.0025  0.0010  0.0026  0.0000 </r>
        <r>  0.0009  0.0003  0.0039  0.0004  0.0006  0.0019  0.0001  0.0024  0.0001 </r>
        <r>  0.0009  0.0004  0.0040  0.0003  0.0006  0.0024  0.0001  0.0020  0.0001 </r>
        <r>  0.0066  0.0062  0.0003  0.0009  0.0010  0.0013  0.0001  0.0015  0.0001 </r>
        <r>  0.0062  0.0009  0.0003  0.0061  0.0010  0.0015  0.0001  0.0012  0.0001 </r>
        <r>  0.0622  0.0000  0.0002  0.0000  0.0001  0.0002  0.0008  0.0002  0.0000 </r>
        <r>  0.0041  0.0002  0.0001  0.0002  0.0019  0.0040  0.0001  0.0038  0.0000 </r>
        <r>  0.0001  0.0045  0.0390  0.0045  0.0000  0.0000  0.0000  0.0000  0.0000 </r>
        <r>  0.0023  0.0053  0.0119  0.0051  0.0000  0.0000  0.0000  0.0000  0.0000 </r>
        <r>  0.0017  0.0108  0.0053  0.0121  0.0000  0.0000  0.0000  0.0000  0.0000 </r>
        <r>  0.0018  0.0119  0.0050  0.0109  0.0000  0.0000  0.0000  0.0000  0.0000 </r>
        <r>  0.0019  0.0122  0.0050  0.0123  0.0000  0.0000  0.0000  0.0000  0.0000 </r>
        <r>  0.0019  0.0121  0.0052  0.0124  0.0000  0.0000  0.0000  0.0000  0.0000 </r>
        <r>  0.0022  0.0052  0.0150  0.0050  0.0000  0.0000  0.0000  0.0000  0.0000 </r>
        <r>  0.0002  0.0043  0.0394  0.0043  0.0000  0.0000  0.0000  0.0000  0.0000 </r>
       </set>
       <set comment="band 43">
        <r>  0.0088  0.0007  0.0174  0.0008  0.0000  0.0000  0.0000  0.0000  0.0000 </r>
        <r>  0.0033  0.0004  0.0001  0.0004  0.0000  0.0002  0.0001  0.0001  0.0000 </r>
        <r>  0.0000  0.0001  0.0012  0.0020  0.0000  0.0004  0.0004  0.0065  0.0000 </r>
        <r>  0.0001  0.0020  0.0011  0.0001  0.0000  0.0066  0.0004  0.0003  0.0000 </r>
        <r>  0.0036  0.0002  0.0000  0.0000  0.0000  0.0128  0.0001  0.0008  0.0000 </r>
        <r>  0.0042  0.0000  0.0000  0.0002  0.0000  0.0008  0.0001  0.0128  0.0000 </r>
        <r>  0.0103  0.0000  0.0012  0.0000  0.0030  0.0002  0.0000  0.0002  0.0000 </r>
        <r>  0.0622  0.0000  0.0188  0.0000  0.0006  0.0039  0.0000  0.0038  0.0000 </r>
        <r>  0.0015  0.0013  0.0080  0.0013  0.0000  0.0000  0.0000  0.0000  0.0000 </r>
        <r>  0.0010  0.0002  0.0749  0.0002  0.0000  0.0000  0.0000  0.0000  0.0000 </r>
        <r>  0.0005  0.0204  0.0009  0.0014  0.0000  0.0000  0.0000  0.0000  0.0000 </r>
        <r>  0.0006  0.0013  0.0011  0.0203  0.0000  0.0000  0.0000  0.0000  0.0000 </r>
        <r>  0.0005  0.0009  0.0008  0.0184  0.0000  0.0000  0.0000  0.0000  0.0000 </r>
        <r>  0.0005  0.0181  0.0008  0.0010  0.0000  0.0000  0.0000  0.0000  0.0000 </r>
        <r>  0.0008  0.0002  0.0721  0.0002  0.0000  0.0000  0.0000  0.0000  0.0000 </r>
        <r>  0.0016  0.0013  0.0070  0.0012  0.0000  0.0000  0.0000  0.0000  0.0000 </r>
       </set>
       <set comment="band 44">
        <r>  0.0000  0.0059  0.0000  0.0057  0.0000  0.0000  0.0000  0.0000  0.0000 </r>
        <r>  0.0000  0.0023  0.0000  0.0024  0.0000  0.0007  0.0000  0.0007  0.0001 </r>
        <r>  0.0050  0.0004  0.0001  0.0017  0.0000  0.0013  0.0002  0.0015  0.0000 </r>
        <r>  0.0050  0.0016  0.0001  0.0005  0.0000  0.0015  0.0002  0.0012  0.0000 </r>
        <r>  0.0498  0.0008  0.0103  0.0002  0.0007  0.0008  0.0001  0.0002  0.0000 </r>
        <r>  0.0497  0.0002  0.0103  0.0009  0.0007  0.0002  0.0001  0.0010  0.0000 </r>
        <r>  0.0000  0.0002  0.0000  0.0002  0.0000  0.0059  0.0000  0.0060  0.0006 </r>
        <r>  0.0000  0.0005  0.0000  0.0004  0.0000  0.0105  0.0000  0.0109  0.0009 </r>
        <r>  0.0000  0.0171  0.0000  0.0173  0.0000  0.0000  0.0000  0.0000  0.0000 </r>
        <r>  0.0000  0.0191  0.0000  0.0193  0.0000  0.0000  0.0000  0.0000  0.0000 </r>
        <r>  0.0048  0.0041  0.0249  0.0035  0.0000  0.0000  0.0000  0.0000  0.0000 </r>
        <r>  0.0047  0.0036  0.0251  0.0040  0.0000  0.0000  0.0000  0.0000  0.0000 </r>
        <r>  0.0047  0.0038  0.0249  0.0039  0.0000  0.0000  0.0000  0.0000  0.0000 </r>
        <r>  0.0047  0.0043  0.0246  0.0035  0.0000  0.0000  0.0000  0.0000  0.0000 </r>
        <r>  0.0000  0.0189  0.0000  0.0191  0.0000  0.0000  0.0000  0.0000  0.0000 </r>
        <r>  0.0000  0.0169  0.0000  0.0172  0.0000  0.0000  0.0000  0.0000  0.0000 </r>
       </set>
       <set comment="band 45">
        <r>  0.0133  0.0080  0.0098  0.0082  0.0000  0.0000  0.0000  0.0000  0.0000 </r>
        <r>  0.0028  0.0026  0.0000  0.0026  0.0001  0.0006  0.0003  0.0005  0.0000 </r>
        <r>  0.0050  0.0000  0.0011  0.0000  0.0002  0.0010  0.0002  0.0067  0.0002 </r>
        <r>  0.0048  0.0000  0.0010  0.0000  0.0002  0.0066  0.0003  0.0010  0.0002 </r>
        <r>  0.0077  0.0081  0.0002  0.0056  0.0002  0.0007  0.0002  0.0062  0.0001 </r>
        <r>  0.0074  0.0057  0.0002  0.0081  0.0002  0.0063  0.0002  0.0007  0.0001 </r>
        <r>  0.0002  0.0107  0.0034  0.0108  0.0002  0.0005  0.0000  0.0004  0.0000 </r>
        <r>  0.0022  0.0076  0.0000  0.0076  0.0009  0.0014  0.0007  0.0015  0.0000 </r>
        <r>  0.0014  0.0126  0.0029  0.0123  0.0000  0.0000  0.0000  0.0000  0.0000 </r>
        <r>  0.0019  0.0088  0.0024  0.0090  0.0000  0.0000  0.0000  0.0000  0.0000 </r>
        <r>  0.0016  0.0179  0.0017  0.0213  0.0000  0.0000  0.0000  0.0000  0.0000 </r>
        <r>  0.0016  0.0213  0.0020  0.0181  0.0000  0.0000  0.0000  0.0000  0.0000 </r>
        <r>  0.0016  0.0193  0.0018  0.0192  0.0000  0.0000  0.0000  0.0000  0.0000 </r>
        <r>  0.0016  0.0191  0.0017  0.0193  0.0000  0.0000  0.0000  0.0000  0.0000 </r>
        <r>  0.0019  0.0084  0.0024  0.0082  0.0000  0.0000  0.0000  0.0000  0.0000 </r>
        <r>  0.0012  0.0144  0.0040  0.0144  0.0000  0.0000  0.0000  0.0000  0.0000 </r>
       </set>
       <set comment="band 46">
        <r>  0.0026  0.0008  0.0001  0.0008  0.0000  0.0000  0.0000  0.0000  0.0000 </r>
        <r>  0.0103  0.0004  0.0124  0.0004  0.0016  0.0006  0.0000  0.0006  0.0000 </r>
        <r>  0.0014  0.0029  0.0007  0.0018  0.0096  0.0062  0.0000  0.0002  0.0000 </r>
        <r>  0.0014  0.0018  0.0007  0.0029  0.0096  0.0002  0.0000  0.0063  0.0000 </r>
        <r>  0.0000  0.0004  0.0012  0.0010  0.0125  0.0005  0.0000  0.0095  0.0000 </r>
        <r>  0.0000  0.0010  0.0012  0.0004  0.0125  0.0094  0.0000  0.0005  0.0000 </r>
        <r>  0.0151  0.0003  0.0043  0.0003  0.0018  0.0065  0.0000  0.0065  0.0000 </r>
        <r>  0.0028  0.0010  0.0002  0.0010  0.0048  0.0005  0.0000  0.0005  0.0000 </r>
        <r>  0.0002  0.0067  0.0399  0.0066  0.0000  0.0000  0.0000  0.0000  0.0000 </r>
        <r>  0.0005  0.0003  0.0002  0.0004  0.0000  0.0000  0.0000  0.0000  0.0000 </r>
        <r>  0.0000  0.0022  0.0015  0.0096  0.0000  0.0000  0.0000  0.0000  0.0000 </r>
        <r>  0.0000  0.0096  0.0016  0.0022  0.0000  0.0000  0.0000  0.0000  0.0000 </r>
        <r>  0.0000  0.0126  0.0014  0.0020  0.0000  0.0000  0.0000  0.0000  0.0000 </r>
        <r>  0.0000  0.0019  0.0015  0.0125  0.0000  0.0000  0.0000  0.0000  0.0000 </r>
        <r>  0.0005  0.0002  0.0001  0.0002  0.0000  0.0000  0.0000  0.0000  0.0000 </r>
        <r>  0.0002  0.0050  0.0392  0.0051  0.0000  0.0000  0.0000  0.0000  0.0000 </r>
       </set>
       <set comment="band 47">
        <r>  0.0000  0.0000  0.0000  0.0000  0.0000  0.0000  0.0000  0.0000  0.0000 </r>
        <r>  0.0000  0.0000  0.0000  0.0000  0.0000  0.0126  0.0000  0.0125  0.0001 </r>
        <r>  0.0446  0.0006  0.0065  0.0003  0.0006  0.0030  0.0000  0.0018  0.0000 </r>
        <r>  0.0432  0.0003  0.0062  0.0007  0.0007  0.0019  0.0000  0.0030  0.0000 </r>
        <r>  0.0073  0.0007  0.0011  0.0016  0.0000  0.0001  0.0002  0.0001  0.0000 </r>
        <r>  0.0068  0.0016  0.0012  0.0007  0.0000  0.0001  0.0002  0.0001  0.0000 </r>
        <r>  0.0000  0.0000  0.0000  0.0000  0.0000  0.0000  0.0000  0.0000  0.0000 </r>
        <r>  0.0000  0.0002  0.0000  0.0002  0.0000  0.0001  0.0000  0.0001  0.0001 </r>
        <r>  0.0000  0.0182  0.0000  0.0185  0.0000  0.0000  0.0000  0.0000  0.0000 </r>
        <r>  0.0000  0.0192  0.0000  0.0200  0.0000  0.0000  0.0000  0.0000  0.0000 </r>
        <r>  0.0011  0.0000  0.0315  0.0000  0.0000  0.0000  0.0000  0.0000  0.0000 </r>
        <r>  0.0011  0.0000  0.0324  0.0001  0.0000  0.0000  0.0000  0.0000  0.0000 </r>
        <r>  0.0011  0.0000  0.0336  0.0001  0.0000  0.0000  0.0000  0.0000  0.0000 </r>
        <r>  0.0011  0.0000  0.0320  0.0000  0.0000  0.0000  0.0000  0.0000  0.0000 </r>
        <r>  0.0000  0.0189  0.0000  0.0201  0.0000  0.0000  0.0000  0.0000  0.0000 </r>
        <r>  0.0000  0.0185  0.0000  0.0185  0.0000  0.0000  0.0000  0.0000  0.0000 </r>
       </set>
       <set comment="band 48">
        <r>  0.0004  0.0007  0.0053  0.0007  0.0000  0.0000  0.0000  0.0000  0.0000 </r>
        <r>  0.0178  0.0001  0.0006  0.0001  0.0029  0.0001  0.0000  0.0002  0.0000 </r>
        <r>  0.0048  0.0028  0.0051  0.0000  0.0012  0.0025  0.0000  0.0000  0.0000 </r>
        <r>  0.0055  0.0000  0.0054  0.0027  0.0012  0.0000  0.0000  0.0024  0.0000 </r>
        <r>  0.0062  0.0011  0.0080  0.0005  0.0014  0.0001  0.0000  0.0005  0.0002 </r>
        <r>  0.0066  0.0006  0.0079  0.0011  0.0014  0.0005  0.0000  0.0001  0.0002 </r>
        <r>  0.0001  0.0001  0.0096  0.0001  0.0001  0.0059  0.0002  0.0059  0.0000 </r>
        <r>  0.0026  0.0008  0.0003  0.0008  0.0000  0.0029  0.0001  0.0029  0.0000 </r>
        <r>  0.0007  0.0114  0.0260  0.0111  0.0000  0.0000  0.0000  0.0000  0.0000 </r>
        <r>  0.0007  0.0109  0.0057  0.0103  0.0000  0.0000  0.0000  0.0000  0.0000 </r>
        <r>  0.0001  0.0014  0.0332  0.0075  0.0000  0.0000  0.0000  0.0000  0.0000 </r>
        <r>  0.0001  0.0075  0.0320  0.0014  0.0000  0.0000  0.0000  0.0000  0.0000 </r>
        <r>  0.0002  0.0068  0.0320  0.0016  0.0000  0.0000  0.0000  0.0000  0.0000 </r>
        <r>  0.0001  0.0017  0.0336  0.0068  0.0000  0.0000  0.0000  0.0000  0.0000 </r>
        <r>  0.0008  0.0117  0.0057  0.0109  0.0000  0.0000  0.0000  0.0000  0.0000 </r>
        <r>  0.0007  0.0106  0.0260  0.0104  0.0000  0.0000  0.0000  0.0000  0.0000 </r>
       </set>
       <set comment="band 49">
        <r>  0.0000  0.0050  0.0000  0.0056  0.0000  0.0000  0.0000  0.0000  0.0000 </r>
        <r>  0.0000  0.0018  0.0000  0.0020  0.0000  0.0021  0.0000  0.0022  0.0000 </r>
        <r>  0.0643  0.0050  0.0001  0.0051  0.0002  0.0001  0.0002  0.0000  0.0000 </r>
        <r>  0.0666  0.0047  0.0000  0.0052  0.0002  0.0000  0.0002  0.0001  0.0000 </r>
        <r>  0.0427  0.0094  0.0003  0.0072  0.0001  0.0007  0.0009  0.0003  0.0000 </r>
        <r>  0.0439  0.0072  0.0002  0.0090  0.0001  0.0003  0.0008  0.0008  0.0000 </r>
        <r>  0.0000  0.0020  0.0000  0.0020  0.0000  0.0012  0.0000  0.0012  0.0000 </r>
        <r>  0.0000  0.0044  0.0000  0.0044  0.0000  0.0013  0.0000  0.0013  0.0000 </r>
        <r>  0.0000  0.0053  0.0000  0.0051  0.0000  0.0000  0.0000  0.0000  0.0000 </r>
        <r>  0.0000  0.0064  0.0000  0.0068  0.0000  0.0000  0.0000  0.0000  0.0000 </r>
        <r>  0.0003  0.0097  0.0129  0.0073  0.0000  0.0000  0.0000  0.0000  0.0000 </r>
        <r>  0.0003  0.0074  0.0131  0.0102  0.0000  0.0000  0.0000  0.0000  0.0000 </r>
        <r>  0.0003  0.0073  0.0124  0.0104  0.0000  0.0000  0.0000  0.0000  0.0000 </r>
        <r>  0.0003  0.0100  0.0127  0.0075  0.0000  0.0000  0.0000  0.0000  0.0000 </r>
        <r>  0.0000  0.0068  0.0000  0.0068  0.0000  0.0000  0.0000  0.0000  0.0000 </r>
        <r>  0.0000  0.0050  0.0000  0.0057  0.0000  0.0000  0.0000  0.0000  0.0000 </r>
       </set>
       <set comment="band 50">
        <r>  0.0085  0.0215  0.0115  0.0212  0.0000  0.0000  0.0000  0.0000  0.0000 </r>
        <r>  0.0452  0.0005  0.0011  0.0005  0.0005  0.0011  0.0001  0.0009  0.0000 </r>
        <r>  0.0277  0.0009  0.0015  0.0128  0.0003  0.0008  0.0000  0.0004  0.0001 </r>
        <r>  0.0256  0.0132  0.0014  0.0007  0.0003  0.0004  0.0001  0.0008  0.0001 </r>
        <r>  0.0162  0.0050  0.0069  0.0003  0.0000  0.0031  0.0004  0.0000  0.0001 </r>
        <r>  0.0152  0.0005  0.0070  0.0054  0.0000  0.0000  0.0004  0.0030  0.0001 </r>
        <r>  0.0067  0.0012  0.0044  0.0011  0.0011  0.0001  0.0007  0.0001  0.0000 </r>
        <r>  0.0508  0.0001  0.0099  0.0001  0.0000  0.0005  0.0001  0.0005  0.0000 </r>
        <r>  0.0000  0.0098  0.0077  0.0099  0.0000  0.0000  0.0000  0.0000  0.0000 </r>
        <r>  0.0028  0.0027  0.0116  0.0023  0.0000  0.0000  0.0000  0.0000  0.0000 </r>
        <r>  0.0001  0.0064  0.0029  0.0028  0.0000  0.0000  0.0000  0.0000  0.0000 </r>
        <r>  0.0001  0.0026  0.0027  0.0060  0.0000  0.0000  0.0000  0.0000  0.0000 </r>
        <r>  0.0000  0.0028  0.0031  0.0054  0.0000  0.0000  0.0000  0.0000  0.0000 </r>
        <r>  0.0001  0.0058  0.0025  0.0024  0.0000  0.0000  0.0000  0.0000  0.0000 </r>
        <r>  0.0029  0.0026  0.0118  0.0024  0.0000  0.0000  0.0000  0.0000  0.0000 </r>
        <r>  0.0000  0.0105  0.0080  0.0097  0.0000  0.0000  0.0000  0.0000  0.0000 </r>
       </set>
       <set comment="band 51">
        <r>  0.0010  0.0003  0.0000  0.0003  0.0000  0.0000  0.0000  0.0000  0.0000 </r>
        <r>  0.0024  0.0004  0.0049  0.0004  0.0075  0.0051  0.0001  0.0051  0.0000 </r>
        <r>  0.0029  0.0014  0.0008  0.0003  0.0142  0.0087  0.0000  0.0008  0.0001 </r>
        <r>  0.0031  0.0003  0.0008  0.0014  0.0142  0.0008  0.0000  0.0087  0.0001 </r>
        <r>  0.0000  0.0025  0.0020  0.0000  0.0121  0.0000  0.0000  0.0015  0.0000 </r>
        <r>  0.0001  0.0000  0.0019  0.0025  0.0121  0.0015  0.0000  0.0000  0.0000 </r>
        <r>  0.0001  0.0023  0.0035  0.0023  0.0065  0.0011  0.0000  0.0011  0.0000 </r>
        <r>  0.0000  0.0005  0.0012  0.0004  0.0051  0.0000  0.0000  0.0000  0.0000 </r>
        <r>  0.0008  0.0015  0.0153  0.0016  0.0000  0.0000  0.0000  0.0000  0.0000 </r>
        <r>  0.0000  0.0059  0.0006  0.0057  0.0000  0.0000  0.0000  0.0000  0.0000 </r>
        <r>  0.0000  0.0005  0.0058  0.0089  0.0000  0.0000  0.0000  0.0000  0.0000 </r>
        <r>  0.0000  0.0090  0.0058  0.0005  0.0000  0.0000  0.0000  0.0000  0.0000 </r>
        <r>  0.0000  0.0089  0.0058  0.0005  0.0000  0.0000  0.0000  0.0000  0.0000 </r>
        <r>  0.0000  0.0005  0.0061  0.0091  0.0000  0.0000  0.0000  0.0000  0.0000 </r>
        <r>  0.0000  0.0058  0.0007  0.0058  0.0000  0.0000  0.0000  0.0000  0.0000 </r>
        <r>  0.0009  0.0016  0.0152  0.0016  0.0000  0.0000  0.0000  0.0000  0.0000 </r>
       </set>
       <set comment="band 52">
        <r>  0.0000  0.0396  0.0019  0.0392  0.0000  0.0000  0.0000  0.0000  0.0000 </r>
        <r>  0.0003  0.0010  0.0002  0.0010  0.0000  0.0003  0.0000  0.0004  0.0000 </r>
        <r>  0.0571  0.0030  0.0028  0.0025  0.0000  0.0000  0.0012  0.0002  0.0000 </r>
        <r>  0.0456  0.0036  0.0056  0.0026  0.0000  0.0003  0.0015  0.0000  0.0000 </r>
        <r>  0.0779  0.0018  0.0022  0.0020  0.0000  0.0001  0.0008  0.0006  0.0000 </r>
        <r>  0.0604  0.0016  0.0044  0.0019  0.0000  0.0007  0.0011  0.0001  0.0000 </r>
        <r>  0.0007  0.0067  0.0002  0.0069  0.0000  0.0011  0.0000  0.0009  0.0000 </r>
        <r>  0.0001  0.0124  0.0008  0.0119  0.0000  0.0006  0.0000  0.0004  0.0002 </r>
        <r>  0.0000  0.0098  0.0000  0.0077  0.0000  0.0000  0.0000  0.0000  0.0000 </r>
        <r>  0.0000  0.0041  0.0004  0.0041  0.0000  0.0000  0.0000  0.0000  0.0000 </r>
        <r>  0.0000  0.0070  0.0000  0.0030  0.0000  0.0000  0.0000  0.0000  0.0000 </r>
        <r>  0.0000  0.0024  0.0005  0.0074  0.0000  0.0000  0.0000  0.0000  0.0000 </r>
        <r>  0.0000  0.0031  0.0003  0.0073  0.0000  0.0000  0.0000  0.0000  0.0000 </r>
        <r>  0.0000  0.0071  0.0002  0.0023  0.0000  0.0000  0.0000  0.0000  0.0000 </r>
        <r>  0.0000  0.0041  0.0005  0.0040  0.0000  0.0000  0.0000  0.0000  0.0000 </r>
        <r>  0.0000  0.0074  0.0000  0.0101  0.0000  0.0000  0.0000  0.0000  0.0000 </r>
       </set>
      </set>
     </set>
    </set>
   </array>
  </projected>
 </calculation>
 <structure name="finalpos" >
  <crystal>
   <varray name="basis" >
    <v>       0.00000000       4.24689300       4.24689300 </v>
    <v>       4.24689300       0.00000000       4.24689300 </v>
    <v>       4.24689300       4.24689300       0.00000000 </v>
   </varray>
   <i name="volume">    153.19477498 </i>
   <varray name="rec_basis" >
    <v>      -0.11773313       0.11773313       0.11773313 </v>
    <v>       0.11773313      -0.11773313       0.11773313 </v>
    <v>       0.11773313       0.11773313      -0.11773313 </v>
   </varray>
  </crystal>
  <varray name="positions" >
   <v>       0.00294802       0.99800993       0.00074059 </v>
   <v>       0.00205268       0.99746519       0.50148081 </v>
   <v>       0.00190095       0.49779219       0.00153587 </v>
   <v>       0.00186274       0.49785287       0.50134321 </v>
   <v>       0.50210477       0.99743302       0.00175741 </v>
   <v>       0.50229463       0.99749889       0.50116621 </v>
   <v>       0.50199574       0.49753876       0.00156009 </v>
   <v>       0.50206090       0.49741927       0.50153761 </v>
   <v>       0.25217156       0.24743196       0.25135253 </v>
   <v>       0.24063282       0.23613273       0.76270537 </v>
   <v>       0.24046039       0.75918709       0.23942446 </v>
   <v>       0.24061594       0.75900251       0.76311685 </v>
   <v>       0.76339180       0.23602008       0.23994163 </v>
   <v>       0.76364798       0.23601324       0.76318529 </v>
   <v>       0.76292234       0.75819646       0.24080117 </v>
   <v>       0.75213574       0.74732680       0.75156190 </v>
  </varray>
 </structure>
</modeling>
