<?xml version="1.0" encoding="ISO-8859-1"?>
<modeling>
 <generator>
  <i name="program" type="string">vasp </i>
  <i name="version" type="string">5.4.1  </i>
  <i name="subversion" type="string">05Feb16 (build Mar 31 2016 13:39:20) complex                          parallel </i>
  <i name="platform" type="string">IFC91_ompi </i>
  <i name="date" type="string">2018 04 28 </i>
  <i name="time" type="string">12:47:35 </i>
 </generator>
 <incar>
  <i type="string" name="PREC">n</i>
  <i type="string" name="ALGO"> N</i>
  <i type="int" name="ISPIN">     2</i>
  <i type="int" name="NELM">   100</i>
  <i type="int" name="NELMIN">     4</i>
  <i type="int" name="IBRION">     2</i>
  <i name="EDIFF">      0.00000100</i>
  <i name="EDIFFG">     -0.05000000</i>
  <i type="int" name="NSW">    20</i>
  <i type="int" name="ISIF">     2</i>
  <i name="ENCUT">    400.00000000</i>
  <i name="NELECT">     64.00000000</i>
  <i type="string" name="LREAL"> A</i>
  <i type="int" name="ISMEAR">     0</i>
  <i name="SIGMA">      0.05000000</i>
  <i type="logical" name="LWAVE"> F  </i>
  <i type="logical" name="LCHARG"> F  </i>
  <i type="logical" name="LORBIT"> F  </i>
  <i type="logical" name="LASPH"> T  </i>
  <v type="int" name="KPOINT_BSE">    -1     0     0     0</v>
  <i type="int" name="NELM">   100</i>
  <i type="logical" name="LASPH"> T  </i>
 </incar>
 <kpoints>
  <generation param="Gamma">
   <v type="int" name="divisions">       2        2        2 </v>
   <v name="usershift">      0.00000000       0.00000000       0.00000000 </v>
   <v name="genvec1">      0.50000000       0.00000000       0.00000000 </v>
   <v name="genvec2">      0.00000000       0.50000000       0.00000000 </v>
   <v name="genvec3">      0.00000000       0.00000000       0.50000000 </v>
   <v name="shift">      0.00000000       0.00000000       0.00000000 </v>
  </generation>
  <varray name="kpointlist" >
   <v>       0.00000000       0.00000000       0.00000000 </v>
   <v>       0.50000000       0.00000000       0.00000000 </v>
   <v>       0.00000000       0.50000000       0.00000000 </v>
   <v>       0.50000000       0.50000000       0.00000000 </v>
   <v>       0.00000000       0.00000000       0.50000000 </v>
   <v>       0.50000000       0.00000000       0.50000000 </v>
   <v>       0.00000000       0.50000000       0.50000000 </v>
   <v>       0.50000000       0.50000000       0.50000000 </v>
  </varray>
  <varray name="weights" >
   <v>       0.12500000 </v>
   <v>       0.12500000 </v>
   <v>       0.12500000 </v>
   <v>       0.12500000 </v>
   <v>       0.12500000 </v>
   <v>       0.12500000 </v>
   <v>       0.12500000 </v>
   <v>       0.12500000 </v>
  </varray>
 </kpoints>
 <parameters>
  <separator name="general" >
   <i type="string" name="SYSTEM">unknown system</i>
   <i type="logical" name="LCOMPAT"> F  </i>
  </separator>
  <separator name="electronic" >
   <i type="string" name="PREC">n</i>
   <i name="ENMAX">    400.00000000</i>
   <i name="ENAUG">    605.39200000</i>
   <i name="EDIFF">      0.00000100</i>
   <i type="int" name="IALGO">    38</i>
   <i type="int" name="IWAVPR">    11</i>
   <i type="int" name="NBANDS">    52</i>
   <i name="NELECT">     64.00000000</i>
   <i type="int" name="TURBO">     0</i>
   <i type="int" name="IRESTART">     0</i>
   <i type="int" name="NREBOOT">     0</i>
   <i type="int" name="NMIN">     0</i>
   <i name="EREF">      0.00000000</i>
   <separator name="electronic smearing" >
    <i type="int" name="ISMEAR">     0</i>
    <i name="SIGMA">      0.05000000</i>
    <i name="KSPACING">      0.50000000</i>
    <i type="logical" name="KGAMMA"> T  </i>
   </separator>
   <separator name="electronic projectors" >
    <i type="logical" name="LREAL"> T  </i>
    <v name="ROPT">     -0.00050000     -0.00050000     -0.00050000</v>
    <i type="int" name="LMAXPAW">  -100</i>
    <i type="int" name="LMAXMIX">     2</i>
    <i type="logical" name="NLSPLINE"> F  </i>
   </separator>
   <separator name="electronic startup" >
    <i type="int" name="ISTART">     0</i>
    <i type="int" name="ICHARG">     2</i>
    <i type="int" name="INIWAV">     1</i>
   </separator>
   <separator name="electronic spin" >
    <i type="int" name="ISPIN">     2</i>
    <i type="logical" name="LNONCOLLINEAR"> F  </i>
    <v name="MAGMOM">      1.00000000      1.00000000      1.00000000      1.00000000      1.00000000      1.00000000      1.00000000      1.00000000      1.00000000      1.00000000      1.00000000      1.00000000      1.00000000      1.00000000      1.00000000      1.00000000</v>
    <i name="NUPDOWN">     -1.00000000</i>
    <i type="logical" name="LSORBIT"> F  </i>
    <v name="SAXIS">      0.00000000      0.00000000      1.00000000</v>
    <i type="logical" name="LSPIRAL"> F  </i>
    <v name="QSPIRAL">      0.00000000      0.00000000      0.00000000</v>
    <i type="logical" name="LZEROZ"> F  </i>
   </separator>
   <separator name="electronic exchange-correlation" >
    <i type="logical" name="LASPH"> T  </i>
    <i type="logical" name="LMETAGGA"> F  </i>
   </separator>
   <separator name="electronic convergence" >
    <i type="int" name="NELM">   100</i>
    <i type="int" name="NELMDL">     0</i>
    <i type="int" name="NELMIN">     4</i>
    <i name="ENINI">    400.00000000</i>
    <separator name="electronic convergence detail" >
     <i type="logical" name="LDIAG"> T  </i>
     <i type="logical" name="LSUBROT"> F  </i>
     <i name="WEIMIN">      0.00100000</i>
     <i name="EBREAK">      0.00000000</i>
     <i name="DEPER">      0.30000000</i>
     <i type="int" name="NRMM">     4</i>
     <i name="TIME">      0.40000000</i>
    </separator>
   </separator>
   <separator name="electronic mixer" >
    <i name="AMIX">      0.40000000</i>
    <i name="BMIX">      1.00000000</i>
    <i name="AMIN">      0.10000000</i>
    <i name="AMIX_MAG">      1.60000000</i>
    <i name="BMIX_MAG">      1.00000000</i>
    <separator name="electronic mixer details" >
     <i type="int" name="IMIX">     4</i>
     <i type="logical" name="MIXFIRST"> F  </i>
     <i type="int" name="MAXMIX">   -45</i>
     <i name="WC">    100.00000000</i>
     <i type="int" name="INIMIX">     1</i>
     <i type="int" name="MIXPRE">     1</i>
     <i type="int" name="MREMOVE">     5</i>
    </separator>
   </separator>
   <separator name="electronic dipolcorrection" >
    <i type="logical" name="LDIPOL"> F  </i>
    <i type="logical" name="LMONO"> F  </i>
    <i type="int" name="IDIPOL">     0</i>
    <i name="EPSILON">      1.00000000</i>
    <v name="DIPOL">   -100.00000000   -100.00000000   -100.00000000</v>
    <i name="EFIELD">      0.00000000</i>
   </separator>
  </separator>
  <separator name="grids" >
   <i type="int" name="NGX">    30</i>
   <i type="int" name="NGY">    30</i>
   <i type="int" name="NGZ">    30</i>
   <i type="int" name="NGXF">    60</i>
   <i type="int" name="NGYF">    60</i>
   <i type="int" name="NGZF">    60</i>
   <i type="logical" name="ADDGRID"> F  </i>
  </separator>
  <separator name="ionic" >
   <i type="int" name="NSW">    20</i>
   <i type="int" name="IBRION">     2</i>
   <i type="int" name="ISIF">     2</i>
   <i name="PSTRESS">      0.00000000</i>
   <i name="EDIFFG">     -0.05000000</i>
   <i type="int" name="NFREE">     1</i>
   <i name="POTIM">      0.50000000</i>
   <i name="SMASS">     -3.00000000</i>
   <i name="SCALEE">      1.00000000</i>
  </separator>
  <separator name="ionic md" >
   <i name="TEBEG">      0.00010000</i>
   <i name="TEEND">      0.00010000</i>
   <i type="int" name="NBLOCK">     1</i>
   <i type="int" name="KBLOCK">    20</i>
   <i type="int" name="NPACO">   256</i>
   <i name="APACO">     16.00000000</i>
  </separator>
  <separator name="symmetry" >
   <i type="int" name="ISYM">     2</i>
   <i name="SYMPREC">      0.00001000</i>
  </separator>
  <separator name="dos" >
   <i type="logical" name="LORBIT"> F  </i>
   <v name="RWIGS">     -1.00000000     -1.00000000     -1.00000000</v>
   <i type="int" name="NEDOS">   301</i>
   <i name="EMIN">     10.00000000</i>
   <i name="EMAX">    -10.00000000</i>
   <i name="EFERMI">      0.00000000</i>
  </separator>
  <separator name="writing" >
   <i type="int" name="NWRITE">     2</i>
   <i type="logical" name="LWAVE"> F  </i>
   <i type="logical" name="LCHARG"> F  </i>
   <i type="logical" name="LPARD"> F  </i>
   <i type="logical" name="LVTOT"> F  </i>
   <i type="logical" name="LVHAR"> F  </i>
   <i type="logical" name="LELF"> F  </i>
   <i type="logical" name="LOPTICS"> F  </i>
   <v name="STM">      0.00000000      0.00000000      0.00000000      0.00000000      0.00000000      0.00000000      0.00000000</v>
  </separator>
  <separator name="performance" >
   <i type="int" name="NPAR">     4</i>
   <i type="int" name="NSIM">     4</i>
   <i type="int" name="NBLK">    -1</i>
   <i type="logical" name="LPLANE"> T  </i>
   <i type="logical" name="LSCALAPACK"> T  </i>
   <i type="logical" name="LSCAAWARE"> F  </i>
   <i type="logical" name="LSCALU"> F  </i>
   <i type="logical" name="LASYNC"> F  </i>
   <i type="logical" name="LORBITALREAL"> F  </i>
  </separator>
  <separator name="miscellaneous" >
   <i type="int" name="IDIOT">     3</i>
   <i type="logical" name="LMUSIC"> F  </i>
   <v name="POMASS">     26.98100000     24.30500000     16.00000000</v>
   <v name="DARWINR">      0.00000000      0.00000000      0.00000000</v>
   <v name="DARWINV">      1.00000000      1.00000000      1.00000000</v>
   <i type="logical" name="LCORR"> T  </i>
  </separator>
  <i type="logical" name="GGA_COMPAT"> T  </i>
  <i type="logical" name="LBERRY"> F  </i>
  <i type="int" name="ICORELEVEL">     0</i>
  <i type="logical" name="LDAU"> F  </i>
  <i type="int" name="I_CONSTRAINED_M">     0</i>
  <separator name="electronic exchange-correlation" >
   <i type="string" name="GGA">--</i>
   <i type="int" name="VOSKOWN">     0</i>
   <i type="logical" name="LHFCALC"> F  </i>
   <i type="string" name="PRECFOCK"></i>
   <i type="logical" name="LSYMGRAD"> F  </i>
   <i type="logical" name="LHFONE"> F  </i>
   <i type="logical" name="LRHFCALC"> F  </i>
   <i type="logical" name="LTHOMAS"> F  </i>
   <i type="logical" name="LMODELHF"> F  </i>
   <i name="ENCUT4O">     -1.00000000</i>
   <i type="int" name="EXXOEP">     0</i>
   <i type="int" name="FOURORBIT">     0</i>
   <i name="AEXX">      0.00000000</i>
   <i name="HFALPHA">      0.00000000</i>
   <i name="MCALPHA">      0.00000000</i>
   <i name="ALDAX">      1.00000000</i>
   <i name="AGGAX">      1.00000000</i>
   <i name="ALDAC">      1.00000000</i>
   <i name="AGGAC">      1.00000000</i>
   <i type="int" name="NKREDX">     1</i>
   <i type="int" name="NKREDY">     1</i>
   <i type="int" name="NKREDZ">     1</i>
   <i type="logical" name="SHIFTRED"> F  </i>
   <i type="logical" name="ODDONLY"> F  </i>
   <i type="logical" name="EVENONLY"> F  </i>
   <i type="int" name="LMAXFOCK">     0</i>
   <i type="int" name="NMAXFOCKAE">     0</i>
   <i type="logical" name="LFOCKAEDFT"> F  </i>
   <i name="HFSCREEN">      0.00000000</i>
   <i name="HFSCREENC">      0.00000000</i>
   <i type="int" name="NBANDSGWLOW">     0</i>
  </separator>
  <separator name="vdW DFT" >
   <i type="logical" name="LUSE_VDW"> F  </i>
   <i name="Zab_VDW">     -0.84910000</i>
   <i name="PARAM1">      0.12340000</i>
   <i name="PARAM2">      1.00000000</i>
   <i name="PARAM3">      0.00000000</i>
  </separator>
  <separator name="model GW" >
   <i type="int" name="MODEL_GW">     0</i>
   <i name="MODEL_EPS0">      5.74480406</i>
   <i name="MODEL_ALPHA">      1.00000000</i>
  </separator>
  <separator name="linear response parameters" >
   <i type="logical" name="LEPSILON"> F  </i>
   <i type="logical" name="LRPA"> F  </i>
   <i type="logical" name="LNABLA"> F  </i>
   <i type="logical" name="LVEL"> F  </i>
   <i type="int" name="KINTER">     0</i>
   <i name="CSHIFT">      0.10000000</i>
   <i name="OMEGAMAX">     -1.00000000</i>
   <i name="DEG_THRESHOLD">      0.00200000</i>
  </separator>
  <separator name="orbital magnetization" >
   <i type="logical" name="NUCIND"> F  </i>
   <v name="MAGPOS">      0.00000000      0.00000000      0.00000000</v>
   <i type="logical" name="LNICSALL"> T  </i>
   <i type="logical" name="ORBITALMAG"> F  </i>
   <i type="logical" name="LMAGBLOCH"> F  </i>
   <i type="logical" name="LCHIMAG"> F  </i>
   <i type="logical" name="LGAUGE"> T  </i>
   <i type="int" name="MAGATOM">     0</i>
   <v name="MAGDIPOL">      0.00000000      0.00000000      0.00000000</v>
   <v name="AVECCONST">      0.00000000      0.00000000      0.00000000</v>
  </separator>
  <separator name="response functions" >
   <i type="logical" name="LADDER"> F  </i>
   <i type="logical" name="LFXC"> F  </i>
   <i type="logical" name="LHARTREE"> T  </i>
   <i type="int" name="IBSE">     0</i>
   <v type="int" name="KPOINT">    -1     0     0     0</v>
   <i type="logical" name="LTCTE"> F  </i>
   <i type="logical" name="LTETE"> F  </i>
   <i type="logical" name="LTRIPLET"> F  </i>
   <i type="logical" name="LFXCEPS"> F  </i>
   <i type="logical" name="LFXHEG"> F  </i>
   <i type="int" name="NATURALO">     0</i>
   <i type="logical" name="L2ORDER"> F  </i>
   <i type="logical" name="LUSEW"> F  </i>
   <i name="ENCUTGW">     -2.00000000</i>
   <i name="ENCUTGWSOFT">     -2.00000000</i>
   <i name="ENCUTLF">     -1.00000000</i>
   <i type="int" name="LMAXMP2">    -1</i>
   <i name="SCISSOR">      0.00000000</i>
   <i type="int" name="NOMEGA">     0</i>
   <i type="int" name="NOMEGAR">     0</i>
   <i type="int" name="NBANDSGW">    -1</i>
   <i type="int" name="NBANDSO">    -1</i>
   <i type="int" name="NBANDSV">    -1</i>
   <i type="int" name="NELM">   100</i>
   <i type="int" name="NELMHF">     1</i>
   <i type="int" name="DIM">     3</i>
   <i type="int" name="ANTIRES">     0</i>
   <i name="OMEGAMAX">    -30.00000000</i>
   <i name="OMEGAMIN">    -30.00000000</i>
   <i name="OMEGATL">   -200.00000000</i>
   <i type="int" name="OMEGAGRID">     0</i>
   <i name="CSHIFT">     -0.10000000</i>
   <i type="logical" name="SELFENERGY"> F  </i>
   <i type="logical" name="LSPECTRAL"> F  </i>
   <i type="logical" name="LSPECTRALGW"> F  </i>
   <i type="logical" name="LSINGLES"> F  </i>
   <i type="logical" name="LFERMIGW"> F  </i>
   <i type="logical" name="ODDONLYGW"> F  </i>
   <i type="logical" name="EVENONLYGW"> F  </i>
   <i type="int" name="NKREDLFX">     1</i>
   <i type="int" name="NKREDLFY">     1</i>
   <i type="int" name="NKREDLFZ">     1</i>
   <i type="int" name="MAXMEM">  1800</i>
   <i type="int" name="TELESCOPE">     0</i>
   <i type="int" name="TAUPAR">     1</i>
   <i type="int" name="OMEGAPAR">    -1</i>
   <i name="LAMBDA">      1.00000000</i>
  </separator>
  <separator name="External order field" >
   <i name="OFIELD_KAPPA">      0.00000000</i>
   <v name="OFIELD_K">      0.00000000      0.00000000      0.00000000</v>
   <i name="OFIELD_Q6_NEAR">      0.00000000</i>
   <i name="OFIELD_Q6_FAR">      0.00000000</i>
   <i name="OFIELD_A">      0.00000000</i>
  </separator>
 </parameters>
 <atominfo>
  <atoms>      16 </atoms>
  <types>       3 </types>
  <array name="atoms" >
   <dimension dim="1">ion</dimension>
   <field type="string">element</field>
   <field type="int">atomtype</field>
   <set>
    <rc><c>Al</c><c>   1</c></rc>
    <rc><c>Mg</c><c>   2</c></rc>
    <rc><c>Mg</c><c>   2</c></rc>
    <rc><c>Mg</c><c>   2</c></rc>
    <rc><c>Mg</c><c>   2</c></rc>
    <rc><c>Mg</c><c>   2</c></rc>
    <rc><c>Mg</c><c>   2</c></rc>
    <rc><c>Mg</c><c>   2</c></rc>
    <rc><c>O </c><c>   3</c></rc>
    <rc><c>O </c><c>   3</c></rc>
    <rc><c>O </c><c>   3</c></rc>
    <rc><c>O </c><c>   3</c></rc>
    <rc><c>O </c><c>   3</c></rc>
    <rc><c>O </c><c>   3</c></rc>
    <rc><c>O </c><c>   3</c></rc>
    <rc><c>O </c><c>   3</c></rc>
   </set>
  </array>
  <array name="atomtypes" >
   <dimension dim="1">type</dimension>
   <field type="int">atomspertype</field>
   <field type="string">element</field>
   <field>mass</field>
   <field>valence</field>
   <field type="string">pseudopotential</field>
   <set>
    <rc><c>   1</c><c>Al</c><c>     26.98100000</c><c>      3.00000000</c><c>  PAW_PBE Al 04Jan2001                  </c></rc>
    <rc><c>   7</c><c>Mg</c><c>     24.30500000</c><c>      2.00000000</c><c>  PAW_PBE Mg 13Apr2007                  </c></rc>
    <rc><c>   8</c><c>O </c><c>     16.00000000</c><c>      6.00000000</c><c>  PAW_PBE O 08Apr2002                   </c></rc>
   </set>
  </array>
 </atominfo>
 <structure name="initialpos" >
  <crystal>
   <varray name="basis" >
    <v>       0.00000000       4.24689300       4.24689300 </v>
    <v>       4.24689300       0.00000000       4.24689300 </v>
    <v>       4.24689300       4.24689300       0.00000000 </v>
   </varray>
   <i name="volume">    153.19477498 </i>
   <varray name="rec_basis" >
    <v>      -0.11773313       0.11773313       0.11773313 </v>
    <v>       0.11773313      -0.11773313       0.11773313 </v>
    <v>       0.11773313       0.11773313      -0.11773313 </v>
   </varray>
  </crystal>
  <varray name="positions" >
   <v>       0.00255478       0.99765627       0.00116089 </v>
   <v>       0.00211407       0.99754635       0.50141774 </v>
   <v>       0.00185950       0.49761105       0.00160808 </v>
   <v>       0.00199168       0.49771773       0.50129763 </v>
   <v>       0.50223317       0.99747138       0.00153665 </v>
   <v>       0.50217553       0.99738197       0.50128880 </v>
   <v>       0.50220013       0.49744914       0.00143700 </v>
   <v>       0.50199179       0.49731976       0.50167214 </v>
   <v>       0.25200529       0.24744336       0.25147911 </v>
   <v>       0.24062541       0.23619880       0.76269591 </v>
   <v>       0.24056523       0.75900256       0.23979258 </v>
   <v>       0.24080033       0.75893656       0.76277064 </v>
   <v>       0.76327356       0.23626070       0.24008347 </v>
   <v>       0.76344533       0.23612407       0.76306329 </v>
   <v>       0.76320204       0.75859948       0.24049848 </v>
   <v>       0.75216118       0.74760182       0.75140859 </v>
  </varray>
 </structure>
 <calculation>
  <scstep>
   <time name="dav">    0.57    0.57</time>
   <time name="total">    1.27    1.27</time>
   <energy>
    <i name="alphaZ">    144.97063842 </i>
    <i name="ewald">  -2880.25483082 </i>
    <i name="hartreedc">   -993.08743346 </i>
    <i name="XCdc">   -138.32660970 </i>
    <i name="pawpsdc">   3293.59363178 </i>
    <i name="pawaedc">  -2912.95377936 </i>
    <i name="eentropy">     -0.00001535 </i>
    <i name="bandstr">     62.19211165 </i>
    <i name="atom">   3672.90113687 </i>
    <i name="e_fr_energy">    249.03485001 </i>
    <i name="e_wo_entrp">    249.03486537 </i>
    <i name="e_0_energy">    249.03485769 </i>
   </energy>
  </scstep>
  <scstep>
   <time name="dav">    0.66    0.66</time>
   <time name="total">    0.66    0.67</time>
   <energy>
    <i name="e_fr_energy">    -90.53549582 </i>
    <i name="e_wo_entrp">    -90.53549582 </i>
    <i name="e_0_energy">    -90.53549582 </i>
   </energy>
  </scstep>
  <scstep>
   <time name="dav">    0.64    0.65</time>
   <time name="total">    0.65    0.65</time>
   <energy>
    <i name="e_fr_energy">   -108.12612483 </i>
    <i name="e_wo_entrp">   -108.12612483 </i>
    <i name="e_0_energy">   -108.12612483 </i>
   </energy>
  </scstep>
  <scstep>
   <time name="dav">    0.61    0.61</time>
   <time name="total">    0.61    0.62</time>
   <energy>
    <i name="e_fr_energy">   -108.23730318 </i>
    <i name="e_wo_entrp">   -108.23730318 </i>
    <i name="e_0_energy">   -108.23730318 </i>
   </energy>
  </scstep>
  <scstep>
   <time name="dav">    0.61    0.61</time>
   <time name="total">    0.64    0.64</time>
   <energy>
    <i name="e_fr_energy">   -108.23810128 </i>
    <i name="e_wo_entrp">   -108.23810128 </i>
    <i name="e_0_energy">   -108.23810128 </i>
   </energy>
  </scstep>
  <scstep>
   <time name="dav">    0.60    0.60</time>
   <time name="total">    1.32    1.33</time>
   <energy>
    <i name="e_fr_energy">   -103.31120014 </i>
    <i name="e_wo_entrp">   -103.31120014 </i>
    <i name="e_0_energy">   -103.31120014 </i>
   </energy>
  </scstep>
  <scstep>
   <time name="dav">    0.61    0.61</time>
   <time name="total">    1.34    1.34</time>
   <energy>
    <i name="e_fr_energy">   -103.51054748 </i>
    <i name="e_wo_entrp">   -103.51054748 </i>
    <i name="e_0_energy">   -103.51054748 </i>
   </energy>
  </scstep>
  <scstep>
   <time name="dav">    0.60    0.60</time>
   <time name="total">    1.33    1.33</time>
   <energy>
    <i name="e_fr_energy">   -103.44845447 </i>
    <i name="e_wo_entrp">   -103.44845447 </i>
    <i name="e_0_energy">   -103.44845447 </i>
   </energy>
  </scstep>
  <scstep>
   <time name="dav">    0.62    0.62</time>
   <time name="total">    1.35    1.35</time>
   <energy>
    <i name="e_fr_energy">   -103.44623435 </i>
    <i name="e_wo_entrp">   -103.44623435 </i>
    <i name="e_0_energy">   -103.44623435 </i>
   </energy>
  </scstep>
  <scstep>
   <time name="dav">    0.62    0.62</time>
   <time name="total">    1.34    1.35</time>
   <energy>
    <i name="e_fr_energy">   -103.44514996 </i>
    <i name="e_wo_entrp">   -103.44514996 </i>
    <i name="e_0_energy">   -103.44514996 </i>
   </energy>
  </scstep>
  <scstep>
   <time name="dav">    0.60    0.60</time>
   <time name="total">    1.32    1.32</time>
   <energy>
    <i name="e_fr_energy">   -103.44567447 </i>
    <i name="e_wo_entrp">   -103.44567447 </i>
    <i name="e_0_energy">   -103.44567447 </i>
   </energy>
  </scstep>
  <scstep>
   <time name="dav">    0.60    0.59</time>
   <time name="total">    1.32    1.32</time>
   <energy>
    <i name="e_fr_energy">   -103.44591340 </i>
    <i name="e_wo_entrp">   -103.44591340 </i>
    <i name="e_0_energy">   -103.44591340 </i>
   </energy>
  </scstep>
  <scstep>
   <time name="dav">    0.63    0.63</time>
   <time name="total">    1.35    1.36</time>
   <energy>
    <i name="e_fr_energy">   -103.44592491 </i>
    <i name="e_wo_entrp">   -103.44592491 </i>
    <i name="e_0_energy">   -103.44592491 </i>
   </energy>
  </scstep>
  <scstep>
   <time name="dav">    0.59    0.59</time>
   <time name="total">    1.32    1.32</time>
   <energy>
    <i name="e_fr_energy">   -103.44592665 </i>
    <i name="e_wo_entrp">   -103.44592665 </i>
    <i name="e_0_energy">   -103.44592665 </i>
   </energy>
  </scstep>
  <scstep>
   <time name="dav">    0.41    0.41</time>
   <time name="total">    1.11    1.12</time>
   <energy>
    <i name="alphaZ">    144.97063842 </i>
    <i name="ewald">  -2880.25483082 </i>
    <i name="hartreedc">  -1147.52861404 </i>
    <i name="XCdc">   -132.46923585 </i>
    <i name="pawpsdc">   4505.84787446 </i>
    <i name="pawaedc">  -4127.11639700 </i>
    <i name="eentropy">     -0.00000000 </i>
    <i name="bandstr">   -139.79649880 </i>
    <i name="atom">   3672.90113687 </i>
    <i name="e_fr_energy">   -103.44592677 </i>
    <i name="e_wo_entrp">   -103.44592677 </i>
    <i name="e_0_energy">   -103.44592677 </i>
   </energy>
  </scstep>
  <structure>
   <crystal>
    <varray name="basis" >
     <v>       0.00000000       4.24689300       4.24689300 </v>
     <v>       4.24689300       0.00000000       4.24689300 </v>
     <v>       4.24689300       4.24689300       0.00000000 </v>
    </varray>
    <i name="volume">    153.19477498 </i>
    <varray name="rec_basis" >
     <v>      -0.11773313       0.11773313       0.11773313 </v>
     <v>       0.11773313      -0.11773313       0.11773313 </v>
     <v>       0.11773313       0.11773313      -0.11773313 </v>
    </varray>
   </crystal>
   <varray name="positions" >
    <v>       0.00255478       0.99765627       0.00116089 </v>
    <v>       0.00211407       0.99754635       0.50141774 </v>
    <v>       0.00185950       0.49761105       0.00160808 </v>
    <v>       0.00199168       0.49771773       0.50129763 </v>
    <v>       0.50223317       0.99747138       0.00153665 </v>
    <v>       0.50217553       0.99738197       0.50128880 </v>
    <v>       0.50220013       0.49744914       0.00143700 </v>
    <v>       0.50199179       0.49731976       0.50167214 </v>
    <v>       0.25200529       0.24744336       0.25147911 </v>
    <v>       0.24062541       0.23619880       0.76269591 </v>
    <v>       0.24056523       0.75900256       0.23979258 </v>
    <v>       0.24080033       0.75893656       0.76277064 </v>
    <v>       0.76327356       0.23626070       0.24008347 </v>
    <v>       0.76344533       0.23612407       0.76306329 </v>
    <v>       0.76320204       0.75859948       0.24049848 </v>
    <v>       0.75216118       0.74760182       0.75140859 </v>
   </varray>
  </structure>
  <varray name="forces" >
   <v>       0.00138921       0.00241958      -0.01570621 </v>
   <v>       0.00295084      -0.00193400      -0.00197530 </v>
   <v>      -0.00328234       0.00182270       0.00541232 </v>
   <v>      -0.00118452       0.00528540      -0.00475619 </v>
   <v>      -0.00115917      -0.00512411      -0.00274292 </v>
   <v>       0.00745898       0.00268980       0.00392541 </v>
   <v>       0.00227582      -0.00351786      -0.00146187 </v>
   <v>      -0.00024677      -0.00252624       0.00419543 </v>
   <v>      -0.00046486       0.00018248       0.00337480 </v>
   <v>      -0.00100515       0.00158155       0.00349389 </v>
   <v>       0.00190153       0.00257673      -0.00195194 </v>
   <v>      -0.00024278       0.00071473      -0.00343732 </v>
   <v>      -0.00390640       0.00131851      -0.00382827 </v>
   <v>      -0.00362630      -0.00266476       0.00557050 </v>
   <v>      -0.00079515      -0.00410150       0.01218117 </v>
   <v>      -0.00006296       0.00127700      -0.00229352 </v>
  </varray>
  <varray name="stress" >
   <v>    -176.87946527       0.42328031       0.38086475 </v>
   <v>       0.42328028    -176.65664127       0.35121051 </v>
   <v>       0.38086476       0.35121058    -176.93385328 </v>
  </varray>
  <energy>
   <i name="e_fr_energy">   -103.44592677 </i>
   <i name="e_wo_entrp">   -103.44592677 </i>
   <i name="e_0_energy">     -0.00000000 </i>
  </energy>
  <time name="totalsc">   18.95   19.00</time>
  <eigenvalues>
   <array>
    <dimension dim="1">band</dimension>
    <dimension dim="2">kpoint</dimension>
    <dimension dim="3">spin</dimension>
    <field>eigene</field>
    <field>occ</field>
    <set>
     <set comment="spin 1">
      <set comment="kpoint 1">
       <r>  -14.0012    1.0000 </r>
       <r>  -12.8351    1.0000 </r>
       <r>  -12.8333    1.0000 </r>
       <r>  -12.8324    1.0000 </r>
       <r>  -12.5214    1.0000 </r>
       <r>  -12.5206    1.0000 </r>
       <r>  -12.0908    1.0000 </r>
       <r>  -12.0000    1.0000 </r>
       <r>   -2.2405    1.0000 </r>
       <r>   -1.0556    1.0000 </r>
       <r>   -1.0553    1.0000 </r>
       <r>   -1.0547    1.0000 </r>
       <r>   -0.8512    1.0000 </r>
       <r>   -0.8511    1.0000 </r>
       <r>   -0.8508    1.0000 </r>
       <r>    1.8840    1.0000 </r>
       <r>    1.8858    1.0000 </r>
       <r>    1.8865    1.0000 </r>
       <r>    1.9601    1.0000 </r>
       <r>    1.9604    1.0000 </r>
       <r>    1.9607    1.0000 </r>
       <r>    2.2526    1.0000 </r>
       <r>    2.2542    1.0000 </r>
       <r>    2.6631    1.0000 </r>
       <r>    2.6632    1.0000 </r>
       <r>    2.6634    1.0000 </r>
       <r>    2.9709    1.0000 </r>
       <r>    2.9712    1.0000 </r>
       <r>    2.9718    1.0000 </r>
       <r>    3.3676    1.0000 </r>
       <r>    3.3678    1.0000 </r>
       <r>    3.3680    1.0000 </r>
       <r>    7.3119    0.0000 </r>
       <r>   10.6628    0.0000 </r>
       <r>   10.6637    0.0000 </r>
       <r>   10.6639    0.0000 </r>
       <r>   11.3299    0.0000 </r>
       <r>   11.4114    0.0000 </r>
       <r>   12.3722    0.0000 </r>
       <r>   12.3725    0.0000 </r>
       <r>   12.3737    0.0000 </r>
       <r>   13.3157    0.0000 </r>
       <r>   13.3158    0.0000 </r>
       <r>   14.5566    0.0000 </r>
       <r>   15.8195    0.0000 </r>
       <r>   15.8210    0.0000 </r>
       <r>   15.8218    0.0000 </r>
       <r>   16.0601    0.0000 </r>
       <r>   16.0622    0.0000 </r>
       <r>   16.0632    0.0000 </r>
       <r>   18.0465    0.0000 </r>
       <r>   18.0509    0.0000 </r>
      </set>
      <set comment="kpoint 2">
       <r>  -13.6023    1.0000 </r>
       <r>  -13.2791    1.0000 </r>
       <r>  -12.7676    1.0000 </r>
       <r>  -12.7652    1.0000 </r>
       <r>  -12.6093    1.0000 </r>
       <r>  -12.6087    1.0000 </r>
       <r>  -12.1011    1.0000 </r>
       <r>  -12.0692    1.0000 </r>
       <r>   -1.4072    1.0000 </r>
       <r>   -0.9149    1.0000 </r>
       <r>   -0.3508    1.0000 </r>
       <r>   -0.3500    1.0000 </r>
       <r>   -0.3186    1.0000 </r>
       <r>   -0.3164    1.0000 </r>
       <r>    0.4063    1.0000 </r>
       <r>    0.7569    1.0000 </r>
       <r>    1.0171    1.0000 </r>
       <r>    1.0217    1.0000 </r>
       <r>    1.3439    1.0000 </r>
       <r>    1.3463    1.0000 </r>
       <r>    1.7821    1.0000 </r>
       <r>    1.9279    1.0000 </r>
       <r>    2.1841    1.0000 </r>
       <r>    2.1851    1.0000 </r>
       <r>    2.1909    1.0000 </r>
       <r>    2.3099    1.0000 </r>
       <r>    2.3102    1.0000 </r>
       <r>    2.3965    1.0000 </r>
       <r>    3.0440    1.0000 </r>
       <r>    3.0454    1.0000 </r>
       <r>    3.1308    1.0000 </r>
       <r>    3.1310    1.0000 </r>
       <r>    9.6994    0.0000 </r>
       <r>    9.7683    0.0000 </r>
       <r>   12.3533    0.0000 </r>
       <r>   12.3908    0.0000 </r>
       <r>   12.3954    0.0000 </r>
       <r>   12.4899    0.0000 </r>
       <r>   12.9766    0.0000 </r>
       <r>   12.9813    0.0000 </r>
       <r>   13.8810    0.0000 </r>
       <r>   14.2724    0.0000 </r>
       <r>   14.4111    0.0000 </r>
       <r>   14.4147    0.0000 </r>
       <r>   15.1926    0.0000 </r>
       <r>   15.1961    0.0000 </r>
       <r>   15.3593    0.0000 </r>
       <r>   15.4241    0.0000 </r>
       <r>   16.1442    0.0000 </r>
       <r>   16.1504    0.0000 </r>
       <r>   16.1796    0.0000 </r>
       <r>   16.2302    0.0000 </r>
      </set>
      <set comment="kpoint 3">
       <r>  -13.6023    1.0000 </r>
       <r>  -13.2791    1.0000 </r>
       <r>  -12.7668    1.0000 </r>
       <r>  -12.7659    1.0000 </r>
       <r>  -12.6094    1.0000 </r>
       <r>  -12.6086    1.0000 </r>
       <r>  -12.1010    1.0000 </r>
       <r>  -12.0692    1.0000 </r>
       <r>   -1.4073    1.0000 </r>
       <r>   -0.9149    1.0000 </r>
       <r>   -0.3509    1.0000 </r>
       <r>   -0.3498    1.0000 </r>
       <r>   -0.3178    1.0000 </r>
       <r>   -0.3173    1.0000 </r>
       <r>    0.4063    1.0000 </r>
       <r>    0.7569    1.0000 </r>
       <r>    1.0193    1.0000 </r>
       <r>    1.0195    1.0000 </r>
       <r>    1.3442    1.0000 </r>
       <r>    1.3461    1.0000 </r>
       <r>    1.7821    1.0000 </r>
       <r>    1.9278    1.0000 </r>
       <r>    2.1839    1.0000 </r>
       <r>    2.1853    1.0000 </r>
       <r>    2.1908    1.0000 </r>
       <r>    2.3099    1.0000 </r>
       <r>    2.3102    1.0000 </r>
       <r>    2.3966    1.0000 </r>
       <r>    3.0447    1.0000 </r>
       <r>    3.0447    1.0000 </r>
       <r>    3.1308    1.0000 </r>
       <r>    3.1311    1.0000 </r>
       <r>    9.6995    0.0000 </r>
       <r>    9.7683    0.0000 </r>
       <r>   12.3534    0.0000 </r>
       <r>   12.3923    0.0000 </r>
       <r>   12.3939    0.0000 </r>
       <r>   12.4898    0.0000 </r>
       <r>   12.9780    0.0000 </r>
       <r>   12.9801    0.0000 </r>
       <r>   13.8813    0.0000 </r>
       <r>   14.2722    0.0000 </r>
       <r>   14.4125    0.0000 </r>
       <r>   14.4129    0.0000 </r>
       <r>   15.1929    0.0000 </r>
       <r>   15.1962    0.0000 </r>
       <r>   15.3592    0.0000 </r>
       <r>   15.4239    0.0000 </r>
       <r>   16.1456    0.0000 </r>
       <r>   16.1488    0.0000 </r>
       <r>   16.1798    0.0000 </r>
       <r>   16.2305    0.0000 </r>
      </set>
      <set comment="kpoint 4">
       <r>  -13.4915    1.0000 </r>
       <r>  -13.1019    1.0000 </r>
       <r>  -12.8978    1.0000 </r>
       <r>  -12.8959    1.0000 </r>
       <r>  -12.8054    1.0000 </r>
       <r>  -12.4773    1.0000 </r>
       <r>  -12.1589    1.0000 </r>
       <r>  -12.0259    1.0000 </r>
       <r>   -1.1851    1.0000 </r>
       <r>   -0.1459    1.0000 </r>
       <r>   -0.0967    1.0000 </r>
       <r>   -0.0953    1.0000 </r>
       <r>    0.1709    1.0000 </r>
       <r>    0.1728    1.0000 </r>
       <r>    0.4052    1.0000 </r>
       <r>    0.4210    1.0000 </r>
       <r>    0.5490    1.0000 </r>
       <r>    0.5504    1.0000 </r>
       <r>    0.9665    1.0000 </r>
       <r>    1.3963    1.0000 </r>
       <r>    1.3967    1.0000 </r>
       <r>    1.5684    1.0000 </r>
       <r>    1.8062    1.0000 </r>
       <r>    1.8678    1.0000 </r>
       <r>    2.2531    1.0000 </r>
       <r>    2.3096    1.0000 </r>
       <r>    2.3112    1.0000 </r>
       <r>    2.6616    1.0000 </r>
       <r>    2.8510    1.0000 </r>
       <r>    2.8514    1.0000 </r>
       <r>    2.9468    1.0000 </r>
       <r>    2.9472    1.0000 </r>
       <r>   10.2661    0.0000 </r>
       <r>   11.1878    0.0000 </r>
       <r>   12.0679    0.0000 </r>
       <r>   12.1201    0.0000 </r>
       <r>   12.1216    0.0000 </r>
       <r>   12.6036    0.0000 </r>
       <r>   14.0676    0.0000 </r>
       <r>   14.3148    0.0000 </r>
       <r>   14.4536    0.0000 </r>
       <r>   14.4595    0.0000 </r>
       <r>   14.5523    0.0000 </r>
       <r>   14.7344    0.0000 </r>
       <r>   14.7384    0.0000 </r>
       <r>   14.7425    0.0000 </r>
       <r>   15.2957    0.0000 </r>
       <r>   15.3751    0.0000 </r>
       <r>   15.3816    0.0000 </r>
       <r>   15.4240    0.0000 </r>
       <r>   16.0013    0.0000 </r>
       <r>   16.6661    0.0000 </r>
      </set>
      <set comment="kpoint 5">
       <r>  -13.6024    1.0000 </r>
       <r>  -13.2789    1.0000 </r>
       <r>  -12.7679    1.0000 </r>
       <r>  -12.7650    1.0000 </r>
       <r>  -12.6092    1.0000 </r>
       <r>  -12.6088    1.0000 </r>
       <r>  -12.1010    1.0000 </r>
       <r>  -12.0692    1.0000 </r>
       <r>   -1.4076    1.0000 </r>
       <r>   -0.9146    1.0000 </r>
       <r>   -0.3505    1.0000 </r>
       <r>   -0.3499    1.0000 </r>
       <r>   -0.3183    1.0000 </r>
       <r>   -0.3170    1.0000 </r>
       <r>    0.4066    1.0000 </r>
       <r>    0.7570    1.0000 </r>
       <r>    1.0173    1.0000 </r>
       <r>    1.0216    1.0000 </r>
       <r>    1.3440    1.0000 </r>
       <r>    1.3464    1.0000 </r>
       <r>    1.7821    1.0000 </r>
       <r>    1.9278    1.0000 </r>
       <r>    2.1839    1.0000 </r>
       <r>    2.1854    1.0000 </r>
       <r>    2.1906    1.0000 </r>
       <r>    2.3096    1.0000 </r>
       <r>    2.3099    1.0000 </r>
       <r>    2.3967    1.0000 </r>
       <r>    3.0443    1.0000 </r>
       <r>    3.0453    1.0000 </r>
       <r>    3.1308    1.0000 </r>
       <r>    3.1310    1.0000 </r>
       <r>    9.6996    0.0000 </r>
       <r>    9.7680    0.0000 </r>
       <r>   12.3532    0.0000 </r>
       <r>   12.3905    0.0000 </r>
       <r>   12.3957    0.0000 </r>
       <r>   12.4896    0.0000 </r>
       <r>   12.9762    0.0000 </r>
       <r>   12.9823    0.0000 </r>
       <r>   13.8822    0.0000 </r>
       <r>   14.2709    0.0000 </r>
       <r>   14.4111    0.0000 </r>
       <r>   14.4153    0.0000 </r>
       <r>   15.1924    0.0000 </r>
       <r>   15.1962    0.0000 </r>
       <r>   15.3608    0.0000 </r>
       <r>   15.4250    0.0000 </r>
       <r>   16.1431    0.0000 </r>
       <r>   16.1504    0.0000 </r>
       <r>   16.1784    0.0000 </r>
       <r>   16.2293    0.0000 </r>
      </set>
      <set comment="kpoint 6">
       <r>  -13.4910    1.0000 </r>
       <r>  -13.1040    1.0000 </r>
       <r>  -12.8960    1.0000 </r>
       <r>  -12.8951    1.0000 </r>
       <r>  -12.8067    1.0000 </r>
       <r>  -12.4766    1.0000 </r>
       <r>  -12.1589    1.0000 </r>
       <r>  -12.0263    1.0000 </r>
       <r>   -1.1840    1.0000 </r>
       <r>   -0.1447    1.0000 </r>
       <r>   -0.0981    1.0000 </r>
       <r>   -0.0974    1.0000 </r>
       <r>    0.1738    1.0000 </r>
       <r>    0.1747    1.0000 </r>
       <r>    0.4083    1.0000 </r>
       <r>    0.4187    1.0000 </r>
       <r>    0.5481    1.0000 </r>
       <r>    0.5489    1.0000 </r>
       <r>    0.9620    1.0000 </r>
       <r>    1.3971    1.0000 </r>
       <r>    1.3975    1.0000 </r>
       <r>    1.5686    1.0000 </r>
       <r>    1.8054    1.0000 </r>
       <r>    1.8679    1.0000 </r>
       <r>    2.2541    1.0000 </r>
       <r>    2.3105    1.0000 </r>
       <r>    2.3116    1.0000 </r>
       <r>    2.6614    1.0000 </r>
       <r>    2.8507    1.0000 </r>
       <r>    2.8510    1.0000 </r>
       <r>    2.9464    1.0000 </r>
       <r>    2.9468    1.0000 </r>
       <r>   10.2672    0.0000 </r>
       <r>   11.1869    0.0000 </r>
       <r>   12.0661    0.0000 </r>
       <r>   12.1219    0.0000 </r>
       <r>   12.1232    0.0000 </r>
       <r>   12.6095    0.0000 </r>
       <r>   14.0685    0.0000 </r>
       <r>   14.3092    0.0000 </r>
       <r>   14.4522    0.0000 </r>
       <r>   14.4553    0.0000 </r>
       <r>   14.5534    0.0000 </r>
       <r>   14.7335    0.0000 </r>
       <r>   14.7361    0.0000 </r>
       <r>   14.7423    0.0000 </r>
       <r>   15.2959    0.0000 </r>
       <r>   15.3800    0.0000 </r>
       <r>   15.3841    0.0000 </r>
       <r>   15.4252    0.0000 </r>
       <r>   15.9993    0.0000 </r>
       <r>   16.6641    0.0000 </r>
      </set>
      <set comment="kpoint 7">
       <r>  -13.4914    1.0000 </r>
       <r>  -13.1026    1.0000 </r>
       <r>  -12.8977    1.0000 </r>
       <r>  -12.8951    1.0000 </r>
       <r>  -12.8058    1.0000 </r>
       <r>  -12.4770    1.0000 </r>
       <r>  -12.1589    1.0000 </r>
       <r>  -12.0260    1.0000 </r>
       <r>   -1.1847    1.0000 </r>
       <r>   -0.1456    1.0000 </r>
       <r>   -0.0976    1.0000 </r>
       <r>   -0.0955    1.0000 </r>
       <r>    0.1714    1.0000 </r>
       <r>    0.1739    1.0000 </r>
       <r>    0.4069    1.0000 </r>
       <r>    0.4196    1.0000 </r>
       <r>    0.5482    1.0000 </r>
       <r>    0.5504    1.0000 </r>
       <r>    0.9650    1.0000 </r>
       <r>    1.3964    1.0000 </r>
       <r>    1.3971    1.0000 </r>
       <r>    1.5684    1.0000 </r>
       <r>    1.8059    1.0000 </r>
       <r>    1.8678    1.0000 </r>
       <r>    2.2532    1.0000 </r>
       <r>    2.3095    1.0000 </r>
       <r>    2.3120    1.0000 </r>
       <r>    2.6616    1.0000 </r>
       <r>    2.8509    1.0000 </r>
       <r>    2.8513    1.0000 </r>
       <r>    2.9465    1.0000 </r>
       <r>    2.9472    1.0000 </r>
       <r>   10.2665    0.0000 </r>
       <r>   11.1875    0.0000 </r>
       <r>   12.0670    0.0000 </r>
       <r>   12.1202    0.0000 </r>
       <r>   12.1228    0.0000 </r>
       <r>   12.6055    0.0000 </r>
       <r>   14.0679    0.0000 </r>
       <r>   14.3129    0.0000 </r>
       <r>   14.4512    0.0000 </r>
       <r>   14.4600    0.0000 </r>
       <r>   14.5527    0.0000 </r>
       <r>   14.7340    0.0000 </r>
       <r>   14.7379    0.0000 </r>
       <r>   14.7424    0.0000 </r>
       <r>   15.2957    0.0000 </r>
       <r>   15.3748    0.0000 </r>
       <r>   15.3844    0.0000 </r>
       <r>   15.4245    0.0000 </r>
       <r>   16.0006    0.0000 </r>
       <r>   16.6656    0.0000 </r>
      </set>
      <set comment="kpoint 8">
       <r>  -13.6029    1.0000 </r>
       <r>  -13.2779    1.0000 </r>
       <r>  -12.7680    1.0000 </r>
       <r>  -12.7657    1.0000 </r>
       <r>  -12.6090    1.0000 </r>
       <r>  -12.6088    1.0000 </r>
       <r>  -12.1008    1.0000 </r>
       <r>  -12.0693    1.0000 </r>
       <r>   -1.4088    1.0000 </r>
       <r>   -0.9133    1.0000 </r>
       <r>   -0.3505    1.0000 </r>
       <r>   -0.3499    1.0000 </r>
       <r>   -0.3188    1.0000 </r>
       <r>   -0.3167    1.0000 </r>
       <r>    0.4074    1.0000 </r>
       <r>    0.7568    1.0000 </r>
       <r>    1.0175    1.0000 </r>
       <r>    1.0214    1.0000 </r>
       <r>    1.3442    1.0000 </r>
       <r>    1.3455    1.0000 </r>
       <r>    1.7823    1.0000 </r>
       <r>    1.9270    1.0000 </r>
       <r>    2.1841    1.0000 </r>
       <r>    2.1852    1.0000 </r>
       <r>    2.1898    1.0000 </r>
       <r>    2.3097    1.0000 </r>
       <r>    2.3102    1.0000 </r>
       <r>    2.3974    1.0000 </r>
       <r>    3.0442    1.0000 </r>
       <r>    3.0453    1.0000 </r>
       <r>    3.1311    1.0000 </r>
       <r>    3.1316    1.0000 </r>
       <r>    9.6995    0.0000 </r>
       <r>    9.7674    0.0000 </r>
       <r>   12.3549    0.0000 </r>
       <r>   12.3913    0.0000 </r>
       <r>   12.3933    0.0000 </r>
       <r>   12.4882    0.0000 </r>
       <r>   12.9786    0.0000 </r>
       <r>   12.9812    0.0000 </r>
       <r>   13.8877    0.0000 </r>
       <r>   14.2644    0.0000 </r>
       <r>   14.4091    0.0000 </r>
       <r>   14.4122    0.0000 </r>
       <r>   15.1962    0.0000 </r>
       <r>   15.2009    0.0000 </r>
       <r>   15.3582    0.0000 </r>
       <r>   15.4213    0.0000 </r>
       <r>   16.1413    0.0000 </r>
       <r>   16.1475    0.0000 </r>
       <r>   16.1802    0.0000 </r>
       <r>   16.2321    0.0000 </r>
      </set>
     </set>
     <set comment="spin 2">
      <set comment="kpoint 1">
       <r>  -14.0012    1.0000 </r>
       <r>  -12.8351    1.0000 </r>
       <r>  -12.8333    1.0000 </r>
       <r>  -12.8324    1.0000 </r>
       <r>  -12.5214    1.0000 </r>
       <r>  -12.5206    1.0000 </r>
       <r>  -12.0908    1.0000 </r>
       <r>  -12.0000    1.0000 </r>
       <r>   -2.2405    1.0000 </r>
       <r>   -1.0555    1.0000 </r>
       <r>   -1.0553    1.0000 </r>
       <r>   -1.0547    1.0000 </r>
       <r>   -0.8512    1.0000 </r>
       <r>   -0.8511    1.0000 </r>
       <r>   -0.8508    1.0000 </r>
       <r>    1.8841    1.0000 </r>
       <r>    1.8858    1.0000 </r>
       <r>    1.8865    1.0000 </r>
       <r>    1.9601    1.0000 </r>
       <r>    1.9604    1.0000 </r>
       <r>    1.9607    1.0000 </r>
       <r>    2.2526    1.0000 </r>
       <r>    2.2542    1.0000 </r>
       <r>    2.6631    1.0000 </r>
       <r>    2.6632    1.0000 </r>
       <r>    2.6634    1.0000 </r>
       <r>    2.9709    1.0000 </r>
       <r>    2.9712    1.0000 </r>
       <r>    2.9718    1.0000 </r>
       <r>    3.3676    1.0000 </r>
       <r>    3.3679    1.0000 </r>
       <r>    3.3680    1.0000 </r>
       <r>    7.3120    0.0000 </r>
       <r>   10.6629    0.0000 </r>
       <r>   10.6638    0.0000 </r>
       <r>   10.6640    0.0000 </r>
       <r>   11.3300    0.0000 </r>
       <r>   11.4115    0.0000 </r>
       <r>   12.3723    0.0000 </r>
       <r>   12.3726    0.0000 </r>
       <r>   12.3738    0.0000 </r>
       <r>   13.3158    0.0000 </r>
       <r>   13.3158    0.0000 </r>
       <r>   14.5567    0.0000 </r>
       <r>   15.8196    0.0000 </r>
       <r>   15.8211    0.0000 </r>
       <r>   15.8219    0.0000 </r>
       <r>   16.0602    0.0000 </r>
       <r>   16.0623    0.0000 </r>
       <r>   16.0633    0.0000 </r>
       <r>   18.0464    0.0000 </r>
       <r>   18.0561    0.0000 </r>
      </set>
      <set comment="kpoint 2">
       <r>  -13.6023    1.0000 </r>
       <r>  -13.2791    1.0000 </r>
       <r>  -12.7676    1.0000 </r>
       <r>  -12.7652    1.0000 </r>
       <r>  -12.6093    1.0000 </r>
       <r>  -12.6087    1.0000 </r>
       <r>  -12.1010    1.0000 </r>
       <r>  -12.0692    1.0000 </r>
       <r>   -1.4072    1.0000 </r>
       <r>   -0.9149    1.0000 </r>
       <r>   -0.3508    1.0000 </r>
       <r>   -0.3499    1.0000 </r>
       <r>   -0.3186    1.0000 </r>
       <r>   -0.3164    1.0000 </r>
       <r>    0.4063    1.0000 </r>
       <r>    0.7569    1.0000 </r>
       <r>    1.0172    1.0000 </r>
       <r>    1.0217    1.0000 </r>
       <r>    1.3439    1.0000 </r>
       <r>    1.3464    1.0000 </r>
       <r>    1.7821    1.0000 </r>
       <r>    1.9279    1.0000 </r>
       <r>    2.1841    1.0000 </r>
       <r>    2.1851    1.0000 </r>
       <r>    2.1909    1.0000 </r>
       <r>    2.3100    1.0000 </r>
       <r>    2.3102    1.0000 </r>
       <r>    2.3965    1.0000 </r>
       <r>    3.0440    1.0000 </r>
       <r>    3.0454    1.0000 </r>
       <r>    3.1309    1.0000 </r>
       <r>    3.1310    1.0000 </r>
       <r>    9.6995    0.0000 </r>
       <r>    9.7684    0.0000 </r>
       <r>   12.3534    0.0000 </r>
       <r>   12.3909    0.0000 </r>
       <r>   12.3955    0.0000 </r>
       <r>   12.4900    0.0000 </r>
       <r>   12.9767    0.0000 </r>
       <r>   12.9814    0.0000 </r>
       <r>   13.8811    0.0000 </r>
       <r>   14.2725    0.0000 </r>
       <r>   14.4112    0.0000 </r>
       <r>   14.4148    0.0000 </r>
       <r>   15.1927    0.0000 </r>
       <r>   15.1962    0.0000 </r>
       <r>   15.3594    0.0000 </r>
       <r>   15.4242    0.0000 </r>
       <r>   16.1443    0.0000 </r>
       <r>   16.1505    0.0000 </r>
       <r>   16.1797    0.0000 </r>
       <r>   16.2303    0.0000 </r>
      </set>
      <set comment="kpoint 3">
       <r>  -13.6023    1.0000 </r>
       <r>  -13.2791    1.0000 </r>
       <r>  -12.7669    1.0000 </r>
       <r>  -12.7659    1.0000 </r>
       <r>  -12.6094    1.0000 </r>
       <r>  -12.6086    1.0000 </r>
       <r>  -12.1010    1.0000 </r>
       <r>  -12.0692    1.0000 </r>
       <r>   -1.4072    1.0000 </r>
       <r>   -0.9149    1.0000 </r>
       <r>   -0.3509    1.0000 </r>
       <r>   -0.3497    1.0000 </r>
       <r>   -0.3178    1.0000 </r>
       <r>   -0.3173    1.0000 </r>
       <r>    0.4063    1.0000 </r>
       <r>    0.7569    1.0000 </r>
       <r>    1.0193    1.0000 </r>
       <r>    1.0196    1.0000 </r>
       <r>    1.3442    1.0000 </r>
       <r>    1.3461    1.0000 </r>
       <r>    1.7821    1.0000 </r>
       <r>    1.9279    1.0000 </r>
       <r>    2.1839    1.0000 </r>
       <r>    2.1853    1.0000 </r>
       <r>    2.1908    1.0000 </r>
       <r>    2.3099    1.0000 </r>
       <r>    2.3102    1.0000 </r>
       <r>    2.3966    1.0000 </r>
       <r>    3.0447    1.0000 </r>
       <r>    3.0447    1.0000 </r>
       <r>    3.1308    1.0000 </r>
       <r>    3.1311    1.0000 </r>
       <r>    9.6995    0.0000 </r>
       <r>    9.7684    0.0000 </r>
       <r>   12.3535    0.0000 </r>
       <r>   12.3923    0.0000 </r>
       <r>   12.3940    0.0000 </r>
       <r>   12.4898    0.0000 </r>
       <r>   12.9780    0.0000 </r>
       <r>   12.9802    0.0000 </r>
       <r>   13.8814    0.0000 </r>
       <r>   14.2722    0.0000 </r>
       <r>   14.4126    0.0000 </r>
       <r>   14.4130    0.0000 </r>
       <r>   15.1930    0.0000 </r>
       <r>   15.1962    0.0000 </r>
       <r>   15.3593    0.0000 </r>
       <r>   15.4239    0.0000 </r>
       <r>   16.1456    0.0000 </r>
       <r>   16.1489    0.0000 </r>
       <r>   16.1799    0.0000 </r>
       <r>   16.2305    0.0000 </r>
      </set>
      <set comment="kpoint 4">
       <r>  -13.4915    1.0000 </r>
       <r>  -13.1020    1.0000 </r>
       <r>  -12.8978    1.0000 </r>
       <r>  -12.8959    1.0000 </r>
       <r>  -12.8054    1.0000 </r>
       <r>  -12.4773    1.0000 </r>
       <r>  -12.1589    1.0000 </r>
       <r>  -12.0258    1.0000 </r>
       <r>   -1.1850    1.0000 </r>
       <r>   -0.1459    1.0000 </r>
       <r>   -0.0967    1.0000 </r>
       <r>   -0.0953    1.0000 </r>
       <r>    0.1709    1.0000 </r>
       <r>    0.1728    1.0000 </r>
       <r>    0.4052    1.0000 </r>
       <r>    0.4210    1.0000 </r>
       <r>    0.5490    1.0000 </r>
       <r>    0.5504    1.0000 </r>
       <r>    0.9665    1.0000 </r>
       <r>    1.3963    1.0000 </r>
       <r>    1.3967    1.0000 </r>
       <r>    1.5684    1.0000 </r>
       <r>    1.8062    1.0000 </r>
       <r>    1.8678    1.0000 </r>
       <r>    2.2531    1.0000 </r>
       <r>    2.3096    1.0000 </r>
       <r>    2.3112    1.0000 </r>
       <r>    2.6616    1.0000 </r>
       <r>    2.8510    1.0000 </r>
       <r>    2.8514    1.0000 </r>
       <r>    2.9468    1.0000 </r>
       <r>    2.9472    1.0000 </r>
       <r>   10.2662    0.0000 </r>
       <r>   11.1878    0.0000 </r>
       <r>   12.0680    0.0000 </r>
       <r>   12.1201    0.0000 </r>
       <r>   12.1216    0.0000 </r>
       <r>   12.6037    0.0000 </r>
       <r>   14.0677    0.0000 </r>
       <r>   14.3148    0.0000 </r>
       <r>   14.4537    0.0000 </r>
       <r>   14.4595    0.0000 </r>
       <r>   14.5524    0.0000 </r>
       <r>   14.7345    0.0000 </r>
       <r>   14.7385    0.0000 </r>
       <r>   14.7425    0.0000 </r>
       <r>   15.2958    0.0000 </r>
       <r>   15.3752    0.0000 </r>
       <r>   15.3817    0.0000 </r>
       <r>   15.4241    0.0000 </r>
       <r>   16.0013    0.0000 </r>
       <r>   16.6659    0.0000 </r>
      </set>
      <set comment="kpoint 5">
       <r>  -13.6024    1.0000 </r>
       <r>  -13.2789    1.0000 </r>
       <r>  -12.7679    1.0000 </r>
       <r>  -12.7650    1.0000 </r>
       <r>  -12.6092    1.0000 </r>
       <r>  -12.6088    1.0000 </r>
       <r>  -12.1010    1.0000 </r>
       <r>  -12.0692    1.0000 </r>
       <r>   -1.4076    1.0000 </r>
       <r>   -0.9146    1.0000 </r>
       <r>   -0.3505    1.0000 </r>
       <r>   -0.3499    1.0000 </r>
       <r>   -0.3183    1.0000 </r>
       <r>   -0.3170    1.0000 </r>
       <r>    0.4067    1.0000 </r>
       <r>    0.7570    1.0000 </r>
       <r>    1.0173    1.0000 </r>
       <r>    1.0216    1.0000 </r>
       <r>    1.3440    1.0000 </r>
       <r>    1.3464    1.0000 </r>
       <r>    1.7822    1.0000 </r>
       <r>    1.9278    1.0000 </r>
       <r>    2.1840    1.0000 </r>
       <r>    2.1854    1.0000 </r>
       <r>    2.1906    1.0000 </r>
       <r>    2.3096    1.0000 </r>
       <r>    2.3100    1.0000 </r>
       <r>    2.3967    1.0000 </r>
       <r>    3.0443    1.0000 </r>
       <r>    3.0453    1.0000 </r>
       <r>    3.1308    1.0000 </r>
       <r>    3.1310    1.0000 </r>
       <r>    9.6996    0.0000 </r>
       <r>    9.7681    0.0000 </r>
       <r>   12.3533    0.0000 </r>
       <r>   12.3906    0.0000 </r>
       <r>   12.3958    0.0000 </r>
       <r>   12.4897    0.0000 </r>
       <r>   12.9762    0.0000 </r>
       <r>   12.9824    0.0000 </r>
       <r>   13.8823    0.0000 </r>
       <r>   14.2710    0.0000 </r>
       <r>   14.4112    0.0000 </r>
       <r>   14.4154    0.0000 </r>
       <r>   15.1925    0.0000 </r>
       <r>   15.1963    0.0000 </r>
       <r>   15.3609    0.0000 </r>
       <r>   15.4251    0.0000 </r>
       <r>   16.1431    0.0000 </r>
       <r>   16.1505    0.0000 </r>
       <r>   16.1785    0.0000 </r>
       <r>   16.2294    0.0000 </r>
      </set>
      <set comment="kpoint 6">
       <r>  -13.4910    1.0000 </r>
       <r>  -13.1040    1.0000 </r>
       <r>  -12.8960    1.0000 </r>
       <r>  -12.8951    1.0000 </r>
       <r>  -12.8067    1.0000 </r>
       <r>  -12.4766    1.0000 </r>
       <r>  -12.1588    1.0000 </r>
       <r>  -12.0263    1.0000 </r>
       <r>   -1.1840    1.0000 </r>
       <r>   -0.1447    1.0000 </r>
       <r>   -0.0981    1.0000 </r>
       <r>   -0.0974    1.0000 </r>
       <r>    0.1738    1.0000 </r>
       <r>    0.1747    1.0000 </r>
       <r>    0.4083    1.0000 </r>
       <r>    0.4188    1.0000 </r>
       <r>    0.5481    1.0000 </r>
       <r>    0.5489    1.0000 </r>
       <r>    0.9620    1.0000 </r>
       <r>    1.3971    1.0000 </r>
       <r>    1.3975    1.0000 </r>
       <r>    1.5686    1.0000 </r>
       <r>    1.8054    1.0000 </r>
       <r>    1.8680    1.0000 </r>
       <r>    2.2541    1.0000 </r>
       <r>    2.3105    1.0000 </r>
       <r>    2.3116    1.0000 </r>
       <r>    2.6614    1.0000 </r>
       <r>    2.8507    1.0000 </r>
       <r>    2.8510    1.0000 </r>
       <r>    2.9464    1.0000 </r>
       <r>    2.9468    1.0000 </r>
       <r>   10.2672    0.0000 </r>
       <r>   11.1870    0.0000 </r>
       <r>   12.0662    0.0000 </r>
       <r>   12.1219    0.0000 </r>
       <r>   12.1233    0.0000 </r>
       <r>   12.6096    0.0000 </r>
       <r>   14.0686    0.0000 </r>
       <r>   14.3093    0.0000 </r>
       <r>   14.4522    0.0000 </r>
       <r>   14.4554    0.0000 </r>
       <r>   14.5535    0.0000 </r>
       <r>   14.7336    0.0000 </r>
       <r>   14.7362    0.0000 </r>
       <r>   14.7423    0.0000 </r>
       <r>   15.2960    0.0000 </r>
       <r>   15.3801    0.0000 </r>
       <r>   15.3842    0.0000 </r>
       <r>   15.4253    0.0000 </r>
       <r>   15.9994    0.0000 </r>
       <r>   16.6632    0.0000 </r>
      </set>
      <set comment="kpoint 7">
       <r>  -13.4914    1.0000 </r>
       <r>  -13.1026    1.0000 </r>
       <r>  -12.8978    1.0000 </r>
       <r>  -12.8951    1.0000 </r>
       <r>  -12.8058    1.0000 </r>
       <r>  -12.4770    1.0000 </r>
       <r>  -12.1588    1.0000 </r>
       <r>  -12.0260    1.0000 </r>
       <r>   -1.1847    1.0000 </r>
       <r>   -0.1456    1.0000 </r>
       <r>   -0.0975    1.0000 </r>
       <r>   -0.0955    1.0000 </r>
       <r>    0.1714    1.0000 </r>
       <r>    0.1739    1.0000 </r>
       <r>    0.4069    1.0000 </r>
       <r>    0.4196    1.0000 </r>
       <r>    0.5483    1.0000 </r>
       <r>    0.5504    1.0000 </r>
       <r>    0.9650    1.0000 </r>
       <r>    1.3964    1.0000 </r>
       <r>    1.3971    1.0000 </r>
       <r>    1.5685    1.0000 </r>
       <r>    1.8059    1.0000 </r>
       <r>    1.8679    1.0000 </r>
       <r>    2.2532    1.0000 </r>
       <r>    2.3095    1.0000 </r>
       <r>    2.3120    1.0000 </r>
       <r>    2.6616    1.0000 </r>
       <r>    2.8509    1.0000 </r>
       <r>    2.8513    1.0000 </r>
       <r>    2.9466    1.0000 </r>
       <r>    2.9472    1.0000 </r>
       <r>   10.2665    0.0000 </r>
       <r>   11.1876    0.0000 </r>
       <r>   12.0671    0.0000 </r>
       <r>   12.1203    0.0000 </r>
       <r>   12.1229    0.0000 </r>
       <r>   12.6056    0.0000 </r>
       <r>   14.0679    0.0000 </r>
       <r>   14.3130    0.0000 </r>
       <r>   14.4513    0.0000 </r>
       <r>   14.4600    0.0000 </r>
       <r>   14.5528    0.0000 </r>
       <r>   14.7341    0.0000 </r>
       <r>   14.7380    0.0000 </r>
       <r>   14.7425    0.0000 </r>
       <r>   15.2958    0.0000 </r>
       <r>   15.3748    0.0000 </r>
       <r>   15.3845    0.0000 </r>
       <r>   15.4245    0.0000 </r>
       <r>   16.0007    0.0000 </r>
       <r>   16.6651    0.0000 </r>
      </set>
      <set comment="kpoint 8">
       <r>  -13.6029    1.0000 </r>
       <r>  -13.2779    1.0000 </r>
       <r>  -12.7680    1.0000 </r>
       <r>  -12.7657    1.0000 </r>
       <r>  -12.6090    1.0000 </r>
       <r>  -12.6088    1.0000 </r>
       <r>  -12.1008    1.0000 </r>
       <r>  -12.0693    1.0000 </r>
       <r>   -1.4088    1.0000 </r>
       <r>   -0.9133    1.0000 </r>
       <r>   -0.3505    1.0000 </r>
       <r>   -0.3499    1.0000 </r>
       <r>   -0.3188    1.0000 </r>
       <r>   -0.3167    1.0000 </r>
       <r>    0.4074    1.0000 </r>
       <r>    0.7568    1.0000 </r>
       <r>    1.0175    1.0000 </r>
       <r>    1.0214    1.0000 </r>
       <r>    1.3442    1.0000 </r>
       <r>    1.3455    1.0000 </r>
       <r>    1.7823    1.0000 </r>
       <r>    1.9270    1.0000 </r>
       <r>    2.1842    1.0000 </r>
       <r>    2.1852    1.0000 </r>
       <r>    2.1898    1.0000 </r>
       <r>    2.3097    1.0000 </r>
       <r>    2.3102    1.0000 </r>
       <r>    2.3974    1.0000 </r>
       <r>    3.0442    1.0000 </r>
       <r>    3.0453    1.0000 </r>
       <r>    3.1312    1.0000 </r>
       <r>    3.1316    1.0000 </r>
       <r>    9.6996    0.0000 </r>
       <r>    9.7675    0.0000 </r>
       <r>   12.3549    0.0000 </r>
       <r>   12.3913    0.0000 </r>
       <r>   12.3934    0.0000 </r>
       <r>   12.4883    0.0000 </r>
       <r>   12.9787    0.0000 </r>
       <r>   12.9813    0.0000 </r>
       <r>   13.8877    0.0000 </r>
       <r>   14.2645    0.0000 </r>
       <r>   14.4092    0.0000 </r>
       <r>   14.4123    0.0000 </r>
       <r>   15.1963    0.0000 </r>
       <r>   15.2010    0.0000 </r>
       <r>   15.3582    0.0000 </r>
       <r>   15.4214    0.0000 </r>
       <r>   16.1413    0.0000 </r>
       <r>   16.1475    0.0000 </r>
       <r>   16.1802    0.0000 </r>
       <r>   16.2322    0.0000 </r>
      </set>
     </set>
    </set>
   </array>
  </eigenvalues>
  <separator name="orbital magnetization" >
   <v name="MAGDIPOLOUT">      0.00000000      0.00000000      0.00000000</v>
  </separator>
  <dos>
   <i name="efermi">      3.68774205 </i>
   <total>
    <array>
     <dimension dim="1">gridpoints</dimension>
     <dimension dim="2">spin</dimension>
     <field>energy</field>
     <field>total</field>
     <field>integrated</field>
     <set>
      <set comment="spin 1">
       <r>   -15.6041     0.0000     0.0000 </r>
       <r>   -15.4866     0.0000     0.0000 </r>
       <r>   -15.3690     0.0000     0.0000 </r>
       <r>   -15.2515     0.0000     0.0000 </r>
       <r>   -15.1339     0.0000     0.0000 </r>
       <r>   -15.0164     0.0000     0.0000 </r>
       <r>   -14.8989     0.0000     0.0000 </r>
       <r>   -14.7813     0.0000     0.0000 </r>
       <r>   -14.6638     0.0000     0.0000 </r>
       <r>   -14.5462     0.0000     0.0000 </r>
       <r>   -14.4287     0.0000     0.0000 </r>
       <r>   -14.3111     0.0000     0.0000 </r>
       <r>   -14.1936     0.0000     0.0000 </r>
       <r>   -14.0760     0.0183     0.0021 </r>
       <r>   -13.9585     0.9246     0.1108 </r>
       <r>   -13.8410     0.1205     0.1250 </r>
       <r>   -13.7234     0.0013     0.1252 </r>
       <r>   -13.6059     1.9642     0.3560 </r>
       <r>   -13.4883     3.9879     0.8248 </r>
       <r>   -13.3708     1.5093     1.0022 </r>
       <r>   -13.2532     3.2346     1.3824 </r>
       <r>   -13.1357     1.5631     1.5661 </r>
       <r>   -13.0182     2.6029     1.8721 </r>
       <r>   -12.9006     3.0100     2.2259 </r>
       <r>   -12.7831    11.4224     3.5685 </r>
       <r>   -12.6655     7.3094     4.4277 </r>
       <r>   -12.5480     8.2442     5.3968 </r>
       <r>   -12.4304     4.8205     5.9634 </r>
       <r>   -12.3129     0.3115     6.0000 </r>
       <r>   -12.1953     0.5004     6.0588 </r>
       <r>   -12.0778     8.4659     7.0539 </r>
       <r>   -11.9603     7.8051     7.9714 </r>
       <r>   -11.8427     0.2436     8.0000 </r>
       <r>   -11.7252     0.0000     8.0000 </r>
       <r>   -11.6076     0.0000     8.0000 </r>
       <r>   -11.4901     0.0000     8.0000 </r>
       <r>   -11.3725     0.0000     8.0000 </r>
       <r>   -11.2550     0.0000     8.0000 </r>
       <r>   -11.1375     0.0000     8.0000 </r>
       <r>   -11.0199     0.0000     8.0000 </r>
       <r>   -10.9024     0.0000     8.0000 </r>
       <r>   -10.7848     0.0000     8.0000 </r>
       <r>   -10.6673     0.0000     8.0000 </r>
       <r>   -10.5497     0.0000     8.0000 </r>
       <r>   -10.4322     0.0000     8.0000 </r>
       <r>   -10.3146     0.0000     8.0000 </r>
       <r>   -10.1971     0.0000     8.0000 </r>
       <r>   -10.0796     0.0000     8.0000 </r>
       <r>    -9.9620     0.0000     8.0000 </r>
       <r>    -9.8445     0.0000     8.0000 </r>
       <r>    -9.7269     0.0000     8.0000 </r>
       <r>    -9.6094     0.0000     8.0000 </r>
       <r>    -9.4918     0.0000     8.0000 </r>
       <r>    -9.3743     0.0000     8.0000 </r>
       <r>    -9.2568     0.0000     8.0000 </r>
       <r>    -9.1392     0.0000     8.0000 </r>
       <r>    -9.0217     0.0000     8.0000 </r>
       <r>    -8.9041     0.0000     8.0000 </r>
       <r>    -8.7866     0.0000     8.0000 </r>
       <r>    -8.6690     0.0000     8.0000 </r>
       <r>    -8.5515     0.0000     8.0000 </r>
       <r>    -8.4339     0.0000     8.0000 </r>
       <r>    -8.3164     0.0000     8.0000 </r>
       <r>    -8.1989     0.0000     8.0000 </r>
       <r>    -8.0813     0.0000     8.0000 </r>
       <r>    -7.9638     0.0000     8.0000 </r>
       <r>    -7.8462     0.0000     8.0000 </r>
       <r>    -7.7287     0.0000     8.0000 </r>
       <r>    -7.6111     0.0000     8.0000 </r>
       <r>    -7.4936     0.0000     8.0000 </r>
       <r>    -7.3761     0.0000     8.0000 </r>
       <r>    -7.2585     0.0000     8.0000 </r>
       <r>    -7.1410     0.0000     8.0000 </r>
       <r>    -7.0234     0.0000     8.0000 </r>
       <r>    -6.9059     0.0000     8.0000 </r>
       <r>    -6.7883     0.0000     8.0000 </r>
       <r>    -6.6708     0.0000     8.0000 </r>
       <r>    -6.5533     0.0000     8.0000 </r>
       <r>    -6.4357     0.0000     8.0000 </r>
       <r>    -6.3182     0.0000     8.0000 </r>
       <r>    -6.2006     0.0000     8.0000 </r>
       <r>    -6.0831     0.0000     8.0000 </r>
       <r>    -5.9655     0.0000     8.0000 </r>
       <r>    -5.8480     0.0000     8.0000 </r>
       <r>    -5.7304     0.0000     8.0000 </r>
       <r>    -5.6129     0.0000     8.0000 </r>
       <r>    -5.4954     0.0000     8.0000 </r>
       <r>    -5.3778     0.0000     8.0000 </r>
       <r>    -5.2603     0.0000     8.0000 </r>
       <r>    -5.1427     0.0000     8.0000 </r>
       <r>    -5.0252     0.0000     8.0000 </r>
       <r>    -4.9076     0.0000     8.0000 </r>
       <r>    -4.7901     0.0000     8.0000 </r>
       <r>    -4.6726     0.0000     8.0000 </r>
       <r>    -4.5550     0.0000     8.0000 </r>
       <r>    -4.4375     0.0000     8.0000 </r>
       <r>    -4.3199     0.0000     8.0000 </r>
       <r>    -4.2024     0.0000     8.0000 </r>
       <r>    -4.0848     0.0000     8.0000 </r>
       <r>    -3.9673     0.0000     8.0000 </r>
       <r>    -3.8497     0.0000     8.0000 </r>
       <r>    -3.7322     0.0000     8.0000 </r>
       <r>    -3.6147     0.0000     8.0000 </r>
       <r>    -3.4971     0.0000     8.0000 </r>
       <r>    -3.3796     0.0000     8.0000 </r>
       <r>    -3.2620     0.0000     8.0000 </r>
       <r>    -3.1445     0.0000     8.0000 </r>
       <r>    -3.0269     0.0000     8.0000 </r>
       <r>    -2.9094     0.0000     8.0000 </r>
       <r>    -2.7919     0.0000     8.0000 </r>
       <r>    -2.6743     0.0000     8.0000 </r>
       <r>    -2.5568     0.0000     8.0000 </r>
       <r>    -2.4392     0.0000     8.0000 </r>
       <r>    -2.3217     0.0115     8.0014 </r>
       <r>    -2.2041     0.8905     8.1060 </r>
       <r>    -2.0866     0.1614     8.1250 </r>
       <r>    -1.9690     0.0000     8.1250 </r>
       <r>    -1.8515     0.0000     8.1250 </r>
       <r>    -1.7340     0.0000     8.1250 </r>
       <r>    -1.6164     0.0000     8.1250 </r>
       <r>    -1.4989     0.0212     8.1275 </r>
       <r>    -1.3813     3.2647     8.5112 </r>
       <r>    -1.2638     1.0077     8.6297 </r>
       <r>    -1.1462     2.7226     8.9497 </r>
       <r>    -1.0287     2.8973     9.2903 </r>
       <r>    -0.9112     3.1456     9.6600 </r>
       <r>    -0.7936     4.8515    10.2303 </r>
       <r>    -0.6761     0.1678    10.2500 </r>
       <r>    -0.5585     0.0000    10.2500 </r>
       <r>    -0.4410     0.0459    10.2554 </r>
       <r>    -0.3234    10.2545    11.4607 </r>
       <r>    -0.2059     6.8532    12.2663 </r>
       <r>    -0.0883     6.6723    13.0506 </r>
       <r>     0.0292     2.7590    13.3749 </r>
       <r>     0.1467     1.4670    13.5473 </r>
       <r>     0.2643     4.8836    14.1213 </r>
       <r>     0.3818     2.2757    14.3888 </r>
       <r>     0.4994     8.8253    15.4262 </r>
       <r>     0.6169     5.7682    16.1042 </r>
       <r>     0.7345     1.2951    16.2564 </r>
       <r>     0.8520     3.1227    16.6235 </r>
       <r>     0.9695     2.4652    16.9133 </r>
       <r>     1.0871     9.0064    17.9719 </r>
       <r>     1.2046     0.2393    18.0000 </r>
       <r>     1.3222     2.3118    18.2718 </r>
       <r>     1.4397    11.8262    19.6619 </r>
       <r>     1.5573     1.9482    19.8909 </r>
       <r>     1.6748     1.9932    20.1251 </r>
       <r>     1.7924     3.7960    20.5713 </r>
       <r>     1.9099    10.4216    21.7963 </r>
       <r>     2.0274     6.9472    22.6129 </r>
       <r>     2.1450     1.6442    22.8062 </r>
       <r>     2.2625    15.5286    24.6315 </r>
       <r>     2.3801    16.8879    26.6165 </r>
       <r>     2.4976     3.2530    26.9989 </r>
       <r>     2.6152     0.5890    27.0681 </r>
       <r>     2.7327     5.6542    27.7328 </r>
       <r>     2.8502     3.2997    28.1206 </r>
       <r>     2.9678     9.4361    29.2298 </r>
       <r>     3.0853    11.6343    30.5973 </r>
       <r>     3.2029     8.5637    31.6039 </r>
       <r>     3.3204     0.4667    31.6588 </r>
       <r>     3.4380     2.8277    31.9911 </r>
       <r>     3.5555     0.0754    32.0000 </r>
       <r>     3.6730     0.0000    32.0000 </r>
       <r>     3.7906     0.0000    32.0000 </r>
       <r>     3.9081     0.0000    32.0000 </r>
       <r>     4.0257     0.0000    32.0000 </r>
       <r>     4.1432     0.0000    32.0000 </r>
       <r>     4.2608     0.0000    32.0000 </r>
       <r>     4.3783     0.0000    32.0000 </r>
       <r>     4.4959     0.0000    32.0000 </r>
       <r>     4.6134     0.0000    32.0000 </r>
       <r>     4.7309     0.0000    32.0000 </r>
       <r>     4.8485     0.0000    32.0000 </r>
       <r>     4.9660     0.0000    32.0000 </r>
       <r>     5.0836     0.0000    32.0000 </r>
       <r>     5.2011     0.0000    32.0000 </r>
       <r>     5.3187     0.0000    32.0000 </r>
       <r>     5.4362     0.0000    32.0000 </r>
       <r>     5.5537     0.0000    32.0000 </r>
       <r>     5.6713     0.0000    32.0000 </r>
       <r>     5.7888     0.0000    32.0000 </r>
       <r>     5.9064     0.0000    32.0000 </r>
       <r>     6.0239     0.0000    32.0000 </r>
       <r>     6.1415     0.0000    32.0000 </r>
       <r>     6.2590     0.0000    32.0000 </r>
       <r>     6.3766     0.0000    32.0000 </r>
       <r>     6.4941     0.0000    32.0000 </r>
       <r>     6.6116     0.0000    32.0000 </r>
       <r>     6.7292     0.0000    32.0000 </r>
       <r>     6.8467     0.0000    32.0000 </r>
       <r>     6.9643     0.0000    32.0000 </r>
       <r>     7.0818     0.0000    32.0000 </r>
       <r>     7.1994     0.0008    32.0001 </r>
       <r>     7.3169     0.5911    32.0696 </r>
       <r>     7.4344     0.4713    32.1250 </r>
       <r>     7.5520     0.0003    32.1250 </r>
       <r>     7.6695     0.0000    32.1250 </r>
       <r>     7.7871     0.0000    32.1250 </r>
       <r>     7.9046     0.0000    32.1250 </r>
       <r>     8.0222     0.0000    32.1250 </r>
       <r>     8.1397     0.0000    32.1250 </r>
       <r>     8.2573     0.0000    32.1250 </r>
       <r>     8.3748     0.0000    32.1250 </r>
       <r>     8.4923     0.0000    32.1250 </r>
       <r>     8.6099     0.0000    32.1250 </r>
       <r>     8.7274     0.0000    32.1250 </r>
       <r>     8.8450     0.0000    32.1250 </r>
       <r>     8.9625     0.0000    32.1250 </r>
       <r>     9.0801     0.0000    32.1250 </r>
       <r>     9.1976     0.0000    32.1250 </r>
       <r>     9.3151     0.0000    32.1250 </r>
       <r>     9.4327     0.0000    32.1250 </r>
       <r>     9.5502     0.0001    32.1250 </r>
       <r>     9.6678     0.7959    32.2186 </r>
       <r>     9.7853     6.3503    32.9650 </r>
       <r>     9.9029     1.3610    33.1250 </r>
       <r>    10.0204     0.0003    33.1250 </r>
       <r>    10.1380     0.0004    33.1251 </r>
       <r>    10.2555     1.2025    33.2664 </r>
       <r>    10.3730     1.9832    33.4995 </r>
       <r>    10.4906     0.0042    33.5000 </r>
       <r>    10.6081     0.1872    33.5220 </r>
       <r>    10.7257     2.8776    33.8602 </r>
       <r>    10.8432     0.1255    33.8750 </r>
       <r>    10.9608     0.0000    33.8750 </r>
       <r>    11.0783     0.0032    33.8754 </r>
       <r>    11.1958     1.8933    34.0979 </r>
       <r>    11.3134     1.6364    34.2903 </r>
       <r>    11.4309     1.4734    34.4635 </r>
       <r>    11.5485     0.3108    34.5000 </r>
       <r>    11.6660     0.0001    34.5000 </r>
       <r>    11.7836     0.0000    34.5000 </r>
       <r>    11.9011     0.0000    34.5000 </r>
       <r>    12.0187     0.2850    34.5335 </r>
       <r>    12.1362     7.0353    35.3605 </r>
       <r>    12.2537     2.2616    35.6263 </r>
       <r>    12.3713     6.7702    36.4221 </r>
       <r>    12.4888    11.2413    37.7434 </r>
       <r>    12.6064     3.7817    38.1879 </r>
       <r>    12.7239     1.5900    38.3748 </r>
       <r>    12.8415     0.0019    38.3750 </r>
       <r>    12.9590     2.4100    38.6583 </r>
       <r>    13.0765     6.0714    39.3720 </r>
       <r>    13.1941     0.0263    39.3751 </r>
       <r>    13.3116     0.9640    39.4884 </r>
       <r>    13.4292     1.1608    39.6248 </r>
       <r>    13.5467     0.0014    39.6250 </r>
       <r>    13.6643     0.0000    39.6250 </r>
       <r>    13.7818     0.0091    39.6261 </r>
       <r>    13.8993     2.8716    39.9636 </r>
       <r>    14.0169     1.6096    40.1528 </r>
       <r>    14.1344     2.8581    40.4888 </r>
       <r>    14.2520     1.5393    40.6697 </r>
       <r>    14.3695     6.8324    41.4728 </r>
       <r>    14.4871    12.8506    42.9833 </r>
       <r>    14.6046     5.1390    43.5873 </r>
       <r>    14.7222     3.4635    43.9945 </r>
       <r>    14.8397     6.4077    44.7476 </r>
       <r>    14.9572     0.0200    44.7500 </r>
       <r>    15.0748     0.0028    44.7503 </r>
       <r>    15.1923     3.9592    45.2157 </r>
       <r>    15.3099     7.1333    46.0542 </r>
       <r>    15.4274    14.5481    47.7642 </r>
       <r>    15.5450     4.1304    48.2497 </r>
       <r>    15.6625     0.0024    48.2500 </r>
       <r>    15.7800     0.3987    48.2969 </r>
       <r>    15.8976     2.7499    48.6201 </r>
       <r>    16.0151     2.4515    48.9083 </r>
       <r>    16.1327     7.2777    49.7637 </r>
       <r>    16.2502    12.3679    51.2175 </r>
       <r>    16.3678     1.3400    51.3750 </r>
       <r>    16.4853     0.0002    51.3750 </r>
       <r>    16.6029     0.1238    51.3896 </r>
       <r>    16.7204     2.8767    51.7277 </r>
       <r>    16.8379     0.1898    51.7500 </r>
       <r>    16.9555     0.0000    51.7500 </r>
       <r>    17.0730     0.0000    51.7500 </r>
       <r>    17.1906     0.0000    51.7500 </r>
       <r>    17.3081     0.0000    51.7500 </r>
       <r>    17.4257     0.0000    51.7500 </r>
       <r>    17.5432     0.0000    51.7500 </r>
       <r>    17.6607     0.0000    51.7500 </r>
       <r>    17.7783     0.0000    51.7500 </r>
       <r>    17.8958     0.0000    51.7500 </r>
       <r>    18.0134     0.3393    51.7899 </r>
       <r>    18.1309     1.7661    51.9975 </r>
       <r>    18.2485     0.0215    52.0000 </r>
       <r>    18.3660     0.0000    52.0000 </r>
       <r>    18.4836     0.0000    52.0000 </r>
       <r>    18.6011     0.0000    52.0000 </r>
       <r>    18.7186     0.0000    52.0000 </r>
       <r>    18.8362     0.0000    52.0000 </r>
       <r>    18.9537     0.0000    52.0000 </r>
       <r>    19.0713     0.0000    52.0000 </r>
       <r>    19.1888     0.0000    52.0000 </r>
       <r>    19.3064     0.0000    52.0000 </r>
       <r>    19.4239     0.0000    52.0000 </r>
       <r>    19.5414     0.0000    52.0000 </r>
       <r>    19.6590     0.0000    52.0000 </r>
      </set>
      <set comment="spin 2">
       <r>   -15.6041     0.0000     0.0000 </r>
       <r>   -15.4866     0.0000     0.0000 </r>
       <r>   -15.3690     0.0000     0.0000 </r>
       <r>   -15.2515     0.0000     0.0000 </r>
       <r>   -15.1339     0.0000     0.0000 </r>
       <r>   -15.0164     0.0000     0.0000 </r>
       <r>   -14.8989     0.0000     0.0000 </r>
       <r>   -14.7813     0.0000     0.0000 </r>
       <r>   -14.6638     0.0000     0.0000 </r>
       <r>   -14.5462     0.0000     0.0000 </r>
       <r>   -14.4287     0.0000     0.0000 </r>
       <r>   -14.3111     0.0000     0.0000 </r>
       <r>   -14.1936     0.0000     0.0000 </r>
       <r>   -14.0760     0.0183     0.0021 </r>
       <r>   -13.9585     0.9246     0.1108 </r>
       <r>   -13.8410     0.1205     0.1250 </r>
       <r>   -13.7234     0.0013     0.1252 </r>
       <r>   -13.6059     1.9644     0.3561 </r>
       <r>   -13.4883     3.9878     0.8248 </r>
       <r>   -13.3708     1.5091     1.0022 </r>
       <r>   -13.2532     3.2348     1.3824 </r>
       <r>   -13.1357     1.5630     1.5662 </r>
       <r>   -13.0182     2.6028     1.8721 </r>
       <r>   -12.9006     3.0107     2.2260 </r>
       <r>   -12.7831    11.4229     3.5687 </r>
       <r>   -12.6655     7.3085     4.4277 </r>
       <r>   -12.5480     8.2444     5.3968 </r>
       <r>   -12.4304     4.8202     5.9634 </r>
       <r>   -12.3129     0.3113     6.0000 </r>
       <r>   -12.1953     0.5002     6.0588 </r>
       <r>   -12.0778     8.4652     7.0538 </r>
       <r>   -11.9603     7.8059     7.9714 </r>
       <r>   -11.8427     0.2437     8.0000 </r>
       <r>   -11.7252     0.0000     8.0000 </r>
       <r>   -11.6076     0.0000     8.0000 </r>
       <r>   -11.4901     0.0000     8.0000 </r>
       <r>   -11.3725     0.0000     8.0000 </r>
       <r>   -11.2550     0.0000     8.0000 </r>
       <r>   -11.1375     0.0000     8.0000 </r>
       <r>   -11.0199     0.0000     8.0000 </r>
       <r>   -10.9024     0.0000     8.0000 </r>
       <r>   -10.7848     0.0000     8.0000 </r>
       <r>   -10.6673     0.0000     8.0000 </r>
       <r>   -10.5497     0.0000     8.0000 </r>
       <r>   -10.4322     0.0000     8.0000 </r>
       <r>   -10.3146     0.0000     8.0000 </r>
       <r>   -10.1971     0.0000     8.0000 </r>
       <r>   -10.0796     0.0000     8.0000 </r>
       <r>    -9.9620     0.0000     8.0000 </r>
       <r>    -9.8445     0.0000     8.0000 </r>
       <r>    -9.7269     0.0000     8.0000 </r>
       <r>    -9.6094     0.0000     8.0000 </r>
       <r>    -9.4918     0.0000     8.0000 </r>
       <r>    -9.3743     0.0000     8.0000 </r>
       <r>    -9.2568     0.0000     8.0000 </r>
       <r>    -9.1392     0.0000     8.0000 </r>
       <r>    -9.0217     0.0000     8.0000 </r>
       <r>    -8.9041     0.0000     8.0000 </r>
       <r>    -8.7866     0.0000     8.0000 </r>
       <r>    -8.6690     0.0000     8.0000 </r>
       <r>    -8.5515     0.0000     8.0000 </r>
       <r>    -8.4339     0.0000     8.0000 </r>
       <r>    -8.3164     0.0000     8.0000 </r>
       <r>    -8.1989     0.0000     8.0000 </r>
       <r>    -8.0813     0.0000     8.0000 </r>
       <r>    -7.9638     0.0000     8.0000 </r>
       <r>    -7.8462     0.0000     8.0000 </r>
       <r>    -7.7287     0.0000     8.0000 </r>
       <r>    -7.6111     0.0000     8.0000 </r>
       <r>    -7.4936     0.0000     8.0000 </r>
       <r>    -7.3761     0.0000     8.0000 </r>
       <r>    -7.2585     0.0000     8.0000 </r>
       <r>    -7.1410     0.0000     8.0000 </r>
       <r>    -7.0234     0.0000     8.0000 </r>
       <r>    -6.9059     0.0000     8.0000 </r>
       <r>    -6.7883     0.0000     8.0000 </r>
       <r>    -6.6708     0.0000     8.0000 </r>
       <r>    -6.5533     0.0000     8.0000 </r>
       <r>    -6.4357     0.0000     8.0000 </r>
       <r>    -6.3182     0.0000     8.0000 </r>
       <r>    -6.2006     0.0000     8.0000 </r>
       <r>    -6.0831     0.0000     8.0000 </r>
       <r>    -5.9655     0.0000     8.0000 </r>
       <r>    -5.8480     0.0000     8.0000 </r>
       <r>    -5.7304     0.0000     8.0000 </r>
       <r>    -5.6129     0.0000     8.0000 </r>
       <r>    -5.4954     0.0000     8.0000 </r>
       <r>    -5.3778     0.0000     8.0000 </r>
       <r>    -5.2603     0.0000     8.0000 </r>
       <r>    -5.1427     0.0000     8.0000 </r>
       <r>    -5.0252     0.0000     8.0000 </r>
       <r>    -4.9076     0.0000     8.0000 </r>
       <r>    -4.7901     0.0000     8.0000 </r>
       <r>    -4.6726     0.0000     8.0000 </r>
       <r>    -4.5550     0.0000     8.0000 </r>
       <r>    -4.4375     0.0000     8.0000 </r>
       <r>    -4.3199     0.0000     8.0000 </r>
       <r>    -4.2024     0.0000     8.0000 </r>
       <r>    -4.0848     0.0000     8.0000 </r>
       <r>    -3.9673     0.0000     8.0000 </r>
       <r>    -3.8497     0.0000     8.0000 </r>
       <r>    -3.7322     0.0000     8.0000 </r>
       <r>    -3.6147     0.0000     8.0000 </r>
       <r>    -3.4971     0.0000     8.0000 </r>
       <r>    -3.3796     0.0000     8.0000 </r>
       <r>    -3.2620     0.0000     8.0000 </r>
       <r>    -3.1445     0.0000     8.0000 </r>
       <r>    -3.0269     0.0000     8.0000 </r>
       <r>    -2.9094     0.0000     8.0000 </r>
       <r>    -2.7919     0.0000     8.0000 </r>
       <r>    -2.6743     0.0000     8.0000 </r>
       <r>    -2.5568     0.0000     8.0000 </r>
       <r>    -2.4392     0.0000     8.0000 </r>
       <r>    -2.3217     0.0115     8.0014 </r>
       <r>    -2.2041     0.8903     8.1060 </r>
       <r>    -2.0866     0.1616     8.1250 </r>
       <r>    -1.9690     0.0000     8.1250 </r>
       <r>    -1.8515     0.0000     8.1250 </r>
       <r>    -1.7340     0.0000     8.1250 </r>
       <r>    -1.6164     0.0000     8.1250 </r>
       <r>    -1.4989     0.0212     8.1275 </r>
       <r>    -1.3813     3.2640     8.5112 </r>
       <r>    -1.2638     1.0084     8.6297 </r>
       <r>    -1.1462     2.7222     8.9497 </r>
       <r>    -1.0287     2.8972     9.2902 </r>
       <r>    -0.9112     3.1451     9.6599 </r>
       <r>    -0.7936     4.8524    10.2303 </r>
       <r>    -0.6761     0.1679    10.2500 </r>
       <r>    -0.5585     0.0000    10.2500 </r>
       <r>    -0.4410     0.0459    10.2554 </r>
       <r>    -0.3234    10.2516    11.4604 </r>
       <r>    -0.2059     6.8560    12.2663 </r>
       <r>    -0.0883     6.6711    13.0504 </r>
       <r>     0.0292     2.7603    13.3749 </r>
       <r>     0.1467     1.4660    13.5472 </r>
       <r>     0.2643     4.8845    14.1213 </r>
       <r>     0.3818     2.2743    14.3887 </r>
       <r>     0.4994     8.8262    15.4261 </r>
       <r>     0.6169     5.7685    16.1042 </r>
       <r>     0.7345     1.2946    16.2564 </r>
       <r>     0.8520     3.1233    16.6235 </r>
       <r>     0.9695     2.4642    16.9131 </r>
       <r>     1.0871     9.0072    17.9719 </r>
       <r>     1.2046     0.2395    18.0000 </r>
       <r>     1.3222     2.3108    18.2717 </r>
       <r>     1.4397    11.8268    19.6618 </r>
       <r>     1.5573     1.9483    19.8908 </r>
       <r>     1.6748     1.9934    20.1251 </r>
       <r>     1.7924     3.7941    20.5711 </r>
       <r>     1.9099    10.4216    21.7961 </r>
       <r>     2.0274     6.9490    22.6129 </r>
       <r>     2.1450     1.6436    22.8061 </r>
       <r>     2.2625    15.5277    24.6313 </r>
[...]
        <r>  0.0013  0.0038  0.0009  0.0002  0.0000  0.0000  0.0000  0.0000  0.0000 </r>
        <r>  0.0193  0.0138  0.0066  0.0104  0.0000  0.0000  0.0000  0.0000  0.0000 </r>
        <r>  0.0107  0.0089  0.0016  0.0075  0.0000  0.0000  0.0000  0.0000  0.0000 </r>
        <r>  0.0105  0.0090  0.0017  0.0077  0.0000  0.0000  0.0000  0.0000  0.0000 </r>
        <r>  0.0195  0.0136  0.0066  0.0103  0.0000  0.0000  0.0000  0.0000  0.0000 </r>
        <r>  0.0013  0.0036  0.0010  0.0002  0.0000  0.0000  0.0000  0.0000  0.0000 </r>
        <r>  0.0000  0.0006  0.0000  0.0003  0.0000  0.0000  0.0000  0.0000  0.0000 </r>
       </set>
       <set comment="band 41">
        <r>  0.0832  0.0000  0.0000  0.0000  0.0000  0.0000  0.0000  0.0000  0.0000 </r>
        <r>  0.0000  0.0003  0.0044  0.0003  0.0000  0.0000  0.0000  0.0000  0.0000 </r>
        <r>  0.0000  0.0044  0.0003  0.0003  0.0000  0.0000  0.0000  0.0000  0.0000 </r>
        <r>  0.0035  0.0000  0.0000  0.0000  0.0044  0.0082  0.0001  0.0045  0.0003 </r>
        <r>  0.0000  0.0003  0.0003  0.0044  0.0000  0.0000  0.0000  0.0000  0.0000 </r>
        <r>  0.0035  0.0000  0.0000  0.0000  0.0044  0.0044  0.0001  0.0082  0.0003 </r>
        <r>  0.0036  0.0000  0.0000  0.0000  0.0082  0.0044  0.0003  0.0045  0.0000 </r>
        <r>  0.0000  0.0043  0.0043  0.0043  0.0000  0.0000  0.0000  0.0000  0.0000 </r>
        <r>  0.0007  0.0101  0.0103  0.0101  0.0000  0.0000  0.0000  0.0000  0.0000 </r>
        <r>  0.0000  0.0000  0.0352  0.0000  0.0000  0.0000  0.0000  0.0000  0.0000 </r>
        <r>  0.0000  0.0351  0.0000  0.0000  0.0000  0.0000  0.0000  0.0000  0.0000 </r>
        <r>  0.0000  0.0000  0.0000  0.0358  0.0000  0.0000  0.0000  0.0000  0.0000 </r>
        <r>  0.0000  0.0000  0.0000  0.0351  0.0000  0.0000  0.0000  0.0000  0.0000 </r>
        <r>  0.0000  0.0358  0.0000  0.0000  0.0000  0.0000  0.0000  0.0000  0.0000 </r>
        <r>  0.0000  0.0000  0.0356  0.0000  0.0000  0.0000  0.0000  0.0000  0.0000 </r>
        <r>  0.0007  0.0102  0.0103  0.0103  0.0000  0.0000  0.0000  0.0000  0.0000 </r>
       </set>
       <set comment="band 42">
        <r>  0.0000  0.0035  0.0039  0.0037  0.0000  0.0000  0.0000  0.0000  0.0000 </r>
        <r>  0.0094  0.0000  0.0000  0.0000  0.0122  0.0011  0.0000  0.0010  0.0000 </r>
        <r>  0.0116  0.0000  0.0000  0.0000  0.0011  0.0010  0.0000  0.0116  0.0000 </r>
        <r>  0.0000  0.0023  0.0022  0.0000  0.0000  0.0000  0.0000  0.0000  0.0000 </r>
        <r>  0.0104  0.0000  0.0000  0.0000  0.0011  0.0119  0.0000  0.0009  0.0000 </r>
        <r>  0.0000  0.0000  0.0022  0.0023  0.0000  0.0000  0.0000  0.0000  0.0000 </r>
        <r>  0.0000  0.0023  0.0000  0.0023  0.0000  0.0000  0.0000  0.0000  0.0000 </r>
        <r>  0.1066  0.0000  0.0000  0.0000  0.0059  0.0057  0.0000  0.0053  0.0000 </r>
        <r>  0.0023  0.0069  0.0058  0.0063  0.0000  0.0000  0.0000  0.0000  0.0000 </r>
        <r>  0.0008  0.0009  0.0339  0.0012  0.0000  0.0000  0.0000  0.0000  0.0000 </r>
        <r>  0.0007  0.0336  0.0010  0.0008  0.0000  0.0000  0.0000  0.0000  0.0000 </r>
        <r>  0.0007  0.0008  0.0012  0.0331  0.0000  0.0000  0.0000  0.0000  0.0000 </r>
        <r>  0.0007  0.0008  0.0012  0.0339  0.0000  0.0000  0.0000  0.0000  0.0000 </r>
        <r>  0.0006  0.0330  0.0010  0.0008  0.0000  0.0000  0.0000  0.0000  0.0000 </r>
        <r>  0.0008  0.0009  0.0335  0.0011  0.0000  0.0000  0.0000  0.0000  0.0000 </r>
        <r>  0.0022  0.0068  0.0059  0.0062  0.0000  0.0000  0.0000  0.0000  0.0000 </r>
       </set>
       <set comment="band 43">
        <r>  0.0000  0.0003  0.0045  0.0027  0.0000  0.0000  0.0000  0.0000  0.0000 </r>
        <r>  0.0831  0.0000  0.0000  0.0000  0.0050  0.0008  0.0002  0.0003  0.0001 </r>
        <r>  0.0048  0.0000  0.0000  0.0000  0.0062  0.0060  0.0004  0.0004  0.0003 </r>
        <r>  0.0000  0.0001  0.0019  0.0002  0.0000  0.0000  0.0000  0.0000  0.0000 </r>
        <r>  0.0465  0.0000  0.0000  0.0000  0.0034  0.0031  0.0001  0.0028  0.0003 </r>
        <r>  0.0000  0.0000  0.0019  0.0010  0.0000  0.0000  0.0000  0.0000  0.0000 </r>
        <r>  0.0000  0.0001  0.0004  0.0010  0.0000  0.0000  0.0000  0.0000  0.0000 </r>
        <r>  0.0000  0.0000  0.0000  0.0000  0.0143  0.0085  0.0010  0.0009  0.0001 </r>
        <r>  0.0000  0.0019  0.0336  0.0188  0.0000  0.0000  0.0000  0.0000  0.0000 </r>
        <r>  0.0063  0.0125  0.0005  0.0002  0.0000  0.0000  0.0000  0.0000  0.0000 </r>
        <r>  0.0004  0.0001  0.0225  0.0329  0.0000  0.0000  0.0000  0.0000  0.0000 </r>
        <r>  0.0037  0.0275  0.0047  0.0004  0.0000  0.0000  0.0000  0.0000  0.0000 </r>
        <r>  0.0037  0.0274  0.0048  0.0004  0.0000  0.0000  0.0000  0.0000  0.0000 </r>
        <r>  0.0004  0.0001  0.0223  0.0330  0.0000  0.0000  0.0000  0.0000  0.0000 </r>
        <r>  0.0063  0.0124  0.0005  0.0002  0.0000  0.0000  0.0000  0.0000  0.0000 </r>
        <r>  0.0000  0.0019  0.0339  0.0188  0.0000  0.0000  0.0000  0.0000  0.0000 </r>
       </set>
       <set comment="band 44">
        <r>  0.0000  0.0048  0.0004  0.0023  0.0000  0.0000  0.0000  0.0000  0.0000 </r>
        <r>  0.0075  0.0000  0.0000  0.0000  0.0004  0.0057  0.0000  0.0063  0.0006 </r>
        <r>  0.0837  0.0000  0.0000  0.0000  0.0002  0.0005  0.0002  0.0056  0.0001 </r>
        <r>  0.0000  0.0018  0.0002  0.0002  0.0000  0.0000  0.0000  0.0000  0.0000 </r>
        <r>  0.0432  0.0000  0.0000  0.0000  0.0029  0.0025  0.0005  0.0039  0.0000 </r>
        <r>  0.0000  0.0004  0.0002  0.0010  0.0000  0.0000  0.0000  0.0000  0.0000 </r>
        <r>  0.0000  0.0018  0.0000  0.0010  0.0000  0.0000  0.0000  0.0000  0.0000 </r>
        <r>  0.0000  0.0000  0.0000  0.0000  0.0012  0.0073  0.0001  0.0152  0.0010 </r>
        <r>  0.0000  0.0337  0.0031  0.0176  0.0000  0.0000  0.0000  0.0000  0.0000 </r>
        <r>  0.0005  0.0211  0.0000  0.0329  0.0000  0.0000  0.0000  0.0000  0.0000 </r>
        <r>  0.0066  0.0007  0.0111  0.0007  0.0000  0.0000  0.0000  0.0000  0.0000 </r>
        <r>  0.0032  0.0061  0.0285  0.0002  0.0000  0.0000  0.0000  0.0000  0.0000 </r>
        <r>  0.0032  0.0061  0.0284  0.0002  0.0000  0.0000  0.0000  0.0000  0.0000 </r>
        <r>  0.0066  0.0007  0.0110  0.0006  0.0000  0.0000  0.0000  0.0000  0.0000 </r>
        <r>  0.0005  0.0209  0.0000  0.0330  0.0000  0.0000  0.0000  0.0000  0.0000 </r>
        <r>  0.0000  0.0337  0.0031  0.0176  0.0000  0.0000  0.0000  0.0000  0.0000 </r>
       </set>
       <set comment="band 45">
        <r>  0.0000  0.0000  0.0000  0.0000  0.0000  0.0000  0.0000  0.0000  0.0000 </r>
        <r>  0.0000  0.0002  0.0002  0.0000  0.0000  0.0000  0.0000  0.0000  0.0000 </r>
        <r>  0.0000  0.0022  0.0008  0.0010  0.0000  0.0000  0.0000  0.0000  0.0000 </r>
        <r>  0.0283  0.0000  0.0000  0.0000  0.0043  0.0027  0.0001  0.0096  0.0000 </r>
        <r>  0.0000  0.0007  0.0002  0.0011  0.0000  0.0000  0.0000  0.0000  0.0000 </r>
        <r>  0.0557  0.0000  0.0000  0.0000  0.0000  0.0026  0.0000  0.0054  0.0000 </r>
        <r>  0.0045  0.0000  0.0000  0.0000  0.0004  0.0106  0.0000  0.0133  0.0001 </r>
        <r>  0.0000  0.0005  0.0000  0.0002  0.0000  0.0000  0.0000  0.0000  0.0000 </r>
        <r>  0.0000  0.0296  0.0024  0.0153  0.0000  0.0000  0.0000  0.0000  0.0000 </r>
        <r>  0.0001  0.0162  0.0000  0.0331  0.0000  0.0000  0.0000  0.0000  0.0000 </r>
        <r>  0.0017  0.0000  0.0170  0.0028  0.0000  0.0000  0.0000  0.0000  0.0000 </r>
        <r>  0.0009  0.0024  0.0331  0.0000  0.0000  0.0000  0.0000  0.0000  0.0000 </r>
        <r>  0.0009  0.0024  0.0334  0.0000  0.0000  0.0000  0.0000  0.0000  0.0000 </r>
        <r>  0.0017  0.0000  0.0174  0.0029  0.0000  0.0000  0.0000  0.0000  0.0000 </r>
        <r>  0.0001  0.0163  0.0000  0.0326  0.0000  0.0000  0.0000  0.0000  0.0000 </r>
        <r>  0.0000  0.0300  0.0024  0.0149  0.0000  0.0000  0.0000  0.0000  0.0000 </r>
       </set>
       <set comment="band 46">
        <r>  0.0000  0.0000  0.0000  0.0000  0.0000  0.0000  0.0000  0.0000  0.0000 </r>
        <r>  0.0000  0.0007  0.0021  0.0009  0.0000  0.0000  0.0000  0.0000  0.0000 </r>
        <r>  0.0000  0.0001  0.0002  0.0000  0.0000  0.0000  0.0000  0.0000  0.0000 </r>
        <r>  0.0307  0.0000  0.0000  0.0000  0.0093  0.0029  0.0000  0.0038  0.0000 </r>
        <r>  0.0000  0.0003  0.0007  0.0012  0.0000  0.0000  0.0000  0.0000  0.0000 </r>
        <r>  0.0034  0.0000  0.0000  0.0000  0.0136  0.0109  0.0001  0.0003  0.0000 </r>
        <r>  0.0543  0.0000  0.0000  0.0000  0.0053  0.0029  0.0000  0.0001  0.0000 </r>
        <r>  0.0000  0.0000  0.0005  0.0002  0.0000  0.0000  0.0000  0.0000  0.0000 </r>
        <r>  0.0000  0.0019  0.0289  0.0165  0.0000  0.0000  0.0000  0.0000  0.0000 </r>
        <r>  0.0016  0.0185  0.0001  0.0022  0.0000  0.0000  0.0000  0.0000  0.0000 </r>
        <r>  0.0001  0.0000  0.0177  0.0320  0.0000  0.0000  0.0000  0.0000  0.0000 </r>
        <r>  0.0009  0.0324  0.0018  0.0000  0.0000  0.0000  0.0000  0.0000  0.0000 </r>
        <r>  0.0009  0.0325  0.0018  0.0000  0.0000  0.0000  0.0000  0.0000  0.0000 </r>
        <r>  0.0001  0.0000  0.0179  0.0319  0.0000  0.0000  0.0000  0.0000  0.0000 </r>
        <r>  0.0016  0.0187  0.0000  0.0023  0.0000  0.0000  0.0000  0.0000  0.0000 </r>
        <r>  0.0000  0.0018  0.0291  0.0162  0.0000  0.0000  0.0000  0.0000  0.0000 </r>
       </set>
       <set comment="band 47">
        <r>  0.0242  0.0000  0.0000  0.0000  0.0000  0.0000  0.0000  0.0000  0.0000 </r>
        <r>  0.0000  0.0139  0.0114  0.0140  0.0000  0.0000  0.0000  0.0000  0.0000 </r>
        <r>  0.0000  0.0115  0.0137  0.0138  0.0000  0.0000  0.0000  0.0000  0.0000 </r>
        <r>  0.0071  0.0000  0.0000  0.0000  0.0001  0.0070  0.0002  0.0001  0.0006 </r>
        <r>  0.0000  0.0138  0.0138  0.0115  0.0000  0.0000  0.0000  0.0000  0.0000 </r>
        <r>  0.0071  0.0000  0.0000  0.0000  0.0001  0.0001  0.0002  0.0070  0.0006 </r>
        <r>  0.0073  0.0000  0.0000  0.0000  0.0070  0.0001  0.0008  0.0001  0.0000 </r>
        <r>  0.0000  0.0119  0.0117  0.0118  0.0000  0.0000  0.0000  0.0000  0.0000 </r>
        <r>  0.0023  0.0154  0.0153  0.0152  0.0000  0.0000  0.0000  0.0000  0.0000 </r>
        <r>  0.0021  0.0055  0.0069  0.0055  0.0000  0.0000  0.0000  0.0000  0.0000 </r>
        <r>  0.0022  0.0069  0.0055  0.0056  0.0000  0.0000  0.0000  0.0000  0.0000 </r>
        <r>  0.0021  0.0052  0.0051  0.0072  0.0000  0.0000  0.0000  0.0000  0.0000 </r>
        <r>  0.0022  0.0056  0.0055  0.0069  0.0000  0.0000  0.0000  0.0000  0.0000 </r>
        <r>  0.0022  0.0072  0.0052  0.0052  0.0000  0.0000  0.0000  0.0000  0.0000 </r>
        <r>  0.0022  0.0053  0.0072  0.0052  0.0000  0.0000  0.0000  0.0000  0.0000 </r>
        <r>  0.0024  0.0147  0.0145  0.0148  0.0000  0.0000  0.0000  0.0000  0.0000 </r>
       </set>
       <set comment="band 48">
        <r>  0.0000  0.0023  0.0023  0.0023  0.0000  0.0000  0.0000  0.0000  0.0000 </r>
        <r>  0.0134  0.0000  0.0000  0.0000  0.0020  0.0127  0.0001  0.0127  0.0000 </r>
        <r>  0.0138  0.0000  0.0000  0.0000  0.0127  0.0127  0.0000  0.0020  0.0001 </r>
        <r>  0.0000  0.0024  0.0025  0.0067  0.0000  0.0000  0.0000  0.0000  0.0000 </r>
        <r>  0.0135  0.0000  0.0000  0.0000  0.0127  0.0020  0.0000  0.0127  0.0001 </r>
        <r>  0.0000  0.0067  0.0024  0.0024  0.0000  0.0000  0.0000  0.0000  0.0000 </r>
        <r>  0.0000  0.0025  0.0067  0.0025  0.0000  0.0000  0.0000  0.0000  0.0000 </r>
        <r>  0.0003  0.0000  0.0000  0.0000  0.0042  0.0042  0.0000  0.0042  0.0000 </r>
        <r>  0.0000  0.0141  0.0139  0.0135  0.0000  0.0000  0.0000  0.0000  0.0000 </r>
        <r>  0.0000  0.0064  0.0012  0.0062  0.0000  0.0000  0.0000  0.0000  0.0000 </r>
        <r>  0.0000  0.0011  0.0063  0.0060  0.0000  0.0000  0.0000  0.0000  0.0000 </r>
        <r>  0.0000  0.0065  0.0067  0.0010  0.0000  0.0000  0.0000  0.0000  0.0000 </r>
        <r>  0.0000  0.0061  0.0061  0.0012  0.0000  0.0000  0.0000  0.0000  0.0000 </r>
        <r>  0.0001  0.0010  0.0063  0.0065  0.0000  0.0000  0.0000  0.0000  0.0000 </r>
        <r>  0.0001  0.0062  0.0010  0.0066  0.0000  0.0000  0.0000  0.0000  0.0000 </r>
        <r>  0.0000  0.0145  0.0144  0.0148  0.0000  0.0000  0.0000  0.0000  0.0000 </r>
       </set>
       <set comment="band 49">
        <r>  0.0000  0.0000  0.0000  0.0000  0.0000  0.0000  0.0000  0.0000  0.0000 </r>
        <r>  0.0000  0.0148  0.0019  0.0033  0.0000  0.0000  0.0000  0.0000  0.0000 </r>
        <r>  0.0000  0.0203  0.0077  0.0165  0.0000  0.0000  0.0000  0.0000  0.0000 </r>
        <r>  0.0709  0.0000  0.0000  0.0000  0.0016  0.0002  0.0000  0.0006  0.0000 </r>
        <r>  0.0000  0.0204  0.0000  0.0096  0.0000  0.0000  0.0000  0.0000  0.0000 </r>
        <r>  0.1471  0.0000  0.0000  0.0000  0.0004  0.0000  0.0000  0.0004  0.0000 </r>
        <r>  0.0144  0.0000  0.0000  0.0000  0.0000  0.0021  0.0000  0.0014  0.0000 </r>
        <r>  0.0000  0.0205  0.0019  0.0096  0.0000  0.0000  0.0000  0.0000  0.0000 </r>
        <r>  0.0000  0.0002  0.0000  0.0001  0.0000  0.0000  0.0000  0.0000  0.0000 </r>
        <r>  0.0000  0.0025  0.0008  0.0000  0.0000  0.0000  0.0000  0.0000  0.0000 </r>
        <r>  0.0002  0.0098  0.0054  0.0073  0.0000  0.0000  0.0000  0.0000  0.0000 </r>
        <r>  0.0001  0.0055  0.0011  0.0048  0.0000  0.0000  0.0000  0.0000  0.0000 </r>
        <r>  0.0001  0.0055  0.0011  0.0044  0.0000  0.0000  0.0000  0.0000  0.0000 </r>
        <r>  0.0002  0.0099  0.0057  0.0078  0.0000  0.0000  0.0000  0.0000  0.0000 </r>
        <r>  0.0000  0.0025  0.0010  0.0000  0.0000  0.0000  0.0000  0.0000  0.0000 </r>
        <r>  0.0000  0.0002  0.0000  0.0001  0.0000  0.0000  0.0000  0.0000  0.0000 </r>
       </set>
       <set comment="band 50">
        <r>  0.0000  0.0000  0.0000  0.0000  0.0000  0.0000  0.0000  0.0000  0.0000 </r>
        <r>  0.0000  0.0058  0.0193  0.0176  0.0000  0.0000  0.0000  0.0000  0.0000 </r>
        <r>  0.0000  0.0010  0.0135  0.0046  0.0000  0.0000  0.0000  0.0000  0.0000 </r>
        <r>  0.0842  0.0000  0.0000  0.0000  0.0005  0.0002  0.0000  0.0014  0.0000 </r>
        <r>  0.0000  0.0003  0.0211  0.0116  0.0000  0.0000  0.0000  0.0000  0.0000 </r>
        <r>  0.0071  0.0000  0.0000  0.0000  0.0017  0.0020  0.0000  0.0000  0.0000 </r>
        <r>  0.1407  0.0000  0.0000  0.0000  0.0004  0.0000  0.0000  0.0006  0.0000 </r>
        <r>  0.0000  0.0010  0.0194  0.0117  0.0000  0.0000  0.0000  0.0000  0.0000 </r>
        <r>  0.0000  0.0000  0.0002  0.0001  0.0000  0.0000  0.0000  0.0000  0.0000 </r>
        <r>  0.0002  0.0049  0.0091  0.0074  0.0000  0.0000  0.0000  0.0000  0.0000 </r>
        <r>  0.0000  0.0006  0.0021  0.0001  0.0000  0.0000  0.0000  0.0000  0.0000 </r>
        <r>  0.0001  0.0019  0.0064  0.0055  0.0000  0.0000  0.0000  0.0000  0.0000 </r>
        <r>  0.0001  0.0017  0.0063  0.0058  0.0000  0.0000  0.0000  0.0000  0.0000 </r>
        <r>  0.0000  0.0004  0.0021  0.0001  0.0000  0.0000  0.0000  0.0000  0.0000 </r>
        <r>  0.0002  0.0046  0.0096  0.0073  0.0000  0.0000  0.0000  0.0000  0.0000 </r>
        <r>  0.0000  0.0000  0.0001  0.0001  0.0000  0.0000  0.0000  0.0000  0.0000 </r>
       </set>
       <set comment="band 51">
        <r>  0.0000  0.0329  0.0350  0.0339  0.0000  0.0000  0.0000  0.0000  0.0000 </r>
        <r>  0.0095  0.0000  0.0000  0.0000  0.0023  0.0009  0.0003  0.0008  0.0000 </r>
        <r>  0.0112  0.0000  0.0000  0.0000  0.0009  0.0009  0.0001  0.0023  0.0002 </r>
        <r>  0.0000  0.0121  0.0123  0.0056  0.0000  0.0000  0.0000  0.0000  0.0000 </r>
        <r>  0.0104  0.0000  0.0000  0.0000  0.0009  0.0023  0.0001  0.0008  0.0002 </r>
        <r>  0.0000  0.0054  0.0125  0.0124  0.0000  0.0000  0.0000  0.0000  0.0000 </r>
        <r>  0.0000  0.0119  0.0058  0.0119  0.0000  0.0000  0.0000  0.0000  0.0000 </r>
        <r>  0.0497  0.0000  0.0000  0.0000  0.0007  0.0007  0.0000  0.0007  0.0000 </r>
        <r>  0.0003  0.0097  0.0097  0.0097  0.0000  0.0000  0.0000  0.0000  0.0000 </r>
        <r>  0.0000  0.0062  0.0108  0.0062  0.0000  0.0000  0.0000  0.0000  0.0000 </r>
        <r>  0.0000  0.0098  0.0068  0.0066  0.0000  0.0000  0.0000  0.0000  0.0000 </r>
        <r>  0.0000  0.0065  0.0065  0.0101  0.0000  0.0000  0.0000  0.0000  0.0000 </r>
        <r>  0.0000  0.0064  0.0066  0.0102  0.0000  0.0000  0.0000  0.0000  0.0000 </r>
        <r>  0.0000  0.0099  0.0065  0.0065  0.0000  0.0000  0.0000  0.0000  0.0000 </r>
        <r>  0.0000  0.0065  0.0101  0.0065  0.0000  0.0000  0.0000  0.0000  0.0000 </r>
        <r>  0.0003  0.0096  0.0096  0.0096  0.0000  0.0000  0.0000  0.0000  0.0000 </r>
       </set>
       <set comment="band 52">
        <r>  0.0024  0.0000  0.0000  0.0000  0.0000  0.0000  0.0000  0.0000  0.0000 </r>
        <r>  0.0000  0.0041  0.0018  0.0039  0.0000  0.0000  0.0000  0.0000  0.0000 </r>
        <r>  0.0000  0.0015  0.0037  0.0037  0.0000  0.0000  0.0000  0.0000  0.0000 </r>
        <r>  0.0102  0.0000  0.0000  0.0000  0.0106  0.0038  0.0000  0.0110  0.0001 </r>
        <r>  0.0000  0.0041  0.0037  0.0017  0.0000  0.0000  0.0000  0.0000  0.0000 </r>
        <r>  0.0112  0.0000  0.0000  0.0000  0.0108  0.0108  0.0000  0.0038  0.0001 </r>
        <r>  0.0099  0.0000  0.0000  0.0000  0.0039  0.0106  0.0001  0.0109  0.0000 </r>
        <r>  0.0000  0.0026  0.0029  0.0028  0.0000  0.0000  0.0000  0.0000  0.0000 </r>
        <r>  0.0006  0.0067  0.0070  0.0070  0.0000  0.0000  0.0000  0.0000  0.0000 </r>
        <r>  0.0000  0.0109  0.0017  0.0107  0.0000  0.0000  0.0000  0.0000  0.0000 </r>
        <r>  0.0000  0.0017  0.0107  0.0108  0.0000  0.0000  0.0000  0.0000  0.0000 </r>
        <r>  0.0000  0.0110  0.0106  0.0018  0.0000  0.0000  0.0000  0.0000  0.0000 </r>
        <r>  0.0000  0.0110  0.0107  0.0017  0.0000  0.0000  0.0000  0.0000  0.0000 </r>
        <r>  0.0000  0.0016  0.0105  0.0106  0.0000  0.0000  0.0000  0.0000  0.0000 </r>
        <r>  0.0000  0.0111  0.0019  0.0108  0.0000  0.0000  0.0000  0.0000  0.0000 </r>
        <r>  0.0006  0.0067  0.0069  0.0068  0.0000  0.0000  0.0000  0.0000  0.0000 </r>
       </set>
      </set>
     </set>
    </set>
   </array>
  </projected>
 </calculation>
 <structure name="finalpos" >
  <crystal>
   <varray name="basis" >
    <v>       0.00000000       4.24689300       4.24689300 </v>
    <v>       4.24689300       0.00000000       4.24689300 </v>
    <v>       4.24689300       4.24689300       0.00000000 </v>
   </varray>
   <i name="volume">    153.19477498 </i>
   <varray name="rec_basis" >
    <v>      -0.11773313       0.11773313       0.11773313 </v>
    <v>       0.11773313      -0.11773313       0.11773313 </v>
    <v>       0.11773313       0.11773313      -0.11773313 </v>
   </varray>
  </crystal>
  <varray name="positions" >
   <v>       0.00255478       0.99765627       0.00116089 </v>
   <v>       0.00211407       0.99754635       0.50141774 </v>
   <v>       0.00185950       0.49761105       0.00160808 </v>
   <v>       0.00199168       0.49771773       0.50129763 </v>
   <v>       0.50223317       0.99747138       0.00153665 </v>
   <v>       0.50217553       0.99738197       0.50128880 </v>
   <v>       0.50220013       0.49744914       0.00143700 </v>
   <v>       0.50199179       0.49731976       0.50167214 </v>
   <v>       0.25200529       0.24744336       0.25147911 </v>
   <v>       0.24062541       0.23619880       0.76269591 </v>
   <v>       0.24056523       0.75900256       0.23979258 </v>
   <v>       0.24080033       0.75893656       0.76277064 </v>
   <v>       0.76327356       0.23626070       0.24008347 </v>
   <v>       0.76344533       0.23612407       0.76306329 </v>
   <v>       0.76320204       0.75859948       0.24049848 </v>
   <v>       0.75216118       0.74760182       0.75140859 </v>
  </varray>
 </structure>
</modeling>
