 vasp.5.3.3 18Dez12 (build Mar 11 2013 19:18:40) complex                        
  
 executed on             LinuxIFC date 2013.11.18  07:16:54
 running on   16 total cores
 distrk:  each k-point on   16 cores,    1 groups
 distr:  one band on NCORES_PER_BAND=   1 cores,   16 groups


--------------------------------------------------------------------------------------------------------


 INCAR:
 POTCAR:    PAW_PBE Li 17Jan2003                  
 POTCAR:    PAW_PBE Ti 08Apr2002                  
 POTCAR:    PAW_PBE O 08Apr2002                   

 ----------------------------------------------------------------------------- 
|                                                                             |
|           W    W    AA    RRRRR   N    N  II  N    N   GGGG   !!!           |
|           W    W   A  A   R    R  NN   N  II  NN   N  G    G  !!!           |
|           W    W  A    A  R    R  N N  N  II  N N  N  G       !!!           |
|           W WW W  AAAAAA  RRRRR   N  N N  II  N  N N  G  GGG   !            |
|           WW  WW  A    A  R   R   N   NN  II  N   NN  G    G                |
|           W    W  A    A  R    R  N    N  II  N    N   GGGG   !!!           |
|                                                                             |
|      For optimal performance we recommend that you set                      |
|        NPAR = 4 - approx SQRT( number of cores)                             |
|      (number of cores/NPAR must be integer)                                 |
|      This setting will greatly improve the performance of VASP for DFT.     |
|      The default NPAR=number of cores might be grossly inefficient          |
|      on modern multi-core architectures or massively parallel machines.     |
|      Do your own testing.                                                   |
|      Unfortunately you need to use the default for hybrid, GW and RPA       |
|      calculations.                                                          |
|                                                                             |
 ----------------------------------------------------------------------------- 

 POTCAR:    PAW_PBE Li 17Jan2003                  
   VRHFIN =Li: s1p0                                                             
   LEXCH  = PE                                                                  
   EATOM  =     5.3001 eV,    0.3895 Ry                                         
                                                                                
   TITEL  = PAW_PBE Li 17Jan2003                                                
   LULTRA =        F    use ultrasoft PP ?                                      
   IUNSCR =        1    unscreen: 0-lin 1-nonlin 2-no                           
   RPACOR =    1.500    partial core radius                                     
   POMASS =    7.010; ZVAL   =    1.000    mass and valenz                      
   RCORE  =    2.050    outmost cutoff radius                                   
   RWIGS  =    2.600; RWIGS  =    1.376    wigner-seitz radius (au A)           
   ENMAX  =  140.000; ENMIN  =  100.000 eV                                      
   ICORE  =        2    local potential                                         
   LCOR   =        T    correct aug charges                                     
   LPAW   =        T    paw PP                                                  
   EAUG   =  331.638                                                            
   DEXC   =    0.000                                                            
   RMAX   =    2.098    core radius for proj-oper                               
   RAUG   =    1.300    factor for augmentation sphere                          
   RDEP   =    2.094    radius for radial grids                                 
   RDEPT  =    1.810    core radius for aug-charge                              
                                                                                
   Atomic configuration                                                         
    4 entries                                                                   
     n  l   j            E        occ.                                          
     1  0  0.50       -51.8549   2.0000                                         
     2  0  0.50        -2.8742   1.0000                                         
     2  1  0.50        -1.3606   0.0000                                         
     3  2  1.50        -1.3606   0.0000                                         
   Description                                                                  
     l       E           TYP  RCUT    TYP  RCUT                                 
     0     -2.8742052     23  2.050                                             
     0     27.2116520     23  2.050                                             
     1     -1.3605826     23  2.050                                             
     2     -1.3605826     23  2.050                                             
  local pseudopotential read in
  partial core-charges read in
  partial kinetic energy density read in
  atomic valenz-charges read in
  non local Contribution for L=           0  read in
    real space projection operators read in
  non local Contribution for L=           0  read in
    real space projection operators read in
  non local Contribution for L=           1  read in
    real space projection operators read in
    PAW grid and wavefunctions read in
 
   number of l-projection  operators is LMAX  =           3
   number of lm-projection operators is LMMAX =           5
 
 POTCAR:    PAW_PBE Ti 08Apr2002                  
   VRHFIN =Ti: d3 s1                                                            
   LEXCH  = PE                                                                  
   EATOM  =    94.7928 eV,    6.9671 Ry                                         
                                                                                
   TITEL  = PAW_PBE Ti 08Apr2002                                                
   LULTRA =        F    use ultrasoft PP ?                                      
   IUNSCR =        1    unscreen: 0-lin 1-nonlin 2-no                           
   RPACOR =    2.200    partial core radius                                     
   POMASS =   47.880; ZVAL   =    4.000    mass and valenz                      
   RCORE  =    2.800    outmost cutoff radius                                   
   RWIGS  =    2.500; RWIGS  =    1.323    wigner-seitz radius (au A)           
   ENMAX  =  178.330; ENMIN  =  133.747 eV                                      
   RCLOC  =    2.215    cutoff for local pot                                    
   LCOR   =        T    correct aug charges                                     
   LPAW   =        T    paw PP                                                  
   EAUG   =  328.883                                                            
   DEXC   =    0.000                                                            
   RMAX   =    2.868    core radius for proj-oper                               
   RAUG   =    1.300    factor for augmentation sphere                          
   RDEP   =    2.885    radius for radial grids                                 
   RDEPT  =    2.320    core radius for aug-charge                              
                                                                                
   Atomic configuration                                                         
    9 entries                                                                   
     n  l   j            E        occ.                                          
     1  0  0.50     -4865.3608   2.0000                                         
     2  0  0.50      -533.1367   2.0000                                         
     2  1  1.50      -440.5031   6.0000                                         
     3  0  0.50       -59.3186   2.0000                                         
     3  1  1.50       -35.7012   6.0000                                         
     3  2  2.50        -1.9157   3.0000                                         
     4  0  0.50        -3.7291   1.0000                                         
     4  1  1.50        -4.0817   0.0000                                         
     4  3  2.50        -1.3606   0.0000                                         
   Description                                                                  
     l       E           TYP  RCUT    TYP  RCUT                                 
     2     -1.9156924     23  2.800                                             
     2     -0.4062961     23  2.800                                             
     0     -3.7290832     23  2.800                                             
     0     20.4087390     23  2.800                                             
     1     -5.4423304     23  2.800                                             
  local pseudopotential read in
  partial core-charges read in
  partial kinetic energy density read in
  atomic valenz-charges read in
  non local Contribution for L=           2  read in
    real space projection operators read in
  non local Contribution for L=           2  read in
    real space projection operators read in
  non local Contribution for L=           0  read in
    real space projection operators read in
  non local Contribution for L=           0  read in
    real space projection operators read in
  non local Contribution for L=           1  read in
    real space projection operators read in
    PAW grid and wavefunctions read in
 
   number of l-projection  operators is LMAX  =           5
   number of lm-projection operators is LMMAX =          15
 
 POTCAR:    PAW_PBE O 08Apr2002                   
   VRHFIN =O: s2p4                                                              
   LEXCH  = PE                                                                  
   EATOM  =   432.3788 eV,   31.7789 Ry                                         
                                                                                
   TITEL  = PAW_PBE O 08Apr2002                                                 
   LULTRA =        F    use ultrasoft PP ?                                      
   IUNSCR =        1    unscreen: 0-lin 1-nonlin 2-no                           
   RPACOR =    1.200    partial core radius                                     
   POMASS =   16.000; ZVAL   =    6.000    mass and valenz                      
   RCORE  =    1.520    outmost cutoff radius                                   
   RWIGS  =    1.550; RWIGS  =    0.820    wigner-seitz radius (au A)           
   ENMAX  =  400.000; ENMIN  =  300.000 eV                                      
   ICORE  =        2    local potential                                         
   LCOR   =        T    correct aug charges                                     
   LPAW   =        T    paw PP                                                  
   EAUG   =  605.392                                                            
   DEXC   =    0.000                                                            
   RMAX   =    1.553    core radius for proj-oper                               
   RAUG   =    1.300    factor for augmentation sphere                          
   RDEP   =    1.550    radius for radial grids                                 
   RDEPT  =    1.329    core radius for aug-charge                              
                                                                                
   Atomic configuration                                                         
    4 entries                                                                   
     n  l   j            E        occ.                                          
     1  0  0.50      -514.6923   2.0000                                         
     2  0  0.50       -23.9615   2.0000                                         
     2  1  0.50        -9.0305   4.0000                                         
     3  2  1.50        -9.5241   0.0000                                         
   Description                                                                  
     l       E           TYP  RCUT    TYP  RCUT                                 
     0    -23.9615318     23  1.200                                             
     0     -9.5240782     23  1.200                                             
     1     -9.0304911     23  1.520                                             
     1      8.1634956     23  1.520                                             
     2     -9.5240782      7  1.500                                             
  local pseudopotential read in
  partial core-charges read in
  partial kinetic energy density read in
  kinetic energy density of atom read in
  atomic valenz-charges read in
  non local Contribution for L=           0  read in
    real space projection operators read in
  non local Contribution for L=           0  read in
    real space projection operators read in
  non local Contribution for L=           1  read in
    real space projection operators read in
  non local Contribution for L=           1  read in
    real space projection operators read in
    PAW grid and wavefunctions read in
 
   number of l-projection  operators is LMAX  =           4
   number of lm-projection operators is LMMAX =           8
 

 ----------------------------------------------------------------------------- 
|                                                                             |
|  ADVICE TO THIS USER RUNNING 'VASP/VAMP'   (HEAR YOUR MASTER'S VOICE ...):  |
|                                                                             |
|      You have a (more or less) 'large supercell' and for larger cells       |
|      it might be more efficient to use real space projection opertators     |
|      So try LREAL= Auto  in the INCAR   file.                               |
|      Mind: At the moment your POTCAR file does not contain real space       |
|       projectors, and has to be modified,  BUT if you                       |
|      want to do an extremely  accurate calculation you might also keep the  |
|      reciprocal projection scheme          (i.e. LREAL=.FALSE.)             |
|                                                                             |
 ----------------------------------------------------------------------------- 

  PAW_PBE Li 17Jan2003                  :
 energy of atom  1       EATOM=   -5.3001
 kinetic energy error for atom=    0.0000 (will be added to EATOM!!)
  PAW_PBE Ti 08Apr2002                  :
 energy of atom  2       EATOM=  -94.7928
 kinetic energy error for atom=    0.0005 (will be added to EATOM!!)
  PAW_PBE O 08Apr2002                   :
 energy of atom  3       EATOM= -432.3788
 kinetic energy error for atom=    0.1156 (will be added to EATOM!!)
 
 
 POSCAR: Li2 O3 Ti1-2x2x1                        
  positions in direct lattice
  velocities in cartesian coordinates
 exchange correlation table for  LEXCH =        8
   RHO(1)=    0.500       N(1)  =     2000
   RHO(2)=  100.500       N(2)  =     4000
 


--------------------------------------------------------------------------------------------------------


 ion  position               nearest neighbor table
   1  0.120  0.041  0.003- 145 2.08 117 2.09 163 2.13 166 2.17  97 2.18 151 2.28   8 2.79  47 2.91
                            42 2.91  49 2.92  75 2.94  89 2.95  85 2.96  55 2.99  77 2.99   7 3.00
   2  0.619  0.043  0.002- 146 2.09 118 2.10 152 2.13 165 2.15  98 2.16 164 2.17   7 2.83  41 2.87
                            50 2.91  56 2.92   8 2.93  90 2.94  76 2.96  86 2.97  22 2.99  42 3.01
   3  0.121  0.539  0.000- 147 2.08 119 2.12 161 2.14 168 2.15 149 2.19  99 2.22   6 2.85  45 2.91
                            44 2.91  23 2.93  53 2.93  51 2.94  73 2.94  87 2.96  79 2.98   5 2.98
   4  0.621  0.539  1.000- 120 2.06 148 2.08 162 2.13 167 2.16 150 2.20 100 2.24   5 2.84  46 2.90
                            43 2.92  54 2.93  74 2.94  88 2.94  52 2.94  44 2.97  92 2.97  80 2.98
   5  0.379  0.460  0.001- 113 2.08 149 2.10 162 2.14 167 2.15 147 2.21 101 2.22   4 2.84  43 2.90
                            46 2.92  52 2.93  54 2.94  82 2.94  79 2.96  73 2.97   3 2.98  93 2.98
   6  0.879  0.459  0.001- 114 2.07 150 2.10 161 2.13 168 2.17 102 2.21 148 2.21   3 2.85  44 2.89
                            45 2.91  51 2.93  81 2.94  53 2.94  80 2.96  18 2.97  74 2.98  46 2.99
   7  0.380  0.962  0.002- 115 2.09 151 2.11 164 2.13 165 2.14 145 2.17 103 2.28   2 2.83  47 2.87
                            41 2.90  50 2.90  56 2.91  48 2.93  84 2.95  77 2.96  75 2.98   1 3.00
   8  0.879  0.969  0.013- 146 2.03 116 2.09 163 2.10 166 2.14 152 2.16 104 2.59  49 2.78   1 2.79
                            42 2.81  76 2.89  83 2.93   2 2.93  96 2.96  78 3.06  55 3.06  48 3.13
   9  0.381  0.041  0.498- 153 2.09 125 2.10 174 2.14 171 2.15 105 2.19 159 2.21  34 2.86  16 2.86
                            50 2.90  56 2.91  75 2.93  86 2.95  15 2.96  89 2.97  39 2.98  29 3.00
  10  0.883  0.045  0.494- 126 2.08 154 2.09 106 2.11 173 2.14 172 2.15 160 2.38  15 2.83  40 2.84
                            49 2.85  33 2.86  90 2.92  76 2.94  30 2.95  85 2.98  78 3.00  55 3.00
  11  0.379  0.539  0.500- 155 2.08 127 2.11 169 2.14 176 2.14 157 2.19 107 2.23  14 2.83  37 2.90
                            54 2.93  52 2.93  36 2.94  88 2.94  73 2.95  35 2.96  91 2.97  13 2.99
  12  0.878  0.537  0.500- 156 2.08 170 2.12 175 2.14 128 2.14 158 2.17 108 2.25  13 2.83  32 2.84
                            38 2.88  53 2.92  74 2.93  51 2.94  35 2.94  87 2.96  14 2.97  80 2.98
  13  0.120  0.459  0.498- 121 2.07 157 2.09 170 2.13 175 2.18 155 2.21 109 2.21  12 2.83  35 2.88
                            38 2.92  51 2.92  81 2.93  53 2.95  79 2.96  25 2.98  73 2.98  93 2.98
  14  0.620  0.459  0.498- 122 2.08 158 2.10 169 2.13 176 2.16 156 2.21 110 2.21  11 2.83  52 2.91
                            37 2.91  36 2.93  82 2.93  80 2.94  54 2.95  12 2.97  74 2.97  26 2.99
  15  0.122  0.964  0.493- 123 2.08 159 2.11 153 2.11 172 2.12 173 2.16 111 2.38  40 2.81  10 2.83
                            49 2.85  33 2.88  75 2.91   9 2.96  83 2.97  77 2.99  39 2.99  95 3.00
  16  0.622  0.958  0.501- 124 2.07 160 2.08 171 2.15 174 2.17 112 2.20 154 2.23   9 2.86  84 2.95
                            50 2.95  34 2.96  76 2.97  78 2.97  39 2.97  56 2.98  40 2.98  96 2.98
  17  0.370  0.291  1.000- 130 2.09 101 2.09 181 2.14 177 2.15 113 2.20 133 2.22  21 2.83  45 2.91
                            41 2.92  61 2.92  57 2.93  66 2.95  93 2.95  82 2.97  22 2.98   5 2.99
  18  0.870  0.291  0.001- 129 2.08 102 2.09 178 2.15 182 2.15 114 2.20 134 2.22  22 2.84  42 2.89
                            46 2.91  58 2.92  62 2.93  94 2.95  65 2.95  81 2.96   6 2.97  21 2.98
  19  0.375  0.789  0.001- 132 2.05 183 2.06 103 2.13 179 2.15 135 2.20 115 2.23  47 2.86  23 2.88
                            48 2.90  68 2.92  43 2.93  24 2.95  59 2.96  63 2.96  84 2.97  72 2.99
  20  0.871  0.788  0.998- 131 2.09 104 2.11 184 2.12 180 2.14 136 2.16 116 2.26  64 2.84  24 2.84
                            67 2.94  44 2.94  48 2.96  96 2.96  60 2.98  71 2.98  83 2.99  23 3.05
  21  0.129  0.212  0.003-  97 2.09 134 2.10 177 2.13 181 2.15 129 2.16 117 2.25  17 2.83  45 2.89
                            57 2.89  89 2.94  41 2.95  65 2.96  69 2.96  61 2.97  18 2.98  42 2.98
  22  0.629  0.211  0.001-  98 2.09 133 2.09 178 2.14 182 2.14 130 2.18 118 2.25  18 2.84  46 2.89
                            58 2.91  42 2.93  90 2.94  62 2.94  70 2.96  66 2.97  41 2.98  17 2.98
  23  0.134  0.705  0.006-  99 2.01 179 2.08 119 2.17 183 2.18 136 2.20 131 2.24  71 2.83  43 2.86
                            91 2.87  19 2.88  59 2.92   3 2.93  67 2.95  63 3.01  44 3.02  87 3.02
  24  0.629  0.709  0.004- 100 2.06 135 2.10 180 2.13 184 2.18 132 2.20 120 2.24  64 2.78  20 2.84
                            48 2.88  92 2.92  60 2.94  44 2.94  19 2.95  68 2.95  72 2.96  43 2.99
  25  0.129  0.291  0.499- 138 2.09 109 2.09 189 2.14 185 2.15 121 2.20 141 2.23  29 2.84  37 2.90
                            33 2.91  61 2.92  57 2.93  65 2.94  93 2.95  81 2.97  13 2.98  30 2.98
  26  0.629  0.290  0.499- 137 2.08 110 2.09 190 2.15 186 2.15 122 2.21 142 2.21  30 2.84  38 2.91
                            34 2.92  62 2.92  58 2.93  66 2.94  94 2.95  82 2.97  29 2.98  70 2.99
  27  0.125  0.789  0.499- 140 2.06 111 2.08 187 2.15 143 2.18 191 2.20 123 2.25  31 2.86  39 2.92
                            67 2.93  59 2.95  35 2.96  40 2.96  71 2.98  83 2.98  63 2.99  95 2.99
  28  0.609  0.787  0.490- 139 1.91 112 2.02 188 2.12 144 2.15 124 2.26  68 2.80  31 2.85  39 2.87
                            84 2.88  36 2.88  72 2.94  60 2.95  16 3.02  32 3.14  64 3.25  40 3.28
  29  0.370  0.211  0.497- 105 2.09 142 2.09 185 2.13 189 2.16 137 2.18 125 2.25  25 2.84  37 2.90
                            57 2.90  33 2.91  89 2.94  61 2.95  70 2.95  34 2.97  66 2.97  26 2.98
  30  0.871  0.211  0.498- 106 2.09 141 2.10 186 2.14 190 2.15 138 2.17 126 2.22  26 2.84  38 2.88
                            58 2.90  10 2.95  90 2.95  65 2.96  69 2.96  62 2.96  34 2.97  25 2.98
  31  0.367  0.708  0.499- 107 2.07 187 2.11 191 2.15 144 2.16 127 2.18 139 2.23  28 2.85  27 2.86
                            63 2.88  35 2.88  91 2.91  59 2.92  39 2.92  72 2.95  11 2.99  68 2.99
  32  0.875  0.698  0.491- 108 1.90 143 2.03 188 2.12 128 2.14 140 2.28  92 2.81  12 2.84  36 2.87
                            35 2.88  67 2.89  87 2.94  60 2.96  27 3.00  28 3.14  64 3.24  40 3.30
  33  0.126  0.126  0.500- 185 2.04 173 2.07 125 2.18 141 2.19 106 2.20 153 2.21  10 2.86  15 2.88
                            29 2.91  25 2.91  61 2.94  49 2.94  65 2.95  77 2.95  89 2.97  85 2.97
  34  0.620  0.126  0.496- 186 2.04 174 2.08 105 2.13 154 2.20 142 2.20 126 2.23   9 2.86  50 2.90
                            66 2.91  78 2.91  26 2.92  90 2.96  16 2.96  29 2.97  30 2.97  86 2.97
  35  0.126  0.622  0.495- 175 2.04 187 2.05 155 2.12 108 2.18 127 2.20 143 2.33  32 2.88  31 2.88
                            13 2.88  51 2.90  91 2.90  12 2.94  79 2.95  11 2.96  67 2.96  27 2.96
  36  0.625  0.625  0.500- 188 2.05 176 2.06 128 2.17 144 2.17 107 2.19 156 2.20  32 2.87  28 2.88
                            14 2.93  11 2.94  52 2.95  80 2.96  88 2.96  68 2.96  92 2.96  12 3.01
  37  0.374  0.375  0.498- 169 2.05 189 2.06 121 2.18 137 2.19 110 2.20 157 2.22  29 2.90  11 2.90
                            25 2.90  14 2.91  57 2.93  73 2.94  70 2.95  54 2.95  82 2.95  93 2.97
  38  0.875  0.374  0.499- 170 2.05 190 2.06 138 2.18 122 2.19 109 2.19 158 2.21  12 2.88  30 2.88
                            26 2.91  13 2.92  58 2.93  74 2.95  81 2.95  69 2.95  53 2.95  94 2.97
  39  0.370  0.873  0.492- 171 2.04 191 2.06 123 2.12 139 2.14 159 2.23 112 2.36  59 2.85  28 2.87
                            75 2.90  95 2.90  84 2.92  27 2.92  31 2.92  16 2.97   9 2.98  15 2.99
  40  0.884  0.884  0.494- 172 1.90 111 2.18 160 2.19 124 2.22 140 2.23  15 2.81  10 2.84  76 2.86
                            55 2.86  83 2.88  27 2.96  16 2.98  60 3.00  28 3.28  32 3.30
  41  0.377  0.126  0.002- 177 2.04 165 2.06  98 2.16 133 2.19 145 2.20 117 2.21   2 2.87   7 2.90
                            17 2.92  66 2.93  50 2.94  89 2.95  77 2.95  21 2.95  86 2.96  61 2.98
  42  0.875  0.127  0.999- 178 2.04 166 2.07 134 2.16  97 2.19 118 2.20 146 2.23   8 2.81  18 2.89
                             1 2.91  22 2.93  65 2.95  85 2.95  62 2.95  90 2.96  78 2.96  49 2.97
  43  0.376  0.623  0.002- 167 2.05 179 2.05 147 2.16 100 2.18 119 2.23 135 2.24  23 2.86   5 2.90
                             4 2.92  52 2.92  19 2.93  63 2.94  68 2.94  91 2.95  88 2.97  79 2.98
  44  0.875  0.622  0.005- 168 2.05 180 2.06 148 2.13  99 2.17 120 2.22 136 2.27  64 2.80   6 2.89
                            51 2.89   3 2.91  92 2.92  67 2.94  20 2.94  24 2.94   4 2.97  87 2.98
  45  0.125  0.375  0.001- 161 2.05 181 2.05 113 2.18 129 2.19 102 2.20 149 2.21  21 2.89   3 2.91
                             6 2.91  17 2.91  73 2.94  57 2.94  53 2.95  69 2.95  81 2.95  93 2.97
  46  0.625  0.375  0.000- 162 2.05 182 2.06 114 2.19 130 2.19 101 2.20 150 2.20  22 2.89   4 2.90
                            18 2.91   5 2.92  58 2.94  74 2.95  54 2.95  82 2.95  70 2.96  94 2.96
  47  0.141  0.877  0.010- 163 2.02 115 2.02 183 2.10 151 2.18 131 2.23 104 2.53  75 2.84  19 2.86
                            59 2.86   7 2.87   1 2.91  71 2.91  83 2.95  23 3.05  55 3.06  95 3.06
  48  0.622  0.872  0.009- 164 2.03 132 2.08 184 2.11 116 2.18 103 2.21 152 2.27  96 2.84  84 2.86
                            24 2.88  60 2.89  19 2.90   7 2.93  76 2.94  20 2.96   2 3.02  72 3.02
  49  0.000  0.043  0.251- 106 2.11 153 2.11 172 2.12  97 2.12 146 2.12 163 2.17   8 2.78  15 2.85
                            10 2.85   1 2.92  65 2.93  90 2.94  89 2.94  75 2.94  33 2.94  76 2.96
  50  0.500  0.043  0.251- 105 2.12 154 2.12 145 2.12  98 2.13 164 2.14 171 2.15  34 2.90   7 2.90
                             9 2.90   2 2.91  89 2.94  41 2.94  76 2.94  90 2.94  75 2.94  66 2.95
  51  1.000  0.542  0.250- 108 2.10 148 2.12 155 2.12 161 2.13 170 2.13  99 2.14  44 2.89  35 2.90
                            13 2.92   6 2.93  92 2.94   3 2.94  12 2.94  91 2.94  74 2.94  73 2.95
  52  0.500  0.542  0.251- 156 2.11 147 2.12 169 2.13 107 2.13 100 2.14 162 2.14  14 2.91  43 2.92
                             5 2.93  11 2.93  92 2.93  91 2.93  74 2.94  82 2.94  73 2.94   4 2.94
  53  0.999  0.457  0.750- 149 2.11 158 2.11 102 2.12 109 2.12 168 2.14 175 2.16  12 2.92  69 2.92
                             3 2.93  93 2.93  79 2.93  80 2.94  94 2.94   6 2.94  87 2.94  45 2.95
  54  0.499  0.457  0.750- 101 2.11 110 2.12 157 2.12 150 2.12 176 2.14 167 2.15  70 2.92  93 2.92
                            11 2.93  88 2.93   4 2.93  80 2.93   5 2.94  94 2.94  14 2.95  46 2.95
  55  0.998  0.956  0.749- 160 2.10 111 2.12 151 2.14 104 2.14 173 2.16 166 2.16  40 2.86  96 2.97
                            77 2.97  78 2.98   1 2.99  71 2.99  95 2.99  10 3.00  15 3.00  85 3.01
  56  0.496  0.962  0.752- 165 2.06 159 2.09 174 2.10 152 2.12 103 2.13 112 2.33  96 2.81  95 2.83
                            77 2.90  86 2.90   9 2.91   7 2.91   2 2.92  16 2.98  78 3.01  48 3.08
  57  0.250  0.292  0.250- 137 2.11 129 2.12 121 2.12 113 2.13 185 2.14 177 2.14  21 2.89  29 2.90
                            25 2.93  37 2.93  73 2.93  17 2.93  81 2.93  82 2.94  45 2.94  65 2.94
  58  0.750  0.292  0.250- 138 2.12 130 2.12 114 2.13 122 2.13 178 2.13 186 2.14  30 2.90  22 2.91
                            18 2.92  74 2.93  26 2.93  38 2.93  81 2.94  66 2.94  46 2.94  82 2.94
  59  0.250  0.792  0.251- 139 2.08 131 2.12 187 2.14 123 2.14 179 2.15 115 2.15  39 2.85  47 2.86
                            23 2.92  31 2.92  68 2.94  83 2.94  67 2.94  84 2.94  27 2.95  19 2.96
  60  0.751  0.792  0.254- 140 2.09 124 2.11 188 2.12 132 2.13 180 2.15 116 2.17  48 2.89  24 2.94
                            83 2.94  67 2.94  28 2.95  84 2.95  68 2.95  32 2.96  76 2.96  92 2.97
  61  0.250  0.210  0.750- 133 2.11 189 2.11 141 2.12 181 2.12 125 2.15 117 2.16  17 2.92  25 2.92
                            70 2.93  86 2.93  85 2.93  93 2.93  69 2.94  77 2.94  33 2.94  29 2.95
  62  0.749  0.210  0.750- 182 2.10 190 2.11 142 2.12 134 2.13 118 2.13 126 2.17  78 2.88  94 2.90
                            26 2.92  18 2.93  70 2.93  69 2.94  22 2.94  86 2.95  42 2.95  30 2.96
  63  0.257  0.704  0.749- 127 2.05 135 2.06 119 2.10 191 2.16 183 2.19 143 2.27  71 2.81  88 2.86
                            31 2.88  72 2.89  79 2.90  43 2.94  19 2.96  27 2.99  35 3.00  23 3.01
  64  0.746  0.700  0.770- 120 1.93 136 2.05 184 2.11 144 2.14 128 2.14  24 2.78  44 2.80  20 2.84
                            88 2.84  80 2.84  87 2.92  72 2.92  36 3.02  32 3.24  28 3.25
  65  0.000  0.209  0.250- 106 1.98 138 1.98 129 1.98  97 1.98 185 1.99 178 2.00  49 2.93  81 2.94
                            57 2.94  25 2.94  89 2.94  90 2.94  42 2.95  58 2.95  33 2.95  18 2.95
  66  0.500  0.209  0.250- 137 1.97 130 1.98 186 1.98 105 1.99  98 1.99 177 1.99  34 2.91  82 2.93
                            41 2.93  58 2.94  26 2.94  89 2.94  90 2.94  57 2.94  50 2.95  17 2.95
  67  1.000  0.709  0.249-  99 1.97 108 1.98 180 1.98 131 1.99 187 1.99 140 2.00  32 2.89  27 2.93
                            44 2.94  20 2.94  83 2.94  59 2.94  60 2.94  23 2.95  51 2.95  91 2.95
  68  0.499  0.708  0.249- 100 1.97 107 1.97 179 1.97 132 1.99 139 1.99 188 2.01  28 2.80  19 2.92
                            43 2.94  59 2.94  91 2.94  52 2.95  24 2.95  92 2.95  60 2.95  36 2.96
  69  0.000  0.292  0.750- 109 1.96 102 1.97 181 1.98 141 1.99 190 1.99 134 2.00  53 2.92  85 2.93
                            94 2.94  93 2.94  61 2.94  62 2.94  45 2.95  38 2.95  30 2.96  21 2.96
  70  0.499  0.292  0.749- 110 1.97 101 1.97 189 1.98 142 1.99 133 1.99 182 2.00  54 2.92  61 2.93
                            86 2.93  62 2.93  94 2.93  93 2.94  37 2.95  29 2.95  46 2.96  22 2.96
  71  0.027  0.789  0.768- 183 1.82 104 1.92 143 1.93 111 1.95 136 1.96  63 2.81  23 2.83  95 2.90
                            47 2.91  87 2.94  27 2.98  20 2.98  55 2.99
  72  0.501  0.788  0.749- 135 1.94 144 1.95 191 1.98 184 2.00 103 2.01 112 2.02  63 2.89  64 2.92
                            88 2.93  28 2.94  96 2.94  95 2.95  31 2.95  24 2.96  19 2.99  48 3.02
  73  0.250  0.458  0.249- 113 1.97 121 1.97 161 1.99 147 1.99 169 1.99 155 1.99  57 2.93  91 2.93
                             3 2.94  45 2.94  82 2.94  81 2.94  37 2.94  52 2.94  51 2.95  11 2.95
  74  0.750  0.458  0.250- 122 1.97 114 1.97 170 1.99 156 1.99 162 1.99 148 1.99  12 2.93  58 2.93
                            92 2.93  82 2.94   4 2.94  81 2.94  51 2.94  52 2.94  38 2.95  46 2.95
  75  0.250  0.960  0.251- 153 1.96 123 1.98 145 1.98 171 1.99 163 2.00 115 2.00  47 2.84  39 2.90
                            15 2.91   9 2.93  89 2.94   1 2.94  50 2.94  49 2.94  84 2.95  83 2.96
  76  0.750  0.959  0.252- 154 1.96 124 1.98 164 1.99 146 1.99 116 1.99 172 2.00  40 2.86   8 2.89
                            50 2.94  48 2.94  10 2.94  90 2.94  84 2.95  49 2.96  83 2.96  60 2.96
  77  0.249  0.044  0.752- 117 1.94 125 1.97 173 1.97 165 1.98 151 1.99 159 2.05  56 2.90  85 2.91
                            95 2.91  61 2.94  86 2.94  33 2.95  41 2.95   7 2.96  55 2.97  15 2.99
  78  0.751  0.047  0.744- 126 1.89 118 1.94 174 1.97 166 1.98 160 2.03 152 2.13  62 2.88  96 2.89
                            85 2.91  34 2.91  86 2.94  42 2.96  16 2.97  55 2.98  10 3.00  56 3.01
  79  0.248  0.541  0.749- 149 1.96 157 1.97 119 1.99 175 1.99 127 1.99 167 2.00  63 2.90  93 2.93
                            53 2.93  88 2.94  87 2.95  35 2.95  13 2.96  54 2.96   5 2.96  43 2.98
  80  0.749  0.539  0.749- 158 1.96 150 1.96 176 1.99 120 1.99 168 2.00 128 2.00  64 2.84  94 2.92
                            54 2.93  87 2.94  88 2.94  53 2.94  14 2.94   6 2.96  36 2.96   4 2.98
  81  1.000  0.375  0.250- 129 1.97 138 1.98 121 1.98 114 1.98 170 2.00 161 2.00  13 2.93  57 2.93
                            58 2.94  65 2.94   6 2.94  73 2.94  74 2.94  51 2.95  38 2.95  45 2.95
  82  0.500  0.375  0.249- 122 1.98 137 1.98 130 1.98 113 1.98 162 1.99 169 2.00  66 2.93  14 2.93
                            57 2.94  74 2.94  58 2.94  73 2.94   5 2.94  52 2.94  46 2.95  37 2.95
  83  1.000  0.875  0.247- 116 1.96 131 1.96 123 1.98 140 1.99 163 2.00 172 2.02  40 2.88   8 2.93
                            60 2.94  67 2.94  59 2.94  47 2.95  75 2.96  76 2.96  15 2.97  27 2.98
  84  0.500  0.876  0.250- 115 1.96 164 1.98 132 1.98 139 1.99 171 1.99 124 2.00  48 2.86  28 2.88
                            39 2.92  59 2.94   7 2.95  16 2.95  76 2.95  75 2.95  60 2.95  50 2.96
  85  0.002  0.127  0.752- 134 1.95 141 1.95 117 1.96 166 2.01 173 2.01 126 2.02  77 2.91  78 2.91
                            61 2.93  69 2.93  42 2.95   1 2.96  33 2.97  62 2.97  10 2.98  21 2.98
  86  0.499  0.127  0.749- 133 1.95 142 1.96 125 1.97 118 1.99 165 2.01 174 2.02  56 2.90  61 2.93
                            70 2.93  78 2.94  77 2.94  62 2.95   9 2.95  41 2.96   2 2.97  34 2.97
  87  0.997  0.624  0.750- 168 1.96 128 1.97 119 1.98 175 1.98 136 1.99 143 2.02  64 2.92  80 2.94
                            32 2.94  71 2.94  53 2.94  79 2.95   3 2.96  12 2.96  44 2.98  63 3.02
  88  0.499  0.622  0.750- 167 1.97 127 1.97 176 1.97 120 1.97 135 2.00 144 2.02  64 2.84  63 2.86
                            54 2.93  72 2.93  80 2.94  79 2.94  11 2.94   4 2.94  36 2.96  43 2.97
  89  0.250  0.126  0.249-  97 1.98 105 1.98 145 1.98 177 1.98 153 1.99 185 2.00  21 2.94  75 2.94
                            50 2.94  49 2.94  29 2.94  66 2.94  65 2.94  41 2.95  57 2.95   1 2.95
  90  0.750  0.126  0.249-  98 1.97 146 1.98 106 1.98 178 1.99 154 1.99 186 2.00  10 2.92  49 2.94
                            50 2.94   2 2.94  66 2.94  22 2.94  76 2.94  65 2.94  58 2.95  30 2.95
  91  0.250  0.624  0.251- 155 1.96 147 1.97 107 1.97  99 1.99 187 2.00 179 2.01  23 2.87  35 2.90
                            31 2.91  52 2.93  73 2.93  51 2.94  68 2.94  43 2.95  67 2.95  59 2.97
  92  0.749  0.624  0.249- 148 1.96 156 1.96 100 1.97 108 1.98 180 2.00 188 2.03  32 2.81  44 2.92
                            24 2.92  52 2.93  74 2.93  51 2.94  68 2.95  67 2.96  36 2.96  60 2.97
  93  0.250  0.375  0.750- 101 1.97 157 1.98 109 1.98 149 1.98 189 1.99 181 2.00  54 2.92  61 2.93
                            79 2.93  53 2.93  69 2.94  70 2.94  25 2.95  17 2.95  45 2.97  37 2.97
  94  0.750  0.374  0.750- 110 1.98 102 1.98 150 1.98 182 1.98 190 1.99 158 1.99  62 2.90  80 2.92
                            70 2.93  69 2.94  53 2.94  54 2.94  26 2.95  18 2.95  46 2.96  38 2.97
  95  0.258  0.879  0.744- 159 1.88 103 1.94 151 1.96 191 2.00 111 2.03 183 2.17  56 2.83  71 2.90
                            39 2.90  77 2.91  72 2.95  55 2.99  27 2.99  15 3.00   7 3.01  19 3.05
  96  0.739  0.885  0.768- 152 1.81 104 1.92 112 1.92 160 1.95 184 1.99  56 2.81  48 2.84  78 2.89
                            72 2.94  20 2.96   8 2.96  55 2.97  16 2.98
  97  0.070  0.131  0.136-  89 1.98  65 1.98  21 2.09  49 2.12   1 2.18  42 2.19
  98  0.570  0.131  0.135-  90 1.97  66 1.99  22 2.09  50 2.13  41 2.16   2 2.16
  99  0.070  0.631  0.136-  67 1.97  91 1.99  23 2.01  51 2.14  44 2.17   3 2.22
 100  0.570  0.631  0.137-  68 1.97  92 1.97  24 2.06  52 2.14  43 2.18   4 2.24
 101  0.429  0.369  0.863-  93 1.97  70 1.97  17 2.09  54 2.11  46 2.20   5 2.22
 102  0.930  0.369  0.864-  69 1.97  94 1.98  18 2.09  53 2.12  45 2.20   6 2.21
 103  0.432  0.869  0.860-  95 1.94  72 2.01  56 2.13  19 2.13  48 2.21   7 2.28
 104  0.921  0.862  0.845-  96 1.92  71 1.92  20 2.11  55 2.14  47 2.53   8 2.59
 105  0.430  0.131  0.364-  89 1.98  66 1.99  29 2.09  50 2.12  34 2.13   9 2.19
 106  0.930  0.132  0.364-  65 1.98  90 1.98  30 2.09  10 2.11  49 2.11  33 2.20
 107  0.430  0.631  0.364-  91 1.97  68 1.97  31 2.07  52 2.13  36 2.19  11 2.23
 108  0.931  0.630  0.362-  32 1.90  67 1.98  92 1.98  51 2.10  35 2.18  12 2.25
 109  0.069  0.369  0.636-  69 1.96  93 1.98  25 2.09  53 2.12  38 2.19  13 2.21
 110  0.569  0.369  0.636-  70 1.97  94 1.98  26 2.09  54 2.12  37 2.20  14 2.21
 111  0.069  0.866  0.640-  71 1.95  95 2.03  27 2.08  55 2.12  40 2.18  15 2.38
 112  0.581  0.865  0.634-  96 1.92  72 2.02  28 2.02  16 2.20  56 2.33  39 2.36
 113  0.319  0.381  0.135-  73 1.97  82 1.98   5 2.08  57 2.13  45 2.18  17 2.20
 114  0.820  0.381  0.136-  74 1.97  81 1.98   6 2.07  58 2.13  46 2.19  18 2.20
 115  0.321  0.882  0.136-  84 1.96  75 2.00  47 2.02   7 2.09  59 2.15  19 2.23
 116  0.821  0.883  0.135-  83 1.96  76 1.99   8 2.09  60 2.17  48 2.18  20 2.26
 117  0.180  0.119  0.865-  77 1.94  85 1.96   1 2.09  61 2.16  41 2.21  21 2.25
 118  0.681  0.119  0.862-  78 1.94  86 1.99   2 2.10  62 2.13  42 2.20  22 2.25
 119  0.178  0.620  0.862-  87 1.98  79 1.99  63 2.10   3 2.12  23 2.17  43 2.23
 120  0.679  0.617  0.865-  64 1.93  88 1.97  80 1.99   4 2.06  44 2.22  24 2.24
 121  0.180  0.381  0.364-  73 1.97  81 1.98  13 2.07  57 2.12  37 2.18  25 2.20
 122  0.680  0.381  0.364-  74 1.97  82 1.98  14 2.08  58 2.13  38 2.19  26 2.21
 123  0.180  0.882  0.363-  75 1.98  83 1.98  15 2.08  39 2.12  59 2.14  27 2.25
 124  0.682  0.881  0.366-  76 1.98  84 2.00  16 2.07  60 2.11  40 2.22  28 2.26
 125  0.319  0.119  0.636-  77 1.97  86 1.97   9 2.10  61 2.15  33 2.18  29 2.25
 126  0.820  0.119  0.633-  78 1.89  85 2.02  10 2.08  62 2.17  30 2.22  34 2.23
 127  0.320  0.619  0.636-  88 1.97  79 1.99  63 2.05  11 2.11  31 2.18  35 2.20
 128  0.817  0.620  0.636-  87 1.97  80 2.00  64 2.14  12 2.14  32 2.14  36 2.17
 129  0.053  0.292  0.136-  81 1.97  65 1.98  18 2.08  57 2.12  21 2.16  45 2.19
 130  0.553  0.292  0.136-  66 1.98  82 1.98  17 2.09  58 2.12  22 2.18  46 2.19
 131  0.053  0.792  0.135-  83 1.96  67 1.99  20 2.09  59 2.12  47 2.23  23 2.24
 132  0.554  0.792  0.137-  84 1.98  68 1.99  19 2.05  48 2.08  60 2.13  24 2.20
 133  0.447  0.208  0.863-  86 1.95  70 1.99  22 2.09  61 2.11  41 2.19  17 2.22
 134  0.947  0.208  0.864-  85 1.95  69 2.00  21 2.10  62 2.13  42 2.16  18 2.22
 135  0.448  0.708  0.863-  72 1.94  88 2.00  63 2.06  24 2.10  19 2.20  43 2.24
 136  0.943  0.708  0.862-  71 1.96  87 1.99  64 2.05  20 2.16  23 2.20  44 2.27
 137  0.447  0.292  0.363-  66 1.97  82 1.98  26 2.08  57 2.11  29 2.18  37 2.19
 138  0.947  0.292  0.364-  81 1.98  65 1.98  25 2.09  58 2.12  30 2.17  38 2.18
 139  0.444  0.792  0.362-  28 1.91  84 1.99  68 1.99  59 2.08  39 2.14  31 2.23
 140  0.946  0.793  0.364-  83 1.99  67 2.00  27 2.06  60 2.09  40 2.23  32 2.28
 141  0.053  0.208  0.637-  85 1.95  69 1.99  30 2.10  61 2.12  33 2.19  25 2.23
 142  0.552  0.208  0.635-  86 1.96  70 1.99  29 2.09  62 2.12  34 2.20  26 2.21
 143  0.044  0.711  0.634-  71 1.93  87 2.02  32 2.03  27 2.18  63 2.27  35 2.33
 144  0.557  0.707  0.636-  72 1.95  88 2.02  64 2.14  28 2.15  31 2.16  36 2.17
 145  0.303  0.042  0.136-  75 1.98  89 1.98   1 2.08  50 2.12   7 2.17  41 2.20
 146  0.803  0.042  0.136-  90 1.98  76 1.99   8 2.03   2 2.09  49 2.12  42 2.23
 147  0.303  0.542  0.136-  91 1.97  73 1.99   3 2.08  52 2.12  43 2.16   5 2.21
 148  0.803  0.542  0.136-  92 1.96  74 1.99   4 2.08  51 2.12  44 2.13   6 2.21
 149  0.196  0.459  0.863-  79 1.96  93 1.98   5 2.10  53 2.11   3 2.19  45 2.21
 150  0.697  0.458  0.863-  80 1.96  94 1.98   6 2.10  54 2.12   4 2.20  46 2.20
 151  0.199  0.957  0.861-  95 1.96  77 1.99   7 2.11  55 2.14  47 2.18   1 2.28
 152  0.691  0.961  0.873-  96 1.81  56 2.12   2 2.13  78 2.13   8 2.16  48 2.27
 153  0.197  0.042  0.364-  75 1.96  89 1.99   9 2.09  15 2.11  49 2.11  33 2.21
 154  0.698  0.042  0.364-  76 1.96  90 1.99  10 2.09  50 2.12  34 2.20  16 2.23
 155  0.197  0.542  0.364-  91 1.96  73 1.99  11 2.08  51 2.12  35 2.12  13 2.21
 156  0.697  0.542  0.364-  92 1.96  74 1.99  12 2.08  52 2.11  36 2.20  14 2.21
 157  0.302  0.458  0.636-  79 1.97  93 1.98  13 2.09  54 2.12  11 2.19  37 2.22
 158  0.803  0.458  0.636-  80 1.96  94 1.99  14 2.10  53 2.11  12 2.17  38 2.21
 159  0.305  0.958  0.633-  95 1.88  77 2.05  56 2.09  15 2.11   9 2.21  39 2.23
 160  0.801  0.955  0.641-  96 1.95  78 2.03  16 2.08  55 2.10  40 2.19  10 2.38
 161  0.069  0.453  0.133-  73 1.99  81 2.00  45 2.05  51 2.13   6 2.13   3 2.14
 162  0.569  0.453  0.133-  74 1.99  82 1.99  46 2.05   4 2.13  52 2.14   5 2.14
 163  0.070  0.953  0.132-  75 2.00  83 2.00  47 2.02   8 2.10   1 2.13  49 2.17
 164  0.569  0.953  0.135-  84 1.98  76 1.99  48 2.03   7 2.13  50 2.14   2 2.17
 165  0.430  0.048  0.866-  77 1.98  86 2.01  56 2.06  41 2.06   7 2.14   2 2.15
 166  0.929  0.047  0.865-  78 1.98  85 2.01  42 2.07   8 2.14  55 2.16   1 2.17
 167  0.429  0.547  0.866-  88 1.97  79 2.00  43 2.05  54 2.15   5 2.15   4 2.16
 168  0.930  0.547  0.865-  87 1.96  80 2.00  44 2.05  53 2.14   3 2.15   6 2.17
 169  0.430  0.453  0.366-  73 1.99  82 2.00  37 2.05  52 2.13  14 2.13  11 2.14
 170  0.930  0.453  0.366-  74 1.99  81 2.00  38 2.05  12 2.12  13 2.13  51 2.13
 171  0.431  0.953  0.367-  75 1.99  84 1.99  39 2.04  50 2.15   9 2.15  16 2.15
 172  0.932  0.955  0.365-  40 1.90  76 2.00  83 2.02  49 2.12  15 2.12  10 2.15
 173  0.070  0.047  0.634-  77 1.97  85 2.01  33 2.07  10 2.14  15 2.16  55 2.16
 174  0.569  0.047  0.634-  78 1.97  86 2.02  34 2.08  56 2.10   9 2.14  16 2.17
 175  0.068  0.548  0.633-  87 1.98  79 1.99  35 2.04  12 2.14  53 2.16  13 2.18
 176  0.568  0.546  0.633-  88 1.97  80 1.99  36 2.06  11 2.14  54 2.14  14 2.16
 177  0.319  0.203  0.133-  89 1.98  66 1.99  41 2.04  21 2.13  57 2.14  17 2.15
 178  0.819  0.203  0.134-  90 1.99  65 2.00  42 2.04  58 2.13  22 2.14  18 2.15
 179  0.320  0.702  0.134-  68 1.97  91 2.01  43 2.05  23 2.08  59 2.15  19 2.15
 180  0.819  0.703  0.134-  67 1.98  92 2.00  44 2.06  24 2.13  20 2.14  60 2.15
 181  0.180  0.297  0.866-  69 1.98  93 2.00  45 2.05  61 2.12  17 2.14  21 2.15
 182  0.680  0.297  0.866-  94 1.98  70 2.00  46 2.06  62 2.10  22 2.14  18 2.15
 183  0.191  0.794  0.875-  71 1.82  19 2.06  47 2.10  95 2.17  23 2.18  63 2.19
 184  0.682  0.796  0.866-  96 1.99  72 2.00  64 2.11  48 2.11  20 2.12  24 2.18
 185  0.181  0.203  0.366-  65 1.99  89 2.00  33 2.04  29 2.13  57 2.14  25 2.15
 186  0.680  0.203  0.366-  66 1.98  90 2.00  34 2.04  58 2.14  30 2.14  26 2.15
 187  0.180  0.703  0.366-  67 1.99  91 2.00  35 2.05  31 2.11  59 2.14  27 2.15
 188  0.682  0.703  0.369-  68 2.01  92 2.03  36 2.05  28 2.12  60 2.12  32 2.12
 189  0.319  0.297  0.633-  70 1.98  93 1.99  37 2.06  61 2.11  25 2.14  29 2.16
 190  0.819  0.297  0.634-  94 1.99  69 1.99  38 2.06  62 2.11  30 2.15  26 2.15
 191  0.322  0.797  0.633-  72 1.98  95 2.00  39 2.06  31 2.15  63 2.16  27 2.20
 
  LATTYP: Found a simple monoclinic cell.
 ALAT       =    12.8365708658
 B/A-ratio  =     1.3781856878
 C/A-ratio  =     1.5938094420
 COS(beta)  =    -0.9270485186
  
  Lattice vectors:
  
 A1 = (  -8.4648153474,   0.0000000000,  -9.6501011770)
 A2 = (   0.0000000000, -17.6911782477,   0.0000000000)
 A3 = (   6.7403352047,   0.0000000000,  19.3168455030)


Analysis of symmetry for initial positions (statically):
=====================================================================
 Subroutine PRICEL returns:
 Original cell was already a primitive cell.
 

 Routine SETGRP: Setting up the symmetry group for a 
 simple monoclinic supercell.


 Subroutine GETGRP returns: Found  1 space group operations
 (whereof  1 operations were pure point group operations)
 out of a pool of  4 trial point group operations.


The static configuration has the point symmetry C_1 .


Analysis of symmetry for dynamics (positions and initial velocities):
=====================================================================
 Subroutine PRICEL returns:
 Original cell was already a primitive cell.
 

 Routine SETGRP: Setting up the symmetry group for a 
 simple monoclinic supercell.


 Subroutine GETGRP returns: Found  1 space group operations
 (whereof  1 operations were pure point group operations)
 out of a pool of  4 trial point group operations.


The dynamic configuration has the point symmetry C_1 .


 irot  :   1
 --------------------------------------------------------------------
 isymop:   1   0   0
           0   1   0
           0   0   1

 gtrans:     0.0000000     0.0000000     0.0000000

 ptrans:     0.0000000     0.0000000     0.0000000
 rotmap:
 (   1->   1)  (   2->   2)  (   3->   3)  (   4->   4)  (   5->   5) 
 (   6->   6)  (   7->   7)  (   8->   8)  (   9->   9)  (  10->  10) 
 (  11->  11)  (  12->  12)  (  13->  13)  (  14->  14)  (  15->  15) 
 (  16->  16)  (  17->  17)  (  18->  18)  (  19->  19)  (  20->  20) 
 (  21->  21)  (  22->  22)  (  23->  23)  (  24->  24)  (  25->  25) 
 (  26->  26)  (  27->  27)  (  28->  28)  (  29->  29)  (  30->  30) 
 (  31->  31)  (  32->  32)  (  33->  33)  (  34->  34)  (  35->  35) 
 (  36->  36)  (  37->  37)  (  38->  38)  (  39->  39)  (  40->  40) 
 (  41->  41)  (  42->  42)  (  43->  43)  (  44->  44)  (  45->  45) 
 (  46->  46)  (  47->  47)  (  48->  48)  (  49->  49)  (  50->  50) 
 (  51->  51)  (  52->  52)  (  53->  53)  (  54->  54)  (  55->  55) 
 (  56->  56)  (  57->  57)  (  58->  58)  (  59->  59)  (  60->  60) 
 (  61->  61)  (  62->  62)  (  63->  63)  (  64->  64)  (  65->  65) 
 (  66->  66)  (  67->  67)  (  68->  68)  (  69->  69)  (  70->  70) 
 (  71->  71)  (  72->  72)  (  73->  73)  (  74->  74)  (  75->  75) 
 (  76->  76)  (  77->  77)  (  78->  78)  (  79->  79)  (  80->  80) 
 (  81->  81)  (  82->  82)  (  83->  83)  (  84->  84)  (  85->  85) 
 (  86->  86)  (  87->  87)  (  88->  88)  (  89->  89)  (  90->  90) 
 (  91->  91)  (  92->  92)  (  93->  93)  (  94->  94)  (  95->  95) 
 (  96->  96)  (  97->  97)  (  98->  98)  (  99->  99)  ( 100-> 100) 
 ( 101-> 101)  ( 102-> 102)  ( 103-> 103)  ( 104-> 104)  ( 105-> 105) 
 ( 106-> 106)  ( 107-> 107)  ( 108-> 108)  ( 109-> 109)  ( 110-> 110) 
 ( 111-> 111)  ( 112-> 112)  ( 113-> 113)  ( 114-> 114)  ( 115-> 115) 
 ( 116-> 116)  ( 117-> 117)  ( 118-> 118)  ( 119-> 119)  ( 120-> 120) 
 ( 121-> 121)  ( 122-> 122)  ( 123-> 123)  ( 124-> 124)  ( 125-> 125) 
 ( 126-> 126)  ( 127-> 127)  ( 128-> 128)  ( 129-> 129)  ( 130-> 130) 
 ( 131-> 131)  ( 132-> 132)  ( 133-> 133)  ( 134-> 134)  ( 135-> 135) 
 ( 136-> 136)  ( 137-> 137)  ( 138-> 138)  ( 139-> 139)  ( 140-> 140) 
 ( 141-> 141)  ( 142-> 142)  ( 143-> 143)  ( 144-> 144)  ( 145-> 145) 
 ( 146-> 146)  ( 147-> 147)  ( 148-> 148)  ( 149-> 149)  ( 150-> 150) 
 ( 151-> 151)  ( 152-> 152)  ( 153-> 153)  ( 154-> 154)  ( 155-> 155) 
 ( 156-> 156)  ( 157-> 157)  ( 158-> 158)  ( 159-> 159)  ( 160-> 160) 
 ( 161-> 161)  ( 162-> 162)  ( 163-> 163)  ( 164-> 164)  ( 165-> 165) 
 ( 166-> 166)  ( 167-> 167)  ( 168-> 168)  ( 169-> 169)  ( 170-> 170) 
 ( 171-> 171)  ( 172-> 172)  ( 173-> 173)  ( 174-> 174)  ( 175-> 175) 
 ( 176-> 176)  ( 177-> 177)  ( 178-> 178)  ( 179-> 179)  ( 180-> 180) 
 ( 181-> 181)  ( 182-> 182)  ( 183-> 183)  ( 184-> 184)  ( 185-> 185) 
 ( 186-> 186)  ( 187-> 187)  ( 188-> 188)  ( 189-> 189)  ( 190-> 190) 
 ( 191-> 191) 
 
 
 KPOINTS: k-point mesh distance 0.0541499999999999

Automatic generation of k-mesh.
Space group operators:
 irot       det(A)        alpha          n_x          n_y          n_z        tau_x        tau_y        tau_z
    1     1.000000     0.000000     1.000000     0.000000     0.000000     0.000000     0.000000     0.000000
 
 Subroutine IBZKPT returns following result:
 ===========================================
 
 Found      4 irreducible k-points:
 
 Following reciprocal coordinates:
            Coordinates               Weight
  0.000000  0.000000  0.000000      1.000000
  0.500000  0.000000  0.000000      1.000000
  0.000000  0.000000  0.500000      1.000000
  0.500000  0.000000  0.500000      1.000000
 
 Following cartesian coordinates:
            Coordinates               Weight
  0.000000  0.000000  0.000000      1.000000
  0.049085  0.000000  0.008756      1.000000
  0.000085  0.000000  0.051739      1.000000
  0.049170  0.000000  0.060495      1.000000
 


--------------------------------------------------------------------------------------------------------




 Dimension of arrays:
   k-points           NKPTS =      4   k-points in BZ     NKDIM =      4   number of bands    NBANDS=    480
   number of dos      NEDOS =    301   number of ions     NIONS =    191
   non local maximal  LDIM  =      5   non local SUM 2l+1 LMDIM =     15
   total plane-waves  NPLWV = 537600
   max r-space proj   IRMAX =      1   max aug-charges    IRDMAX=  21511
   dimension x,y,z NGX =    70 NGY =  120 NGZ =   64
   dimension x,y,z NGXF=   140 NGYF=  240 NGZF=  128
   support grid    NGXF=   140 NGYF=  240 NGZF=  128
   ions per type =              64  32  95
 NGX,Y,Z   is equivalent  to a cutoff of  11.42, 11.28, 10.84 a.u.
 NGXF,Y,Z  is equivalent  to a cutoff of  22.84, 22.55, 21.67 a.u.


 I would recommend the setting:
   dimension x,y,z NGX =    66 NGY =  115 NGZ =   64
 SYSTEM =  unknown system                          
 POSCAR =  Li2 O3 Ti1-2x2x1                        

 Startparameter for this run:
   NWRITE =      2    write-flag & timer
   PREC   = a         normal or accurate (medium, high low for compatibility)
   ISTART =      0    job   : 0-new  1-cont  2-samecut
   ICHARG =      2    charge: 1-file 2-atom 10-const
   ISPIN  =      1    spin polarized calculation?
   LNONCOLLINEAR =      F non collinear calculations
   LSORBIT =      F    spin-orbit coupling
   INIWAV =      1    electr: 0-lowe 1-rand  2-diag
   LASPH  =      T    aspherical Exc in radial PAW
   METAGGA=      F    non-selfconsistent MetaGGA calc.

 Electronic Relaxation 1
   ENCUT  =  400.0 eV  29.40 Ry    5.42 a.u.  16.62 28.85 16.01*2*pi/ulx,y,z
   ENINI  =  400.0     initial cutoff
   ENAUG  =  605.4 eV  augmentation charge cutoff
   NELM   =    100;   NELMIN=  4; NELMDL=  0     # of ELM steps 
   EDIFF  = 0.1E-05   stopping-criterion for ELM
   LREAL  =      F    real-space projection
   NLSPLINE    = F    spline interpolate recip. space projectors
   LCOMPAT=      F    compatible to vasp.4.4
   GGA_COMPAT  = T    GGA compatible to vasp.4.4-vasp.4.6
   LMAXPAW     = -100 max onsite density
   LMAXMIX     =    2 max onsite mixed and CHGCAR
   VOSKOWN=      0    Vosko Wilk Nusair interpolation
   ROPT   =    0.00000   0.00000   0.00000
 Ionic relaxation
   EDIFFG = -.2E-01   stopping-criterion for IOM
   NSW    =     20    number of steps for IOM
   NBLOCK =      1;   KBLOCK =     20    inner block; outer block 
   IBRION =      2    ionic relax: 0-MD 1-quasi-New 2-CG
   NFREE  =      1    steps in history (QN), initial steepest desc. (CG)
   ISIF   =      2    stress and relaxation
   IWAVPR =     11    prediction:  0-non 1-charg 2-wave 3-comb
   ISYM   =      2    0-nonsym 1-usesym 2-fastsym
   LCORR  =      T    Harris-Foulkes like correction to forces

   POTIM  = 0.5000    time-step for ionic-motion
   TEIN   =    0.0    initial temperature
   TEBEG  =    0.0;   TEEND  =   0.0 temperature during run
   SMASS  =  -3.00    Nose mass-parameter (am)
   estimated Nose-frequenzy (Omega)   =  0.10E-29 period in steps =****** mass=  -0.237E-26a.u.
   SCALEE = 1.0000    scale energy and forces
   NPACO  =    256;   APACO  = 16.0  distance and # of slots for P.C.
   PSTRESS=    0.0 pullay stress

  Mass of Ions in am
   POMASS =   7.01 47.88 16.00
  Ionic Valenz
   ZVAL   =   1.00  4.00  6.00
  Atomic Wigner-Seitz radii
   RWIGS  =  -1.00 -1.00 -1.00
  virtual crystal weights 
   VCA    =   1.00  1.00  1.00
   NELECT =     760.0000    total number of electrons
   NUPDOWN=      -1.0000    fix difference up-down

 DOS related values:
   EMIN   =  10.00;   EMAX   =-10.00  energy-range for DOS
   EFERMI =   0.00
   ISMEAR =     0;   SIGMA  =   0.05  broadening in eV -4-tet -1-fermi 0-gaus

 Electronic relaxation 2 (details)
   IALGO  =     38    algorithm
   LDIAG  =      T    sub-space diagonalisation (order eigenvalues)
   LSUBROT=      T    optimize rotation matrix (better conditioning)
   TURBO    =      0    0=normal 1=particle mesh
   IRESTART =      0    0=no restart 2=restart with 2 vectors
   NREBOOT  =      0    no. of reboots
   NMIN     =      0    reboot dimension
   EREF     =   0.00    reference energy to select bands
   IMIX   =      4    mixing-type and parameters
     AMIX     =   0.40;   BMIX     =  1.00
     AMIX_MAG =   1.60;   BMIX_MAG =  1.00
     AMIN     =   0.10
     WC   =   100.;   INIMIX=   1;  MIXPRE=   1;  MAXMIX= -45

 Intra band minimization:
   WEIMIN = 0.0010     energy-eigenvalue tresh-hold
   EBREAK =  0.52E-09  absolut break condition
   DEPER  =   0.30     relativ break condition  

   TIME   =   0.40     timestep for ELM

  volume/ion in A,a.u.               =       9.12        61.55
  Fermi-wavevector in a.u.,A,eV,Ry     =   1.241637  2.346353 20.975577  1.541661
  Thomas-Fermi vector in A             =   2.376026
 
 Write flags
   LWAVE  =      F    write WAVECAR
   LCHARG =      T    write CHGCAR
   LVTOT  =      F    write LOCPOT, total local potential
   LVHAR  =      F    write LOCPOT, Hartree potential only
   LELF   =      F    write electronic localiz. function (ELF)
   LORBIT =     12    0 simple, 1 ext, 2 COOP (PROOUT)


 Dipole corrections
   LMONO  =      F    monopole corrections only (constant potential shift)
   LDIPOL =      F    correct potential (dipole corrections)
   IDIPOL =      0    1-x, 2-y, 3-z, 4-all directions 
   EPSILON=  1.0000000 bulk dielectric constant

 Exchange correlation treatment:
   GGA     =    --    GGA type
   LEXCH   =     8    internal setting for exchange type
   VOSKOWN=      0    Vosko Wilk Nusair interpolation
   LHFCALC =     F    Hartree Fock is set to
   LHFONE  =     F    Hartree Fock one center treatment
   AEXX    =    0.0000 exact exchange contribution

 Linear response parameters
   LEPSILON=     F    determine dielectric tensor
   LRPA    =     F    only Hartree local field effects (RPA)
   LNABLA  =     F    use nabla operator in PAW spheres
   LVEL    =     F    velocity operator in full k-point grid
   LINTERFAST=   F  fast interpolation
   KINTER  =     0    interpolate to denser k-point grid
   CSHIFT  =0.1000    complex shift for real part using Kramers Kronig
   OMEGAMAX=  -1.0    maximum frequency
   DEG_THRESHOLD= 0.2000000E-02 threshold for treating states as degnerate
   RTIME   =    0.100 relaxation time in fs

 Orbital magnetization related:
   ORBITALMAG=     F  switch on orbital magnetization
   LCHIMAG   =     F  perturbation theory with respect to B field
   DQ        =  0.001000  dq finite difference perturbation B field



--------------------------------------------------------------------------------------------------------


 conjugate gradient relaxation of ions
 charge density and potential will be updated during run
 non-spin polarized calculation
 Variant of blocked Davidson
 Davidson routine will perform the subspace rotation
 perform sub-space diagonalisation
    after iterative eigenvector-optimisation
 modified Broyden-mixing scheme, WC =      100.0
 initial mixing is a Kerker type mixing with AMIX =  0.4000 and BMIX =      1.0000
 Hartree-type preconditioning will be used
 using additional bands          100
 reciprocal scheme for non local part
 use partial core corrections
 calculate Harris-corrections to forces 
   (improved forces if not selfconsistent)
 use gradient corrections 
 use of overlap-Matrix (Vanderbilt PP)
 Gauss-broadening in eV      SIGMA  =   0.05


--------------------------------------------------------------------------------------------------------


  energy-cutoff  :      400.00
  volume of cell :     1742.03
      direct lattice vectors                 reciprocal lattice vectors
    10.189295490  0.000000000 -0.016643149     0.098170818  0.000000000  0.017512993
     0.000000000 17.691178248  0.000000000     0.000000000  0.056525348  0.000000000
    -1.724480143  0.000000000  9.666744326     0.000169020  0.000000000  0.103477597

  length of vectors
    10.189309083 17.691178248  9.819357292     0.099720682  0.056525348  0.103477735


 
 k-points in units of 2pi/SCALE and weight: k-point mesh distance 0.0541499999999999
   0.00000000  0.00000000  0.00000000       0.250
   0.04908541  0.00000000  0.00875650       0.250
   0.00008451  0.00000000  0.05173880       0.250
   0.04916992  0.00000000  0.06049529       0.250
 
 k-points in reciprocal lattice and weights: k-point mesh distance 0.0541499999999999
   0.00000000  0.00000000  0.00000000       0.250
   0.50000000  0.00000000  0.00000000       0.250
   0.00000000  0.00000000  0.50000000       0.250
   0.50000000  0.00000000  0.50000000       0.250
 
 position of ions in fractional coordinates (direct lattice) 
   0.11994211  0.04124810  0.00263161
   0.61945449  0.04260538  0.00203101
   0.12104965  0.53928711  0.00007993
   0.62110186  0.53884987  0.99980587
   0.37904078  0.45963171  0.00069972
   0.87923529  0.45867058  0.00087004
   0.38011553  0.96200695  0.00249816
   0.87901347  0.96879395  0.01266515
   0.38104172  0.04136925  0.49846288
   0.88298467  0.04486086  0.49441022
   0.37881634  0.53887427  0.49970534
   0.87814525  0.53741222  0.49952097
   0.12017631  0.45897180  0.49802517
   0.61975710  0.45915921  0.49819338
   0.12247884  0.96391426  0.49328221
   0.62230328  0.95806388  0.50075193
   0.37027155  0.29077951  0.99989415
   0.87048668  0.29082823  0.00079192
   0.37524472  0.78924581  0.00116315
   0.87083738  0.78805756  0.99782886
   0.12891778  0.21187541  0.00316732
   0.62873431  0.21143924  0.00137359
   0.13428004  0.70487836  0.00638461
   0.62908732  0.70887463  0.00363628
   0.12941835  0.29081452  0.49922759
   0.62881626  0.29037612  0.49908869
   0.12450489  0.78936108  0.49945606
   0.60872211  0.78748581  0.49000311
   0.37038203  0.21103192  0.49724890
   0.87074931  0.21144048  0.49752938
   0.36706133  0.70786679  0.49851766
   0.87536591  0.69782257  0.49082104
   0.12620008  0.12641998  0.50038183
   0.62042476  0.12552112  0.49565277
   0.12611918  0.62192508  0.49521576
   0.62542748  0.62487092  0.50035386
   0.37416743  0.37479016  0.49823800
   0.87456109  0.37449535  0.49875995
   0.36956931  0.87309256  0.49158963
   0.88399294  0.88433665  0.49443982
   0.37715572  0.12584373  0.00170978
   0.87543673  0.12722756  0.99931676
   0.37573450  0.62335961  0.00242334
   0.87513150  0.62199536  0.00464928
   0.12476534  0.37496738  0.00050257
   0.62484466  0.37479540  0.00033588
   0.14116497  0.87721394  0.00978482
   0.62194525  0.87174527  0.00935125
   0.00038558  0.04348122  0.25125512
   0.50020234  0.04268452  0.25080962
   0.99972707  0.54154761  0.24991436
   0.50000227  0.54156676  0.25070457
   0.99930906  0.45713159  0.74981726
   0.49891274  0.45689398  0.74966228
   0.99848299  0.95643333  0.74852127
   0.49614335  0.96248999  0.75192333
   0.24979895  0.29241641  0.24994394
   0.74989518  0.29232303  0.24959216
   0.25022772  0.79158734  0.25074574
   0.75081070  0.79179410  0.25356014
   0.25028019  0.20964311  0.74954010
   0.74894825  0.21003892  0.74986248
   0.25733201  0.70448026  0.74949862
   0.74648439  0.69954979  0.76986053
   0.00022632  0.20892639  0.25039804
   0.50019095  0.20935119  0.24973999
   0.99987868  0.70851986  0.24881175
   0.49925209  0.70807113  0.24935047
   0.00023101  0.29226731  0.74987871
   0.49905632  0.29206076  0.74880544
   0.02658063  0.78858475  0.76757374
   0.50138001  0.78806537  0.74850711
   0.24970796  0.45807509  0.24907358
   0.74977188  0.45804505  0.24981788
   0.25009630  0.95982696  0.25114392
   0.74977674  0.95934230  0.25168071
   0.24853835  0.04352730  0.75172025
   0.75099994  0.04716898  0.74403856
   0.24784421  0.54088897  0.74932950
   0.74862668  0.53926065  0.74913740
   0.99983379  0.37484260  0.24979899
   0.49978489  0.37514072  0.24946475
   0.99971486  0.87469561  0.24734848
   0.49950985  0.87550492  0.24984432
   0.00220790  0.12661940  0.75183173
   0.49854319  0.12658231  0.74936623
   0.99690853  0.62352026  0.74988654
   0.49934554  0.62231567  0.74980629
   0.25037197  0.12585278  0.24911169
   0.74967391  0.12575380  0.24881249
   0.25025023  0.62392659  0.25115862
   0.74943972  0.62393024  0.24920173
   0.24970533  0.37524929  0.74962611
   0.74952560  0.37407624  0.74959388
   0.25828856  0.87911269  0.74356777
   0.73895168  0.88484429  0.76829901
   0.06986510  0.13143645  0.13600844
   0.56978643  0.13141827  0.13540460
   0.06987589  0.63134013  0.13551754
   0.56959233  0.63130701  0.13652269
   0.42941354  0.36889917  0.86315495
   0.92974209  0.36864302  0.86361672
   0.43212222  0.86921078  0.86005265
   0.92122739  0.86169769  0.84541865
   0.43019935  0.13147794  0.36369658
   0.93000157  0.13164433  0.36411791
   0.43009721  0.63135359  0.36425477
   0.93111367  0.62995519  0.36197266
   0.06921146  0.36872347  0.63581613
   0.56942104  0.36863000  0.63559107
   0.06926337  0.86572391  0.63980122
   0.58094350  0.86459377  0.63421643
   0.31944740  0.38142071  0.13536479
   0.81966465  0.38129855  0.13566151
   0.32096048  0.88188252  0.13562791
   0.82052119  0.88254618  0.13532781
   0.18027412  0.11881827  0.86514904
   0.68079939  0.11931009  0.86208195
   0.17815567  0.61972835  0.86172954
   0.67860244  0.61673438  0.86531542
   0.18000093  0.38134466  0.36359269
   0.67984957  0.38129241  0.36357228
   0.17964251  0.88185662  0.36320047
   0.68196047  0.88076324  0.36579523
   0.31921061  0.11862359  0.63605352
   0.81950610  0.11945476  0.63326870
   0.31973512  0.61896394  0.63587208
   0.81738436  0.61964432  0.63626175
   0.05281672  0.29203313  0.13600461
   0.55265075  0.29213798  0.13551807
   0.05315718  0.79219516  0.13519893
   0.55362416  0.79214251  0.13657908
   0.44677573  0.20807981  0.86338599
   0.94685395  0.20780347  0.86356302
   0.44839669  0.70779466  0.86272842
   0.94337143  0.70846940  0.86155941
   0.44673089  0.29213057  0.36325290
   0.94693571  0.29208558  0.36384591
   0.44395319  0.79200897  0.36239653
   0.94598072  0.79253204  0.36402767
   0.05310486  0.20782049  0.63672628
   0.55187861  0.20810091  0.63545856
   0.04384533  0.71075507  0.63420237
   0.55690578  0.70705875  0.63638659
   0.30316139  0.04225598  0.13616895
   0.80303455  0.04246418  0.13622562
   0.30267514  0.54208254  0.13592181
   0.80264064  0.54205836  0.13570541
   0.19582950  0.45860002  0.86304360
   0.69666706  0.45759988  0.86327625
   0.19856047  0.95689974  0.86142715
   0.69098447  0.96111273  0.87256757
   0.19717110  0.04215913  0.36398254
   0.69762792  0.04223911  0.36405989
   0.19690372  0.54196558  0.36396254
   0.69705513  0.54199469  0.36354265
   0.30157570  0.45839839  0.63580359
   0.80272053  0.45797158  0.63574815
   0.30483433  0.95829136  0.63299463
   0.80141841  0.95538900  0.64084950
   0.06899072  0.45301676  0.13345937
   0.56908093  0.45299385  0.13341950
   0.06985270  0.95313934  0.13169260
   0.56921505  0.95308344  0.13546046
   0.42979956  0.04752119  0.86581216
   0.92914038  0.04733383  0.86478775
   0.42944695  0.54687015  0.86579823
   0.93015451  0.54703195  0.86531967
   0.43041672  0.45292235  0.36571792
   0.93037730  0.45278240  0.36607002
   0.43088033  0.95269227  0.36688375
   0.93244228  0.95473472  0.36534484
   0.06999241  0.04740664  0.63435535
   0.56938008  0.04679170  0.63404464
   0.06752059  0.54797561  0.63253028
   0.56820926  0.54616042  0.63342705
   0.31891545  0.20323340  0.13344914
   0.81906350  0.20332058  0.13365812
   0.32008529  0.70247268  0.13377006
   0.81924863  0.70272893  0.13382473
   0.18033446  0.29734099  0.86597539
   0.68027290  0.29703932  0.86553418
   0.19114522  0.79427422  0.87498278
   0.68232334  0.79570011  0.86630325
   0.18091500  0.20323882  0.36604204
   0.68033166  0.20327521  0.36558863
   0.17982911  0.70270026  0.36616755
   0.68154503  0.70347628  0.36858228
   0.31852551  0.29730289  0.63341166
   0.81892838  0.29690367  0.63363463
   0.32158829  0.79661653  0.63265633
 
 position of ions in cartesian coordinates  (Angst):
   1.21758747  0.72972744  0.02344290
   6.30830239  0.75373929  0.00932363
   1.23327282  9.54062439 -0.00124202
   4.60444499  9.53288902  9.65453068
   3.86095190  8.13142648  0.00045557
   8.95728780  8.11442305 -0.00622282
   3.86880141 17.01903639  0.01782277
   8.93468721 17.13910646  0.10780118
   3.02295736  0.73187079  4.81217151
   8.14439114  0.79364148  4.76464156
   2.99813967  9.53332074  4.82421902
   8.08626743  9.50745543  4.81412636
   0.36567737  8.11975201  4.81228188
   5.45576360  8.12306748  4.80559333
   0.39731767 17.05277905  4.76639461
   5.47729524 16.94927880  4.83028375
   2.04850861  5.14423223  9.65955866
   8.86828041  5.14509411 -0.00683238
   3.82147352 13.96268823  0.00499859
   7.15248329 13.94166671  9.63126297
   1.30811934  3.74832557  0.02847204
   6.40399094  3.74060927  0.00281406
   1.35720886 12.47012874  0.05948358
   6.40368589 12.54082750  0.02468102
   0.45777370  5.14485159  4.82375151
   5.54652611  5.13709565  4.81409725
   0.40731502 13.96472751  4.82604188
   5.35744880 13.93155187  4.72660378
   2.91643611  3.73340338  4.80061366
   8.01434248  3.74063129  4.79499732
   2.88041255 12.52299756  4.81293367
   8.07295078 12.34530346  4.73007261
   0.42299136  2.23651846  4.83496285
   5.46694780  2.22061645  4.78102280
   0.43107585 11.00258740  4.78502512
   5.50981509 11.05470280  4.82638377
   2.95330100  6.63047957  4.81011202
   8.05105979  6.62526401  4.80682942
   2.91791436 15.44603610  4.74592045
   8.15461366 15.64495731  4.76491087
   3.84000258  2.22632388  0.01025092
   7.19678159  2.25080543  9.64556964
   3.82429089 11.02796590  0.01717239
   8.90895583 11.00383070  0.03037843
   1.27040425  6.63361474  0.00278168
   6.36614766  6.63057227 -0.00715254
   1.42149790 15.51894813  0.09223790
   6.32105790 15.42220096  0.08004503
  -0.42935571  0.76923407  2.42881256
   4.66419327  0.75513951  2.41618749
   9.75554213  9.58061537  2.39921962
   4.66233578  9.58095410  2.41517541
   8.88921029  8.08719639  7.23166005
   3.79079159  8.08299291  7.23849007
   8.88302817 16.92043249  7.21914587
   3.75867431 17.02758206  7.26039324
   2.11425196  5.17319090  2.41198673
   7.21048683  5.17153890  2.40026296
   2.11723808 14.00411271  2.41973037
   7.21297269 14.00777061  2.43860517
   1.25761184  3.70883355  7.24144704
   6.33813212  3.71583598  7.23626397
   1.32953641 12.46308587  7.24092871
   6.27854087 12.37586001  7.42962109
  -0.42950045  3.69615393  2.42053008
   4.66592169  3.70366924  2.40584785
   9.75898840 12.53455108  2.38855844
   4.65702709 12.52661259  2.40209811
  -1.29079714  5.17055314  7.24888191
   3.79373217  5.16689890  7.23020482
  -1.05282774 13.95099346  7.41949666
   3.81792347 13.94180497  7.22728235
   2.11482577  8.10388801  2.40357471
   7.20884128  8.10335664  2.40244696
   2.11521237 16.98046980  2.42358169
   7.20567842 16.97189562  2.42045443
   1.23610407  0.77004931  7.26255096
   6.36908056  0.83447477  7.17993153
   1.23315402  9.56896322  7.23945181
   6.33610588  9.54015632  7.22926018
   9.75682850  6.63140730  2.39810261
   4.66225894  6.63668126  2.40319400
   9.75984252 15.47439597  2.37441616
   4.65880185 15.48871364  2.40686770
  -1.27402196  2.24004634  7.26772838
   3.78753671  2.23939023  7.23563444
   8.86463118 11.03080804  7.23236972
   3.79495318 11.00949737  7.23987500
   2.12152578  2.22648403  2.40393203
   7.20957683  2.22473291  2.39272979
   2.11675545 11.03799644  2.42372122
   7.20651933 11.03806106  2.39649640
   1.25160605  6.63860210  7.24228808
   6.34447806  6.61784945  7.23365793
   1.34951064 15.55253934  7.18358081
   6.20448060 15.65393801  7.41465166
   0.47733232  2.32526563  1.31359605
   5.57221974  2.32494408  1.29943860
   0.47828882 11.16915077  1.30885044
   5.56831386 11.16856486  1.31025014
   2.88692793  6.52626092  8.33675141
   7.98412703  6.52172929  8.33288822
   2.91987726 15.37736282  8.30671725
   7.92875037 15.24444746  8.15711381
   3.75624077  2.32599964  3.50860194
   8.84814668  2.32894333  3.50435658
   3.75423742 11.16938886  3.51399958
   8.86317764 11.14464956  3.48360046
  -0.39123632  6.52315265  6.14512009
   4.70593503  6.52149898  6.13461938
  -0.39757955 15.31567595  6.18364206
   4.82571136 15.29568249  6.12113931
   3.02151008  6.74778176  1.30322024
   8.11785978  6.74562058  1.29776329
   3.03647352 15.60154093  1.30573854
   8.12716273 15.61328182  1.29452333
   0.34493398  2.10203512  8.36017422
   5.45022297  2.11073604  8.32219513
   0.32924525 10.96372470  8.32715407
   5.42226153 10.91075779  8.35348887
   1.20707424  6.74643630  3.51176183
   6.30021500  6.74551203  3.50324544
   1.20409861 15.60108274  3.50797628
   6.31789016 15.58173942  3.52469897
   2.15566956  2.09859110  6.14325405
   7.25813052  2.11329538  6.10800745
   2.16132688 10.95020133  6.14149141
   7.23134998 10.96223820  6.13697584
   0.30362793  5.16641020  1.31384280
   5.39742353  5.16826500  1.30082071
   0.30848636 14.01486586  1.30604881
   5.40551228 14.01393435  1.31106104
   3.06343797  3.68117697  8.33869590
   8.15857740  3.67628824  8.33208432
   3.08108836 12.52172141  8.33231235
   8.12654815 12.53365845  8.31277389
   3.92545063  5.16813395  3.50403789
   9.02116272  5.16733801  3.50144537
   3.89862463 14.01157180  3.49580585
   9.01111857 14.02082564  3.50321829
  -0.55692073  3.67658939  6.15418636
   4.52741857  3.68155033  6.13363047
  -0.64691636 12.57409468  6.12994247
   4.57704153 12.50870238  6.14251776
   2.85418037  0.74755804  1.31126490
   7.94743791  0.75124134  1.30349320
   2.84965200  9.59007890  1.30888390
   7.94432138  9.58965101  1.29847104
   0.50706306  8.11317465  8.33956265
   5.60984381  8.09548108  8.33347608
   0.53767727 16.92868380  8.32389130
   5.53591945 17.00321668  8.42338747
   1.38135392  0.74584464  3.51524464
   6.48052294  0.74725955  3.50766319
   1.37866401  9.58800977  3.51505575
   6.47557860  9.58852475  3.50267265
   1.97641326  8.10960755  6.14113162
   7.08282162  8.10205688  6.13225506
   2.01446038 16.95330330  6.11392387
   7.06075676 16.90195711  6.18159010
   0.47281883  8.01440030  1.28896934
   5.56845448  8.01399503  1.28026092
   0.48464850 16.86215796  1.27187616
   5.56630150 16.86116898  1.29998808
   2.88627884  0.84070576  8.36243156
   7.97597662  0.83739121  8.34421821
   2.88271007  9.67477724  8.36230274
   7.98539258  9.67763969  8.34934326
   3.75496986  8.01272999  3.52813817
   8.84860880  8.01025413  3.52322085
   3.75768323 16.85424870  3.53940021
   8.87090002 16.89038214  3.51617638
  -0.38075981  0.83867926  6.13098607
   4.70818447  0.82780036  6.11967118
  -0.40279870  9.69433425  6.11338479
   4.69731969  9.66222127  6.11372058
   3.01939336  3.59543823  1.28471095
   8.11518922  3.59698061  1.27840704
   3.03075984 12.42756941  1.28779370
   8.11678830 12.43210279  1.28001456
   0.34412376  5.26031252  8.36816134
   5.43890509  5.25497554  8.35557575
   0.43874469 14.05164689  8.45505360
   5.45847142 14.07687244  8.36297599
   1.21216415  3.59553413  3.53542377
   6.30165003  3.59617804  3.52272893
   1.20088327 12.43159561  3.53665515
   6.30885092 12.44532431  3.55164759
   2.15324473  5.25963850  6.11772728
   7.25161293  5.25257575  6.11155439
   2.18575479 14.09308508  6.11037478
 


--------------------------------------------------------------------------------------------------------


 k-point  1 :   0.0000 0.0000 0.0000  plane waves:   31585
 k-point  2 :   0.5000 0.0000 0.0000  plane waves:   31594
 k-point  3 :   0.0000 0.0000 0.5000  plane waves:   31698
 k-point  4 :   0.5000 0.0000 0.5000  plane waves:   31624

 maximum and minimum number of plane-waves per node :     31698    31585

 maximum number of plane-waves:     31698
 maximum index in each direction: 
   IXMAX=   16   IYMAX=   28   IZMAX=   16
   IXMIN=  -17   IYMIN=  -28   IZMIN=  -16

 NGX is ok and might be reduce to  68
 NGY is ok and might be reduce to 114
 WARNING: aliasing errors must be expected set NGZ to  66 to avoid them
 aliasing errors are usually negligible using standard VASP settings
 and one can safely disregard these warnings

 serial   3D FFT for wavefunctions
 parallel 3D FFT for charge:
    minimum data exchange during FFTs selected (reduces bandwidth)


 total amount of memory used by VASP on root node   289661. kBytes
========================================================================

   base      :      30000. kBytes
   nonl-proj :     142577. kBytes
   fftplans  :      11585. kBytes
   grid      :      39540. kBytes
   one-center:       2062. kBytes
   wavefun   :      63897. kBytes
 
 Broyden mixing: mesh for mixing (old mesh)
   NGX = 33   NGY = 57   NGZ = 33
  (NGX  =140   NGY  =240   NGZ  =128)
  gives a total of  62073 points

 initial charge density was supplied:
 charge density of overlapping atoms calculated
 number of electron     762.0000000 magnetization 
 keeping initial charge density in first step


--------------------------------------------------------------------------------------------------------


 Maximum index for augmentation-charges         1518 (set IRDMAX)


--------------------------------------------------------------------------------------------------------


 First call to EWALD:  gamma=   0.147
 Maximum number of real-space cells 3x 2x 3
 Maximum number of reciprocal cells 2x 4x 2

 FEWALD executed in parallel
    FEWALD:  cpu time    0.01: real time    0.01


----------------------------------------- Iteration    1(   1)  ---------------------------------------


    POTLOK:  cpu time    0.27: real time    0.28
    SETDIJ:  cpu time    1.37: real time    1.38
     EDDAV:  cpu time  129.61: real time  129.93
       DOS:  cpu time    0.00: real time    0.00
    --------------------------------------------
      LOOP:  cpu time  131.29: real time  131.61

 eigenvalue-minimisations  :  3840
 total energy-change (2. order) : 0.8610385E+04  (-0.2688196E+05)
 number of electron     762.0000000 magnetization 
 augmentation part      762.0000000 magnetization 

 Free energy of the ion-electron system (eV)
  ---------------------------------------------------
  alpha Z        PSCENC =      2268.98187757
  Ewald energy   TEWEN  =    -33573.93851647
  -1/2 Hartree   DENC   =    -12683.86305387
  -exchange  EXHF       =         0.00000000
  -V(xc)+E(xc)   XCENC  =      1198.49403041
  PAW double counting   =     37429.11283322   -35949.39772417
  entropy T*S    EENTRO =        -0.05366268
  eigenvalues    EBANDS =      5483.48703148
  atomic energy  EATOM  =     44437.56186158
  ---------------------------------------------------
  free energy    TOTEN  =      8610.38467708 eV

  energy without entropy =     8610.43833976  energy(sigma->0) =     8610.41150842


--------------------------------------------------------------------------------------------------------




----------------------------------------- Iteration    1(   2)  ---------------------------------------


     EDDAV:  cpu time  130.90: real time  131.22
       DOS:  cpu time    0.00: real time    0.00
    --------------------------------------------
      LOOP:  cpu time  130.90: real time  131.22

 eigenvalue-minimisations  :  3904
 total energy-change (2. order) :-0.7716895E+04  (-0.7186041E+04)
 number of electron     762.0000000 magnetization 
 augmentation part      762.0000000 magnetization 

 Free energy of the ion-electron system (eV)
  ---------------------------------------------------
  alpha Z        PSCENC =      2268.98187757
  Ewald energy   TEWEN  =    -33573.93851647
  -1/2 Hartree   DENC   =    -12683.86305387
  -exchange  EXHF       =         0.00000000
  -V(xc)+E(xc)   XCENC  =      1198.49403041
  PAW double counting   =     37429.11283322   -35949.39772417
  entropy T*S    EENTRO =        -0.05858577
  eigenvalues    EBANDS =     -2233.40321845
  atomic energy  EATOM  =     44437.56186158
  ---------------------------------------------------
  free energy    TOTEN  =       893.48950407 eV

  energy without entropy =      893.54808984  energy(sigma->0) =      893.51879695


--------------------------------------------------------------------------------------------------------




----------------------------------------- Iteration    1(   3)  ---------------------------------------


     EDDAV:  cpu time  141.90: real time  142.25
       DOS:  cpu time    0.00: real time    0.00
    --------------------------------------------
      LOOP:  cpu time  141.90: real time  142.35

 eigenvalue-minimisations  :  4320
 total energy-change (2. order) :-0.2374072E+04  (-0.2314183E+04)
 number of electron     762.0000000 magnetization 
 augmentation part      762.0000000 magnetization 

 Free energy of the ion-electron system (eV)
  ---------------------------------------------------
  alpha Z        PSCENC =      2268.98187757
  Ewald energy   TEWEN  =    -33573.93851647
  -1/2 Hartree   DENC   =    -12683.86305387
  -exchange  EXHF       =         0.00000000
  -V(xc)+E(xc)   XCENC  =      1198.49403041
  PAW double counting   =     37429.11283322   -35949.39772417
  entropy T*S    EENTRO =         0.00000000
  eigenvalues    EBANDS =     -4607.53407489
  atomic energy  EATOM  =     44437.56186158
  ---------------------------------------------------
  free energy    TOTEN  =     -1480.58276661 eV

  energy without entropy =    -1480.58276661  energy(sigma->0) =    -1480.58276661


--------------------------------------------------------------------------------------------------------




----------------------------------------- Iteration    1(   4)  ---------------------------------------


     EDDAV:  cpu time  182.25: real time  182.70
       DOS:  cpu time    0.00: real time    0.00
    --------------------------------------------
      LOOP:  cpu time  182.26: real time  182.71

 eigenvalue-minimisations  :  5872
 total energy-change (2. order) :-0.1983332E+03  (-0.1971330E+03)
 number of electron     762.0000000 magnetization 
 augmentation part      762.0000000 magnetization 

 Free energy of the ion-electron system (eV)
  ---------------------------------------------------
  alpha Z        PSCENC =      2268.98187757
  Ewald energy   TEWEN  =    -33573.93851647
  -1/2 Hartree   DENC   =    -12683.86305387
  -exchange  EXHF       =         0.00000000
  -V(xc)+E(xc)   XCENC  =      1198.49403041
  PAW double counting   =     37429.11283322   -35949.39772417
  entropy T*S    EENTRO =         0.00000000
  eigenvalues    EBANDS =     -4805.86725994
  atomic energy  EATOM  =     44437.56186158
  ---------------------------------------------------
  free energy    TOTEN  =     -1678.91595166 eV

  energy without entropy =    -1678.91595166  energy(sigma->0) =    -1678.91595166


--------------------------------------------------------------------------------------------------------




----------------------------------------- Iteration    1(   5)  ---------------------------------------


     EDDAV:  cpu time  170.19: real time  170.57
       DOS:  cpu time    0.00: real time    0.00
    CHARGE:  cpu time    1.70: real time    1.70
    MIXING:  cpu time    0.01: real time    0.01
    --------------------------------------------
      LOOP:  cpu time  171.90: real time  172.29

 eigenvalue-minimisations  :  5408
 total energy-change (2. order) :-0.5356965E+01  (-0.5346553E+01)
 number of electron     760.0000071 magnetization 
 augmentation part       85.5400438 magnetization 

 Broyden mixing:
  rms(total) = 0.16836E+02    rms(broyden)= 0.16834E+02
  rms(prec ) = 0.17714E+02
  weight for this iteration     100.00

 Free energy of the ion-electron system (eV)
  ---------------------------------------------------
  alpha Z        PSCENC =      2268.98187757
  Ewald energy   TEWEN  =    -33573.93851647
  -1/2 Hartree   DENC   =    -12683.86305387
  -exchange  EXHF       =         0.00000000
  -V(xc)+E(xc)   XCENC  =      1198.49403041
  PAW double counting   =     37429.11283322   -35949.39772417
  entropy T*S    EENTRO =         0.00000000
  eigenvalues    EBANDS =     -4811.22422512
  atomic energy  EATOM  =     44437.56186158
  ---------------------------------------------------
  free energy    TOTEN  =     -1684.27291684 eV

  energy without entropy =    -1684.27291684  energy(sigma->0) =    -1684.27291684


--------------------------------------------------------------------------------------------------------




----------------------------------------- Iteration    1(   6)  ---------------------------------------


    POTLOK:  cpu time    0.29: real time    0.29
    SETDIJ:  cpu time    1.39: real time    1.39
[...]
      7.20568     16.97190      2.42045         0.005389      0.002556     -0.000585
      1.23610      0.77005      7.26255        -0.007171      0.001992      0.003531
      6.36908      0.83447      7.17993         0.004735      0.009024      0.000961
      1.23315      9.56896      7.23945         0.003015      0.003099     -0.001868
      6.33611      9.54016      7.22926        -0.003938      0.003597      0.000963
      9.75683      6.63141      2.39810         0.001991      0.004620     -0.001567
      4.66226      6.63668      2.40319        -0.001680      0.000472     -0.000643
      9.75984     15.47440      2.37442        -0.003280      0.004043     -0.002739
      4.65880     15.48871      2.40687         0.002143      0.000599     -0.003925
     -1.27402      2.24005      7.26773         0.002745     -0.004833     -0.000316
      3.78754      2.23939      7.23563        -0.004146     -0.001823      0.001263
      8.86463     11.03081      7.23237        -0.001945     -0.009162      0.004726
      3.79495     11.00950      7.23987         0.005704     -0.005526      0.002959
      2.12153      2.22648      2.40393         0.000637     -0.002262     -0.000710
      7.20958      2.22473      2.39273        -0.000333      0.002651     -0.002199
      2.11676     11.03800      2.42372        -0.002765     -0.001797     -0.002146
      7.20652     11.03806      2.39650         0.000880      0.000385     -0.002421
      1.25161      6.63860      7.24229         0.005449     -0.002322      0.002761
      6.34448      6.61785      7.23366        -0.000418     -0.002103     -0.001952
      1.34951     15.55254      7.18358         0.006091      0.012868     -0.004480
      6.20448     15.65394      7.41465        -0.001670      0.010434      0.011594
      0.47733      2.32527      1.31360         0.000348      0.000646     -0.000129
      5.57222      2.32494      1.29944         0.000367      0.001565     -0.001151
      0.47829     11.16915      1.30885        -0.002317     -0.002882      0.002222
      5.56831     11.16856      1.31025        -0.000267      0.003229      0.000389
      2.88693      6.52626      8.33675        -0.000725     -0.000470     -0.004522
      7.98413      6.52173      8.33289        -0.000497     -0.003316     -0.004405
      2.91988     15.37736      8.30672        -0.000119      0.000541      0.002309
      7.92875     15.24445      8.15711         0.000580     -0.005468     -0.000538
      3.75624      2.32600      3.50860         0.001823     -0.000179     -0.000025
      8.84815      2.32894      3.50436        -0.000464     -0.000136      0.000482
      3.75424     11.16939      3.51400         0.000415      0.000361      0.002411
      8.86318     11.14465      3.48360        -0.001817      0.001062      0.001919
     -0.39124      6.52315      6.14512         0.000975     -0.001493      0.000901
      4.70594      6.52150      6.13462        -0.000214     -0.000519     -0.000384
     -0.39758     15.31568      6.18364        -0.003134     -0.003085      0.000114
      4.82571     15.29568      6.12114         0.004320     -0.002694      0.000440
      3.02151      6.74778      1.30322        -0.000966     -0.000449      0.001186
      8.11786      6.74562      1.29776        -0.000475     -0.001708     -0.001280
      3.03647     15.60154      1.30574        -0.001718     -0.003121     -0.004114
      8.12716     15.61328      1.29452        -0.002809     -0.000738     -0.000748
      0.34493      2.10204      8.36017         0.001915     -0.000683     -0.002506
      5.45022      2.11074      8.32220         0.003023      0.000452     -0.002442
      0.32925     10.96372      8.32715        -0.002030     -0.000588      0.001212
      5.42226     10.91076      8.35349        -0.003945     -0.003384      0.000795
      1.20707      6.74644      3.51176        -0.000464     -0.003254      0.002326
      6.30021      6.74551      3.50325         0.001966      0.000269     -0.000618
      1.20410     15.60108      3.50798         0.002759     -0.002621     -0.000237
      6.31789     15.58174      3.52470         0.001033     -0.004560      0.005973
      2.15567      2.09859      6.14325        -0.002423      0.000015     -0.004905
      7.25813      2.11330      6.10801         0.001987     -0.001002     -0.003321
      2.16133     10.95020      6.14149         0.001237     -0.001569      0.001581
      7.23135     10.96224      6.13698         0.000739      0.003435     -0.000459
      0.30363      5.16641      1.31384         0.002076     -0.002276     -0.000617
      5.39742      5.16826      1.30082         0.001049     -0.002457     -0.002476
      0.30849     14.01487      1.30605         0.001692      0.000055     -0.000266
      5.40551     14.01393      1.31106        -0.000618      0.000686     -0.001497
      3.06344      3.68118      8.33870         0.001275     -0.001965     -0.002936
      8.15858      3.67629      8.33208        -0.002121     -0.000567      0.001238
      3.08109     12.52172      8.33231        -0.003296     -0.002232      0.002876
      8.12655     12.53366      8.31277        -0.003103      0.004484     -0.003207
      3.92545      5.16813      3.50404        -0.004635     -0.002550      0.002015
      9.02116      5.16734      3.50145        -0.000986     -0.002568     -0.000328
      3.89862     14.01157      3.49581         0.000617      0.002624      0.000172
      9.01112     14.02083      3.50322        -0.005741      0.003100      0.003677
     -0.55692      3.67659      6.15419         0.002234     -0.000939     -0.000788
      4.52742      3.68155      6.13363         0.002074     -0.002234     -0.001493
     -0.64692     12.57409      6.12994        -0.005679      0.006486     -0.000778
      4.57704     12.50870      6.14252         0.003154      0.000722     -0.003615
      2.85418      0.74756      1.31126        -0.000532      0.000400      0.000383
      7.94744      0.75124      1.30349         0.001571     -0.000397     -0.001478
      2.84965      9.59008      1.30888         0.000442      0.001978     -0.001571
      7.94432      9.58965      1.29847         0.001553      0.000015      0.000478
      0.50706      8.11317      8.33956        -0.002956      0.002937     -0.001178
      5.60984      8.09548      8.33348         0.000171     -0.002499      0.001313
      0.53768     16.92868      8.32389        -0.000940     -0.004559      0.001848
      5.53592     17.00322      8.42339        -0.002427     -0.003339      0.001531
      1.38135      0.74584      3.51524        -0.000192      0.000158      0.000952
      6.48052      0.74726      3.50766        -0.001607      0.004287      0.002502
      1.37866      9.58801      3.51506        -0.002495      0.002599      0.000760
      6.47558      9.58852      3.50267        -0.001546      0.001011      0.001868
      1.97641      8.10961      6.14113        -0.002857      0.003406      0.002211
      7.08282      8.10206      6.13226         0.000139     -0.001734     -0.001379
      2.01446     16.95330      6.11392        -0.001488     -0.004001      0.000570
      7.06076     16.90196      6.18159         0.005081     -0.008489     -0.006153
      0.47282      8.01440      1.28897        -0.002258      0.001090     -0.001188
      5.56845      8.01400      1.28026         0.001131      0.000031     -0.001224
      0.48465     16.86216      1.27188         0.000116      0.003324      0.000372
      5.56630     16.86117      1.29999         0.001780     -0.000599      0.000131
      2.88628      0.84071      8.36243        -0.001248     -0.003239     -0.002545
      7.97598      0.83739      8.34422        -0.002409      0.000491      0.000091
      2.88271      9.67478      8.36230        -0.002576     -0.002896      0.001270
      7.98539      9.67764      8.34934        -0.001433     -0.002360      0.003115
      3.75497      8.01273      3.52814         0.000614     -0.000617      0.000594
      8.84861      8.01025      3.52322        -0.000665      0.002009     -0.001762
      3.75768     16.85425      3.53940         0.001505      0.001296      0.000827
      8.87090     16.89038      3.51618        -0.001161     -0.001094      0.004906
     -0.38076      0.83868      6.13099         0.002125      0.000205     -0.000824
      4.70818      0.82780      6.11967        -0.002153      0.002473      0.002085
     -0.40280      9.69433      6.11338        -0.002586     -0.000131     -0.000161
      4.69732      9.66222      6.11372        -0.001158     -0.001542      0.000354
      3.01939      3.59544      1.28471        -0.000640      0.000409      0.000828
      8.11519      3.59698      1.27841         0.000993      0.001335     -0.002867
      3.03076     12.42757      1.28779        -0.001774      0.003453      0.000028
      8.11679     12.43210      1.28001        -0.000436      0.001395     -0.003771
      0.34412      5.26031      8.36816        -0.000002      0.000133     -0.006349
      5.43891      5.25498      8.35558         0.000253     -0.000968     -0.001357
      0.43874     14.05165      8.45505        -0.001052     -0.002436      0.001948
      5.45847     14.07687      8.36298         0.002394     -0.003367     -0.000095
      1.21216      3.59553      3.53542         0.001356      0.002265      0.001977
      6.30165      3.59618      3.52273         0.002675      0.001305      0.000865
      1.20088     12.43160      3.53666         0.001910      0.003558      0.002781
      6.30885     12.44532      3.55165         0.000585      0.005178      0.002217
      2.15324      5.25964      6.11773         0.000330     -0.000557      0.002317
      7.25161      5.25258      6.11155         0.001570      0.000107      0.002968
      2.18575     14.09309      6.11037         0.003311     -0.003033      0.003201
 -----------------------------------------------------------------------------------
    total drift:                               -0.000139     -0.005541      0.001851


--------------------------------------------------------------------------------------------------------



  FREE ENERGIE OF THE ION-ELECTRON SYSTEM (eV)
  ---------------------------------------------------
  free  energy   TOTEN  =     -1345.53448100 eV

  energy  without entropy=    -1345.53448100  energy(sigma->0) =    -1345.53448100
 


--------------------------------------------------------------------------------------------------------


    POTLOK:  cpu time    1.69: real time    1.69


--------------------------------------------------------------------------------------------------------




--------------------------------------------------------------------------------------------------------


  
 reached required accuracy - stopping structural energy minimisation
     LOOP+:  cpu time 3648.23: real time 3656.83
    4ORBIT:  cpu time    0.00: real time    0.00
 


 total charge     
 
# of ion     s       p       d       tot
----------------------------------------
  1        0.081   0.173   0.000   0.254
  2        0.082   0.175   0.000   0.257
  3        0.080   0.172   0.000   0.253
  4        0.082   0.176   0.000   0.257
  5        0.081   0.173   0.000   0.254
  6        0.081   0.174   0.000   0.254
  7        0.080   0.172   0.000   0.253
  8        0.084   0.179   0.000   0.263
  9        0.081   0.174   0.000   0.255
 10        0.082   0.176   0.000   0.258
 11        0.081   0.174   0.000   0.255
 12        0.081   0.174   0.000   0.255
 13        0.081   0.174   0.000   0.255
 14        0.081   0.174   0.000   0.255
 15        0.082   0.175   0.000   0.257
 16        0.081   0.173   0.000   0.254
 17        0.081   0.173   0.000   0.254
 18        0.081   0.174   0.000   0.255
 19        0.083   0.178   0.000   0.260
 20        0.080   0.172   0.000   0.252
 21        0.081   0.174   0.000   0.255
 22        0.081   0.173   0.000   0.254
 23        0.084   0.183   0.000   0.267
 24        0.082   0.176   0.000   0.258
 25        0.081   0.174   0.000   0.255
 26        0.081   0.174   0.000   0.255
 27        0.081   0.174   0.000   0.255
 28        0.093   0.202   0.000   0.296
 29        0.081   0.174   0.000   0.255
 30        0.081   0.173   0.000   0.254
 31        0.081   0.174   0.000   0.255
 32        0.093   0.202   0.000   0.295
 33        0.083   0.177   0.000   0.260
 34        0.083   0.178   0.000   0.260
 35        0.083   0.178   0.000   0.262
 36        0.083   0.179   0.000   0.262
 37        0.082   0.177   0.000   0.259
 38        0.083   0.177   0.000   0.260
 39        0.084   0.180   0.000   0.264
 40        0.084   0.178   0.000   0.262
 41        0.083   0.178   0.000   0.261
 42        0.083   0.178   0.000   0.260
 43        0.082   0.176   0.000   0.258
 44        0.083   0.178   0.000   0.261
 45        0.083   0.177   0.000   0.260
 46        0.082   0.177   0.000   0.259
 47        0.085   0.182   0.000   0.267
 48        0.084   0.181   0.000   0.265
 49        0.089   0.198   0.000   0.286
 50        0.087   0.195   0.000   0.282
 51        0.088   0.197   0.000   0.285
 52        0.087   0.195   0.000   0.282
 53        0.088   0.196   0.000   0.284
 54        0.088   0.196   0.000   0.284
 55        0.084   0.185   0.000   0.270
 56        0.090   0.200   0.000   0.289
 57        0.088   0.196   0.000   0.284
 58        0.088   0.196   0.000   0.284
 59        0.087   0.195   0.000   0.282
 60        0.088   0.194   0.000   0.282
 61        0.087   0.196   0.000   0.283
 62        0.088   0.197   0.000   0.285
 63        0.089   0.198   0.000   0.288
 64        0.097   0.214   0.000   0.312
 65        0.558   1.085   2.633   4.276
 66        0.558   1.086   2.635   4.280
 67        0.555   1.078   2.623   4.256
 68        0.557   1.081   2.628   4.266
 69        0.558   1.086   2.637   4.281
 70        0.558   1.085   2.638   4.281
 71        0.608   1.068   2.870   4.546
 72        0.560   1.086   2.636   4.282
 73        0.558   1.085   2.635   4.278
 74        0.558   1.085   2.635   4.277
 75        0.558   1.084   2.637   4.279
 76        0.557   1.080   2.627   4.264
 77        0.558   1.082   2.646   4.286
 78        0.561   1.070   2.674   4.305
 79        0.557   1.083   2.633   4.273
 80        0.559   1.088   2.643   4.289
 81        0.558   1.085   2.634   4.277
 82        0.558   1.085   2.635   4.278
 83        0.555   1.076   2.622   4.252
 84        0.557   1.082   2.630   4.270
 85        0.558   1.084   2.646   4.287
 86        0.558   1.084   2.638   4.281
 87        0.559   1.087   2.632   4.278
 88        0.559   1.087   2.641   4.287
 89        0.558   1.084   2.632   4.274
 90        0.558   1.085   2.633   4.277
 91        0.559   1.084   2.639   4.281
 92        0.557   1.080   2.632   4.270
 93        0.557   1.084   2.636   4.277
 94        0.558   1.087   2.639   4.284
 95        0.561   1.063   2.678   4.301
 96        0.608   1.063   2.874   4.546
 97        1.590   3.484   0.000   5.074
 98        1.589   3.486   0.000   5.075
 99        1.589   3.487   0.000   5.077
100        1.591   3.486   0.000   5.076
101        1.590   3.483   0.000   5.074
102        1.590   3.484   0.000   5.074
103        1.591   3.477   0.000   5.067
104        1.594   3.482   0.000   5.076
105        1.589   3.487   0.000   5.076
106        1.589   3.488   0.000   5.077
107        1.590   3.483   0.000   5.074
108        1.589   3.497   0.000   5.086
109        1.591   3.484   0.000   5.074
110        1.591   3.483   0.000   5.074
111        1.589   3.473   0.000   5.063
112        1.591   3.475   0.000   5.067
113        1.590   3.485   0.000   5.075
114        1.590   3.485   0.000   5.075
115        1.589   3.490   0.000   5.079
116        1.590   3.478   0.000   5.068
117        1.593   3.482   0.000   5.075
118        1.591   3.480   0.000   5.071
119        1.590   3.482   0.000   5.072
120        1.589   3.495   0.000   5.084
121        1.590   3.485   0.000   5.075
122        1.590   3.485   0.000   5.075
123        1.589   3.484   0.000   5.074
124        1.588   3.476   0.000   5.064
125        1.591   3.482   0.000   5.073
126        1.593   3.481   0.000   5.075
127        1.589   3.486   0.000   5.076
128        1.589   3.481   0.000   5.070
129        1.590   3.485   0.000   5.075
130        1.590   3.485   0.000   5.074
131        1.590   3.479   0.000   5.070
132        1.588   3.490   0.000   5.078
133        1.590   3.483   0.000   5.073
134        1.590   3.483   0.000   5.073
135        1.591   3.485   0.000   5.076
136        1.590   3.482   0.000   5.071
137        1.590   3.485   0.000   5.075
138        1.590   3.485   0.000   5.075
139        1.588   3.499   0.000   5.087
140        1.588   3.476   0.000   5.064
141        1.591   3.482   0.000   5.073
142        1.590   3.483   0.000   5.073
143        1.591   3.476   0.000   5.067
144        1.590   3.480   0.000   5.069
145        1.590   3.484   0.000   5.074
146        1.589   3.491   0.000   5.080
147        1.590   3.485   0.000   5.074
148        1.590   3.486   0.000   5.076
149        1.590   3.483   0.000   5.073
150        1.591   3.483   0.000   5.074
151        1.590   3.478   0.000   5.068
152        1.597   3.473   0.000   5.070
153        1.589   3.487   0.000   5.077
154        1.590   3.482   0.000   5.072
155        1.590   3.487   0.000   5.077
156        1.590   3.483   0.000   5.073
157        1.590   3.483   0.000   5.073
158        1.590   3.484   0.000   5.074
159        1.593   3.482   0.000   5.074
160        1.589   3.474   0.000   5.063
161        1.587   3.488   0.000   5.076
162        1.588   3.488   0.000   5.075
163        1.586   3.489   0.000   5.075
164        1.588   3.489   0.000   5.077
165        1.587   3.490   0.000   5.078
166        1.587   3.483   0.000   5.070
167        1.589   3.487   0.000   5.075
168        1.589   3.487   0.000   5.075
169        1.587   3.489   0.000   5.076
170        1.587   3.489   0.000   5.077
171        1.588   3.487   0.000   5.075
172        1.586   3.498   0.000   5.084
173        1.588   3.483   0.000   5.071
174        1.588   3.486   0.000   5.074
175        1.588   3.485   0.000   5.074
176        1.589   3.487   0.000   5.076
177        1.588   3.488   0.000   5.076
178        1.588   3.488   0.000   5.076
179        1.587   3.490   0.000   5.077
180        1.588   3.486   0.000   5.074
181        1.588   3.487   0.000   5.075
182        1.588   3.488   0.000   5.076
183        1.595   3.479   0.000   5.073
184        1.587   3.486   0.000   5.073
185        1.588   3.489   0.000   5.076
186        1.588   3.488   0.000   5.076
187        1.587   3.488   0.000   5.075
188        1.585   3.482   0.000   5.066
189        1.588   3.488   0.000   5.076
190        1.588   3.488   0.000   5.076
191        1.588   3.483   0.000   5.071
------------------------------------------------
tot      174.317 377.293  84.870 636.479
 

 total amount of memory used by VASP on root node   289661. kBytes
========================================================================

   base      :      30000. kBytes
   nonl-proj :     142577. kBytes
   fftplans  :      11585. kBytes
   grid      :      39540. kBytes
   one-center:       2062. kBytes
   wavefun   :      63897. kBytes
 
  
  
 General timing and accounting informations for this job:
 ========================================================
  
                  Total CPU time used (sec):     3703.401
                            User time (sec):     3678.703
                          System time (sec):       24.698
                         Elapsed time (sec):     3712.617
  
                   Maximum memory used (kb):      459060.
                   Average memory used (kb):           0.
  
                          Minor page faults:        27066
                          Major page faults:            0
                 Voluntary context switches:         1135
