 vasp.5.4.4.18Apr17-6-g9f103f2a35 (build Apr 25 2017 10:43:04) complex          
  
 executed on             LinuxIFC date 2019.08.24  15:44:06
 running on   36 total cores
 distrk:  each k-point on   36 cores,    1 groups
 distr:  one band on NCORES_PER_BAND=   1 cores,   36 groups


--------------------------------------------------------------------------------------------------------


 INCAR:
 POTCAR:    PAW_PBE Mg 13Apr2007                  
 POTCAR:    PAW_PBE O 08Apr2002                   

 ----------------------------------------------------------------------------- 
|                                                                             |
|           W    W    AA    RRRRR   N    N  II  N    N   GGGG   !!!           |
|           W    W   A  A   R    R  NN   N  II  NN   N  G    G  !!!           |
|           W    W  A    A  R    R  N N  N  II  N N  N  G       !!!           |
|           W WW W  AAAAAA  RRRRR   N  N N  II  N  N N  G  GGG   !            |
|           WW  WW  A    A  R   R   N   NN  II  N   NN  G    G                |
|           W    W  A    A  R    R  N    N  II  N    N   GGGG   !!!           |
|                                                                             |
|      For optimal performance we recommend to set                            |
|        NCORE= 4 - approx SQRT( number of cores)                             |
|      NCORE specifies how many cores store one orbital (NPAR=cpu/NCORE).     |
|      This setting can  greatly improve the performance of VASP for DFT.     |
|      The default,   NCORE=1            might be grossly inefficient         |
|      on modern multi-core architectures or massively parallel machines.     |
|      Do your own testing !!!!                                               |
|      Unfortunately you need to use the default for GW and RPA calculations. |
|      (for HF NCORE is supported but not extensively tested yet)             |
|                                                                             |
 ----------------------------------------------------------------------------- 

 POTCAR:    PAW_PBE Mg 13Apr2007                  
   VRHFIN =Mg: s2p0                                                             
   LEXCH  = PE                                                                  
   EATOM  =    23.0369 eV,    1.6932 Ry                                         
                                                                                
   TITEL  = PAW_PBE Mg 13Apr2007                                                
   LULTRA =        F    use ultrasoft PP ?                                      
   IUNSCR =        1    unscreen: 0-lin 1-nonlin 2-no                           
   RPACOR =    1.500    partial core radius                                     
   POMASS =   24.305; ZVAL   =    2.000    mass and valenz                      
   RCORE  =    2.000    outmost cutoff radius                                   
   RWIGS  =    2.880; RWIGS  =    1.524    wigner-seitz radius (au A)           
   ENMAX  =  200.000; ENMIN  =  100.000 eV                                      
   RCLOC  =    1.506    cutoff for local pot                                    
   LCOR   =        T    correct aug charges                                     
   LPAW   =        T    paw PP                                                  
   EAUG   =  454.734                                                            
   DEXC   =    0.000                                                            
   RMAX   =    2.045    core radius for proj-oper                               
   RAUG   =    1.300    factor for augmentation sphere                          
   RDEP   =    2.025    radius for radial grids                                 
   RDEPT  =    1.942    core radius for aug-charge                              
                                                                                
   Atomic configuration                                                         
    6 entries                                                                   
     n  l   j            E        occ.                                          
     1  0  0.50     -1259.6230   2.0000                                         
     2  0  0.50       -79.8442   2.0000                                         
     2  1  1.50       -46.6121   6.0000                                         
     3  0  0.50        -4.7055   2.0000                                         
     3  1  0.50        -1.3660   0.0000                                         
     3  2  1.50        -1.3606   0.0000                                         
   Description                                                                  
     l       E           TYP  RCUT    TYP  RCUT                                 
     0     -4.7054661     23  2.000                                             
     0     27.2116520     23  2.000                                             
     1      1.3605826     23  2.000                                             
     1     27.2116520     23  2.000                                             
     2     -1.3605826     23  2.000                                             
  local pseudopotential read in
  partial core-charges read in
  partial kinetic energy density read in
  atomic valenz-charges read in
  non local Contribution for L=           0  read in
    real space projection operators read in
  non local Contribution for L=           0  read in
    real space projection operators read in
  non local Contribution for L=           1  read in
    real space projection operators read in
  non local Contribution for L=           1  read in
    real space projection operators read in
  non local Contribution for L=           2  read in
    real space projection operators read in
    PAW grid and wavefunctions read in
 
   number of l-projection  operators is LMAX  =           5
   number of lm-projection operators is LMMAX =          13
 
 POTCAR:    PAW_PBE O 08Apr2002                   
   VRHFIN =O: s2p4                                                              
   LEXCH  = PE                                                                  
   EATOM  =   432.3788 eV,   31.7789 Ry                                         
                                                                                
   TITEL  = PAW_PBE O 08Apr2002                                                 
   LULTRA =        F    use ultrasoft PP ?                                      
   IUNSCR =        1    unscreen: 0-lin 1-nonlin 2-no                           
   RPACOR =    1.200    partial core radius                                     
   POMASS =   16.000; ZVAL   =    6.000    mass and valenz                      
   RCORE  =    1.520    outmost cutoff radius                                   
   RWIGS  =    1.550; RWIGS  =    0.820    wigner-seitz radius (au A)           
   ENMAX  =  400.000; ENMIN  =  300.000 eV                                      
   ICORE  =        2    local potential                                         
   LCOR   =        T    correct aug charges                                     
   LPAW   =        T    paw PP                                                  
   EAUG   =  605.392                                                            
   DEXC   =    0.000                                                            
   RMAX   =    1.553    core radius for proj-oper                               
   RAUG   =    1.300    factor for augmentation sphere                          
   RDEP   =    1.550    radius for radial grids                                 
   RDEPT  =    1.329    core radius for aug-charge                              
                                                                                
   Atomic configuration                                                         
    4 entries                                                                   
     n  l   j            E        occ.                                          
     1  0  0.50      -514.6923   2.0000                                         
     2  0  0.50       -23.9615   2.0000                                         
     2  1  0.50        -9.0305   4.0000                                         
     3  2  1.50        -9.5241   0.0000                                         
   Description                                                                  
     l       E           TYP  RCUT    TYP  RCUT                                 
     0    -23.9615318     23  1.200                                             
     0     -9.5240782     23  1.200                                             
     1     -9.0304911     23  1.520                                             
     1      8.1634956     23  1.520                                             
     2     -9.5240782      7  1.500                                             
  local pseudopotential read in
  partial core-charges read in
  partial kinetic energy density read in
  kinetic energy density of atom read in
  atomic valenz-charges read in
  non local Contribution for L=           0  read in
    real space projection operators read in
  non local Contribution for L=           0  read in
    real space projection operators read in
  non local Contribution for L=           1  read in
    real space projection operators read in
  non local Contribution for L=           1  read in
    real space projection operators read in
    PAW grid and wavefunctions read in
 
   number of l-projection  operators is LMAX  =           4
   number of lm-projection operators is LMMAX =           8
 
 Optimization of the real space projectors (new method)

 maximal supplied QI-value         = 18.90
 optimisation between [QCUT,QGAM] = [ 10.20, 20.41] = [ 29.16,116.64] Ry 
 Optimized for a Real-space Cutoff    1.30 Angstroem

   l    n(q)    QCUT    max X(q) W(low)/X(q) W(high)/X(q)  e(spline) 
   0      8    10.205    28.265    0.22E-03    0.17E-03    0.53E-07
   0      8    10.205    10.429    0.17E-03    0.15E-03    0.43E-07
   1      7    10.205    13.073    0.71E-04    0.41E-03    0.76E-07
   1      7    10.205     9.625    0.71E-04    0.33E-03    0.63E-07
   2      7    10.205     4.652    0.24E-03    0.41E-03    0.55E-07
 Optimization of the real space projectors (new method)

 maximal supplied QI-value         = 24.76
 optimisation between [QCUT,QGAM] = [ 10.15, 20.30] = [ 28.85,115.39] Ry 
 Optimized for a Real-space Cutoff    1.38 Angstroem

   l    n(q)    QCUT    max X(q) W(low)/X(q) W(high)/X(q)  e(spline) 
   0      8    10.150    20.381    0.22E-03    0.32E-03    0.29E-06
   0      8    10.150    15.268    0.23E-03    0.35E-03    0.30E-06
   1      8    10.150     5.964    0.46E-03    0.53E-03    0.21E-06
   1      8    10.150     5.382    0.38E-03    0.45E-03    0.19E-06

 ----------------------------------------------------------------------------- 
|                                                                             |
|  ADVICE TO THIS USER RUNNING 'VASP/VAMP'   (HEAR YOUR MASTER'S VOICE ...):  |
|                                                                             |
|      You enforced a specific xc-type in the INCAR file,                     |
|      a different type was found on the POTCAR file                          |
|          I HOPE YOU KNOW, WHAT YOU ARE  DOING                               |
|                                                                             |
 ----------------------------------------------------------------------------- 

  PAW_PBE Mg 13Apr2007                  :
 energy of atom  1       EATOM=  -23.0369
 kinetic energy error for atom=    0.0001 (will be added to EATOM!!)
  PAW_PBE O 08Apr2002                   :
 energy of atom  2       EATOM= -432.3788
 kinetic energy error for atom=    0.1156 (will be added to EATOM!!)
 
 
 POSCAR: Mg33 O32                                
  positions in direct lattice
  velocities in cartesian coordinates
 exchange correlation table for  LEXCH =       14
   RHO(1)=    0.500       N(1)  =     2000
   RHO(2)=  100.500       N(2)  =     4000
 


--------------------------------------------------------------------------------------------------------


 ion  position               nearest neighbor table
   1  0.125  0.125  0.125-  34 1.84  42 1.84  50 1.84  58 1.84   2 2.27  10 2.27  18 2.27  26 2.27
                             4 3.51  19 3.51  20 3.51  22 3.51   6 3.51  27 3.51  28 3.51  30 3.51
   2  0.969  0.969  0.969-  38 1.92  51 1.92  60 1.92   1 2.27  34 2.40  58 2.40  50 2.40  13 2.69
                            23 2.69  32 2.69  19 3.02  22 3.02  12 3.02  28 3.02  30 3.02  11 3.02
   3  0.999  0.999  0.502-  51 2.05  39 2.09  61 2.09  50 2.11  59 2.12  35 2.12  13 2.96  23 2.96
                            19 2.97  11 2.97  33 2.97  12 2.99  22 2.99  27 3.00  31 3.01  29 3.01
   4  0.999  0.502  0.999-  60 2.05  53 2.09  40 2.09  58 2.11  52 2.12  36 2.12  13 2.96  32 2.96
                            28 2.97  12 2.97  25 2.97  30 2.99  11 2.99  20 3.00  21 3.01  24 3.01
   5  1.000  0.506  0.506-  61 2.06  53 2.06  41 2.10  37 2.10  59 2.14  52 2.14  10 2.69  13 2.84
                            21 2.92  29 2.92  25 2.94  33 2.94  12 2.96  11 2.96  20 3.01  27 3.01
   6  0.502  0.999  0.999-  38 2.05  55 2.09  64 2.09  34 2.11  62 2.12  54 2.12  23 2.96  32 2.96
                            30 2.97  22 2.97  17 2.97  19 2.99  28 2.99  14 3.00  16 3.01  15 3.01
   7  0.506  1.000  0.506-  39 2.06  55 2.06  65 2.10  63 2.10  54 2.14  35 2.14  18 2.69  23 2.84
                            15 2.92  31 2.92  17 2.94  33 2.94  22 2.96  19 2.96  14 3.01  27 3.01
   8  0.506  0.506  1.000-  40 2.06  64 2.06  57 2.10  56 2.10  62 2.14  36 2.14  26 2.69  32 2.84
                            16 2.92  24 2.92  17 2.94  25 2.94  30 2.96  28 2.96  14 3.01  20 3.01
   9  0.500  0.500  0.500-  41 2.11  57 2.11  65 2.11  37 2.11  63 2.11  56 2.11  15 2.94  16 2.94
                            21 2.94  24 2.94  29 2.94  31 2.94  27 2.97  14 2.97  20 2.97  25 2.97
  10  0.969  0.281  0.281-  46 1.92  52 1.92  59 1.92   1 2.27  42 2.40  58 2.40  50 2.40   5 2.69
                            24 2.69  31 2.69  20 3.02  22 3.02   4 3.02  27 3.02  30 3.02   3 3.02
  11  0.999  0.251  0.748-  59 2.05  53 2.09  47 2.09  58 2.11  51 2.12  43 2.12   5 2.96  31 2.96
                            27 2.97   3 2.97  25 2.97  30 2.99   4 2.99  19 3.00  21 3.01  23 3.01
  12  0.999  0.748  0.251-  52 2.05  48 2.09  61 2.09  50 2.11  60 2.12  44 2.12   5 2.96  24 2.96
                            20 2.97   4 2.97  33 2.97   3 2.99  22 2.99  28 3.00  32 3.01  29 3.01
  13  1.000  0.744  0.744-  53 2.06  61 2.06  49 2.10  45 2.10  60 2.14  51 2.14   2 2.69   5 2.84
                            21 2.92  29 2.92  25 2.94  33 2.94   4 2.96   3 2.96  19 3.01  28 3.01
  14  0.502  0.251  0.251-  46 2.05  56 2.09  63 2.09  42 2.11  62 2.12  54 2.12  24 2.96  31 2.96
                            30 2.97  22 2.97   9 2.97  20 2.99  27 2.99   6 3.00   8 3.01   7 3.01
  15  0.506  0.250  0.744-  47 2.06  63 2.06  57 2.10  55 2.10  62 2.14  43 2.14  26 2.69  31 2.84
                             7 2.92  23 2.92   9 2.94  25 2.94  30 2.96  27 2.96   6 3.01  19 3.01
  16  0.506  0.744  0.250-  48 2.06  56 2.06  65 2.10  64 2.10  54 2.14  44 2.14  18 2.69  24 2.84
                             8 2.92  32 2.92   9 2.94  33 2.94  22 2.96  20 2.96   6 3.01  28 3.01
  17  0.500  0.750  0.750-  49 2.11  57 2.11  65 2.11  45 2.11  64 2.11  55 2.11   7 2.94   8 2.94
                            21 2.94  23 2.94  29 2.94  32 2.94  28 2.97   6 2.97  19 2.97  25 2.97
  18  0.281  0.969  0.281-  35 1.92  44 1.92  54 1.92   1 2.27  34 2.40  50 2.40  42 2.40   7 2.69
                            16 2.69  29 2.69  12 3.02  14 3.02   6 3.02  27 3.02  28 3.02   3 3.02
  19  0.251  0.999  0.748-  35 2.05  45 2.09  55 2.09  34 2.11  51 2.12  43 2.12   7 2.96  29 2.96
                            27 2.97   3 2.97  17 2.97  28 2.99   6 2.99  11 3.00  13 3.01  15 3.01
  20  0.251  0.502  0.251-  44 2.05  37 2.09  56 2.09  42 2.11  52 2.12  36 2.12  16 2.96  29 2.96
                            28 2.97  12 2.97   9 2.97  14 2.99  27 2.99   4 3.00   8 3.01   5 3.01
  21  0.250  0.506  0.744-  45 2.06  37 2.06  57 2.10  53 2.10  43 2.14  36 2.14  26 2.69  29 2.84
                             5 2.92  13 2.92   9 2.94  17 2.94  28 2.96  27 2.96   4 3.01  11 3.01
  22  0.748  0.999  0.251-  54 2.05  48 2.09  39 2.09  50 2.11  46 2.12  38 2.12   7 2.96  16 2.96
                            14 2.97   6 2.97  33 2.97  12 2.99   3 2.99  30 3.00  32 3.01  31 3.01
  23  0.744  1.000  0.744-  55 2.06  39 2.06  49 2.10  47 2.10  51 2.14  38 2.14   2 2.69   7 2.84
                            15 2.92  31 2.92  17 2.94  33 2.94   6 2.96   3 2.96  11 3.01  30 3.01
  24  0.744  0.506  0.250-  48 2.06  56 2.06  41 2.10  40 2.10  52 2.14  46 2.14  10 2.69  16 2.84
                             8 2.92  32 2.92   9 2.94  33 2.94  14 2.96  12 2.96   4 3.01  30 3.01
  25  0.750  0.500  0.750-  41 2.11  49 2.11  57 2.11  40 2.11  53 2.11  47 2.11   5 2.94   8 2.94
                            13 2.94  15 2.94  31 2.94  32 2.94  30 2.97   4 2.97  11 2.97  17 2.97
  26  0.281  0.281  0.969-  36 1.92  43 1.92  62 1.92   1 2.27  34 2.40  58 2.40  42 2.40   8 2.69
                            15 2.69  21 2.69  11 3.02  14 3.02   6 3.02  19 3.02  20 3.02   4 3.02
  27  0.251  0.251  0.502-  43 2.05  37 2.09  63 2.09  42 2.11  59 2.12  35 2.12  15 2.96  21 2.96
                            19 2.97  11 2.97   9 2.97  20 2.99  14 2.99   3 3.00   7 3.01   5 3.01
  28  0.251  0.748  0.999-  36 2.05  45 2.09  64 2.09  34 2.11  60 2.12  44 2.12   8 2.96  21 2.96
                            20 2.97   4 2.97  17 2.97   6 2.99  19 2.99  12 3.00  13 3.01  16 3.01
  29  0.250  0.744  0.506-  37 2.06  45 2.06  65 2.10  61 2.10  44 2.14  35 2.14  18 2.69  21 2.84
                             5 2.92  13 2.92   9 2.94  17 2.94  20 2.96  19 2.96   3 3.01  12 3.01
  30  0.748  0.251  0.999-  62 2.05  47 2.09  40 2.09  58 2.11  46 2.12  38 2.12   8 2.96  15 2.96
                            14 2.97   6 2.97  25 2.97  11 2.99   4 2.99  22 3.00  24 3.01  23 3.01
  31  0.744  0.250  0.506-  63 2.06  47 2.06  41 2.10  39 2.10  59 2.14  46 2.14  10 2.69  15 2.84
                             7 2.92  23 2.92   9 2.94  25 2.94  14 2.96  11 2.96   3 3.01  22 3.01
  32  0.744  0.744  1.000-  40 2.06  64 2.06  49 2.10  48 2.10  60 2.14  38 2.14   2 2.69   8 2.84
                            16 2.92  24 2.92  17 2.94  25 2.94   6 2.96   4 2.96  12 3.01  22 3.01
  33  0.750  0.750  0.500-  41 2.11  49 2.11  65 2.11  39 2.11  61 2.11  48 2.11   5 2.94   7 2.94
                            13 2.94  16 2.94  23 2.94  24 2.94  22 2.97   3 2.97  12 2.97  17 2.97
  34  0.251  0.999  0.999-   1 1.84   6 2.11  19 2.11  28 2.11   2 2.40  26 2.40  18 2.40
  35  0.251  0.999  0.505-  18 1.92  19 2.05   3 2.12  27 2.12   7 2.14  29 2.14
  36  0.251  0.505  0.999-  26 1.92  28 2.05   4 2.12  20 2.12   8 2.14  21 2.14
  37  0.249  0.499  0.499-  29 2.06  21 2.06  27 2.09  20 2.09   5 2.10   9 2.11
  38  0.745  0.999  0.999-   2 1.92   6 2.05  22 2.12  30 2.12  23 2.14  32 2.14
  39  0.751  0.001  0.499-   7 2.06  23 2.06  22 2.09   3 2.09  31 2.10  33 2.11
  40  0.751  0.499  0.001-   8 2.06  32 2.06  30 2.09   4 2.09  24 2.10  25 2.11
  41  0.750  0.500  0.500-   5 2.10  24 2.10  31 2.10  25 2.11   9 2.11  33 2.11
  42  0.251  0.251  0.251-   1 1.84  14 2.11  20 2.11  27 2.11  10 2.40  26 2.40  18 2.40
  43  0.251  0.251  0.745-  26 1.92  27 2.05  11 2.12  19 2.12  15 2.14  21 2.14
  44  0.251  0.745  0.251-  18 1.92  20 2.05  12 2.12  28 2.12  16 2.14  29 2.14
  45  0.249  0.751  0.751-  21 2.06  29 2.06  28 2.09  19 2.09  13 2.10  17 2.11
  46  0.745  0.251  0.251-  10 1.92  14 2.05  22 2.12  30 2.12  24 2.14  31 2.14
  47  0.751  0.249  0.751-  15 2.06  31 2.06  30 2.09  11 2.09  23 2.10  25 2.11
  48  0.751  0.751  0.249-  16 2.06  24 2.06  22 2.09  12 2.09  32 2.10  33 2.11
  49  0.750  0.750  0.750-  13 2.10  23 2.10  32 2.10  25 2.11  17 2.11  33 2.11
  50  0.999  0.999  0.251-   1 1.84   3 2.11  12 2.11  22 2.11   2 2.40  18 2.40  10 2.40
  51  0.999  0.999  0.745-   2 1.92   3 2.05  11 2.12  19 2.12  13 2.14  23 2.14
  52  0.999  0.505  0.251-  10 1.92  12 2.05   4 2.12  20 2.12   5 2.14  24 2.14
  53  0.001  0.499  0.751-  13 2.06   5 2.06  11 2.09   4 2.09  21 2.10  25 2.11
  54  0.505  0.999  0.251-  18 1.92  22 2.05   6 2.12  14 2.12   7 2.14  16 2.14
  55  0.499  0.001  0.751-  23 2.06   7 2.06  19 2.09   6 2.09  15 2.10  17 2.11
  56  0.499  0.499  0.249-  16 2.06  24 2.06  20 2.09  14 2.09   8 2.10   9 2.11
  57  0.500  0.500  0.750-   8 2.10  15 2.10  21 2.10  17 2.11   9 2.11  25 2.11
  58  0.999  0.251  0.999-   1 1.84   4 2.11  11 2.11  30 2.11   2 2.40  26 2.40  10 2.40
  59  0.999  0.251  0.505-  10 1.92  11 2.05   3 2.12  27 2.12   5 2.14  31 2.14
  60  0.999  0.745  0.999-   2 1.92   4 2.05  12 2.12  28 2.12  13 2.14  32 2.14
  61  0.001  0.751  0.499-   5 2.06  13 2.06  12 2.09   3 2.09  29 2.10  33 2.11
  62  0.505  0.251  0.999-  26 1.92  30 2.05   6 2.12  14 2.12   8 2.14  15 2.14
  63  0.499  0.249  0.499-  31 2.06  15 2.06  27 2.09  14 2.09   7 2.10   9 2.11
  64  0.499  0.751  0.001-   8 2.06  32 2.06  28 2.09   6 2.09  16 2.10  17 2.11
  65  0.500  0.750  0.500-   7 2.10  16 2.10  29 2.10  17 2.11   9 2.11  33 2.11
 
  LATTYP: Found a simple cubic cell.
 ALAT       =     8.4194560000
  
  Lattice vectors:
  
 A1 = (   8.4194560000,   0.0000000000,   0.0000000000)
 A2 = (   0.0000000000,   8.4194560000,   0.0000000000)
 A3 = (   0.0000000000,   0.0000000000,   8.4194560000)


Analysis of symmetry for initial positions (statically):
=====================================================================
 Subroutine PRICEL returns:
 Original cell was already a primitive cell.
 

 Routine SETGRP: Setting up the symmetry group for a 
 simple cubic supercell.


 Subroutine GETGRP returns: Found 24 space group operations
 (whereof  6 operations were pure point group operations)
 out of a pool of 48 trial point group operations.


The static configuration has the point symmetry C_3v.
 The point group associated with its full space group is T_d .


Analysis of symmetry for dynamics (positions and initial velocities):
=====================================================================
 Subroutine PRICEL returns:
 Original cell was already a primitive cell.
 

 Routine SETGRP: Setting up the symmetry group for a 
 simple cubic supercell.


 Subroutine GETGRP returns: Found 24 space group operations
 (whereof  6 operations were pure point group operations)
 out of a pool of 48 trial point group operations.


The dynamic configuration has the point symmetry C_3v.
 The point group associated with its full space group is T_d .


Analysis of structural, dynamic, and magnetic symmetry:
=====================================================================
 Subroutine PRICEL returns:
 Original cell was already a primitive cell.
 

 Routine SETGRP: Setting up the symmetry group for a 
 simple cubic supercell.


 Subroutine GETGRP returns: Found 24 space group operations
 (whereof  6 operations were pure point group operations)
 out of a pool of 48 trial point group operations.


The magnetic configuration has the point symmetry C_3v.
 The point group associated with its full space group is T_d .


 Subroutine INISYM returns: Found 24 space group operations
 (whereof  6 operations are pure point group operations),
 and found     1 'primitive' translations

 
 
 KPOINTS: mode: manual_set, kpt density: 2, factor

Automatic generation of k-mesh.
Space group operators:
 irot       det(A)        alpha          n_x          n_y          n_z        tau_x        tau_y        tau_z
    1     1.000000     0.000001     1.000000     0.000000     0.000000     0.000000     0.000000     0.000000
    2     1.000000   120.000000    -0.577350    -0.577350    -0.577350     0.000000     0.000000     0.000000
    3     1.000000   120.000000     0.577350     0.577350     0.577350     0.000000     0.000000     0.000000
    4    -1.000000   180.000000     0.000000    -0.707107     0.707107     0.000000     0.000000     0.000000
    5    -1.000000   180.000000     0.707107    -0.707107     0.000000     0.000000     0.000000     0.000000
    6    -1.000000   180.000000     0.707107     0.000000    -0.707107     0.000000     0.000000     0.000000
    7    -1.000000    90.000000     0.000000     0.000000    -1.000000     0.000000     0.250000     0.250000
    8    -1.000000   180.000000     0.000000     0.707107     0.707107     0.000000     0.250000     0.250000
    9    -1.000000    90.000000     0.000000     1.000000     0.000000     0.000000     0.250000     0.250000
   10     1.000000   180.000000     0.000000     0.000000     1.000000     0.250000     0.250000     0.000000
   11     1.000000   120.000000    -0.577350     0.577350     0.577350     0.250000     0.250000     0.000000
   12     1.000000   120.000000    -0.577350     0.577350    -0.577350     0.250000     0.250000     0.000000
   13    -1.000000    90.000000     0.000000     0.000000     1.000000     0.250000     0.000000     0.250000
   14    -1.000000    90.000000    -1.000000     0.000000     0.000000     0.250000     0.000000     0.250000
   15    -1.000000   180.000000     0.707107     0.000000     0.707107     0.250000     0.000000     0.250000
   16     1.000000   120.000000     0.577350    -0.577350     0.577350     0.000000     0.250000     0.250000
   17     1.000000   120.000000    -0.577350    -0.577350     0.577350     0.000000     0.250000     0.250000
   18     1.000000   180.000000     1.000000     0.000000     0.000000     0.000000     0.250000     0.250000
   19    -1.000000    90.000000     0.000000    -1.000000     0.000000     0.250000     0.250000     0.000000
   20    -1.000000   180.000000     0.707107     0.707107     0.000000     0.250000     0.250000     0.000000
   21    -1.000000    90.000000     1.000000     0.000000     0.000000     0.250000     0.250000     0.000000
   22     1.000000   120.000000     0.577350    -0.577350    -0.577350     0.250000     0.000000     0.250000
   23     1.000000   180.000000     0.000000     1.000000     0.000000     0.250000     0.000000     0.250000
   24     1.000000   120.000000     0.577350     0.577350    -0.577350     0.250000     0.000000     0.250000
 
 Subroutine IBZKPT returns following result:
 ===========================================
 
 Found      1 irreducible k-points:
 
 Following reciprocal coordinates:
            Coordinates               Weight
  0.250000  0.250000  0.250000      8.000000
 
 Following cartesian coordinates:
            Coordinates               Weight
  0.029693  0.029693  0.029693      8.000000
 


--------------------------------------------------------------------------------------------------------




 Dimension of arrays:
   k-points           NKPTS =      1   k-points in BZ     NKDIM =      1   number of bands    NBANDS=    216
   number of dos      NEDOS =    301   number of ions     NIONS =     65
   non local maximal  LDIM  =      5   non local SUM 2l+1 LMDIM =     13
   total plane-waves  NPLWV =  74088
   max r-space proj   IRMAX =   1418   max aug-charges    IRDMAX=   5472
   dimension x,y,z NGX =    42 NGY =   42 NGZ =   42
   dimension x,y,z NGXF=    84 NGYF=   84 NGZF=   84
   support grid    NGXF=    84 NGYF=   84 NGZF=   84
   ions per type =              33  32
   NGX,Y,Z   is equivalent  to a cutoff of   8.29,  8.29,  8.29 a.u.
   NGXF,Y,Z  is equivalent  to a cutoff of  16.59, 16.59, 16.59 a.u.

 SYSTEM =  unknown system                          
 POSCAR =  Mg33 O32                                

 Startparameter for this run:
   NWRITE =      2    write-flag & timer
   PREC   = n         normal or accurate (medium, high low for compatibility)
   ISTART =      1    job   : 0-new  1-cont  2-samecut
   ICHARG =      0    charge: 1-file 2-atom 10-const
   ISPIN  =      2    spin polarized calculation?
   LNONCOLLINEAR =      F non collinear calculations
   LSORBIT =      F    spin-orbit coupling
   INIWAV =      1    electr: 0-lowe 1-rand  2-diag
   LASPH  =      T    aspherical Exc in radial PAW
   METAGGA=      F    non-selfconsistent MetaGGA calc.

 Electronic Relaxation 1
   ENCUT  =  400.0 eV  29.40 Ry    5.42 a.u.  13.73 13.73 13.73*2*pi/ulx,y,z
   ENINI  =  400.0     initial cutoff
   ENAUG  =  605.4 eV  augmentation charge cutoff
   NELM   =    100;   NELMIN=  2; NELMDL=  0     # of ELM steps 
   EDIFF  = 0.1E-05   stopping-criterion for ELM
   LREAL  =      T    real-space projection
   NLSPLINE    = F    spline interpolate recip. space projectors
   LCOMPAT=      F    compatible to vasp.4.4
   GGA_COMPAT  = T    GGA compatible to vasp.4.4-vasp.4.6
   LMAXPAW     = -100 max onsite density
   LMAXMIX     =    2 max onsite mixed and CHGCAR
   VOSKOWN=      0    Vosko Wilk Nusair interpolation
   ROPT   =   -0.00050  -0.00050
 Ionic relaxation
   EDIFFG = -.4E-01   stopping-criterion for IOM
   NSW    =     50    number of steps for IOM
   NBLOCK =      1;   KBLOCK =     50    inner block; outer block 
   IBRION =      2    ionic relax: 0-MD 1-quasi-New 2-CG
   NFREE  =      1    steps in history (QN), initial steepest desc. (CG)
   ISIF   =      2    stress and relaxation
   IWAVPR =     11    prediction:  0-non 1-charg 2-wave 3-comb
   ISYM   =      2    0-nonsym 1-usesym 2-fastsym
   LCORR  =      T    Harris-Foulkes like correction to forces

   POTIM  = 0.5000    time-step for ionic-motion
   TEIN   =    0.0    initial temperature
   TEBEG  =    0.0;   TEEND  =   0.0 temperature during run
   SMASS  =  -3.00    Nose mass-parameter (am)
   estimated Nose-frequenzy (Omega)   =  0.10E-29 period in steps =****** mass=  -0.162E-26a.u.
   SCALEE = 1.0000    scale energy and forces
   NPACO  =    256;   APACO  = 16.0  distance and # of slots for P.C.
   PSTRESS=    0.0 pullay stress

  Mass of Ions in am
   POMASS =  24.30 16.00
  Ionic Valenz
   ZVAL   =   2.00  6.00
  Atomic Wigner-Seitz radii
   RWIGS  =  -1.00 -1.00
  virtual crystal weights 
   VCA    =   1.00  1.00
   NELECT =     256.0000    total number of electrons
   NUPDOWN=      -1.0000    fix difference up-down

 DOS related values:
   EMIN   =  10.00;   EMAX   =-10.00  energy-range for DOS
   EFERMI =   0.00
   ISMEAR =     0;   SIGMA  =   0.10  broadening in eV -4-tet -1-fermi 0-gaus

 Electronic relaxation 2 (details)
   IALGO  =     38    algorithm
   LDIAG  =      T    sub-space diagonalisation (order eigenvalues)
   LSUBROT=      F    optimize rotation matrix (better conditioning)
   TURBO    =      0    0=normal 1=particle mesh
   IRESTART =      0    0=no restart 2=restart with 2 vectors
   NREBOOT  =      0    no. of reboots
   NMIN     =      0    reboot dimension
   EREF     =   0.00    reference energy to select bands
   IMIX   =      4    mixing-type and parameters
     AMIX     =   0.40;   BMIX     =  1.00
     AMIX_MAG =   1.60;   BMIX_MAG =  1.00
     AMIN     =   0.10
     WC   =   100.;   INIMIX=   1;  MIXPRE=   1;  MAXMIX= -45

 Intra band minimization:
   WEIMIN = 0.0010     energy-eigenvalue tresh-hold
   EBREAK =  0.12E-08  absolut break condition
   DEPER  =   0.30     relativ break condition  

   TIME   =   0.40     timestep for ELM

  volume/ion in A,a.u.               =       9.18        61.96
  Fermi-wavevector in a.u.,A,eV,Ry     =   1.234632  2.333116 20.739574  1.524316
  Thomas-Fermi vector in A             =   2.369314
 
 Write flags
   LWAVE        =      T    write WAVECAR
   LDOWNSAMPLE  =      F    k-point downsampling of WAVECAR
   LCHARG       =      F    write CHGCAR
   LVTOT        =      F    write LOCPOT, total local potential
   LVHAR        =      F    write LOCPOT, Hartree potential only
   LELF         =      F    write electronic localiz. function (ELF)
   LORBIT       =     12    0 simple, 1 ext, 2 COOP (PROOUT), +10 PAW based schemes


 Dipole corrections
   LMONO  =      F    monopole corrections only (constant potential shift)
   LDIPOL =      F    correct potential (dipole corrections)
   IDIPOL =      0    1-x, 2-y, 3-z, 4-all directions 
   EPSILON=  1.0000000 bulk dielectric constant

 Exchange correlation treatment:
   GGA     =    PS    GGA type
   LEXCH   =    14    internal setting for exchange type
   VOSKOWN=      0    Vosko Wilk Nusair interpolation
   LHFCALC =     F    Hartree Fock is set to
   LHFONE  =     F    Hartree Fock one center treatment
   AEXX    =    0.0000 exact exchange contribution

 Linear response parameters
   LEPSILON=     F    determine dielectric tensor
   LRPA    =     F    only Hartree local field effects (RPA)
   LNABLA  =     F    use nabla operator in PAW spheres
   LVEL    =     F    velocity operator in full k-point grid
   LINTERFAST=   F  fast interpolation
   KINTER  =     0    interpolate to denser k-point grid
   CSHIFT  =0.1000    complex shift for real part using Kramers Kronig
   OMEGAMAX=  -1.0    maximum frequency
   DEG_THRESHOLD= 0.2000000E-02 threshold for treating states as degnerate
   RTIME   =   -0.100 relaxation time in fs
  (WPLASMAI=    0.000 imaginary part of plasma frequency in eV, 0.658/RTIME)
   DFIELD  = 0.0000000 0.0000000 0.0000000 field for delta impulse in time
 
 Orbital magnetization related:
   ORBITALMAG=     F  switch on orbital magnetization
   LCHIMAG   =     F  perturbation theory with respect to B field
   DQ        =  0.001000  dq finite difference perturbation B field
   LLRAUG    =     F  two centre corrections for induced B field



--------------------------------------------------------------------------------------------------------


 conjugate gradient relaxation of ions
 charge density and potential will be updated during run
 spin polarized calculation
 Variant of blocked Davidson
 Davidson routine will perform the subspace rotation
 perform sub-space diagonalisation
    after iterative eigenvector-optimisation
 modified Broyden-mixing scheme, WC =      100.0
 initial mixing is a Kerker type mixing with AMIX =  0.4000 and BMIX =      1.0000
 Hartree-type preconditioning will be used
 using additional bands           88
 real space projection scheme for non local part
 use partial core corrections
 calculate Harris-corrections to forces 
   (improved forces if not selfconsistent)
 use gradient corrections 
 use of overlap-Matrix (Vanderbilt PP)
 Gauss-broadening in eV      SIGMA  =   0.10


--------------------------------------------------------------------------------------------------------


  energy-cutoff  :      400.00
  volume of cell :      596.83
      direct lattice vectors                 reciprocal lattice vectors
     8.419456000  0.000000000  0.000000000     0.118772519  0.000000000  0.000000000
     0.000000000  8.419456000  0.000000000     0.000000000  0.118772519  0.000000000
     0.000000000  0.000000000  8.419456000     0.000000000  0.000000000  0.118772519

  length of vectors
     8.419456000  8.419456000  8.419456000     0.118772519  0.118772519  0.118772519


 
 old parameters found on file WAVECAR:
  energy-cutoff  :      400.00
  volume of cell :      596.83
      direct lattice vectors                 reciprocal lattice vectors
     8.419456000  0.000000000  0.000000000     0.118772519  0.000000000  0.000000000
     0.000000000  8.419456000  0.000000000     0.000000000  0.118772519  0.000000000
     0.000000000  0.000000000  8.419456000     0.000000000  0.000000000  0.118772519

  length of vectors

 
 k-points in units of 2pi/SCALE and weight: mode: manual_set, kpt density: 2, factor
   0.02969313  0.02969313  0.02969313       1.000
 
 k-points in reciprocal lattice and weights: mode: manual_set, kpt density: 2, factor
   0.25000000  0.25000000  0.25000000       1.000
 
 position of ions in fractional coordinates (direct lattice) 
   0.12500000  0.12500000  0.12500000
   0.96917126  0.96917126  0.96917126
   0.99906608  0.99906608  0.50167590
   0.99906608  0.50167590  0.99906608
   0.99953509  0.50572250  0.50572250
   0.50167590  0.99906608  0.99906608
   0.50572250  0.99953509  0.50572250
   0.50572250  0.50572250  0.99953509
   0.50030034  0.50030034  0.50030034
   0.96917126  0.28082874  0.28082874
   0.99906608  0.25093392  0.74832410
   0.99906608  0.74832410  0.25093392
   0.99953509  0.74427750  0.74427750
   0.50167590  0.25093392  0.25093392
   0.50572250  0.25046491  0.74427750
   0.50572250  0.74427750  0.25046491
   0.50030034  0.74969966  0.74969966
   0.28082874  0.96917126  0.28082874
   0.25093392  0.99906608  0.74832410
   0.25093392  0.50167590  0.25093392
   0.25046491  0.50572250  0.74427750
   0.74832410  0.99906608  0.25093392
   0.74427750  0.99953509  0.74427750
   0.74427750  0.50572250  0.25046491
   0.74969966  0.50030034  0.74969966
   0.28082874  0.28082874  0.96917126
   0.25093392  0.25093392  0.50167590
   0.25093392  0.74832410  0.99906608
   0.25046491  0.74427750  0.50572250
   0.74832410  0.25093392  0.99906608
   0.74427750  0.25046491  0.50572250
   0.74427750  0.74427750  0.99953509
   0.74969966  0.74969966  0.50030034
   0.25134283  0.99865717  0.99865717
   0.25141416  0.99858584  0.50542669
   0.25141416  0.50542669  0.99858584
   0.24930745  0.49926393  0.49926393
   0.74457331  0.99858584  0.99858584
   0.75073607  0.00069255  0.49926393
   0.75073607  0.49926393  0.00069255
   0.75042436  0.49957564  0.49957564
   0.25134283  0.25134283  0.25134283
   0.25141416  0.25141416  0.74457331
   0.25141416  0.74457331  0.25141416
   0.24930745  0.75073607  0.75073607
   0.74457331  0.25141416  0.25141416
   0.75073607  0.24930745  0.75073607
   0.75073607  0.75073607  0.24930745
   0.75042436  0.75042436  0.75042436
   0.99865717  0.99865717  0.25134283
   0.99858584  0.99858584  0.74457331
   0.99858584  0.50542669  0.25141416
   0.00069255  0.49926393  0.75073607
   0.50542669  0.99858584  0.25141416
   0.49926393  0.00069255  0.75073607
   0.49926393  0.49926393  0.24930745
   0.49957564  0.49957564  0.75042436
   0.99865717  0.25134283  0.99865717
   0.99858584  0.25141416  0.50542669
   0.99858584  0.74457331  0.99858584
   0.00069255  0.75073607  0.49926393
   0.50542669  0.25141416  0.99858584
   0.49926393  0.24930745  0.49926393
   0.49926393  0.75073607  0.00069255
   0.49957564  0.75042436  0.49957564
 
 position of ions in cartesian coordinates  (Angst):
   1.05243200  1.05243200  1.05243200
   8.15989478  8.15989478  8.15989478
   8.41159293  8.41159293  4.22383817
   8.41159293  4.22383817  8.41159293
   8.41554167  4.25790831  4.25790831
   4.22383817  8.41159293  8.41159293
   4.25790831  8.41554167  4.25790831
   4.25790831  4.25790831  8.41554167
   4.21225674  4.21225674  4.21225674
   8.15989478  2.36442522  2.36442522
   8.41159293  2.11272707  6.30048183
   8.41159293  6.30048183  2.11272707
   8.41554167  6.26641169  6.26641169
   4.22383817  2.11272707  2.11272707
   4.25790831  2.10877833  6.26641169
   4.25790831  6.26641169  2.10877833
   4.21225674  6.31206326  6.31206326
   2.36442522  8.15989478  2.36442522
   2.11272707  8.41159293  6.30048183
   2.11272707  4.22383817  2.11272707
   2.10877833  4.25790831  6.26641169
   6.30048183  8.41159293  2.11272707
   6.26641169  8.41554167  6.26641169
   6.26641169  4.25790831  2.10877833
   6.31206326  4.21225674  6.31206326
   2.36442522  2.36442522  8.15989478
   2.11272707  2.11272707  4.22383817
   2.11272707  6.30048183  8.41159293
   2.10877833  6.26641169  4.25790831
   6.30048183  2.11272707  8.41159293
   6.26641169  2.10877833  4.25790831
   6.26641169  6.26641169  8.41554167
   6.31206326  6.31206326  4.21225674
   2.11616988  8.40815012  8.40815012
   2.11677048  8.40754952  4.25541775
   2.11677048  4.25541775  8.40754952
   2.09903312  4.20353071  4.20353071
   6.26890225  8.40754952  8.40754952
   6.32078929  0.00583088  4.20353071
   6.32078929  4.20353071  0.00583088
   6.31816487  4.20615513  4.20615513
   2.11616988  2.11616988  2.11616988
   2.11677048  2.11677048  6.26890225
   2.11677048  6.26890225  2.11677048
   2.09903312  6.32078929  6.32078929
   6.26890225  2.11677048  2.11677048
   6.32078929  2.09903312  6.32078929
   6.32078929  6.32078929  2.09903312
   6.31816487  6.31816487  6.31816487
   8.40815012  8.40815012  2.11616988
   8.40754952  8.40754952  6.26890225
   8.40754952  4.25541775  2.11677048
   0.00583088  4.20353071  6.32078929
   4.25541775  8.40754952  2.11677048
   4.20353071  0.00583088  6.32078929
   4.20353071  4.20353071  2.09903312
   4.20615513  4.20615513  6.31816487
   8.40815012  2.11616988  8.40815012
   8.40754952  2.11677048  4.25541775
   8.40754952  6.26890225  8.40754952
   0.00583088  6.32078929  4.20353071
   4.25541775  2.11677048  8.40754952
   4.20353071  2.09903312  4.20353071
   4.20353071  6.32078929  0.00583088
   4.20615513  6.31816487  4.20615513
 


--------------------------------------------------------------------------------------------------------


 k-point  1 :   0.2500 0.2500 0.2500  plane waves:   10834

 maximum and minimum number of plane-waves per node :     10834    10834

 maximum number of plane-waves:     10834
 maximum index in each direction: 
   IXMAX=   13   IYMAX=   13   IZMAX=   13
   IXMIN=  -13   IYMIN=  -13   IZMIN=  -13


 serial   3D FFT for wavefunctions
 parallel 3D FFT for charge:
    minimum data exchange during FFTs selected (reduces bandwidth)


 total amount of memory used by VASP MPI-rank0    50713. kBytes
=======================================================================

   base      :      30000. kBytes
   nonlr-proj:       8725. kBytes
   fftplans  :       1007. kBytes
   grid      :       7709. kBytes
   one-center:       1054. kBytes
   wavefun   :       2218. kBytes
 
     INWAV:  cpu time    0.2080: real time    0.3322
 Broyden mixing: mesh for mixing (old mesh)
   NGX = 27   NGY = 27   NGZ = 27
  (NGX  = 84   NGY  = 84   NGZ  = 84)
  gives a total of  19683 points

 charge density for first step will be calculated from the start-wavefunctions


--------------------------------------------------------------------------------------------------------


 Maximum index for non-local projection operator         1352
 Maximum index for augmentation-charges          413 (set IRDMAX)


--------------------------------------------------------------------------------------------------------


 initial charge from wavefunction
 First call to EWALD:  gamma=   0.211
 Maximum number of real-space cells 3x 3x 3
 Maximum number of reciprocal cells 3x 3x 3

    FEWALD:  cpu time    0.0040: real time    0.0027


--------------------------------------- Iteration      1(   1)  ---------------------------------------


    POTLOK:  cpu time    0.0320: real time    0.0352
    SETDIJ:  cpu time    0.5120: real time    0.5149
     EDDAV:  cpu time    0.4880: real time    0.5028
       DOS:  cpu time    0.0000: real time    0.0004
    CHARGE:  cpu time    0.0400: real time    0.0407
    MIXING:  cpu time    0.0000: real time    0.0005
    --------------------------------------------
      LOOP:  cpu time    1.0720: real time    1.0945

 eigenvalue-minimisations  :   504
 total energy-change (2. order) :-0.4086967E+03  (-0.1979132E-07)
 number of electron     256.0001918 magnetization       0.0000000
 augmentation part       21.2662726 magnetization       0.0000000

 Broyden mixing:
  rms(total) = 0.54943E-04    rms(broyden)= 0.54874E-04
  rms(prec ) = 0.85180E-04
  weight for this iteration     100.00

 Free energy of the ion-electron system (eV)
  ---------------------------------------------------
  alpha Z        PSCENC =       641.37084423
  Ewald energy   TEWEN  =    -11526.05659473
  -Hartree energ DENC   =     -4469.33639013
  -exchange      EXHF   =         0.00000000
  -V(xc)+E(xc)   XCENC  =      -609.58358940
  PAW double counting   =     17883.58380654   -16258.61248635
  entropy T*S    EENTRO =        -0.00000000
  eigenvalues    EBANDS =      -599.07918654
  atomic energy  EATOM  =     14529.01688503
  Solvation  Ediel_sol  =         0.00000000
  ---------------------------------------------------
  free energy    TOTEN  =      -408.69671135 eV

  energy without entropy =     -408.69671135  energy(sigma->0) =     -408.69671135


--------------------------------------------------------------------------------------------------------




--------------------------------------- Iteration      1(   2)  ---------------------------------------


    POTLOK:  cpu time    0.0320: real time    0.0308
    SETDIJ:  cpu time    0.5280: real time    0.5321
     EDDAV:  cpu time    0.3880: real time    0.3898
       DOS:  cpu time    0.0040: real time    0.0004
    --------------------------------------------
      LOOP:  cpu time    0.9520: real time    0.9531

 eigenvalue-minimisations  :   432
 total energy-change (2. order) : 0.1507215E-07  (-0.3756180E-08)
 number of electron     256.0001918 magnetization       0.0000000
 augmentation part       21.2662726 magnetization       0.0000000

 Free energy of the ion-electron system (eV)
  ---------------------------------------------------
  alpha Z        PSCENC =       641.37084423
  Ewald energy   TEWEN  =    -11526.05659473
  -Hartree energ DENC   =     -4469.33825719
  -exchange      EXHF   =         0.00000000
  -V(xc)+E(xc)   XCENC  =      -609.58345938
  PAW double counting   =     17883.58868261   -16258.61741049
  entropy T*S    EENTRO =        -0.00000000
  eigenvalues    EBANDS =      -599.07740142
  atomic energy  EATOM  =     14529.01688503
  Solvation  Ediel_sol  =         0.00000000
  ---------------------------------------------------
  free energy    TOTEN  =      -408.69671134 eV

  energy without entropy =     -408.69671134  energy(sigma->0) =     -408.69671134


--------------------------------------------------------------------------------------------------------




 average (electrostatic) potential at core
  the test charge radii are     1.0714  0.7215
  (the norm of the test charge is              1.0000)
       1 -35.2860       2 -35.1060       3 -34.3357       4 -34.3357       5 -34.3150
       6 -34.3357       7 -34.3150       8 -34.3150       9 -34.2341      10 -35.1060
      11 -34.3357      12 -34.3357      13 -34.3150      14 -34.3357      15 -34.3150
      16 -34.3150      17 -34.2341      18 -35.1060      19 -34.3357      20 -34.3357
      21 -34.3150      22 -34.3357      23 -34.3150      24 -34.3150      25 -34.2341
      26 -35.1060      27 -34.3357      28 -34.3357      29 -34.3150      30 -34.3357
      31 -34.3150      32 -34.3150      33 -34.2341      34 -70.1335      35 -69.5694
      36 -69.5694      37 -69.3436      38 -69.5694      39 -69.3436      40 -69.3436
      41 -69.2969      42 -70.1335      43 -69.5694      44 -69.5694      45 -69.3436
      46 -69.5694      47 -69.3436      48 -69.3436      49 -69.2969      50 -70.1335
      51 -69.5694      52 -69.5694      53 -69.3436      54 -69.5694      55 -69.3436
      56 -69.3436      57 -69.2969      58 -70.1335      59 -69.5694      60 -69.5694
      61 -69.3436      62 -69.5694      63 -69.3436      64 -69.3436      65 -69.2969
 
 
 
 E-fermi :   3.5975     XC(G=0): -11.3438     alpha+bet :-13.4497


 spin component 1

 k-point     1 :       0.2500    0.2500    0.2500
  band No.  band energies     occupation 
      1     -14.0129      1.00000
      2     -13.6238      1.00000
      3     -13.5576      1.00000
      4     -13.5576      1.00000
      5     -13.2885      1.00000
      6     -13.2402      1.00000
      7     -13.2402      1.00000
      8     -13.1732      1.00000
      9     -13.0723      1.00000
     10     -13.0723      1.00000
     11     -12.9070      1.00000
     12     -12.8788      1.00000
     13     -12.8788      1.00000
     14     -12.8387      1.00000
     15     -12.7874      1.00000
     16     -12.7215      1.00000
     17     -12.7215      1.00000
     18     -12.6656      1.00000
     19     -12.6430      1.00000
     20     -12.6430      1.00000
     21     -12.5728      1.00000
     22     -12.5728      1.00000
     23     -12.5323      1.00000
     24     -12.4786      1.00000
     25     -12.4786      1.00000
     26     -12.4531      1.00000
     27     -12.3907      1.00000
     28     -12.3773      1.00000
     29     -12.3773      1.00000
     30     -12.2978      1.00000
     31     -12.2978      1.00000
     32     -12.2974      1.00000
     33      -1.3861      1.00000
     34      -1.2773      1.00000
     35      -1.2773      1.00000
     36      -1.0849      1.00000
     37      -0.9461      1.00000
     38      -0.7909      1.00000
     39      -0.7909      1.00000
     40      -0.7064      1.00000
     41      -0.6935      1.00000
     42      -0.6935      1.00000
     43      -0.6345      1.00000
     44      -0.6345      1.00000
     45      -0.6044      1.00000
     46      -0.5929      1.00000
     47      -0.5929      1.00000
     48      -0.5564      1.00000
     49      -0.4229      1.00000
     50      -0.4229      1.00000
     51      -0.4083      1.00000
     52      -0.3465      1.00000
     53      -0.3465      1.00000
     54      -0.3337      1.00000
     55      -0.2131      1.00000
     56      -0.2046      1.00000
     57      -0.2046      1.00000
     58      -0.0508      1.00000
     59      -0.0508      1.00000
     60      -0.0416      1.00000
     61       0.5230      1.00000
     62       0.5230      1.00000
     63       0.6052      1.00000
     64       0.6396      1.00000
     65       0.6396      1.00000
     66       0.6579      1.00000
     67       0.7229      1.00000
     68       0.7229      1.00000
     69       0.7707      1.00000
     70       0.8303      1.00000
     71       0.8303      1.00000
     72       0.8914      1.00000
     73       1.2600      1.00000
     74       1.2600      1.00000
     75       1.2651      1.00000
     76       1.3434      1.00000
     77       1.3864      1.00000
     78       1.3864      1.00000
     79       1.4493      1.00000
     80       1.4496      1.00000
     81       1.4496      1.00000
     82       1.6471      1.00000
     83       1.6671      1.00000
     84       1.6671      1.00000
     85       1.7122      1.00000
     86       1.7423      1.00000
     87       1.7423      1.00000
     88       1.8365      1.00000
     89       1.8859      1.00000
     90       1.8859      1.00000
     91       1.9243      1.00000
     92       1.9351      1.00000
     93       1.9351      1.00000
     94       1.9460      1.00000
     95       1.9824      1.00000
     96       1.9824      1.00000
     97       2.0929      1.00000
     98       2.0929      1.00000
     99       2.1114      1.00000
    100       2.1887      1.00000
    101       2.1887      1.00000
    102       2.1897      1.00000
    103       2.2174      1.00000
    104       2.2174      1.00000
    105       2.2596      1.00000
    106       2.2844      1.00000
    107       2.2844      1.00000
    108       2.2895      1.00000
    109       2.3534      1.00000
    110       2.3534      1.00000
    111       2.3570      1.00000
    112       2.3903      1.00000
    113       2.4427      1.00000
    114       2.4427      1.00000
    115       2.4825      1.00000
    116       2.5951      1.00000
    117       2.5951      1.00000
    118       2.6570      1.00000
    119       2.6570      1.00000
    120       2.7025      1.00000
    121       2.7216      1.00000
    122       2.7319      1.00000
    123       2.7319      1.00000
    124       2.8252      1.00000
    125       2.8276      1.00000
    126       2.8276      1.00000
    127       3.1052      1.00000
    128       3.1052      1.00000
    129       8.5455      0.00000
    130       9.8280      0.00000
    131      10.2655      0.00000
    132      10.2655      0.00000
    133      10.7032      0.00000
    134      11.0614      0.00000
    135      11.0614      0.00000
    136      11.0836      0.00000
    137      11.3593      0.00000
    138      11.5159      0.00000
    139      11.5159      0.00000
    140      11.6471      0.00000
    141      11.8365      0.00000
    142      11.8365      0.00000
    143      12.3393      0.00000
    144      12.4328      0.00000
    145      12.4328      0.00000
    146      12.5789      0.00000
    147      12.5789      0.00000
    148      12.6215      0.00000
    149      12.6984      0.00000
    150      12.6984      0.00000
    151      12.7121      0.00000
    152      12.7479      0.00000
    153      12.8175      0.00000
    154      12.8175      0.00000
    155      13.0890      0.00000
    156      13.0890      0.00000
    157      13.1611      0.00000
    158      13.5577      0.00000
    159      13.5577      0.00000
    160      13.6864      0.00000
    161      13.6864      0.00000
    162      13.6994      0.00000
    163      13.7642      0.00000
    164      13.7642      0.00000
    165      13.7973      0.00000
    166      13.8383      0.00000
    167      14.1834      0.00000
    168      14.1834      0.00000
    169      14.3396      0.00000
    170      14.6309      0.00000
    171      14.6309      0.00000
    172      14.7193      0.00000
    173      14.7466      0.00000
    174      14.7466      0.00000
    175      14.8811      0.00000
    176      14.9360      0.00000
    177      14.9360      0.00000
    178      15.0243      0.00000
    179      15.0243      0.00000
    180      15.0345      0.00000
    181      15.1225      0.00000
    182      15.1275      0.00000
    183      15.1275      0.00000
    184      15.2223      0.00000
    185      15.2653      0.00000
    186      15.2653      0.00000
    187      15.3298      0.00000
    188      15.3785      0.00000
    189      15.3785      0.00000
    190      15.4079      0.00000
    191      15.6491      0.00000
    192      15.6491      0.00000
    193      15.6850      0.00000
    194      15.7525      0.00000
    195      15.7525      0.00000
    196      15.7928      0.00000
    197      15.8485      0.00000
    198      16.0426      0.00000
    199      16.1257      0.00000
    200      16.1257      0.00000
    201      16.1729      0.00000
    202      16.1729      0.00000
    203      16.3956      0.00000
    204      16.5955      0.00000
    205      16.5955      0.00000
    206      16.9568      0.00000
    207      17.0107      0.00000
    208      17.0107      0.00000
    209      17.1022      0.00000
    210      17.2503      0.00000
    211      17.2503      0.00000
    212      17.3513      0.00000
    213      17.7124      0.00000
    214      17.9368      0.00000
    215      17.9368      0.00000
    216      18.1289      0.00000

 spin component 2

 k-point     1 :       0.2500    0.2500    0.2500
  band No.  band energies     occupation 
      1     -14.0129      1.00000
      2     -13.6238      1.00000
      3     -13.5576      1.00000
      4     -13.5576      1.00000
      5     -13.2885      1.00000
      6     -13.2402      1.00000
      7     -13.2402      1.00000
      8     -13.1732      1.00000
      9     -13.0723      1.00000
     10     -13.0723      1.00000
     11     -12.9070      1.00000
     12     -12.8788      1.00000
     13     -12.8788      1.00000
     14     -12.8387      1.00000
     15     -12.7874      1.00000
     16     -12.7215      1.00000
     17     -12.7215      1.00000
     18     -12.6656      1.00000
     19     -12.6430      1.00000
     20     -12.6430      1.00000
     21     -12.5728      1.00000
     22     -12.5728      1.00000
     23     -12.5323      1.00000
     24     -12.4786      1.00000
     25     -12.4786      1.00000
     26     -12.4531      1.00000
     27     -12.3907      1.00000
     28     -12.3773      1.00000
     29     -12.3773      1.00000
     30     -12.2978      1.00000
     31     -12.2978      1.00000
     32     -12.2974      1.00000
     33      -1.3861      1.00000
     34      -1.2773      1.00000
     35      -1.2773      1.00000
     36      -1.0849      1.00000
     37      -0.9461      1.00000
     38      -0.7909      1.00000
     39      -0.7909      1.00000
     40      -0.7064      1.00000
     41      -0.6935      1.00000
     42      -0.6935      1.00000
     43      -0.6345      1.00000
     44      -0.6345      1.00000
     45      -0.6044      1.00000
     46      -0.5929      1.00000
     47      -0.5929      1.00000
     48      -0.5564      1.00000
     49      -0.4229      1.00000
     50      -0.4229      1.00000
     51      -0.4083      1.00000
     52      -0.3465      1.00000
     53      -0.3465      1.00000
     54      -0.3337      1.00000
     55      -0.2131      1.00000
     56      -0.2046      1.00000
     57      -0.2046      1.00000
     58      -0.0508      1.00000
     59      -0.0508      1.00000
     60      -0.0416      1.00000
     61       0.5230      1.00000
     62       0.5230      1.00000
     63       0.6052      1.00000
     64       0.6396      1.00000
     65       0.6396      1.00000
     66       0.6579      1.00000
     67       0.7229      1.00000
     68       0.7229      1.00000
     69       0.7707      1.00000
     70       0.8303      1.00000
     71       0.8303      1.00000
     72       0.8914      1.00000
     73       1.2600      1.00000
     74       1.2600      1.00000
     75       1.2651      1.00000
     76       1.3434      1.00000
     77       1.3864      1.00000
     78       1.3864      1.00000
     79       1.4493      1.00000
     80       1.4496      1.00000
     81       1.4496      1.00000
     82       1.6471      1.00000
     83       1.6671      1.00000
     84       1.6671      1.00000
     85       1.7122      1.00000
     86       1.7423      1.00000
     87       1.7423      1.00000
     88       1.8365      1.00000
     89       1.8859      1.00000
     90       1.8859      1.00000
     91       1.9243      1.00000
     92       1.9351      1.00000
     93       1.9351      1.00000
     94       1.9460      1.00000
     95       1.9824      1.00000
     96       1.9824      1.00000
     97       2.0929      1.00000
     98       2.0929      1.00000
     99       2.1114      1.00000
    100       2.1887      1.00000
    101       2.1887      1.00000
    102       2.1897      1.00000
    103       2.2174      1.00000
    104       2.2174      1.00000
    105       2.2596      1.00000
    106       2.2844      1.00000
    107       2.2844      1.00000
    108       2.2895      1.00000
    109       2.3534      1.00000
    110       2.3534      1.00000
    111       2.3570      1.00000
    112       2.3903      1.00000
    113       2.4427      1.00000
    114       2.4427      1.00000
    115       2.4825      1.00000
    116       2.5951      1.00000
    117       2.5951      1.00000
    118       2.6570      1.00000
    119       2.6570      1.00000
    120       2.7025      1.00000
    121       2.7216      1.00000
    122       2.7319      1.00000
    123       2.7319      1.00000
    124       2.8252      1.00000
    125       2.8276      1.00000
    126       2.8276      1.00000
    127       3.1052      1.00000
    128       3.1052      1.00000
    129       8.5455      0.00000
    130       9.8280      0.00000
    131      10.2655      0.00000
    132      10.2655      0.00000
    133      10.7032      0.00000
    134      11.0614      0.00000
    135      11.0614      0.00000
    136      11.0836      0.00000
    137      11.3593      0.00000
    138      11.5159      0.00000
    139      11.5159      0.00000
    140      11.6471      0.00000
    141      11.8365      0.00000
    142      11.8365      0.00000
    143      12.3393      0.00000
    144      12.4328      0.00000
    145      12.4328      0.00000
    146      12.5789      0.00000
    147      12.5789      0.00000
    148      12.6215      0.00000
    149      12.6984      0.00000
    150      12.6984      0.00000
    151      12.7121      0.00000
    152      12.7479      0.00000
    153      12.8175      0.00000
    154      12.8175      0.00000
    155      13.0890      0.00000
    156      13.0890      0.00000
    157      13.1611      0.00000
    158      13.5577      0.00000
    159      13.5577      0.00000
    160      13.6864      0.00000
    161      13.6864      0.00000
    162      13.6994      0.00000
    163      13.7642      0.00000
    164      13.7642      0.00000
    165      13.7973      0.00000
    166      13.8383      0.00000
    167      14.1834      0.00000
    168      14.1834      0.00000
    169      14.3396      0.00000
    170      14.6309      0.00000
    171      14.6309      0.00000
    172      14.7193      0.00000
    173      14.7466      0.00000
    174      14.7466      0.00000
    175      14.8811      0.00000
    176      14.9360      0.00000
    177      14.9360      0.00000
    178      15.0243      0.00000
    179      15.0243      0.00000
    180      15.0345      0.00000
    181      15.1225      0.00000
    182      15.1275      0.00000
    183      15.1275      0.00000
    184      15.2223      0.00000
    185      15.2653      0.00000
    186      15.2653      0.00000
    187      15.3298      0.00000
    188      15.3785      0.00000
    189      15.3785      0.00000
    190      15.4079      0.00000
    191      15.6491      0.00000
    192      15.6491      0.00000
    193      15.6850      0.00000
    194      15.7525      0.00000
    195      15.7525      0.00000
    196      15.7928      0.00000
    197      15.8485      0.00000
    198      16.0426      0.00000
    199      16.1257      0.00000
    200      16.1257      0.00000
    201      16.1729      0.00000
    202      16.1729      0.00000
    203      16.3956      0.00000
    204      16.5955      0.00000
    205      16.5955      0.00000
    206      16.9568      0.00000
    207      17.0107      0.00000
    208      17.0107      0.00000
    209      17.1022      0.00000
    210      17.2503      0.00000
    211      17.2503      0.00000
    212      17.3513      0.00000
    213      17.7124      0.00000
    214      17.9368      0.00000
    215      17.9368      0.00000
    216      18.1289      0.00000


--------------------------------------------------------------------------------------------------------


 soft charge-density along one line, spin component           1
         0         1         2         3         4         5         6         7         8         9
 total charge-density along one line
 
 soft charge-density along one line, spin component           2
         0         1         2         3         4         5         6         7         8         9
 total charge-density along one line
 
 pseudopotential strength for first ion, spin component:           1
  3.033   9.615  -0.000   0.000  -0.000  -0.000   0.000  -0.000
  9.615  30.339  -0.000   0.000  -0.000  -0.000   0.000  -0.000
 -0.000  -0.000   7.497  -0.000   0.000  10.830  -0.000   0.000
  0.000   0.000  -0.000   7.497   0.000  -0.000  10.830   0.000
 -0.000  -0.000   0.000   0.000   7.497   0.000   0.000  10.830
 -0.000  -0.000  10.830  -0.000   0.000  14.871  -0.000   0.000
  0.000   0.000  -0.000  10.830   0.000  -0.000  14.871   0.000
 -0.000  -0.000   0.000   0.000  10.830   0.000   0.000  14.871
  0.000   0.000  -0.000  -0.004  -0.000  -0.000  -0.006  -0.000
 -0.000  -0.000   0.000  -0.000  -0.004   0.000  -0.000  -0.006
 -0.000  -0.000   0.000   0.000   0.000   0.000   0.000   0.000
  0.000   0.000  -0.004  -0.000   0.000  -0.006  -0.000   0.000
 -0.000  -0.000   0.000   0.000  -0.000   0.000   0.000  -0.000
 pseudopotential strength for first ion, spin component:           2
  3.033   9.615  -0.000   0.000  -0.000  -0.000   0.000  -0.000
  9.615  30.339  -0.000   0.000  -0.000  -0.000   0.000  -0.000
 -0.000  -0.000   7.497  -0.000   0.000  10.830  -0.000   0.000
  0.000   0.000  -0.000   7.497   0.000  -0.000  10.830   0.000
 -0.000  -0.000   0.000   0.000   7.497   0.000   0.000  10.830
 -0.000  -0.000  10.830  -0.000   0.000  14.871  -0.000   0.000
  0.000   0.000  -0.000  10.830   0.000  -0.000  14.871   0.000
 -0.000  -0.000   0.000   0.000  10.830   0.000   0.000  14.871
  0.000   0.000  -0.000  -0.004  -0.000  -0.000  -0.006  -0.000
 -0.000  -0.000   0.000  -0.000  -0.004   0.000  -0.000  -0.006
 -0.000  -0.000   0.000   0.000   0.000   0.000   0.000   0.000
  0.000   0.000  -0.004  -0.000   0.000  -0.006  -0.000   0.000
 -0.000  -0.000   0.000   0.000  -0.000   0.000   0.000  -0.000
 total augmentation occupancy for first ion, spin component:           1
  1.801  -0.095  -0.000  -0.000   0.000   0.000   0.000  -0.000   0.000   0.000   0.000   0.000   0.000
 -0.095   0.006   0.000  -0.000   0.000   0.000   0.000   0.000   0.000   0.000  -0.000  -0.000   0.000
 -0.000   0.000   0.219   0.000   0.000  -0.022  -0.000  -0.000   0.000   0.000  -0.000   0.074  -0.000
 -0.000  -0.000   0.000   0.219  -0.000  -0.000  -0.022  -0.000   0.074  -0.000   0.000   0.000   0.000
  0.000   0.000   0.000  -0.000   0.219  -0.000   0.000  -0.022   0.000   0.074  -0.000   0.000   0.000
  0.000   0.000  -0.022  -0.000  -0.000   0.002   0.000  -0.000   0.000   0.000  -0.000  -0.008  -0.000
  0.000   0.000  -0.000  -0.022   0.000   0.000   0.002  -0.000  -0.008   0.000   0.000   0.000  -0.000
 -0.000   0.000  -0.000  -0.000  -0.022  -0.000  -0.000   0.002  -0.000  -0.008  -0.000   0.000  -0.000
  0.000   0.000   0.000   0.074   0.000   0.000  -0.008   0.000   0.075   0.000   0.000   0.000   0.000
  0.000  -0.000   0.000  -0.000   0.074   0.000   0.000  -0.008   0.000   0.075   0.000   0.000  -0.000
  0.000  -0.000  -0.000  -0.000  -0.000   0.000  -0.000  -0.000  -0.000   0.000   0.034  -0.000   0.000
  0.000   0.000   0.074   0.000   0.000  -0.008   0.000   0.000  -0.000   0.000   0.000   0.075  -0.000
  0.000   0.000   0.000   0.000   0.000  -0.000   0.000  -0.000   0.000  -0.000   0.000  -0.000   0.034
 total augmentation occupancy for first ion, spin component:           2
  0.000  -0.000   0.000   0.000   0.000  -0.000   0.000   0.000  -0.000   0.000   0.000  -0.000  -0.000
 -0.000   0.000   0.000   0.000   0.000   0.000   0.000   0.000  -0.000  -0.000   0.000   0.000   0.000
  0.000   0.000  -0.000   0.000   0.000   0.000  -0.000   0.000   0.000   0.000   0.000  -0.000   0.000
  0.000   0.000   0.000  -0.000   0.000   0.000   0.000  -0.000  -0.000   0.000  -0.000   0.000   0.000
  0.000   0.000   0.000   0.000  -0.000   0.000   0.000   0.000   0.000  -0.000  -0.000  -0.000  -0.000
 -0.000   0.000   0.000   0.000   0.000   0.000   0.000   0.000  -0.000   0.000   0.000   0.000  -0.000
  0.000   0.000  -0.000   0.000   0.000   0.000   0.000   0.000   0.000   0.000  -0.000   0.000  -0.000
  0.000   0.000   0.000  -0.000   0.000   0.000   0.000   0.000  -0.000   0.000   0.000  -0.000   0.000
 -0.000  -0.000   0.000  -0.000   0.000  -0.000   0.000  -0.000   0.000   0.000  -0.000   0.000  -0.000
  0.000  -0.000   0.000   0.000  -0.000   0.000   0.000   0.000   0.000   0.000  -0.000  -0.000  -0.000
  0.000   0.000   0.000   0.000   0.000   0.000   0.000  -0.000  -0.000   0.000  -0.000   0.000   0.000
 -0.000   0.000  -0.000   0.000  -0.000   0.000   0.000  -0.000   0.000  -0.000  -0.000   0.000   0.000
 -0.000   0.000   0.000   0.000   0.000  -0.000   0.000   0.000  -0.000  -0.000   0.000  -0.000  -0.000


------------------------ aborting loop because EDIFF is reached ----------------------------------------


 


 total charge     
 
# of ion       s       p       d       tot
------------------------------------------
    1        0.254   0.332   0.160   0.747
    2        0.181   0.216   0.098   0.495
    3        0.147   0.179   0.080   0.406
    4        0.147   0.179   0.080   0.406
    5        0.152   0.185   0.082   0.418
    6        0.147   0.179   0.080   0.406
    7        0.152   0.185   0.082   0.418
    8        0.152   0.185   0.082   0.418
    9        0.148   0.178   0.078   0.404
   10        0.181   0.216   0.098   0.495
   11        0.147   0.179   0.080   0.406
   12        0.147   0.179   0.080   0.406
   13        0.152   0.185   0.082   0.418
   14        0.147   0.179   0.080   0.406
   15        0.152   0.185   0.082   0.418
   16        0.152   0.185   0.082   0.418
   17        0.148   0.178   0.078   0.404
   18        0.181   0.216   0.098   0.495
   19        0.147   0.179   0.080   0.406
   20        0.147   0.179   0.080   0.406
   21        0.152   0.185   0.082   0.418
   22        0.147   0.179   0.080   0.406
   23        0.152   0.185   0.082   0.418
   24        0.152   0.185   0.082   0.418
   25        0.148   0.178   0.078   0.404
   26        0.181   0.216   0.098   0.495
   27        0.147   0.179   0.080   0.406
   28        0.147   0.179   0.080   0.406
   29        0.152   0.185   0.082   0.418
   30        0.147   0.179   0.080   0.406
   31        0.152   0.185   0.082   0.418
   32        0.152   0.185   0.082   0.418
   33        0.148   0.178   0.078   0.404
   34        1.568   3.542   0.000   5.111
   35        1.564   3.568   0.000   5.132
   36        1.564   3.568   0.000   5.132
   37        1.562   3.559   0.000   5.122
   38        1.564   3.567   0.000   5.131
   39        1.562   3.560   0.000   5.122
   40        1.562   3.560   0.000   5.122
   41        1.563   3.547   0.000   5.110
   42        1.568   3.542   0.000   5.111
   43        1.564   3.568   0.000   5.132
   44        1.564   3.568   0.000   5.132
   45        1.562   3.560   0.000   5.122
   46        1.564   3.568   0.000   5.132
   47        1.562   3.560   0.000   5.122
   48        1.562   3.560   0.000   5.122
   49        1.563   3.547   0.000   5.110
   50        1.568   3.542   0.000   5.111
   51        1.564   3.567   0.000   5.131
   52        1.564   3.568   0.000   5.132
   53        1.562   3.560   0.000   5.122
   54        1.564   3.568   0.000   5.132
   55        1.562   3.560   0.000   5.122
   56        1.562   3.559   0.000   5.122
   57        1.563   3.547   0.000   5.110
   58        1.568   3.542   0.000   5.111
   59        1.564   3.568   0.000   5.132
   60        1.564   3.567   0.000   5.131
   61        1.562   3.560   0.000   5.122
   62        1.564   3.568   0.000   5.132
   63        1.562   3.559   0.000   5.122
   64        1.562   3.560   0.000   5.122
   65        1.563   3.547   0.000   5.110
--------------------------------------------------
tot         55.196 120.161   2.798 178.155
 


 magnetization (x)
 
# of ion       s       p       d       tot
------------------------------------------
    1        0.000  -0.000   0.000   0.000
    2       -0.000   0.000   0.000   0.000
    3        0.000   0.000  -0.000   0.000
    4       -0.000   0.000  -0.000  -0.000
    5        0.000   0.000  -0.000   0.000
    6        0.000   0.000  -0.000  -0.000
    7       -0.000   0.000  -0.000   0.000
    8        0.000   0.000  -0.000   0.000
    9       -0.000  -0.000  -0.000  -0.000
   10       -0.000   0.000   0.000   0.000
   11        0.000   0.000  -0.000   0.000
   12       -0.000   0.000  -0.000   0.000
   13        0.000  -0.000  -0.000  -0.000
   14        0.000  -0.000  -0.000   0.000
   15        0.000  -0.000  -0.000  -0.000
   16        0.000  -0.000   0.000  -0.000
   17       -0.000   0.000  -0.000  -0.000
   18       -0.000  -0.000  -0.000  -0.000
   19       -0.000   0.000  -0.000  -0.000
   20       -0.000   0.000  -0.000  -0.000
   21        0.000   0.000   0.000   0.000
   22       -0.000  -0.000  -0.000  -0.000
   23        0.000   0.000  -0.000   0.000
   24       -0.000  -0.000  -0.000  -0.000
   25       -0.000  -0.000   0.000  -0.000
   26       -0.000  -0.000   0.000  -0.000
   27        0.000   0.000  -0.000   0.000
   28        0.000   0.000  -0.000   0.000
   29       -0.000   0.000  -0.000   0.000
   30       -0.000  -0.000  -0.000  -0.000
   31       -0.000   0.000  -0.000   0.000
   32        0.000   0.000  -0.000   0.000
   33       -0.000  -0.000  -0.000  -0.000
   34       -0.000  -0.000   0.000  -0.000
   35       -0.000   0.000   0.000  -0.000
   36       -0.000   0.000   0.000   0.000
   37       -0.000   0.000   0.000   0.000
   38        0.000   0.000   0.000   0.000
   39        0.000   0.000   0.000   0.000
   40        0.000   0.000   0.000   0.000
   41       -0.000   0.000   0.000  -0.000
   42       -0.000  -0.000   0.000  -0.000
   43       -0.000   0.000   0.000  -0.000
   44       -0.000   0.000   0.000   0.000
   45        0.000   0.000   0.000   0.000
   46       -0.000  -0.000   0.000  -0.000
   47        0.000   0.000   0.000   0.000
   48        0.000   0.000   0.000   0.000
   49       -0.000   0.000   0.000  -0.000
   50       -0.000  -0.000   0.000  -0.000
   51       -0.000   0.000   0.000  -0.000
   52       -0.000   0.000   0.000  -0.000
   53        0.000   0.000   0.000   0.000
   54        0.000   0.000   0.000   0.000
   55       -0.000   0.000   0.000  -0.000
   56        0.000   0.000   0.000   0.000
   57        0.000   0.000   0.000   0.000
   58       -0.000  -0.000   0.000  -0.000
   59       -0.000   0.000   0.000  -0.000
   60        0.000   0.000   0.000   0.000
   61       -0.000   0.000   0.000  -0.000
   62        0.000   0.000   0.000   0.000
   63       -0.000   0.000   0.000   0.000
   64        0.000   0.000   0.000   0.000
   65        0.000  -0.000   0.000   0.000
--------------------------------------------------
tot         -0.000   0.000  -0.000   0.000
 
    CHARGE:  cpu time    0.0440: real time    0.0413
    FORLOC:  cpu time    0.0040: real time    0.0047
    FORNL :  cpu time    0.1520: real time    0.1535
    STRESS:  cpu time    0.4520: real time    0.4554
    FORCOR:  cpu time    0.0240: real time    0.0239
    FORHAR:  cpu time    0.0080: real time    0.0062
    MIXING:  cpu time    0.0000: real time    0.0006
    OFIELD:  cpu time    0.0000: real time    0.0000

  FORCE on cell =-STRESS in cart. coord.  units (eV):
  Direction    XX          YY          ZZ          XY          YZ          ZX
  --------------------------------------------------------------------------------------
  Alpha Z   641.37084   641.37084   641.37084
  Ewald   -3842.03985 -3842.03985 -3842.03985    -0.00000    -0.00000    -0.00000
  Hartree  1489.77956  1489.77956  1489.77956    -0.00000    -0.00000    -0.00000
  E(xc)   -1157.50379 -1157.50379 -1157.50379    -0.00000     0.00000    -0.00000
  Local   -1310.49028 -1310.49028 -1310.49028    -0.00000     0.00000    -0.00000
  n-local  -584.77038  -584.77038  -584.77038     0.06260     0.06260     0.06260
  augment   219.34392   219.34392   219.34392    -0.00000    -0.00000     0.00000
  Kinetic  4531.47757  4531.47757  4531.47757    -1.87580    -1.87580    -1.87580
  Fock        0.00000     0.00000     0.00000     0.00000     0.00000     0.00000
  -------------------------------------------------------------------------------------
  Total     -12.83239   -12.83239   -12.83239     0.00000    -0.00000    -0.00000
  in kB     -34.44817   -34.44817   -34.44817     0.00000    -0.00000    -0.00000
  external pressure =      -34.45 kB  Pullay stress =        0.00 kB


 VOLUME and BASIS-vectors are now :
 -----------------------------------------------------------------------------
  energy-cutoff  :      400.00
  volume of cell :      596.83
      direct lattice vectors                 reciprocal lattice vectors
     8.419456000  0.000000000  0.000000000     0.118772519  0.000000000  0.000000000
     0.000000000  8.419456000  0.000000000     0.000000000  0.118772519  0.000000000
     0.000000000  0.000000000  8.419456000     0.000000000  0.000000000  0.118772519

  length of vectors
     8.419456000  8.419456000  8.419456000     0.118772519  0.118772519  0.118772519


 FORCES acting on ions
    electron-ion (+dipol)            ewald-force                    non-local-force                 convergence-correction
 -----------------------------------------------------------------------------------------------
   0.383E-07 0.383E-07 0.583E-08   0.149E-13 0.888E-14 0.222E-14   0.217E-18 0.130E-17 0.217E-18   0.387E-14 -.261E-14 0.422E-14
   -.101E+02 -.101E+02 -.101E+02   0.771E+01 0.771E+01 0.771E+01   0.242E+01 0.242E+01 0.242E+01   0.232E-04 0.232E-04 0.232E-04
   -.203E+01 -.203E+01 0.452E+01   0.172E+01 0.172E+01 -.387E+01   0.314E+00 0.314E+00 -.651E+00   0.427E-04 0.427E-04 -.137E-04
   -.203E+01 0.452E+01 -.203E+01   0.172E+01 -.387E+01 0.172E+01   0.314E+00 -.651E+00 0.314E+00   0.427E-04 -.137E-04 0.427E-04
   -.952E-01 0.202E+01 0.202E+01   0.393E-01 -.154E+01 -.154E+01   0.514E-01 -.481E+00 -.481E+00   0.513E-04 -.353E-04 -.353E-04
   0.452E+01 -.203E+01 -.203E+01   -.387E+01 0.172E+01 0.172E+01   -.651E+00 0.314E+00 0.314E+00   -.137E-04 0.427E-04 0.427E-04
   0.202E+01 -.952E-01 0.202E+01   -.154E+01 0.393E-01 -.154E+01   -.481E+00 0.514E-01 -.481E+00   -.353E-04 0.513E-04 -.353E-04
   0.202E+01 0.202E+01 -.951E-01   -.154E+01 -.154E+01 0.393E-01   -.481E+00 -.481E+00 0.514E-01   -.353E-04 -.353E-04 0.513E-04
   -.174E+00 -.174E+00 -.174E+00   0.229E+00 0.229E+00 0.229E+00   -.636E-01 -.636E-01 -.636E-01   -.539E-04 -.539E-04 -.539E-04
   -.101E+02 0.101E+02 0.101E+02   0.771E+01 -.771E+01 -.771E+01   0.242E+01 -.242E+01 -.242E+01   0.232E-04 -.232E-04 -.232E-04
   -.203E+01 0.203E+01 -.452E+01   0.172E+01 -.172E+01 0.387E+01   0.314E+00 -.314E+00 0.651E+00   0.427E-04 -.427E-04 0.137E-04
   -.203E+01 -.452E+01 0.203E+01   0.172E+01 0.387E+01 -.172E+01   0.314E+00 0.651E+00 -.314E+00   0.427E-04 0.137E-04 -.427E-04
   -.952E-01 -.202E+01 -.202E+01   0.393E-01 0.154E+01 0.154E+01   0.514E-01 0.481E+00 0.481E+00   0.513E-04 0.353E-04 0.353E-04
   0.452E+01 0.203E+01 0.203E+01   -.387E+01 -.172E+01 -.172E+01   -.651E+00 -.314E+00 -.314E+00   -.137E-04 -.427E-04 -.427E-04
   0.202E+01 0.952E-01 -.202E+01   -.154E+01 -.393E-01 0.154E+01   -.481E+00 -.514E-01 0.481E+00   -.353E-04 -.513E-04 0.353E-04
   0.202E+01 -.202E+01 0.952E-01   -.154E+01 0.154E+01 -.393E-01   -.481E+00 0.481E+00 -.514E-01   -.353E-04 0.353E-04 -.513E-04
   -.174E+00 0.174E+00 0.174E+00   0.229E+00 -.229E+00 -.229E+00   -.636E-01 0.636E-01 0.636E-01   -.539E-04 0.539E-04 0.539E-04
   0.101E+02 -.101E+02 0.101E+02   -.771E+01 0.771E+01 -.771E+01   -.242E+01 0.242E+01 -.242E+01   -.232E-04 0.232E-04 -.232E-04
   0.203E+01 -.203E+01 -.452E+01   -.172E+01 0.172E+01 0.387E+01   -.314E+00 0.314E+00 0.651E+00   -.427E-04 0.427E-04 0.137E-04
   0.203E+01 0.452E+01 0.203E+01   -.172E+01 -.387E+01 -.172E+01   -.314E+00 -.651E+00 -.314E+00   -.427E-04 -.137E-04 -.427E-04
   0.952E-01 0.202E+01 -.202E+01   -.393E-01 -.154E+01 0.154E+01   -.514E-01 -.481E+00 0.481E+00   -.513E-04 -.353E-04 0.353E-04
   -.452E+01 -.203E+01 0.203E+01   0.387E+01 0.172E+01 -.172E+01   0.651E+00 0.314E+00 -.314E+00   0.137E-04 0.427E-04 -.427E-04
   -.202E+01 -.952E-01 -.202E+01   0.154E+01 0.393E-01 0.154E+01   0.481E+00 0.514E-01 0.481E+00   0.353E-04 0.513E-04 0.353E-04
   -.202E+01 0.202E+01 0.952E-01   0.154E+01 -.154E+01 -.393E-01   0.481E+00 -.481E+00 -.514E-01   0.353E-04 -.353E-04 -.513E-04
   0.174E+00 -.174E+00 0.174E+00   -.229E+00 0.229E+00 -.229E+00   0.636E-01 -.636E-01 0.636E-01   0.539E-04 -.539E-04 0.539E-04
   0.101E+02 0.101E+02 -.101E+02   -.771E+01 -.771E+01 0.771E+01   -.242E+01 -.242E+01 0.242E+01   -.232E-04 -.232E-04 0.232E-04
   0.203E+01 0.203E+01 0.452E+01   -.172E+01 -.172E+01 -.387E+01   -.314E+00 -.314E+00 -.651E+00   -.427E-04 -.427E-04 -.137E-04
   0.203E+01 -.452E+01 -.203E+01   -.172E+01 0.387E+01 0.172E+01   -.314E+00 0.651E+00 0.314E+00   -.427E-04 0.137E-04 0.427E-04
   0.952E-01 -.202E+01 0.202E+01   -.393E-01 0.154E+01 -.154E+01   -.514E-01 0.481E+00 -.481E+00   -.513E-04 0.353E-04 -.353E-04
   -.452E+01 0.203E+01 -.203E+01   0.387E+01 -.172E+01 0.172E+01   0.651E+00 -.314E+00 0.314E+00   0.137E-04 -.427E-04 0.427E-04
   -.202E+01 0.952E-01 0.202E+01   0.154E+01 -.393E-01 -.154E+01   0.481E+00 -.514E-01 -.481E+00   0.353E-04 -.513E-04 -.353E-04
   -.202E+01 -.202E+01 -.952E-01   0.154E+01 0.154E+01 0.393E-01   0.481E+00 0.481E+00 0.514E-01   0.353E-04 0.353E-04 0.513E-04
   0.174E+00 0.174E+00 -.174E+00   -.229E+00 -.229E+00 0.229E+00   0.636E-01 0.636E-01 -.636E-01   0.539E-04 0.539E-04 -.539E-04
   -.438E+00 0.438E+00 0.438E+00   0.410E+01 -.410E+01 -.410E+01   -.365E+01 0.365E+01 0.365E+01   0.215E-04 -.215E-04 -.215E-04
   0.386E+01 -.386E+01 0.467E+01   -.468E+01 0.468E+01 -.134E+01   0.813E+00 -.813E+00 -.332E+01   -.249E-03 0.249E-03 0.245E-04
   0.386E+01 0.467E+01 -.386E+01   -.468E+01 -.134E+01 0.468E+01   0.813E+00 -.332E+01 -.813E+00   -.249E-03 0.245E-04 0.249E-03
   -.863E+00 0.205E+01 0.205E+01   0.956E+00 -.284E+01 -.284E+01   -.976E-01 0.795E+00 0.795E+00   -.263E-03 -.760E-04 -.760E-04
   -.467E+01 -.386E+01 -.386E+01   0.134E+01 0.468E+01 0.468E+01   0.332E+01 -.813E+00 -.813E+00   -.245E-04 0.249E-03 0.249E-03
   -.205E+01 0.863E+00 0.205E+01   0.284E+01 -.956E+00 -.284E+01   -.795E+00 0.976E-01 0.795E+00   0.760E-04 0.263E-03 -.760E-04
   -.205E+01 0.205E+01 0.863E+00   0.284E+01 -.284E+01 -.956E+00   -.795E+00 0.795E+00 0.976E-01   0.760E-04 -.760E-04 0.263E-03
   0.172E+01 -.172E+01 -.172E+01   -.166E+01 0.166E+01 0.166E+01   -.723E-01 0.723E-01 0.723E-01   0.416E-03 -.416E-03 -.416E-03
   -.438E+00 -.438E+00 -.438E+00   0.410E+01 0.410E+01 0.410E+01   -.365E+01 -.365E+01 -.365E+01   0.215E-04 0.215E-04 0.215E-04
   0.386E+01 0.386E+01 -.467E+01   -.468E+01 -.468E+01 0.134E+01   0.813E+00 0.813E+00 0.332E+01   -.249E-03 -.249E-03 -.245E-04
   0.386E+01 -.467E+01 0.386E+01   -.468E+01 0.134E+01 -.468E+01   0.813E+00 0.332E+01 0.813E+00   -.249E-03 -.245E-04 -.249E-03
   -.863E+00 -.205E+01 -.205E+01   0.956E+00 0.284E+01 0.284E+01   -.976E-01 -.795E+00 -.795E+00   -.263E-03 0.760E-04 0.760E-04
   -.467E+01 0.386E+01 0.386E+01   0.134E+01 -.468E+01 -.468E+01   0.332E+01 0.813E+00 0.813E+00   -.245E-04 -.249E-03 -.249E-03
   -.205E+01 -.863E+00 -.205E+01   0.284E+01 0.956E+00 0.284E+01   -.795E+00 -.976E-01 -.795E+00   0.760E-04 -.263E-03 0.760E-04
   -.205E+01 -.205E+01 -.863E+00   0.284E+01 0.284E+01 0.956E+00   -.795E+00 -.795E+00 -.976E-01   0.760E-04 0.760E-04 -.263E-03
   0.172E+01 0.172E+01 0.172E+01   -.166E+01 -.166E+01 -.166E+01   -.723E-01 -.723E-01 -.723E-01   0.416E-03 0.416E-03 0.416E-03
   0.438E+00 0.438E+00 -.438E+00   -.410E+01 -.410E+01 0.410E+01   0.365E+01 0.365E+01 -.365E+01   -.215E-04 -.215E-04 0.215E-04
   -.386E+01 -.386E+01 -.467E+01   0.468E+01 0.468E+01 0.134E+01   -.813E+00 -.813E+00 0.332E+01   0.249E-03 0.249E-03 -.245E-04
   -.386E+01 0.467E+01 0.386E+01   0.468E+01 -.134E+01 -.468E+01   -.813E+00 -.332E+01 0.813E+00   0.249E-03 0.245E-04 -.249E-03
   0.863E+00 0.205E+01 -.205E+01   -.956E+00 -.284E+01 0.284E+01   0.976E-01 0.795E+00 -.795E+00   0.263E-03 -.760E-04 0.760E-04
   0.467E+01 -.386E+01 0.386E+01   -.134E+01 0.468E+01 -.468E+01   -.332E+01 -.813E+00 0.813E+00   0.245E-04 0.249E-03 -.249E-03
   0.205E+01 0.863E+00 -.205E+01   -.284E+01 -.956E+00 0.284E+01   0.795E+00 0.976E-01 -.795E+00   -.760E-04 0.263E-03 0.760E-04
   0.205E+01 0.205E+01 -.863E+00   -.284E+01 -.284E+01 0.956E+00   0.795E+00 0.795E+00 -.976E-01   -.760E-04 -.760E-04 -.263E-03
   -.172E+01 -.172E+01 0.172E+01   0.166E+01 0.166E+01 -.166E+01   0.723E-01 0.723E-01 -.723E-01   -.416E-03 -.416E-03 0.416E-03
   0.438E+00 -.438E+00 0.438E+00   -.410E+01 0.410E+01 -.410E+01   0.365E+01 -.365E+01 0.365E+01   -.215E-04 0.215E-04 -.215E-04
   -.386E+01 0.386E+01 0.467E+01   0.468E+01 -.468E+01 -.134E+01   -.813E+00 0.813E+00 -.332E+01   0.249E-03 -.249E-03 0.245E-04
   -.386E+01 -.467E+01 -.386E+01   0.468E+01 0.134E+01 0.468E+01   -.813E+00 0.332E+01 -.813E+00   0.249E-03 -.245E-04 0.249E-03
   0.863E+00 -.205E+01 0.205E+01   -.956E+00 0.284E+01 -.284E+01   0.976E-01 -.795E+00 0.795E+00   0.263E-03 0.760E-04 -.760E-04
   0.467E+01 0.386E+01 -.386E+01   -.134E+01 -.468E+01 0.468E+01   -.332E+01 0.813E+00 -.813E+00   0.245E-04 -.249E-03 0.249E-03
   0.205E+01 -.863E+00 0.205E+01   -.284E+01 0.956E+00 -.284E+01   0.795E+00 -.976E-01 0.795E+00   -.760E-04 -.263E-03 -.760E-04
   0.205E+01 -.205E+01 0.863E+00   -.284E+01 0.284E+01 -.956E+00   0.795E+00 -.795E+00 0.976E-01   -.760E-04 0.760E-04 0.263E-03
   -.172E+01 0.172E+01 -.172E+01   0.166E+01 -.166E+01 0.166E+01   0.723E-01 -.723E-01 0.723E-01   -.416E-03 0.416E-03 -.416E-03
 -----------------------------------------------------------------------------------------------
   0.202E-04 0.202E-04 0.471E-06   -.185E-12 -.520E-13 0.377E-14   0.000E+00 -.680E-15 -.112E-14   0.747E-13 0.723E-13 0.233E-12
 
 
 POSITION                                       TOTAL-FORCE (eV/Angst)
 -----------------------------------------------------------------------------------
      1.05243      1.05243      1.05243         0.000000      0.000000     -0.000000
      8.15989      8.15989      8.15989         0.010587      0.010587      0.010587
      8.41159      8.41159      4.22384        -0.002263     -0.002263      0.003187
      8.41159      4.22384      8.41159        -0.002263      0.003187     -0.002263
      8.41554      4.25791      4.25791        -0.004387     -0.002716     -0.002716
      4.22384      8.41159      8.41159         0.003187     -0.002263     -0.002263
      4.25791      8.41554      4.25791        -0.002716     -0.004387     -0.002716
      4.25791      4.25791      8.41554        -0.002716     -0.002716     -0.004387
      4.21226      4.21226      4.21226        -0.008675     -0.008675     -0.008675
      8.15989      2.36443      2.36443         0.010587     -0.010587     -0.010587
      8.41159      2.11273      6.30048        -0.002263      0.002263     -0.003187
      8.41159      6.30048      2.11273        -0.002263     -0.003187      0.002263
      8.41554      6.26641      6.26641        -0.004387      0.002716      0.002716
      4.22384      2.11273      2.11273         0.003187      0.002263      0.002263
      4.25791      2.10878      6.26641        -0.002716      0.004387      0.002716
      4.25791      6.26641      2.10878        -0.002716      0.002716      0.004387
      4.21226      6.31206      6.31206        -0.008675      0.008675      0.008675
      2.36443      8.15989      2.36443        -0.010587      0.010587     -0.010587
      2.11273      8.41159      6.30048         0.002263     -0.002263     -0.003187
      2.11273      4.22384      2.11273         0.002263      0.003187      0.002263
      2.10878      4.25791      6.26641         0.004387     -0.002716      0.002716
      6.30048      8.41159      2.11273        -0.003187     -0.002263      0.002263
      6.26641      8.41554      6.26641         0.002716     -0.004387      0.002716
      6.26641      4.25791      2.10878         0.002716     -0.002716      0.004387
      6.31206      4.21226      6.31206         0.008675     -0.008675      0.008675
      2.36443      2.36443      8.15989        -0.010587     -0.010587      0.010587
      2.11273      2.11273      4.22384         0.002263      0.002263      0.003187
      2.11273      6.30048      8.41159         0.002263     -0.003187     -0.002263
      2.10878      6.26641      4.25791         0.004387      0.002716     -0.002716
      6.30048      2.11273      8.41159        -0.003187      0.002263     -0.002263
      6.26641      2.10878      4.25791         0.002716      0.004387     -0.002716
      6.26641      6.26641      8.41554         0.002716      0.002716     -0.004387
      6.31206      6.31206      4.21226         0.008675      0.008675     -0.008675
      2.11617      8.40815      8.40815         0.010163     -0.010163     -0.010163
      2.11677      8.40755      4.25542        -0.004058      0.004058      0.008698
      2.11677      4.25542      8.40755        -0.004058      0.008698      0.004058
      2.09903      4.20353      4.20353        -0.005062     -0.000569     -0.000569
      6.26890      8.40755      8.40755        -0.008698      0.004058      0.004058
      6.32079      0.00583      4.20353         0.000569      0.005062     -0.000569
      6.32079      4.20353      0.00583         0.000569     -0.000569      0.005062
      6.31816      4.20616      4.20616        -0.010901      0.010901      0.010901
      2.11617      2.11617      2.11617         0.010163      0.010163      0.010163
      2.11677      2.11677      6.26890        -0.004058     -0.004058     -0.008698
      2.11677      6.26890      2.11677        -0.004058     -0.008698     -0.004058
      2.09903      6.32079      6.32079        -0.005062      0.000569      0.000569
      6.26890      2.11677      2.11677        -0.008698     -0.004058     -0.004058
      6.32079      2.09903      6.32079         0.000569     -0.005062      0.000569
      6.32079      6.32079      2.09903         0.000569      0.000569     -0.005062
      6.31816      6.31816      6.31816        -0.010901     -0.010901     -0.010901
      8.40815      8.40815      2.11617        -0.010163     -0.010163      0.010163
      8.40755      8.40755      6.26890         0.004058      0.004058     -0.008698
      8.40755      4.25542      2.11677         0.004058      0.008698     -0.004058
      0.00583      4.20353      6.32079         0.005062     -0.000569      0.000569
      4.25542      8.40755      2.11677         0.008698      0.004058     -0.004058
      4.20353      0.00583      6.32079        -0.000569      0.005062      0.000569
      4.20353      4.20353      2.09903        -0.000569     -0.000569     -0.005062
      4.20616      4.20616      6.31816         0.010901      0.010901     -0.010901
      8.40815      2.11617      8.40815        -0.010163      0.010163     -0.010163
      8.40755      2.11677      4.25542         0.004058     -0.004058      0.008698
      8.40755      6.26890      8.40755         0.004058     -0.008698      0.004058
      0.00583      6.32079      4.20353         0.005062      0.000569     -0.000569
      4.25542      2.11677      8.40755         0.008698     -0.004058      0.004058
      4.20353      2.09903      4.20353        -0.000569     -0.005062     -0.000569
      4.20353      6.32079      0.00583        -0.000569      0.000569      0.005062
      4.20616      6.31816      4.20616         0.010901     -0.010901      0.010901
 -----------------------------------------------------------------------------------
    total drift:                                0.000020      0.000020      0.000000


--------------------------------------------------------------------------------------------------------



  FREE ENERGIE OF THE ION-ELECTRON SYSTEM (eV)
  ---------------------------------------------------
  free  energy   TOTEN  =      -408.69671134 eV

  energy  without entropy=     -408.69671134  energy(sigma->0) =     -408.69671134
 


--------------------------------------------------------------------------------------------------------


    POTLOK:  cpu time    0.5600: real time    0.5611


--------------------------------------------------------------------------------------------------------




--------------------------------------------------------------------------------------------------------


  
 reached required accuracy - stopping structural energy minimisation
 writing wavefunctions
     LOOP+:  cpu time    4.2760: real time    4.6637
    4ORBIT:  cpu time    0.0000: real time    0.0000
 


 total charge     
 
# of ion       s       p       d       tot
------------------------------------------
    1        0.254   0.332   0.160   0.747
    2        0.181   0.216   0.098   0.495
    3        0.147   0.179   0.080   0.406
    4        0.147   0.179   0.080   0.406
    5        0.152   0.185   0.082   0.418
    6        0.147   0.179   0.080   0.406
    7        0.152   0.185   0.082   0.418
    8        0.152   0.185   0.082   0.418
    9        0.148   0.178   0.078   0.404
   10        0.181   0.216   0.098   0.495
   11        0.147   0.179   0.080   0.406
   12        0.147   0.179   0.080   0.406
   13        0.152   0.185   0.082   0.418
   14        0.147   0.179   0.080   0.406
   15        0.152   0.185   0.082   0.418
   16        0.152   0.185   0.082   0.418
   17        0.148   0.178   0.078   0.404
   18        0.181   0.216   0.098   0.495
   19        0.147   0.179   0.080   0.406
   20        0.147   0.179   0.080   0.406
   21        0.152   0.185   0.082   0.418
   22        0.147   0.179   0.080   0.406
   23        0.152   0.185   0.082   0.418
   24        0.152   0.185   0.082   0.418
   25        0.148   0.178   0.078   0.404
   26        0.181   0.216   0.098   0.495
   27        0.147   0.179   0.080   0.406
   28        0.147   0.179   0.080   0.406
   29        0.152   0.185   0.082   0.418
   30        0.147   0.179   0.080   0.406
   31        0.152   0.185   0.082   0.418
   32        0.152   0.185   0.082   0.418
   33        0.148   0.178   0.078   0.404
   34        1.568   3.542   0.000   5.111
   35        1.564   3.568   0.000   5.132
   36        1.564   3.568   0.000   5.132
   37        1.562   3.559   0.000   5.122
   38        1.564   3.567   0.000   5.131
   39        1.562   3.560   0.000   5.122
   40        1.562   3.560   0.000   5.122
   41        1.563   3.547   0.000   5.110
   42        1.568   3.542   0.000   5.111
   43        1.564   3.568   0.000   5.132
   44        1.564   3.568   0.000   5.132
   45        1.562   3.560   0.000   5.122
   46        1.564   3.568   0.000   5.132
   47        1.562   3.560   0.000   5.122
   48        1.562   3.560   0.000   5.122
   49        1.563   3.547   0.000   5.110
   50        1.568   3.542   0.000   5.111
   51        1.564   3.567   0.000   5.131
   52        1.564   3.568   0.000   5.132
   53        1.562   3.560   0.000   5.122
   54        1.564   3.568   0.000   5.132
   55        1.562   3.560   0.000   5.122
   56        1.562   3.559   0.000   5.122
   57        1.563   3.547   0.000   5.110
   58        1.568   3.542   0.000   5.111
   59        1.564   3.568   0.000   5.132
   60        1.564   3.567   0.000   5.131
   61        1.562   3.560   0.000   5.122
   62        1.564   3.568   0.000   5.132
   63        1.562   3.559   0.000   5.122
   64        1.562   3.560   0.000   5.122
   65        1.563   3.547   0.000   5.110
--------------------------------------------------
tot         55.196 120.161   2.798 178.155
 


 magnetization (x)
 
# of ion       s       p       d       tot
------------------------------------------
    1        0.000  -0.000   0.000   0.000
    2       -0.000   0.000   0.000   0.000
    3        0.000   0.000  -0.000   0.000
    4       -0.000   0.000  -0.000  -0.000
    5        0.000   0.000  -0.000   0.000
    6        0.000   0.000  -0.000  -0.000
    7       -0.000   0.000  -0.000   0.000
    8        0.000   0.000  -0.000   0.000
    9       -0.000  -0.000  -0.000  -0.000
   10       -0.000   0.000   0.000   0.000
   11        0.000   0.000  -0.000   0.000
   12       -0.000   0.000  -0.000   0.000
   13        0.000  -0.000  -0.000  -0.000
   14        0.000  -0.000  -0.000   0.000
   15        0.000  -0.000  -0.000  -0.000
   16        0.000  -0.000   0.000  -0.000
   17       -0.000   0.000  -0.000  -0.000
   18       -0.000  -0.000  -0.000  -0.000
   19       -0.000   0.000  -0.000  -0.000
   20       -0.000   0.000  -0.000  -0.000
   21        0.000   0.000   0.000   0.000
   22       -0.000  -0.000  -0.000  -0.000
   23        0.000   0.000  -0.000   0.000
   24       -0.000  -0.000  -0.000  -0.000
   25       -0.000  -0.000   0.000  -0.000
   26       -0.000  -0.000   0.000  -0.000
   27        0.000   0.000  -0.000   0.000
   28        0.000   0.000  -0.000   0.000
   29       -0.000   0.000  -0.000   0.000
   30       -0.000  -0.000  -0.000  -0.000
   31       -0.000   0.000  -0.000   0.000
   32        0.000   0.000  -0.000   0.000
   33       -0.000  -0.000  -0.000  -0.000
   34       -0.000  -0.000   0.000  -0.000
   35       -0.000   0.000   0.000  -0.000
   36       -0.000   0.000   0.000   0.000
   37       -0.000   0.000   0.000   0.000
   38        0.000   0.000   0.000   0.000
   39        0.000   0.000   0.000   0.000
   40        0.000   0.000   0.000   0.000
   41       -0.000   0.000   0.000  -0.000
   42       -0.000  -0.000   0.000  -0.000
   43       -0.000   0.000   0.000  -0.000
   44       -0.000   0.000   0.000   0.000
   45        0.000   0.000   0.000   0.000
   46       -0.000  -0.000   0.000  -0.000
   47        0.000   0.000   0.000   0.000
   48        0.000   0.000   0.000   0.000
   49       -0.000   0.000   0.000  -0.000
   50       -0.000  -0.000   0.000  -0.000
   51       -0.000   0.000   0.000  -0.000
   52       -0.000   0.000   0.000  -0.000
   53        0.000   0.000   0.000   0.000
   54        0.000   0.000   0.000   0.000
   55       -0.000   0.000   0.000  -0.000
   56        0.000   0.000   0.000   0.000
   57        0.000   0.000   0.000   0.000
   58       -0.000  -0.000   0.000  -0.000
   59       -0.000   0.000   0.000  -0.000
   60        0.000   0.000   0.000   0.000
   61       -0.000   0.000   0.000  -0.000
   62        0.000   0.000   0.000   0.000
   63       -0.000   0.000   0.000   0.000
   64        0.000   0.000   0.000   0.000
   65        0.000  -0.000   0.000   0.000
--------------------------------------------------
tot         -0.000   0.000  -0.000   0.000
 

 total amount of memory used by VASP MPI-rank0    50713. kBytes
=======================================================================

   base      :      30000. kBytes
   nonlr-proj:       8725. kBytes
   fftplans  :       1007. kBytes
   grid      :       7709. kBytes
   one-center:       1054. kBytes
   wavefun   :       2218. kBytes
 
  
  
 General timing and accounting informations for this job:
 ========================================================
  
                  Total CPU time used (sec):        5.964
                            User time (sec):        5.644
                          System time (sec):        0.320
                         Elapsed time (sec):        6.793
  
                   Maximum memory used (kb):      115044.
                   Average memory used (kb):           0.
  
                          Minor page faults:        24969
                          Major page faults:           10
                 Voluntary context switches:         2206
