PROCAR lm decomposed + phase
# of k-points:    1         # of bands:  180         # of ions:   64

 k-point     1 :    0.25000000 0.25000000 0.25000000     weight = 1.00000000

band     1 # energy  -13.97451296 # occ.  2.00000000
 
ion      s     py     pz     px    dxy    dyz    dz2    dxz  x2-y2    tot
    1  0.001  0.000  0.000  0.000  0.000  0.000  0.000  0.000  0.000  0.001
    2  0.001  0.000  0.000  0.000  0.000  0.000  0.000  0.000  0.000  0.001
    3  0.001  0.000  0.000  0.000  0.000  0.000  0.000  0.000  0.000  0.001
    4  0.001  0.000  0.000  0.000  0.000  0.000  0.000  0.000  0.000  0.001
    5  0.001  0.000  0.000  0.000  0.000  0.000  0.000  0.000  0.000  0.001
    6  0.001  0.000  0.000  0.000  0.000  0.000  0.000  0.000  0.000  0.001
    7  0.001  0.000  0.000  0.000  0.000  0.000  0.000  0.000  0.000  0.001
    8  0.001  0.000  0.000  0.000  0.000  0.000  0.000  0.000  0.000  0.001
    9  0.001  0.000  0.000  0.000  0.000  0.000  0.000  0.000  0.000  0.001
   10  0.001  0.000  0.000  0.000  0.000  0.000  0.000  0.000  0.000  0.001
   11  0.001  0.000  0.000  0.000  0.000  0.000  0.000  0.000  0.000  0.001
   12  0.001  0.000  0.000  0.000  0.000  0.000  0.000  0.000  0.000  0.001
   13  0.001  0.000  0.000  0.000  0.000  0.000  0.000  0.000  0.000  0.001
   14  0.001  0.000  0.000  0.000  0.000  0.000  0.000  0.000  0.000  0.001
   15  0.001  0.000  0.000  0.000  0.000  0.000  0.000  0.000  0.000  0.001
   16  0.001  0.000  0.000  0.000  0.000  0.000  0.000  0.000  0.000  0.001
   17  0.001  0.000  0.000  0.000  0.000  0.000  0.000  0.000  0.000  0.001
   18  0.001  0.000  0.000  0.000  0.000  0.000  0.000  0.000  0.000  0.001
   19  0.001  0.000  0.000  0.000  0.000  0.000  0.000  0.000  0.000  0.001
   20  0.001  0.000  0.000  0.000  0.000  0.000  0.000  0.000  0.000  0.001
   21  0.001  0.000  0.000  0.000  0.000  0.000  0.000  0.000  0.000  0.001
   22  0.001  0.000  0.000  0.000  0.000  0.000  0.000  0.000  0.000  0.001
   23  0.001  0.000  0.000  0.000  0.000  0.000  0.000  0.000  0.000  0.001
   24  0.001  0.000  0.000  0.000  0.000  0.000  0.000  0.000  0.000  0.001
   25  0.001  0.000  0.000  0.000  0.000  0.000  0.000  0.000  0.000  0.001
   26  0.001  0.000  0.000  0.000  0.000  0.000  0.000  0.000  0.000  0.001
   27  0.001  0.000  0.000  0.000  0.000  0.000  0.000  0.000  0.000  0.001
   28  0.001  0.000  0.000  0.000  0.000  0.000  0.000  0.000  0.000  0.001
   29  0.001  0.000  0.000  0.000  0.000  0.000  0.000  0.000  0.000  0.001
   30  0.001  0.000  0.000  0.000  0.000  0.000  0.000  0.000  0.000  0.001
   31  0.001  0.000  0.000  0.000  0.000  0.000  0.000  0.000  0.000  0.001
   32  0.001  0.000  0.000  0.000  0.000  0.000  0.000  0.000  0.000  0.001
   33  0.021  0.000  0.000  0.000  0.000  0.000  0.000  0.000  0.000  0.021
   34  0.021  0.000  0.000  0.000  0.000  0.000  0.000  0.000  0.000  0.021
   35  0.021  0.000  0.000  0.000  0.000  0.000  0.000  0.000  0.000  0.021
   36  0.021  0.000  0.000  0.000  0.000  0.000  0.000  0.000  0.000  0.021
   37  0.021  0.000  0.000  0.000  0.000  0.000  0.000  0.000  0.000  0.021
   38  0.021  0.000  0.000  0.000  0.000  0.000  0.000  0.000  0.000  0.021
   39  0.021  0.000  0.000  0.000  0.000  0.000  0.000  0.000  0.000  0.021
   40  0.021  0.000  0.000  0.000  0.000  0.000  0.000  0.000  0.000  0.021
   41  0.021  0.000  0.000  0.000  0.000  0.000  0.000  0.000  0.000  0.021
   42  0.021  0.000  0.000  0.000  0.000  0.000  0.000  0.000  0.000  0.021
   43  0.021  0.000  0.000  0.000  0.000  0.000  0.000  0.000  0.000  0.021
   44  0.021  0.000  0.000  0.000  0.000  0.000  0.000  0.000  0.000  0.021
   45  0.021  0.000  0.000  0.000  0.000  0.000  0.000  0.000  0.000  0.021
   46  0.021  0.000  0.000  0.000  0.000  0.000  0.000  0.000  0.000  0.021
   47  0.021  0.000  0.000  0.000  0.000  0.000  0.000  0.000  0.000  0.021
   48  0.021  0.000  0.000  0.000  0.000  0.000  0.000  0.000  0.000  0.021
   49  0.021  0.000  0.000  0.000  0.000  0.000  0.000  0.000  0.000  0.021
   50  0.021  0.000  0.000  0.000  0.000  0.000  0.000  0.000  0.000  0.021
   51  0.021  0.000  0.000  0.000  0.000  0.000  0.000  0.000  0.000  0.021
   52  0.021  0.000  0.000  0.000  0.000  0.000  0.000  0.000  0.000  0.021
   53  0.021  0.000  0.000  0.000  0.000  0.000  0.000  0.000  0.000  0.021
   54  0.021  0.000  0.000  0.000  0.000  0.000  0.000  0.000  0.000  0.021
   55  0.021  0.000  0.000  0.000  0.000  0.000  0.000  0.000  0.000  0.021
   56  0.021  0.000  0.000  0.000  0.000  0.000  0.000  0.000  0.000  0.021
   57  0.021  0.000  0.000  0.000  0.000  0.000  0.000  0.000  0.000  0.021
   58  0.021  0.000  0.000  0.000  0.000  0.000  0.000  0.000  0.000  0.021
   59  0.021  0.000  0.000  0.000  0.000  0.000  0.000  0.000  0.000  0.021
   60  0.021  0.000  0.000  0.000  0.000  0.000  0.000  0.000  0.000  0.021
   61  0.021  0.000  0.000  0.000  0.000  0.000  0.000  0.000  0.000  0.021
   62  0.021  0.000  0.000  0.000  0.000  0.000  0.000  0.000  0.000  0.021
   63  0.021  0.000  0.000  0.000  0.000  0.000  0.000  0.000  0.000  0.021
   64  0.021  0.000  0.000  0.000  0.000  0.000  0.000  0.000  0.000  0.021
tot    0.726  0.001  0.001  0.001  0.000  0.000  0.000  0.000  0.000  0.729
ion          s             py             pz             px             dxy            dyz            dz2            dxz          dx2-y2  
    1 -0.025 -0.023   0.003 -0.004   0.003 -0.004   0.003 -0.004   0.000  0.000   0.000  0.000  -0.000 -0.000   0.000  0.000   0.000  0.000   0.001
    2 -0.025 -0.023   0.003 -0.004   0.003 -0.004   0.003 -0.004   0.000  0.000   0.000  0.000  -0.000 -0.000   0.000  0.000   0.000  0.000   0.001
    3 -0.025 -0.023   0.003 -0.004   0.003 -0.004   0.003 -0.004   0.000  0.000   0.000  0.000  -0.000 -0.000   0.000  0.000   0.000  0.000   0.001
    4 -0.025 -0.023   0.003 -0.004   0.003 -0.004   0.003 -0.004   0.000  0.000   0.000  0.000  -0.000 -0.000   0.000  0.000   0.000  0.000   0.001
    5 -0.025 -0.023   0.003 -0.004   0.003 -0.004   0.003 -0.004   0.000  0.000   0.000  0.000  -0.000 -0.000   0.000  0.000   0.000  0.000   0.001
    6 -0.025 -0.023   0.003 -0.004   0.003 -0.004   0.003 -0.004   0.000  0.000   0.000  0.000  -0.000 -0.000   0.000  0.000   0.000  0.000   0.001
    7 -0.025 -0.023   0.003 -0.004   0.003 -0.004   0.003 -0.004   0.000  0.000   0.000  0.000  -0.000 -0.000   0.000  0.000   0.000  0.000   0.001
    8 -0.025 -0.023   0.003 -0.004   0.003 -0.004   0.003 -0.004   0.000  0.000   0.000  0.000  -0.000 -0.000   0.000  0.000   0.000  0.000   0.001
    9 -0.025 -0.023   0.003 -0.004   0.003 -0.004   0.003 -0.004   0.000  0.000   0.000  0.000   0.000  0.000   0.000  0.000  -0.000 -0.000   0.001
   10 -0.025 -0.023   0.003 -0.004   0.003 -0.004   0.003 -0.004   0.000  0.000   0.000  0.000   0.000  0.000   0.000  0.000  -0.000 -0.000   0.001
   11 -0.025 -0.023   0.003 -0.004   0.003 -0.004   0.003 -0.004   0.000  0.000   0.000  0.000   0.000  0.000   0.000  0.000  -0.000 -0.000   0.001
   12 -0.025 -0.023   0.003 -0.004   0.003 -0.004   0.003 -0.004   0.000  0.000   0.000  0.000   0.000  0.000   0.000  0.000  -0.000 -0.000   0.001
   13 -0.025 -0.023   0.003 -0.004   0.003 -0.004   0.003 -0.004   0.000  0.000   0.000  0.000   0.000  0.000   0.000  0.000  -0.000 -0.000   0.001
   14 -0.025 -0.023   0.003 -0.004   0.003 -0.004   0.003 -0.004   0.000  0.000   0.000  0.000   0.000  0.000   0.000  0.000  -0.000 -0.000   0.001
   15 -0.025 -0.023   0.003 -0.004   0.003 -0.004   0.003 -0.004   0.000  0.000   0.000  0.000   0.000  0.000   0.000  0.000  -0.000 -0.000   0.001
   16 -0.025 -0.023   0.003 -0.004   0.003 -0.004   0.003 -0.004   0.000  0.000   0.000  0.000   0.000  0.000   0.000  0.000  -0.000 -0.000   0.001
   17 -0.025 -0.023   0.003 -0.004   0.003 -0.004   0.003 -0.004   0.000  0.000   0.000  0.000   0.000  0.000   0.000  0.000   0.000  0.000   0.001
   18 -0.025 -0.023   0.003 -0.004   0.003 -0.004   0.003 -0.004   0.000  0.000   0.000  0.000   0.000  0.000   0.000  0.000   0.000  0.000   0.001
   19 -0.025 -0.023   0.003 -0.004   0.003 -0.004   0.003 -0.004   0.000  0.000   0.000  0.000   0.000  0.000   0.000  0.000   0.000  0.000   0.001
   20 -0.025 -0.023   0.003 -0.004   0.003 -0.004   0.003 -0.004   0.000  0.000   0.000  0.000   0.000  0.000   0.000  0.000   0.000  0.000   0.001
   21 -0.025 -0.023   0.003 -0.004   0.003 -0.004   0.003 -0.004   0.000  0.000   0.000  0.000   0.000  0.000   0.000  0.000   0.000  0.000   0.001
   22 -0.025 -0.023   0.003 -0.004   0.003 -0.004   0.003 -0.004   0.000  0.000   0.000  0.000   0.000  0.000   0.000  0.000   0.000  0.000   0.001
   23 -0.025 -0.023   0.003 -0.004   0.003 -0.004   0.003 -0.004   0.000  0.000   0.000  0.000   0.000  0.000   0.000  0.000   0.000  0.000   0.001
   24 -0.025 -0.023   0.003 -0.004   0.003 -0.004   0.003 -0.004   0.000  0.000   0.000  0.000   0.000  0.000   0.000  0.000   0.000  0.000   0.001
   25 -0.025 -0.023   0.003 -0.004   0.003 -0.004   0.003 -0.004   0.000  0.000   0.000  0.000  -0.000 -0.000   0.000  0.000   0.000  0.000   0.001
   26 -0.025 -0.023   0.003 -0.004   0.003 -0.004   0.003 -0.004   0.000  0.000   0.000  0.000  -0.000 -0.000   0.000  0.000   0.000  0.000   0.001
   27 -0.025 -0.023   0.003 -0.004   0.003 -0.004   0.003 -0.004   0.000  0.000   0.000  0.000  -0.000 -0.000   0.000  0.000   0.000  0.000   0.001
   28 -0.025 -0.023   0.003 -0.004   0.003 -0.004   0.003 -0.004   0.000  0.000   0.000  0.000  -0.000 -0.000   0.000  0.000   0.000  0.000   0.001
   29 -0.025 -0.023   0.003 -0.004   0.003 -0.004   0.003 -0.004   0.000  0.000   0.000  0.000  -0.000 -0.000   0.000  0.000   0.000  0.000   0.001
   30 -0.025 -0.023   0.003 -0.004   0.003 -0.004   0.003 -0.004   0.000  0.000   0.000  0.000  -0.000 -0.000   0.000  0.000   0.000  0.000   0.001
   31 -0.025 -0.023   0.003 -0.004   0.003 -0.004   0.003 -0.004   0.000  0.000   0.000  0.000  -0.000 -0.000   0.000  0.000   0.000  0.000   0.001
   32 -0.025 -0.023   0.003 -0.004   0.003 -0.004   0.003 -0.004   0.000  0.000   0.000  0.000  -0.000 -0.000   0.000  0.000   0.000  0.000   0.001
   33 -0.107 -0.097   0.001 -0.002   0.001 -0.002   0.001 -0.002   0.000  0.000   0.000  0.000   0.000  0.000   0.000  0.000   0.000  0.000   0.021
   34 -0.107 -0.097   0.001 -0.002   0.001 -0.002   0.001 -0.002   0.000  0.000   0.000  0.000   0.000  0.000   0.000  0.000   0.000  0.000   0.021
   35 -0.107 -0.097   0.001 -0.002   0.001 -0.002   0.001 -0.002   0.000  0.000   0.000  0.000   0.000  0.000   0.000  0.000   0.000  0.000   0.021
   36 -0.107 -0.097   0.001 -0.002   0.001 -0.002   0.001 -0.002   0.000  0.000   0.000  0.000   0.000  0.000   0.000  0.000   0.000  0.000   0.021
   37 -0.107 -0.097   0.001 -0.002   0.001 -0.002   0.001 -0.002   0.000  0.000   0.000  0.000   0.000  0.000   0.000  0.000   0.000  0.000   0.021
   38 -0.107 -0.097   0.001 -0.002   0.001 -0.002   0.001 -0.002   0.000  0.000   0.000  0.000   0.000  0.000   0.000  0.000   0.000  0.000   0.021
   39 -0.107 -0.097   0.001 -0.002   0.001 -0.002   0.001 -0.002   0.000  0.000   0.000  0.000   0.000  0.000   0.000  0.000   0.000  0.000   0.021
   40 -0.107 -0.097   0.001 -0.002   0.001 -0.002   0.001 -0.002   0.000  0.000   0.000  0.000   0.000  0.000   0.000  0.000   0.000  0.000   0.021
   41 -0.107 -0.097   0.001 -0.002   0.001 -0.002   0.001 -0.002   0.000  0.000   0.000  0.000   0.000  0.000   0.000  0.000   0.000  0.000   0.021
   42 -0.107 -0.097   0.001 -0.002   0.001 -0.002   0.001 -0.002   0.000  0.000   0.000  0.000   0.000  0.000   0.000  0.000   0.000  0.000   0.021
   43 -0.107 -0.097   0.001 -0.002   0.001 -0.002   0.001 -0.002   0.000  0.000   0.000  0.000   0.000  0.000   0.000  0.000   0.000  0.000   0.021
   44 -0.107 -0.097   0.001 -0.002   0.001 -0.002   0.001 -0.002   0.000  0.000   0.000  0.000   0.000  0.000   0.000  0.000   0.000  0.000   0.021
   45 -0.107 -0.097   0.001 -0.002   0.001 -0.002   0.001 -0.002   0.000  0.000   0.000  0.000   0.000  0.000   0.000  0.000   0.000  0.000   0.021
   46 -0.107 -0.097   0.001 -0.002   0.001 -0.002   0.001 -0.002   0.000  0.000   0.000  0.000   0.000  0.000   0.000  0.000   0.000  0.000   0.021
   47 -0.107 -0.097   0.001 -0.002   0.001 -0.002   0.001 -0.002   0.000  0.000   0.000  0.000   0.000  0.000   0.000  0.000   0.000  0.000   0.021
   48 -0.107 -0.097   0.001 -0.002   0.001 -0.002   0.001 -0.002   0.000  0.000   0.000  0.000   0.000  0.000   0.000  0.000   0.000  0.000   0.021
   49 -0.107 -0.097   0.001 -0.002   0.001 -0.002   0.001 -0.002   0.000  0.000   0.000  0.000   0.000  0.000   0.000  0.000   0.000  0.000   0.021
   50 -0.107 -0.097   0.001 -0.002   0.001 -0.002   0.001 -0.002   0.000  0.000   0.000  0.000   0.000  0.000   0.000  0.000   0.000  0.000   0.021
   51 -0.107 -0.097   0.001 -0.002   0.001 -0.002   0.001 -0.002   0.000  0.000   0.000  0.000   0.000  0.000   0.000  0.000   0.000  0.000   0.021
   52 -0.107 -0.097   0.001 -0.002   0.001 -0.002   0.001 -0.002   0.000  0.000   0.000  0.000   0.000  0.000   0.000  0.000   0.000  0.000   0.021
   53 -0.107 -0.097   0.001 -0.002   0.001 -0.002   0.001 -0.002   0.000  0.000   0.000  0.000   0.000  0.000   0.000  0.000   0.000  0.000   0.021
   54 -0.107 -0.097   0.001 -0.002   0.001 -0.002   0.001 -0.002   0.000  0.000   0.000  0.000   0.000  0.000   0.000  0.000   0.000  0.000   0.021
   55 -0.107 -0.097   0.001 -0.002   0.001 -0.002   0.001 -0.002   0.000  0.000   0.000  0.000   0.000  0.000   0.000  0.000   0.000  0.000   0.021
   56 -0.107 -0.097   0.001 -0.002   0.001 -0.002   0.001 -0.002   0.000  0.000   0.000  0.000   0.000  0.000   0.000  0.000   0.000  0.000   0.021
   57 -0.107 -0.097   0.001 -0.002   0.001 -0.002   0.001 -0.002   0.000  0.000   0.000  0.000   0.000  0.000   0.000  0.000   0.000  0.000   0.021
   58 -0.107 -0.097   0.001 -0.002   0.001 -0.002   0.001 -0.002   0.000  0.000   0.000  0.000   0.000  0.000   0.000  0.000   0.000  0.000   0.021
   59 -0.107 -0.097   0.001 -0.002   0.001 -0.002   0.001 -0.002   0.000  0.000   0.000  0.000   0.000  0.000   0.000  0.000   0.000  0.000   0.021
   60 -0.107 -0.097   0.001 -0.002   0.001 -0.002   0.001 -0.002   0.000  0.000   0.000  0.000   0.000  0.000   0.000  0.000   0.000  0.000   0.021
   61 -0.107 -0.097   0.001 -0.002   0.001 -0.002   0.001 -0.002   0.000  0.000   0.000  0.000   0.000  0.000   0.000  0.000   0.000  0.000   0.021
   62 -0.107 -0.097   0.001 -0.002   0.001 -0.002   0.001 -0.002   0.000  0.000   0.000  0.000   0.000  0.000   0.000  0.000   0.000  0.000   0.021
   63 -0.107 -0.097   0.001 -0.002   0.001 -0.002   0.001 -0.002   0.000  0.000   0.000  0.000   0.000  0.000   0.000  0.000   0.000  0.000   0.021
   64 -0.107 -0.097   0.001 -0.002   0.001 -0.002   0.001 -0.002   0.000  0.000   0.000  0.000   0.000  0.000   0.000  0.000   0.000  0.000   0.021
charge 0.700          0.001          0.001          0.001          0.000          0.000          0.000          0.000          0.000          0.703       
 
band     2 # energy  -13.58227908 # occ.  2.00000000
 
ion      s     py     pz     px    dxy    dyz    dz2    dxz  x2-y2    tot
    1  0.001  0.000  0.000  0.000  0.000  0.000  0.000  0.000  0.000  0.001
    2  0.001  0.000  0.000  0.000  0.000  0.000  0.000  0.000  0.000  0.001
    3  0.001  0.000  0.000  0.000  0.000  0.000  0.000  0.000  0.000  0.001
    4  0.001  0.000  0.000  0.000  0.000  0.000  0.000  0.000  0.000  0.001
    5  0.001  0.000  0.000  0.000  0.000  0.000  0.000  0.000  0.000  0.001
    6  0.001  0.000  0.000  0.000  0.000  0.000  0.000  0.000  0.000  0.001
    7  0.001  0.000  0.000  0.000  0.000  0.000  0.000  0.000  0.000  0.001
    8  0.001  0.000  0.000  0.000  0.000  0.000  0.000  0.000  0.000  0.001
    9  0.001  0.000  0.000  0.000  0.000  0.000  0.000  0.000  0.000  0.001
   10  0.001  0.000  0.000  0.000  0.000  0.000  0.000  0.000  0.000  0.001
   11  0.001  0.000  0.000  0.000  0.000  0.000  0.000  0.000  0.000  0.001
   12  0.001  0.000  0.000  0.000  0.000  0.000  0.000  0.000  0.000  0.001
   13  0.001  0.000  0.000  0.000  0.000  0.000  0.000  0.000  0.000  0.001
   14  0.001  0.000  0.000  0.000  0.000  0.000  0.000  0.000  0.000  0.001
   15  0.001  0.000  0.000  0.000  0.000  0.000  0.000  0.000  0.000  0.001
   16  0.001  0.000  0.000  0.000  0.000  0.000  0.000  0.000  0.000  0.001
   17  0.001  0.000  0.000  0.000  0.000  0.000  0.000  0.000  0.000  0.001
   18  0.001  0.000  0.000  0.000  0.000  0.000  0.000  0.000  0.000  0.001
   19  0.001  0.000  0.000  0.000  0.000  0.000  0.000  0.000  0.000  0.001
   20  0.001  0.000  0.000  0.000  0.000  0.000  0.000  0.000  0.000  0.001
   21  0.001  0.000  0.000  0.000  0.000  0.000  0.000  0.000  0.000  0.001
   22  0.001  0.000  0.000  0.000  0.000  0.000  0.000  0.000  0.000  0.001
   23  0.001  0.000  0.000  0.000  0.000  0.000  0.000  0.000  0.000  0.001
   24  0.001  0.000  0.000  0.000  0.000  0.000  0.000  0.000  0.000  0.001
   25  0.001  0.000  0.000  0.000  0.000  0.000  0.000  0.000  0.000  0.001
   26  0.001  0.000  0.000  0.000  0.000  0.000  0.000  0.000  0.000  0.001
   27  0.001  0.000  0.000  0.000  0.000  0.000  0.000  0.000  0.000  0.001
   28  0.001  0.000  0.000  0.000  0.000  0.000  0.000  0.000  0.000  0.001
   29  0.001  0.000  0.000  0.000  0.000  0.000  0.000  0.000  0.000  0.001
   30  0.001  0.000  0.000  0.000  0.000  0.000  0.000  0.000  0.000  0.001
   31  0.001  0.000  0.000  0.000  0.000  0.000  0.000  0.000  0.000  0.001
   32  0.001  0.000  0.000  0.000  0.000  0.000  0.000  0.000  0.000  0.001
   33  0.022  0.000  0.000  0.000  0.000  0.000  0.000  0.000  0.000  0.022
   34  0.022  0.000  0.000  0.000  0.000  0.000  0.000  0.000  0.000  0.022
   35  0.022  0.000  0.000  0.000  0.000  0.000  0.000  0.000  0.000  0.022
   36  0.022  0.000  0.000  0.000  0.000  0.000  0.000  0.000  0.000  0.022
   37  0.022  0.000  0.000  0.000  0.000  0.000  0.000  0.000  0.000  0.022
   38  0.022  0.000  0.000  0.000  0.000  0.000  0.000  0.000  0.000  0.022
   39  0.022  0.000  0.000  0.000  0.000  0.000  0.000  0.000  0.000  0.022
   40  0.022  0.000  0.000  0.000  0.000  0.000  0.000  0.000  0.000  0.022
   41  0.022  0.000  0.000  0.000  0.000  0.000  0.000  0.000  0.000  0.022
   42  0.022  0.000  0.000  0.000  0.000  0.000  0.000  0.000  0.000  0.022
   43  0.022  0.000  0.000  0.000  0.000  0.000  0.000  0.000  0.000  0.022
   44  0.022  0.000  0.000  0.000  0.000  0.000  0.000  0.000  0.000  0.022
   45  0.022  0.000  0.000  0.000  0.000  0.000  0.000  0.000  0.000  0.022
   46  0.022  0.000  0.000  0.000  0.000  0.000  0.000  0.000  0.000  0.022
   47  0.022  0.000  0.000  0.000  0.000  0.000  0.000  0.000  0.000  0.022
   48  0.022  0.000  0.000  0.000  0.000  0.000  0.000  0.000  0.000  0.022
   49  0.022  0.000  0.000  0.000  0.000  0.000  0.000  0.000  0.000  0.022
   50  0.022  0.000  0.000  0.000  0.000  0.000  0.000  0.000  0.000  0.022
   51  0.022  0.000  0.000  0.000  0.000  0.000  0.000  0.000  0.000  0.022
   52  0.022  0.000  0.000  0.000  0.000  0.000  0.000  0.000  0.000  0.022
   53  0.022  0.000  0.000  0.000  0.000  0.000  0.000  0.000  0.000  0.022
   54  0.022  0.000  0.000  0.000  0.000  0.000  0.000  0.000  0.000  0.022
   55  0.022  0.000  0.000  0.000  0.000  0.000  0.000  0.000  0.000  0.022
   56  0.022  0.000  0.000  0.000  0.000  0.000  0.000  0.000  0.000  0.022
   57  0.022  0.000  0.000  0.000  0.000  0.000  0.000  0.000  0.000  0.022
   58  0.022  0.000  0.000  0.000  0.000  0.000  0.000  0.000  0.000  0.022
   59  0.022  0.000  0.000  0.000  0.000  0.000  0.000  0.000  0.000  0.022
   60  0.022  0.000  0.000  0.000  0.000  0.000  0.000  0.000  0.000  0.022
   61  0.022  0.000  0.000  0.000  0.000  0.000  0.000  0.000  0.000  0.022
   62  0.022  0.000  0.000  0.000  0.000  0.000  0.000  0.000  0.000  0.022
   63  0.022  0.000  0.000  0.000  0.000  0.000  0.000  0.000  0.000  0.022
   64  0.022  0.000  0.000  0.000  0.000  0.000  0.000  0.000  0.000  0.022
tot    0.739  0.001  0.001  0.007  0.000  0.000  0.000  0.000  0.000  0.748
ion          s             py             pz             px             dxy            dyz            dz2            dxz          dx2-y2  
    1 -0.027  0.008  -0.001 -0.005  -0.001 -0.005   0.004  0.012  -0.000  0.000   0.000 -0.000  -0.002  0.001  -0.000  0.000   0.003 -0.001   0.001
    2 -0.027  0.008  -0.001 -0.005  -0.001 -0.005   0.004  0.012  -0.000  0.000   0.000 -0.000  -0.002  0.001  -0.000  0.000   0.003 -0.001   0.001
    3 -0.027  0.008  -0.001 -0.005  -0.001 -0.005   0.004  0.012  -0.000  0.000   0.000 -0.000  -0.002  0.001  -0.000  0.000   0.003 -0.001   0.001
    4 -0.027  0.008  -0.001 -0.005  -0.001 -0.005   0.004  0.012  -0.000  0.000   0.000 -0.000  -0.002  0.001  -0.000  0.000   0.003 -0.001   0.001
    5  0.027 -0.008   0.001  0.005   0.001  0.005  -0.004 -0.012   0.000 -0.000  -0.000  0.000   0.002 -0.001   0.000 -0.000  -0.003  0.001   0.001
    6  0.027 -0.008   0.001  0.005   0.001  0.005  -0.004 -0.012   0.000 -0.000  -0.000  0.000   0.002 -0.001   0.000 -0.000  -0.003  0.001   0.001
    7  0.027 -0.008   0.001  0.005   0.001  0.005  -0.004 -0.012   0.000 -0.000  -0.000  0.000   0.002 -0.001   0.000 -0.000  -0.003  0.001   0.001
    8  0.027 -0.008   0.001  0.005   0.001  0.005  -0.004 -0.012   0.000 -0.000  -0.000  0.000   0.002 -0.001   0.000 -0.000  -0.003  0.001   0.001
    9 -0.027  0.008  -0.001 -0.005  -0.001 -0.005   0.004  0.012  -0.000  0.000   0.000 -0.000  -0.002  0.001  -0.000  0.000   0.003 -0.001   0.001
   10 -0.027  0.008  -0.001 -0.005  -0.001 -0.005   0.004  0.012  -0.000  0.000   0.000 -0.000  -0.002  0.001  -0.000  0.000   0.003 -0.001   0.001
   11 -0.027  0.008  -0.001 -0.005  -0.001 -0.005   0.004  0.012  -0.000  0.000   0.000 -0.000  -0.002  0.001  -0.000  0.000   0.003 -0.001   0.001
   12 -0.027  0.008  -0.001 -0.005  -0.001 -0.005   0.004  0.012  -0.000  0.000   0.000 -0.000  -0.002  0.001  -0.000  0.000   0.003 -0.001   0.001
   13  0.027 -0.008   0.001  0.005   0.001  0.005  -0.004 -0.012   0.000 -0.000  -0.000  0.000   0.002 -0.001   0.000 -0.000  -0.003  0.001   0.001
   14  0.027 -0.008   0.001  0.005   0.001  0.005  -0.004 -0.012   0.000 -0.000  -0.000  0.000   0.002 -0.001   0.000 -0.000  -0.003  0.001   0.001
   15  0.027 -0.008   0.001  0.005   0.001  0.005  -0.004 -0.012   0.000 -0.000  -0.000  0.000   0.002 -0.001   0.000 -0.000  -0.003  0.001   0.001
   16  0.027 -0.008   0.001  0.005   0.001  0.005  -0.004 -0.012   0.000 -0.000  -0.000  0.000   0.002 -0.001   0.000 -0.000  -0.003  0.001   0.001
   17  0.008  0.027  -0.005  0.001  -0.005  0.001   0.012 -0.004   0.000  0.000  -0.000 -0.000   0.001  0.002   0.000  0.000  -0.001 -0.003   0.001
   18  0.008  0.027  -0.005  0.001  -0.005  0.001   0.012 -0.004   0.000  0.000  -0.000 -0.000   0.001  0.002   0.000  0.000  -0.001 -0.003   0.001
   19  0.008  0.027  -0.005  0.001  -0.005  0.001   0.012 -0.004   0.000  0.000  -0.000 -0.000   0.001  0.002   0.000  0.000  -0.001 -0.003   0.001
   20  0.008  0.027  -0.005  0.001  -0.005  0.001   0.012 -0.004   0.000  0.000  -0.000 -0.000   0.001  0.002   0.000  0.000  -0.001 -0.003   0.001
   21 -0.008 -0.027   0.005 -0.001   0.005 -0.001  -0.012  0.004  -0.000 -0.000   0.000  0.000  -0.001 -0.002  -0.000 -0.000   0.001  0.003   0.001
   22 -0.008 -0.027   0.005 -0.001   0.005 -0.001  -0.012  0.004  -0.000 -0.000   0.000  0.000  -0.001 -0.002  -0.000 -0.000   0.001  0.003   0.001
   23 -0.008 -0.027   0.005 -0.001   0.005 -0.001  -0.012  0.004  -0.000 -0.000   0.000  0.000  -0.001 -0.002  -0.000 -0.000   0.001  0.003   0.001
   24 -0.008 -0.027   0.005 -0.001   0.005 -0.001  -0.012  0.004  -0.000 -0.000   0.000  0.000  -0.001 -0.002  -0.000 -0.000   0.001  0.003   0.001
   25  0.008  0.027  -0.005  0.001  -0.005  0.001   0.012 -0.004   0.000  0.000  -0.000 -0.000   0.001  0.002   0.000  0.000  -0.001 -0.003   0.001
   26  0.008  0.027  -0.005  0.001  -0.005  0.001   0.012 -0.004   0.000  0.000  -0.000 -0.000   0.001  0.002   0.000  0.000  -0.001 -0.003   0.001
   27  0.008  0.027  -0.005  0.001  -0.005  0.001   0.012 -0.004   0.000  0.000  -0.000 -0.000   0.001  0.002   0.000  0.000  -0.001 -0.003   0.001
   28  0.008  0.027  -0.005  0.001  -0.005  0.001   0.012 -0.004   0.000  0.000  -0.000 -0.000   0.001  0.002   0.000  0.000  -0.001 -0.003   0.001
   29 -0.008 -0.027   0.005 -0.001   0.005 -0.001  -0.012  0.004  -0.000 -0.000   0.000  0.000  -0.001 -0.002  -0.000 -0.000   0.001  0.003   0.001
   30 -0.008 -0.027   0.005 -0.001   0.005 -0.001  -0.012  0.004  -0.000 -0.000   0.000  0.000  -0.001 -0.002  -0.000 -0.000   0.001  0.003   0.001
   31 -0.008 -0.027   0.005 -0.001   0.005 -0.001  -0.012  0.004  -0.000 -0.000   0.000  0.000  -0.001 -0.002  -0.000 -0.000   0.001  0.003   0.001
   32 -0.008 -0.027   0.005 -0.001   0.005 -0.001  -0.012  0.004  -0.000 -0.000   0.000  0.000  -0.001 -0.002  -0.000 -0.000   0.001  0.003   0.001
   33  0.042  0.141  -0.002  0.000  -0.002  0.000   0.005 -0.001   0.000  0.000   0.000  0.000   0.000  0.000   0.000  0.000   0.000  0.000   0.022
   34  0.042  0.141  -0.002  0.000  -0.002  0.000   0.005 -0.001   0.000  0.000   0.000  0.000   0.000  0.000   0.000  0.000   0.000  0.000   0.022
   35  0.041  0.141  -0.002  0.000  -0.002  0.000   0.005 -0.001   0.000  0.000   0.000  0.000   0.000  0.000   0.000  0.000   0.000  0.000   0.021
   36  0.041  0.141  -0.002  0.000  -0.002  0.000   0.005 -0.001   0.000  0.000   0.000  0.000   0.000  0.000   0.000  0.000   0.000  0.000   0.021
   37 -0.041 -0.141   0.002 -0.000   0.002 -0.000  -0.005  0.001   0.000  0.000   0.000  0.000   0.000  0.000   0.000  0.000   0.000  0.000   0.021
   38 -0.041 -0.141   0.002 -0.000   0.002 -0.000  -0.005  0.001   0.000  0.000   0.000  0.000   0.000  0.000   0.000  0.000   0.000  0.000   0.021
   39 -0.042 -0.141   0.002 -0.000   0.002 -0.000  -0.005  0.001   0.000  0.000   0.000  0.000   0.000  0.000   0.000  0.000   0.000  0.000   0.022
   40 -0.042 -0.141   0.002 -0.000   0.002 -0.000  -0.005  0.001   0.000  0.000   0.000  0.000   0.000  0.000   0.000  0.000   0.000  0.000   0.022
   41  0.042  0.140  -0.002  0.000  -0.002  0.000   0.005 -0.001   0.000  0.000   0.000  0.000   0.000  0.000   0.000  0.000   0.000  0.000   0.021
   42  0.042  0.140  -0.002  0.000  -0.002  0.000   0.005 -0.001   0.000  0.000   0.000  0.000   0.000  0.000   0.000  0.000   0.000  0.000   0.021
   43  0.041  0.141  -0.002  0.000  -0.002  0.000   0.005 -0.001   0.000  0.000   0.000  0.000   0.000  0.000   0.000  0.000   0.000  0.000   0.022
   44  0.041  0.141  -0.002  0.000  -0.002  0.000   0.005 -0.001   0.000  0.000   0.000  0.000   0.000  0.000   0.000  0.000   0.000  0.000   0.022
   45 -0.041 -0.141   0.002 -0.000   0.002 -0.000  -0.005  0.001   0.000  0.000   0.000  0.000   0.000  0.000   0.000  0.000   0.000  0.000   0.022
   46 -0.041 -0.141   0.002 -0.000   0.002 -0.000  -0.005  0.001   0.000  0.000   0.000  0.000   0.000  0.000   0.000  0.000   0.000  0.000   0.022
   47 -0.042 -0.140   0.002 -0.000   0.002 -0.000  -0.005  0.001   0.000  0.000   0.000  0.000   0.000  0.000   0.000  0.000   0.000  0.000   0.021
   48 -0.042 -0.140   0.002 -0.000   0.002 -0.000  -0.005  0.001   0.000  0.000   0.000  0.000   0.000  0.000   0.000  0.000   0.000  0.000   0.021
   49 -0.140  0.042  -0.000 -0.002  -0.000 -0.002   0.001  0.005   0.000  0.000   0.000  0.000   0.000  0.000   0.000  0.000   0.000  0.000   0.021
   50 -0.140  0.042  -0.000 -0.002  -0.000 -0.002   0.001  0.005   0.000  0.000   0.000  0.000   0.000  0.000   0.000  0.000   0.000  0.000   0.021
   51 -0.141  0.041  -0.000 -0.002  -0.000 -0.002   0.001  0.005   0.000  0.000   0.000  0.000   0.000  0.000   0.000  0.000   0.000  0.000   0.022
   52 -0.141  0.041  -0.000 -0.002  -0.000 -0.002   0.001  0.005   0.000  0.000   0.000  0.000   0.000  0.000   0.000  0.000   0.000  0.000   0.022
   53  0.141 -0.041   0.000  0.002   0.000  0.002  -0.001 -0.005   0.000  0.000   0.000  0.000   0.000  0.000   0.000  0.000   0.000  0.000   0.022
   54  0.141 -0.041   0.000  0.002   0.000  0.002  -0.001 -0.005   0.000  0.000   0.000  0.000   0.000  0.000   0.000  0.000   0.000  0.000   0.022
   55  0.140 -0.042   0.000  0.002   0.000  0.002  -0.001 -0.005   0.000  0.000   0.000  0.000   0.000  0.000   0.000  0.000   0.000  0.000   0.021
   56  0.140 -0.042   0.000  0.002   0.000  0.002  -0.001 -0.005   0.000  0.000   0.000  0.000   0.000  0.000   0.000  0.000   0.000  0.000   0.021
   57 -0.141  0.041  -0.000 -0.002  -0.000 -0.002   0.001  0.005   0.000  0.000   0.000  0.000   0.000  0.000   0.000  0.000   0.000  0.000   0.021
   58 -0.141  0.041  -0.000 -0.002  -0.000 -0.002   0.001  0.005   0.000  0.000   0.000  0.000   0.000  0.000   0.000  0.000   0.000  0.000   0.021
   59 -0.141  0.042  -0.000 -0.002  -0.000 -0.002   0.001  0.005   0.000  0.000   0.000  0.000   0.000  0.000   0.000  0.000   0.000  0.000   0.022
   60 -0.141  0.042  -0.000 -0.002  -0.000 -0.002   0.001  0.005   0.000  0.000   0.000  0.000   0.000  0.000   0.000  0.000   0.000  0.000   0.022
   61  0.141 -0.042   0.000  0.002   0.000  0.002  -0.001 -0.005   0.000  0.000   0.000  0.000   0.000  0.000   0.000  0.000   0.000  0.000   0.022
   62  0.141 -0.042   0.000  0.002   0.000  0.002  -0.001 -0.005   0.000  0.000   0.000  0.000   0.000  0.000   0.000  0.000   0.000  0.000   0.022
   63  0.141 -0.041   0.000  0.002   0.000  0.002  -0.001 -0.005   0.000  0.000   0.000  0.000   0.000  0.000   0.000  0.000   0.000  0.000   0.021
   64  0.141 -0.041   0.000  0.002   0.000  0.002  -0.001 -0.005   0.000  0.000   0.000  0.000   0.000  0.000   0.000  0.000   0.000  0.000   0.021
charge 0.715          0.001          0.001          0.006          0.000          0.000          0.000          0.000          0.000          0.724       
 
band     3 # energy  -13.58227908 # occ.  2.00000000
 
ion      s     py     pz     px    dxy    dyz    dz2    dxz  x2-y2    tot