<?xml version="1.0" encoding="ISO-8859-1"?>
<modeling>
 <generator>
  <i name="program" type="string">vasp </i>
  <i name="version" type="string">5.4.4.18Apr17-6-g9f103f2a35  </i>
  <i name="subversion" type="string">(build Apr 25 2017 10:43:04) complex            parallel </i>
  <i name="platform" type="string">LinuxIFC </i>
  <i name="date" type="string">2019 08 29 </i>
  <i name="time" type="string">09:00:15 </i>
 </generator>
 <incar>
  <i type="string" name="PREC">n</i>
  <i type="string" name="ALGO">  Normal</i>
  <i type="int" name="ISPIN">     1</i>
  <i type="int" name="NELM">   100</i>
  <i type="int" name="NELMIN">     2</i>
  <i type="int" name="IBRION">     2</i>
  <i name="EDIFF">      0.00000100</i>
  <i name="EDIFFG">     -0.04000000</i>
  <i type="int" name="NSW">    50</i>
  <i type="int" name="ISIF">     2</i>
  <i type="string" name="LREAL">  Auto</i>
  <i type="int" name="ISMEAR">     0</i>
  <i name="SIGMA">      0.10000000</i>
  <i type="logical" name="LWAVE"> T  </i>
  <i type="logical" name="LCHARG"> F  </i>
  <i type="int" name="LORBIT">    12</i>
  <i type="logical" name="LASPH"> T  </i>
  <v type="int" name="KPOINT_BSE">    -1     0     0     0</v>
  <i type="int" name="NELM">   100</i>
  <i type="string" name="GGA">  Ps</i>
  <i type="logical" name="LASPH"> T  </i>
 </incar>
 <structure name="primitive_cell" >
  <crystal>
   <varray name="basis" >
    <v>       2.10486400       2.10486400       0.00000000 </v>
    <v>       2.10486400       0.00000000      -2.10486400 </v>
    <v>       0.00000000       2.10486400      -2.10486400 </v>
   </varray>
   <i name="volume">     18.65099977 </i>
   <varray name="rec_basis" >
    <v>       0.23754504       0.23754504       0.23754504 </v>
    <v>       0.23754504      -0.23754504      -0.23754504 </v>
    <v>      -0.23754504       0.23754504      -0.23754504 </v>
   </varray>
  </crystal>
  <varray name="positions" >
   <v>       0.00000000       0.00000000       0.00000000 </v>
   <v>      -0.50000000      -0.50000000      -0.50000000 </v>
  </varray>
 </structure>
 <varray name="primitive_index" >
  <v type="int" >        1 </v>
  <v type="int" >       33 </v>
 </varray>
 <kpoints>
  <generation param="Gamma">
   <v type="int" name="divisions">       2        2        2 </v>
   <v name="usershift">      0.50000000       0.50000000       0.50000000 </v>
   <v name="genvec1">      0.50000000       0.00000000       0.00000000 </v>
   <v name="genvec2">      0.00000000       0.50000000       0.00000000 </v>
   <v name="genvec3">      0.00000000       0.00000000       0.50000000 </v>
   <v name="shift">      0.50000000       0.50000000       0.50000000 </v>
  </generation>
  <varray name="kpointlist" >
   <v>       0.25000000       0.25000000       0.25000000 </v>
  </varray>
  <varray name="weights" >
   <v>       1.00000000 </v>
  </varray>
 </kpoints>
 <parameters>
  <separator name="general" >
   <i type="string" name="SYSTEM">unknown system</i>
   <i type="logical" name="LCOMPAT"> F  </i>
  </separator>
  <separator name="electronic" >
   <i type="string" name="PREC">n</i>
   <i name="ENMAX">    400.00000000</i>
   <i name="ENAUG">    605.39200000</i>
   <i name="EDIFF">      0.00000100</i>
   <i type="int" name="IALGO">    38</i>
   <i type="int" name="IWAVPR">    11</i>
   <i type="int" name="NBANDS">   180</i>
   <i name="NELECT">    256.00000000</i>
   <i type="int" name="TURBO">     0</i>
   <i type="int" name="IRESTART">     0</i>
   <i type="int" name="NREBOOT">     0</i>
   <i type="int" name="NMIN">     0</i>
   <i name="EREF">      0.00000000</i>
   <separator name="electronic smearing" >
    <i type="int" name="ISMEAR">     0</i>
    <i name="SIGMA">      0.10000000</i>
    <i name="KSPACING">      0.50000000</i>
    <i type="logical" name="KGAMMA"> T  </i>
   </separator>
   <separator name="electronic projectors" >
    <i type="logical" name="LREAL"> T  </i>
    <v name="ROPT">     -0.00050000     -0.00050000</v>
    <i type="int" name="LMAXPAW">  -100</i>
    <i type="int" name="LMAXMIX">     2</i>
    <i type="logical" name="NLSPLINE"> F  </i>
   </separator>
   <separator name="electronic startup" >
    <i type="int" name="ISTART">     0</i>
    <i type="int" name="ICHARG">     2</i>
    <i type="int" name="INIWAV">     1</i>
   </separator>
   <separator name="electronic spin" >
    <i type="int" name="ISPIN">     1</i>
    <i type="logical" name="LNONCOLLINEAR"> F  </i>
    <v name="MAGMOM">      1.00000000      1.00000000      1.00000000      1.00000000      1.00000000      1.00000000      1.00000000      1.00000000      1.00000000      1.00000000      1.00000000      1.00000000      1.00000000      1.00000000      1.00000000      1.00000000      1.00000000      1.00000000      1.00000000      1.00000000
      1.00000000      1.00000000      1.00000000      1.00000000      1.00000000      1.00000000      1.00000000      1.00000000      1.00000000      1.00000000      1.00000000      1.00000000      1.00000000      1.00000000      1.00000000      1.00000000      1.00000000      1.00000000      1.00000000      1.00000000
      1.00000000      1.00000000      1.00000000      1.00000000      1.00000000      1.00000000      1.00000000      1.00000000      1.00000000      1.00000000      1.00000000      1.00000000      1.00000000      1.00000000      1.00000000      1.00000000      1.00000000      1.00000000      1.00000000      1.00000000
      1.00000000      1.00000000      1.00000000      1.00000000</v>
    <i name="NUPDOWN">     -1.00000000</i>
    <i type="logical" name="LSORBIT"> F  </i>
    <v name="SAXIS">      0.00000000      0.00000000      1.00000000</v>
    <i type="logical" name="LSPIRAL"> F  </i>
    <v name="QSPIRAL">      0.00000000      0.00000000      0.00000000</v>
    <i type="logical" name="LZEROZ"> F  </i>
   </separator>
   <separator name="electronic exchange-correlation" >
    <i type="logical" name="LASPH"> T  </i>
    <i type="logical" name="LMETAGGA"> F  </i>
   </separator>
   <separator name="electronic convergence" >
    <i type="int" name="NELM">   100</i>
    <i type="int" name="NELMDL">    -5</i>
    <i type="int" name="NELMIN">     2</i>
    <i name="ENINI">    400.00000000</i>
    <separator name="electronic convergence detail" >
     <i type="logical" name="LDIAG"> T  </i>
     <i type="logical" name="LSUBROT"> F  </i>
     <i name="WEIMIN">      0.00100000</i>
     <i name="EBREAK">      0.00000000</i>
     <i name="DEPER">      0.30000000</i>
     <i type="int" name="NRMM">     4</i>
     <i name="TIME">      0.40000000</i>
    </separator>
   </separator>
   <separator name="electronic mixer" >
    <i name="AMIX">      0.40000000</i>
    <i name="BMIX">      1.00000000</i>
    <i name="AMIN">      0.10000000</i>
    <i name="AMIX_MAG">      1.60000000</i>
    <i name="BMIX_MAG">      1.00000000</i>
    <separator name="electronic mixer details" >
     <i type="int" name="IMIX">     4</i>
     <i type="logical" name="MIXFIRST"> F  </i>
     <i type="int" name="MAXMIX">   -45</i>
     <i name="WC">    100.00000000</i>
     <i type="int" name="INIMIX">     1</i>
     <i type="int" name="MIXPRE">     1</i>
     <i type="int" name="MREMOVE">     5</i>
    </separator>
   </separator>
   <separator name="electronic dipolcorrection" >
    <i type="logical" name="LDIPOL"> F  </i>
    <i type="logical" name="LMONO"> F  </i>
    <i type="int" name="IDIPOL">     0</i>
    <i name="EPSILON">      1.00000000</i>
    <v name="DIPOL">   -100.00000000   -100.00000000   -100.00000000</v>
    <i name="EFIELD">      0.00000000</i>
   </separator>
  </separator>
  <separator name="grids" >
   <i type="int" name="NGX">    42</i>
   <i type="int" name="NGY">    42</i>
   <i type="int" name="NGZ">    42</i>
   <i type="int" name="NGXF">    84</i>
   <i type="int" name="NGYF">    84</i>
   <i type="int" name="NGZF">    84</i>
   <i type="logical" name="ADDGRID"> F  </i>
  </separator>
  <separator name="ionic" >
   <i type="int" name="NSW">    50</i>
   <i type="int" name="IBRION">     2</i>
   <i type="int" name="MDALGO">     0</i>
   <i type="int" name="ISIF">     2</i>
   <i name="PSTRESS">      0.00000000</i>
   <i name="EDIFFG">     -0.04000000</i>
   <i type="int" name="NFREE">     1</i>
   <i name="POTIM">      0.50000000</i>
   <i name="SMASS">     -3.00000000</i>
   <i name="SCALEE">      1.00000000</i>
  </separator>
  <separator name="ionic md" >
   <i name="TEBEG">      0.00010000</i>
   <i name="TEEND">      0.00010000</i>
   <i type="int" name="NBLOCK">     1</i>
   <i type="int" name="KBLOCK">    50</i>
   <i type="int" name="NPACO">   256</i>
   <i name="APACO">     16.00000000</i>
  </separator>
  <separator name="symmetry" >
   <i type="int" name="ISYM">     2</i>
   <i name="SYMPREC">      0.00001000</i>
  </separator>
  <separator name="dos" >
   <i type="int" name="LORBIT">    12</i>
   <v name="RWIGS">     -1.00000000     -1.00000000</v>
   <i type="int" name="NEDOS">   301</i>
   <i name="EMIN">     10.00000000</i>
   <i name="EMAX">    -10.00000000</i>
   <i name="EFERMI">      0.00000000</i>
  </separator>
  <separator name="writing" >
   <i type="int" name="NWRITE">     2</i>
   <i type="logical" name="LWAVE"> T  </i>
   <i type="logical" name="LDOWNSAMPLE"> F  </i>
   <i type="logical" name="LCHARG"> F  </i>
   <i type="logical" name="LPARD"> F  </i>
   <i type="logical" name="LVTOT"> F  </i>
   <i type="logical" name="LVHAR"> F  </i>
   <i type="logical" name="LELF"> F  </i>
   <i type="logical" name="LOPTICS"> F  </i>
   <v name="STM">      0.00000000      0.00000000      0.00000000      0.00000000      0.00000000      0.00000000      0.00000000</v>
  </separator>
  <separator name="performance" >
   <i type="int" name="NPAR">    36</i>
   <i type="int" name="NSIM">     4</i>
   <i type="int" name="NBLK">    -1</i>
   <i type="logical" name="LPLANE"> T  </i>
   <i type="logical" name="LSCALAPACK"> T  </i>
   <i type="logical" name="LSCAAWARE"> F  </i>
   <i type="logical" name="LSCALU"> F  </i>
   <i type="logical" name="LASYNC"> F  </i>
   <i type="logical" name="LORBITALREAL"> F  </i>
  </separator>
  <separator name="miscellaneous" >
   <i type="int" name="IDIOT">     3</i>
   <i type="int" name="ISPECIAL">     0</i>
   <i type="logical" name="LMUSIC"> F  </i>
   <v name="POMASS">     24.30500000     16.00000000</v>
   <v name="DARWINR">      0.00000000      0.00000000</v>
   <v name="DARWINV">      1.00000000      1.00000000</v>
   <i type="logical" name="LCORR"> T  </i>
  </separator>
  <i type="logical" name="GGA_COMPAT"> T  </i>
  <i type="logical" name="LBERRY"> F  </i>
  <i type="int" name="ICORELEVEL">     0</i>
  <i type="logical" name="LDAU"> F  </i>
  <i type="int" name="I_CONSTRAINED_M">     0</i>
  <separator name="electronic exchange-correlation" >
   <i type="string" name="GGA">PS</i>
   <i type="int" name="VOSKOWN">     0</i>
   <i type="logical" name="LHFCALC"> F  </i>
   <i type="string" name="PRECFOCK"></i>
   <i type="logical" name="LSYMGRAD"> F  </i>
   <i type="logical" name="LHFONE"> F  </i>
   <i type="logical" name="LRHFCALC"> F  </i>
   <i type="logical" name="LTHOMAS"> F  </i>
   <i type="logical" name="LMODELHF"> F  </i>
   <i name="ENCUT4O">     -1.00000000</i>
   <i type="int" name="EXXOEP">     0</i>
   <i type="int" name="FOURORBIT">     0</i>
   <i name="AEXX">      0.00000000</i>
   <i name="HFALPHA">      0.00000000</i>
   <i name="MCALPHA">      0.00000000</i>
   <i name="ALDAX">      1.00000000</i>
   <i name="AGGAX">      1.00000000</i>
   <i name="ALDAC">      1.00000000</i>
   <i name="AGGAC">      1.00000000</i>
   <i type="int" name="NKREDX">     1</i>
   <i type="int" name="NKREDY">     1</i>
   <i type="int" name="NKREDZ">     1</i>
   <i type="logical" name="SHIFTRED"> F  </i>
   <i type="logical" name="ODDONLY"> F  </i>
   <i type="logical" name="EVENONLY"> F  </i>
   <i type="int" name="LMAXFOCK">     0</i>
   <i type="int" name="NMAXFOCKAE">     0</i>
   <i type="logical" name="LFOCKAEDFT"> F  </i>
   <i name="HFSCREEN">      0.00000000</i>
   <i name="HFSCREENC">      0.00000000</i>
   <i type="int" name="NBANDSGWLOW">     0</i>
  </separator>
  <separator name="vdW DFT" >
   <i type="logical" name="LUSE_VDW"> F  </i>
   <i name="Zab_VDW">     -0.84910000</i>
   <i name="PARAM1">      0.12340000</i>
   <i name="PARAM2">      1.00000000</i>
   <i name="PARAM3">      0.00000000</i>
  </separator>
  <separator name="model GW" >
   <i type="int" name="MODEL_GW">     0</i>
   <i name="MODEL_EPS0">      5.59529993</i>
   <i name="MODEL_ALPHA">      1.00000000</i>
  </separator>
  <separator name="linear response parameters" >
   <i type="logical" name="LEPSILON"> F  </i>
   <i type="logical" name="LRPA"> F  </i>
   <i type="logical" name="LNABLA"> F  </i>
   <i type="logical" name="LVEL"> F  </i>
   <i type="int" name="KINTER">     0</i>
   <i name="CSHIFT">      0.10000000</i>
   <i name="OMEGAMAX">     -1.00000000</i>
   <i name="DEG_THRESHOLD">      0.00200000</i>
   <i name="RTIME">     -0.10000000</i>
   <i name="WPLASMAI">      0.00000000</i>
   <v name="DFIELD">      0.00000000      0.00000000      0.00000000</v>
   <v name="WPLASMA">      0.00000000      0.00000000      0.00000000      0.00000000      0.00000000      0.00000000      0.00000000      0.00000000      0.00000000</v>
  </separator>
  <separator name="orbital magnetization" >
   <i type="logical" name="NUCIND"> F  </i>
   <v name="MAGPOS">      0.00000000      0.00000000      0.00000000</v>
   <i type="logical" name="LNICSALL"> T  </i>
   <i type="logical" name="ORBITALMAG"> F  </i>
   <i type="logical" name="LMAGBLOCH"> F  </i>
   <i type="logical" name="LCHIMAG"> F  </i>
   <i type="logical" name="LGAUGE"> T  </i>
   <i type="int" name="MAGATOM">     0</i>
   <v name="MAGDIPOL">      0.00000000      0.00000000      0.00000000</v>
   <v name="AVECCONST">      0.00000000      0.00000000      0.00000000</v>
  </separator>
  <separator name="response functions" >
   <i type="logical" name="LADDER"> F  </i>
   <i type="logical" name="LRPAFORCE"> F  </i>
   <i type="logical" name="LFXC"> F  </i>
   <i type="logical" name="LHARTREE"> T  </i>
   <i type="int" name="IBSE">     0</i>
   <v type="int" name="KPOINT">    -1     0     0     0</v>
   <i type="logical" name="LTCTE"> F  </i>
   <i type="logical" name="LTETE"> F  </i>
   <i type="logical" name="LTRIPLET"> F  </i>
   <i type="logical" name="LFXCEPS"> F  </i>
   <i type="logical" name="LFXHEG"> F  </i>
   <i type="int" name="NATURALO">     2</i>
   <i type="logical" name="L2ORDER"> F  </i>
   <i type="logical" name="LMP2LT"> F  </i>
   <i type="logical" name="LUSEW"> F  </i>
   <i name="ENCUTGW">     -2.00000000</i>
   <i name="ENCUTGWSOFT">     -2.00000000</i>
   <i name="ENCUTLF">     -1.00000000</i>
   <i type="int" name="LMAXMP2">    -1</i>
   <i name="SCISSOR">      0.00000000</i>
   <i type="int" name="NOMEGA">     0</i>
   <i type="int" name="NOMEGAR">     0</i>
   <i type="int" name="NBANDSGW">    -1</i>
   <i type="int" name="NBANDSO">    -1</i>
   <i type="int" name="NBANDSV">    -1</i>
   <i type="int" name="NELM">   100</i>
   <i type="int" name="NELMHF">     1</i>
   <i type="int" name="DIM">     3</i>
   <i type="int" name="ANTIRES">     0</i>
   <i name="OMEGAMAX">    -30.00000000</i>
   <i name="OMEGAMIN">    -30.00000000</i>
   <i name="OMEGATL">   -200.00000000</i>
   <i type="int" name="OMEGAGRID">   140</i>
   <i name="CSHIFT">     -0.10000000</i>
   <i type="logical" name="SELFENERGY"> F  </i>
   <i type="logical" name="LSPECTRAL"> F  </i>
   <i type="logical" name="LSPECTRALGW"> F  </i>
   <i type="logical" name="LSINGLES"> F  </i>
   <i type="logical" name="LFERMIGW"> F  </i>
   <i type="logical" name="ODDONLYGW"> F  </i>
   <i type="logical" name="EVENONLYGW"> F  </i>
   <i type="int" name="NKREDLFX">     1</i>
   <i type="int" name="NKREDLFY">     1</i>
   <i type="int" name="NKREDLFZ">     1</i>
   <i type="int" name="MAXMEM">  2800</i>
   <i type="int" name="TELESCOPE">     0</i>
   <i type="int" name="TAUPAR">     1</i>
   <i type="int" name="OMEGAPAR">    -1</i>
   <i name="LAMBDA">      1.00000000</i>
  </separator>
  <separator name="External order field" >
   <i name="OFIELD_KAPPA">      0.00000000</i>
   <v name="OFIELD_K">      0.00000000      0.00000000      0.00000000</v>
   <i name="OFIELD_Q6_NEAR">      0.00000000</i>
   <i name="OFIELD_Q6_FAR">      0.00000000</i>
   <i name="OFIELD_A">      0.00000000</i>
  </separator>
 </parameters>
 <atominfo>
  <atoms>      64 </atoms>
  <types>       2 </types>
  <array name="atoms" >
   <dimension dim="1">ion</dimension>
   <field type="string">element</field>
   <field type="int">atomtype</field>
   <set>
    <rc><c>Mg</c><c>   1</c></rc>
    <rc><c>Mg</c><c>   1</c></rc>
    <rc><c>Mg</c><c>   1</c></rc>
    <rc><c>Mg</c><c>   1</c></rc>
    <rc><c>Mg</c><c>   1</c></rc>
    <rc><c>Mg</c><c>   1</c></rc>
    <rc><c>Mg</c><c>   1</c></rc>
    <rc><c>Mg</c><c>   1</c></rc>
    <rc><c>Mg</c><c>   1</c></rc>
    <rc><c>Mg</c><c>   1</c></rc>
    <rc><c>Mg</c><c>   1</c></rc>
    <rc><c>Mg</c><c>   1</c></rc>
    <rc><c>Mg</c><c>   1</c></rc>
    <rc><c>Mg</c><c>   1</c></rc>
    <rc><c>Mg</c><c>   1</c></rc>
    <rc><c>Mg</c><c>   1</c></rc>
    <rc><c>Mg</c><c>   1</c></rc>
    <rc><c>Mg</c><c>   1</c></rc>
    <rc><c>Mg</c><c>   1</c></rc>
    <rc><c>Mg</c><c>   1</c></rc>
    <rc><c>Mg</c><c>   1</c></rc>
    <rc><c>Mg</c><c>   1</c></rc>
    <rc><c>Mg</c><c>   1</c></rc>
    <rc><c>Mg</c><c>   1</c></rc>
    <rc><c>Mg</c><c>   1</c></rc>
    <rc><c>Mg</c><c>   1</c></rc>
    <rc><c>Mg</c><c>   1</c></rc>
    <rc><c>Mg</c><c>   1</c></rc>
    <rc><c>Mg</c><c>   1</c></rc>
    <rc><c>Mg</c><c>   1</c></rc>
    <rc><c>Mg</c><c>   1</c></rc>
    <rc><c>Mg</c><c>   1</c></rc>
    <rc><c>O </c><c>   2</c></rc>
    <rc><c>O </c><c>   2</c></rc>
    <rc><c>O </c><c>   2</c></rc>
    <rc><c>O </c><c>   2</c></rc>
    <rc><c>O </c><c>   2</c></rc>
    <rc><c>O </c><c>   2</c></rc>
    <rc><c>O </c><c>   2</c></rc>
    <rc><c>O </c><c>   2</c></rc>
    <rc><c>O </c><c>   2</c></rc>
    <rc><c>O </c><c>   2</c></rc>
    <rc><c>O </c><c>   2</c></rc>
    <rc><c>O </c><c>   2</c></rc>
    <rc><c>O </c><c>   2</c></rc>
    <rc><c>O </c><c>   2</c></rc>
    <rc><c>O </c><c>   2</c></rc>
    <rc><c>O </c><c>   2</c></rc>
    <rc><c>O </c><c>   2</c></rc>
    <rc><c>O </c><c>   2</c></rc>
    <rc><c>O </c><c>   2</c></rc>
    <rc><c>O </c><c>   2</c></rc>
    <rc><c>O </c><c>   2</c></rc>
    <rc><c>O </c><c>   2</c></rc>
    <rc><c>O </c><c>   2</c></rc>
    <rc><c>O </c><c>   2</c></rc>
    <rc><c>O </c><c>   2</c></rc>
    <rc><c>O </c><c>   2</c></rc>
    <rc><c>O </c><c>   2</c></rc>
    <rc><c>O </c><c>   2</c></rc>
    <rc><c>O </c><c>   2</c></rc>
    <rc><c>O </c><c>   2</c></rc>
    <rc><c>O </c><c>   2</c></rc>
    <rc><c>O </c><c>   2</c></rc>
   </set>
  </array>
  <array name="atomtypes" >
   <dimension dim="1">type</dimension>
   <field type="int">atomspertype</field>
   <field type="string">element</field>
   <field>mass</field>
   <field>valence</field>
   <field type="string">pseudopotential</field>
   <set>
    <rc><c>  32</c><c>Mg</c><c>     24.30500000</c><c>      2.00000000</c><c>  PAW_PBE Mg 13Apr2007                  </c></rc>
    <rc><c>  32</c><c>O </c><c>     16.00000000</c><c>      6.00000000</c><c>  PAW_PBE O 08Apr2002                   </c></rc>
   </set>
  </array>
 </atominfo>
 <structure name="initialpos" >
  <crystal>
   <varray name="basis" >
    <v>       8.41945600       0.00000000       0.00000000 </v>
    <v>       0.00000000       8.41945600       0.00000000 </v>
    <v>       0.00000000       0.00000000       8.41945600 </v>
   </varray>
   <i name="volume">    596.83199255 </i>
   <varray name="rec_basis" >
    <v>       0.11877252       0.00000000       0.00000000 </v>
    <v>       0.00000000       0.11877252       0.00000000 </v>
    <v>       0.00000000       0.00000000       0.11877252 </v>
   </varray>
  </crystal>
  <varray name="positions" >
   <v>       0.00000000       0.00000000       0.00000000 </v>
   <v>       0.00000000       0.00000000       0.50000000 </v>
   <v>       0.00000000       0.50000000       0.00000000 </v>
   <v>       0.00000000       0.50000000       0.50000000 </v>
   <v>       0.50000000       0.00000000       0.00000000 </v>
   <v>       0.50000000       0.00000000       0.50000000 </v>
   <v>       0.50000000       0.50000000       0.00000000 </v>
   <v>       0.50000000       0.50000000       0.50000000 </v>
   <v>       0.00000000       0.25000000       0.25000000 </v>
   <v>       0.00000000       0.25000000       0.75000000 </v>
   <v>       0.00000000       0.75000000       0.25000000 </v>
   <v>       0.00000000       0.75000000       0.75000000 </v>
   <v>       0.50000000       0.25000000       0.25000000 </v>
   <v>       0.50000000       0.25000000       0.75000000 </v>
   <v>       0.50000000       0.75000000       0.25000000 </v>
   <v>       0.50000000       0.75000000       0.75000000 </v>
   <v>       0.25000000       0.00000000       0.25000000 </v>
   <v>       0.25000000       0.00000000       0.75000000 </v>
   <v>       0.25000000       0.50000000       0.25000000 </v>
   <v>       0.25000000       0.50000000       0.75000000 </v>
   <v>       0.75000000       0.00000000       0.25000000 </v>
   <v>       0.75000000       0.00000000       0.75000000 </v>
   <v>       0.75000000       0.50000000       0.25000000 </v>
   <v>       0.75000000       0.50000000       0.75000000 </v>
   <v>       0.25000000       0.25000000       0.00000000 </v>
   <v>       0.25000000       0.25000000       0.50000000 </v>
   <v>       0.25000000       0.75000000       0.00000000 </v>
   <v>       0.25000000       0.75000000       0.50000000 </v>
   <v>       0.75000000       0.25000000       0.00000000 </v>
   <v>       0.75000000       0.25000000       0.50000000 </v>
   <v>       0.75000000       0.75000000       0.00000000 </v>
   <v>       0.75000000       0.75000000       0.50000000 </v>
   <v>       0.25000000       0.00000000       0.00000000 </v>
   <v>       0.25000000       0.00000000       0.50000000 </v>
   <v>       0.25000000       0.50000000       0.00000000 </v>
   <v>       0.25000000       0.50000000       0.50000000 </v>
   <v>       0.75000000       0.00000000       0.00000000 </v>
   <v>       0.75000000       0.00000000       0.50000000 </v>
   <v>       0.75000000       0.50000000       0.00000000 </v>
   <v>       0.75000000       0.50000000       0.50000000 </v>
   <v>       0.25000000       0.25000000       0.25000000 </v>
   <v>       0.25000000       0.25000000       0.75000000 </v>
   <v>       0.25000000       0.75000000       0.25000000 </v>
   <v>       0.25000000       0.75000000       0.75000000 </v>
   <v>       0.75000000       0.25000000       0.25000000 </v>
   <v>       0.75000000       0.25000000       0.75000000 </v>
   <v>       0.75000000       0.75000000       0.25000000 </v>
   <v>       0.75000000       0.75000000       0.75000000 </v>
   <v>       0.00000000       0.00000000       0.25000000 </v>
   <v>       0.00000000       0.00000000       0.75000000 </v>
   <v>       0.00000000       0.50000000       0.25000000 </v>
   <v>       0.00000000       0.50000000       0.75000000 </v>
   <v>       0.50000000       0.00000000       0.25000000 </v>
   <v>       0.50000000       0.00000000       0.75000000 </v>
   <v>       0.50000000       0.50000000       0.25000000 </v>
   <v>       0.50000000       0.50000000       0.75000000 </v>
   <v>       0.00000000       0.25000000       0.00000000 </v>
   <v>       0.00000000       0.25000000       0.50000000 </v>
   <v>       0.00000000       0.75000000       0.00000000 </v>
   <v>       0.00000000       0.75000000       0.50000000 </v>
   <v>       0.50000000       0.25000000       0.00000000 </v>
   <v>       0.50000000       0.25000000       0.50000000 </v>
   <v>       0.50000000       0.75000000       0.00000000 </v>
   <v>       0.50000000       0.75000000       0.50000000 </v>
  </varray>
 </structure>
 <calculation>
  <scstep>
   <time name="dav">    0.31    0.34</time>
   <time name="total">    0.46    0.50</time>
   <energy>
    <i name="alphaZ">    626.74679545 </i>
    <i name="ewald"> -11468.47720392 </i>
    <i name="hartreedc">  -3870.97938964 </i>
    <i name="XCdc">   -604.37540787 </i>
    <i name="pawpsdc">  13130.89327885 </i>
    <i name="pawaedc"> -11547.99871169 </i>
    <i name="eentropy">     -0.05137216 </i>
    <i name="bandstr">    304.89421483 </i>
    <i name="atom">  14506.23696526 </i>
    <i name="e_fr_energy">   1076.88916910 </i>
    <i name="e_wo_entrp">   1076.94054126 </i>
    <i name="e_0_energy">   1076.91485518 </i>
   </energy>
  </scstep>
  <scstep>
   <time name="dav">    0.34    0.34</time>
   <time name="total">    0.34    0.34</time>
   <energy>
    <i name="e_fr_energy">   -372.34766684 </i>
    <i name="e_wo_entrp">   -372.34766684 </i>
    <i name="e_0_energy">   -372.34766684 </i>
   </energy>
  </scstep>
  <scstep>
   <time name="dav">    0.35    0.35</time>
   <time name="total">    0.35    0.36</time>
   <energy>
    <i name="e_fr_energy">   -444.03296933 </i>
    <i name="e_wo_entrp">   -444.03296933 </i>
    <i name="e_0_energy">   -444.03296933 </i>
   </energy>
  </scstep>
  <scstep>
   <time name="dav">    0.48    0.49</time>
   <time name="total">    0.48    0.49</time>
   <energy>
    <i name="e_fr_energy">   -444.43332751 </i>
    <i name="e_wo_entrp">   -444.43332751 </i>
    <i name="e_0_energy">   -444.43332751 </i>
   </energy>
  </scstep>
  <scstep>
   <time name="dav">    0.34    0.35</time>
   <time name="total">    0.41    0.41</time>
   <energy>
    <i name="e_fr_energy">   -444.43583159 </i>
    <i name="e_wo_entrp">   -444.43583159 </i>
    <i name="e_0_energy">   -444.43583159 </i>
   </energy>
  </scstep>
  <scstep>
   <time name="dav">    0.44    0.44</time>
   <time name="total">    0.68    0.69</time>
   <energy>
    <i name="e_fr_energy">   -402.04459841 </i>
    <i name="e_wo_entrp">   -402.04459841 </i>
    <i name="e_0_energy">   -402.04459841 </i>
   </energy>
  </scstep>
  <scstep>
   <time name="dav">    0.46    0.47</time>
   <time name="total">    0.68    0.70</time>
   <energy>
    <i name="e_fr_energy">   -401.50082598 </i>
    <i name="e_wo_entrp">   -401.50082598 </i>
    <i name="e_0_energy">   -401.50082598 </i>
   </energy>
  </scstep>
  <scstep>
   <time name="dav">    0.43    0.44</time>
   <time name="total">    0.72    0.72</time>
   <energy>
    <i name="e_fr_energy">   -401.05423737 </i>
    <i name="e_wo_entrp">   -401.05423737 </i>
    <i name="e_0_energy">   -401.05423737 </i>
   </energy>
  </scstep>
  <scstep>
   <time name="dav">    0.38    0.38</time>
   <time name="total">    0.60    0.60</time>
   <energy>
    <i name="e_fr_energy">   -401.01414184 </i>
    <i name="e_wo_entrp">   -401.01414184 </i>
    <i name="e_0_energy">   -401.01414184 </i>
   </energy>
  </scstep>
  <scstep>
   <time name="dav">    0.39    0.39</time>
   <time name="total">    0.60    0.61</time>
   <energy>
    <i name="e_fr_energy">   -401.01325171 </i>
    <i name="e_wo_entrp">   -401.01325171 </i>
    <i name="e_0_energy">   -401.01325171 </i>
   </energy>
  </scstep>
  <scstep>
   <time name="dav">    0.37    0.37</time>
   <time name="total">    0.59    0.59</time>
   <energy>
    <i name="e_fr_energy">   -401.01323786 </i>
    <i name="e_wo_entrp">   -401.01323786 </i>
    <i name="e_0_energy">   -401.01323786 </i>
   </energy>
  </scstep>
  <scstep>
   <time name="dav">    0.37    0.37</time>
   <time name="total">    0.59    0.59</time>
   <energy>
    <i name="e_fr_energy">   -401.01321288 </i>
    <i name="e_wo_entrp">   -401.01321288 </i>
    <i name="e_0_energy">   -401.01321288 </i>
   </energy>
  </scstep>
  <scstep>
   <time name="dav">    0.37    0.37</time>
   <time name="total">    0.52    0.52</time>
   <energy>
    <i name="alphaZ">    626.74679545 </i>
    <i name="ewald"> -11468.47720392 </i>
    <i name="hartreedc">  -4460.50090578 </i>
    <i name="XCdc">   -558.51311422 </i>
    <i name="pawpsdc">  17758.55144768 </i>
    <i name="pawaedc"> -16184.15375855 </i>
    <i name="eentropy">     -0.00000000 </i>
    <i name="bandstr">   -620.90343787 </i>
    <i name="atom">  14506.23696526 </i>
    <i name="e_fr_energy">   -401.01321196 </i>
    <i name="e_wo_entrp">   -401.01321196 </i>
    <i name="e_0_energy">   -401.01321196 </i>
   </energy>
  </scstep>
  <structure>
   <crystal>
    <varray name="basis" >
     <v>       8.41945600       0.00000000       0.00000000 </v>
     <v>       0.00000000       8.41945600       0.00000000 </v>
     <v>       0.00000000       0.00000000       8.41945600 </v>
    </varray>
    <i name="volume">    596.83199255 </i>
    <varray name="rec_basis" >
     <v>       0.11877252       0.00000000       0.00000000 </v>
     <v>       0.00000000       0.11877252       0.00000000 </v>
     <v>       0.00000000       0.00000000       0.11877252 </v>
    </varray>
   </crystal>
   <varray name="positions" >
    <v>       0.00000000       0.00000000       0.00000000 </v>
    <v>       0.00000000       0.00000000       0.50000000 </v>
    <v>       0.00000000       0.50000000       0.00000000 </v>
    <v>       0.00000000       0.50000000       0.50000000 </v>
    <v>       0.50000000       0.00000000       0.00000000 </v>
    <v>       0.50000000       0.00000000       0.50000000 </v>
    <v>       0.50000000       0.50000000       0.00000000 </v>
    <v>       0.50000000       0.50000000       0.50000000 </v>
    <v>       0.00000000       0.25000000       0.25000000 </v>
    <v>       0.00000000       0.25000000       0.75000000 </v>
    <v>       0.00000000       0.75000000       0.25000000 </v>
    <v>       0.00000000       0.75000000       0.75000000 </v>
    <v>       0.50000000       0.25000000       0.25000000 </v>
    <v>       0.50000000       0.25000000       0.75000000 </v>
    <v>       0.50000000       0.75000000       0.25000000 </v>
    <v>       0.50000000       0.75000000       0.75000000 </v>
    <v>       0.25000000       0.00000000       0.25000000 </v>
    <v>       0.25000000       0.00000000       0.75000000 </v>
    <v>       0.25000000       0.50000000       0.25000000 </v>
    <v>       0.25000000       0.50000000       0.75000000 </v>
    <v>       0.75000000       0.00000000       0.25000000 </v>
    <v>       0.75000000       0.00000000       0.75000000 </v>
    <v>       0.75000000       0.50000000       0.25000000 </v>
    <v>       0.75000000       0.50000000       0.75000000 </v>
    <v>       0.25000000       0.25000000       0.00000000 </v>
    <v>       0.25000000       0.25000000       0.50000000 </v>
    <v>       0.25000000       0.75000000       0.00000000 </v>
    <v>       0.25000000       0.75000000       0.50000000 </v>
    <v>       0.75000000       0.25000000       0.00000000 </v>
    <v>       0.75000000       0.25000000       0.50000000 </v>
    <v>       0.75000000       0.75000000       0.00000000 </v>
    <v>       0.75000000       0.75000000       0.50000000 </v>
    <v>       0.25000000       0.00000000       0.00000000 </v>
    <v>       0.25000000       0.00000000       0.50000000 </v>
    <v>       0.25000000       0.50000000       0.00000000 </v>
    <v>       0.25000000       0.50000000       0.50000000 </v>
    <v>       0.75000000       0.00000000       0.00000000 </v>
    <v>       0.75000000       0.00000000       0.50000000 </v>
    <v>       0.75000000       0.50000000       0.00000000 </v>
    <v>       0.75000000       0.50000000       0.50000000 </v>
    <v>       0.25000000       0.25000000       0.25000000 </v>
    <v>       0.25000000       0.25000000       0.75000000 </v>
    <v>       0.25000000       0.75000000       0.25000000 </v>
    <v>       0.25000000       0.75000000       0.75000000 </v>
    <v>       0.75000000       0.25000000       0.25000000 </v>
    <v>       0.75000000       0.25000000       0.75000000 </v>
    <v>       0.75000000       0.75000000       0.25000000 </v>
    <v>       0.75000000       0.75000000       0.75000000 </v>
    <v>       0.00000000       0.00000000       0.25000000 </v>
    <v>       0.00000000       0.00000000       0.75000000 </v>
    <v>       0.00000000       0.50000000       0.25000000 </v>
    <v>       0.00000000       0.50000000       0.75000000 </v>
    <v>       0.50000000       0.00000000       0.25000000 </v>
    <v>       0.50000000       0.00000000       0.75000000 </v>
    <v>       0.50000000       0.50000000       0.25000000 </v>
    <v>       0.50000000       0.50000000       0.75000000 </v>
    <v>       0.00000000       0.25000000       0.00000000 </v>
    <v>       0.00000000       0.25000000       0.50000000 </v>
    <v>       0.00000000       0.75000000       0.00000000 </v>
    <v>       0.00000000       0.75000000       0.50000000 </v>
    <v>       0.50000000       0.25000000       0.00000000 </v>
    <v>       0.50000000       0.25000000       0.50000000 </v>
    <v>       0.50000000       0.75000000       0.00000000 </v>
    <v>       0.50000000       0.75000000       0.50000000 </v>
   </varray>
  </structure>
  <varray name="forces" >
   <v>       0.00000000      -0.00000000       0.00000000 </v>
   <v>       0.00000000       0.00000000      -0.00000000 </v>
   <v>      -0.00000000      -0.00000000       0.00000000 </v>
   <v>      -0.00000000      -0.00000000       0.00000000 </v>
   <v>      -0.00000000      -0.00000000      -0.00000000 </v>
   <v>      -0.00000000      -0.00000000       0.00000000 </v>
   <v>       0.00000000       0.00000000      -0.00000000 </v>
   <v>       0.00000000       0.00000000      -0.00000000 </v>
   <v>      -0.00000000      -0.00000000      -0.00000000 </v>
   <v>      -0.00000000       0.00000000       0.00000000 </v>
   <v>       0.00000000      -0.00000000       0.00000000 </v>
   <v>      -0.00000000      -0.00000000      -0.00000000 </v>
   <v>       0.00000000       0.00000000       0.00000000 </v>
   <v>       0.00000000       0.00000000      -0.00000000 </v>
   <v>       0.00000000      -0.00000000       0.00000000 </v>
   <v>       0.00000000      -0.00000000      -0.00000000 </v>
   <v>       0.00000000      -0.00000000       0.00000000 </v>
   <v>       0.00000000       0.00000000      -0.00000000 </v>
   <v>      -0.00000000      -0.00000000       0.00000000 </v>
   <v>      -0.00000000      -0.00000000      -0.00000000 </v>
   <v>      -0.00000000      -0.00000000       0.00000000 </v>
   <v>      -0.00000000       0.00000000      -0.00000000 </v>
   <v>      -0.00000000      -0.00000000       0.00000000 </v>
   <v>      -0.00000000      -0.00000000      -0.00000000 </v>
   <v>       0.00000000      -0.00000000      -0.00000000 </v>
   <v>       0.00000000       0.00000000      -0.00000000 </v>
   <v>      -0.00000000       0.00000000       0.00000000 </v>
   <v>      -0.00000000      -0.00000000       0.00000000 </v>
   <v>      -0.00000000       0.00000000      -0.00000000 </v>
   <v>      -0.00000000      -0.00000000      -0.00000000 </v>
   <v>       0.00000000      -0.00000000      -0.00000000 </v>
   <v>       0.00000000      -0.00000000       0.00000000 </v>
   <v>       0.00000000       0.00000000       0.00000000 </v>
   <v>       0.00000000      -0.00000000      -0.00000000 </v>
   <v>       0.00000000      -0.00000000      -0.00000000 </v>
   <v>       0.00000000       0.00000000      -0.00000000 </v>
   <v>      -0.00000000       0.00000000       0.00000000 </v>
   <v>      -0.00000000       0.00000000      -0.00000000 </v>
   <v>       0.00000000      -0.00000000       0.00000000 </v>
   <v>       0.00000000      -0.00000000      -0.00000000 </v>
   <v>       0.00000000       0.00000000       0.00000000 </v>
   <v>      -0.00000000       0.00000000      -0.00000000 </v>
   <v>       0.00000000      -0.00000000       0.00000000 </v>
   <v>      -0.00000000      -0.00000000      -0.00000000 </v>
   <v>       0.00000000      -0.00000000       0.00000000 </v>
   <v>       0.00000000      -0.00000000      -0.00000000 </v>
   <v>      -0.00000000       0.00000000       0.00000000 </v>
   <v>      -0.00000000       0.00000000      -0.00000000 </v>
   <v>      -0.00000000       0.00000000       0.00000000 </v>
   <v>      -0.00000000      -0.00000000      -0.00000000 </v>
   <v>       0.00000000      -0.00000000       0.00000000 </v>
   <v>       0.00000000      -0.00000000      -0.00000000 </v>
   <v>       0.00000000      -0.00000000       0.00000000 </v>
   <v>       0.00000000      -0.00000000       0.00000000 </v>
   <v>       0.00000000       0.00000000       0.00000000 </v>
   <v>      -0.00000000       0.00000000      -0.00000000 </v>
   <v>       0.00000000       0.00000000       0.00000000 </v>
   <v>       0.00000000       0.00000000      -0.00000000 </v>
   <v>      -0.00000000       0.00000000       0.00000000 </v>
   <v>       0.00000000      -0.00000000       0.00000000 </v>
   <v>      -0.00000000      -0.00000000       0.00000000 </v>
   <v>      -0.00000000       0.00000000       0.00000000 </v>
   <v>       0.00000000       0.00000000       0.00000000 </v>
   <v>       0.00000000      -0.00000000      -0.00000000 </v>
  </varray>
  <varray name="stress" >
   <v>     -52.33317212       0.00000000       0.00000000 </v>
   <v>       0.00000000     -52.33317212       0.00000000 </v>
   <v>      -0.00000000      -0.00000000     -52.33317212 </v>
  </varray>
  <energy>
   <i name="e_fr_energy">   -401.01321196 </i>
   <i name="e_wo_entrp">   -401.01321196 </i>
   <i name="e_0_energy">     -0.00000000 </i>
  </energy>
  <time name="totalsc">    8.02    8.27</time>
  <eigenvalues>
   <array>
    <dimension dim="1">band</dimension>
    <dimension dim="2">kpoint</dimension>
    <dimension dim="3">spin</dimension>
    <field>eigene</field>
    <field>occ</field>
    <set>
     <set comment="spin 1">
      <set comment="kpoint 1">
       <r>  -13.9745    1.0000 </r>
       <r>  -13.5823    1.0000 </r>
       <r>  -13.5823    1.0000 </r>
       <r>  -13.5823    1.0000 </r>
       <r>  -13.2687    1.0000 </r>
       <r>  -13.2687    1.0000 </r>
       <r>  -13.2687    1.0000 </r>
       <r>  -13.0498    1.0000 </r>
       <r>  -13.0127    1.0000 </r>
       <r>  -13.0127    1.0000 </r>
       <r>  -13.0127    1.0000 </r>
       <r>  -12.8422    1.0000 </r>
       <r>  -12.8422    1.0000 </r>
       <r>  -12.8422    1.0000 </r>
       <r>  -12.8422    1.0000 </r>
       <r>  -12.8422    1.0000 </r>
       <r>  -12.8422    1.0000 </r>
       <r>  -12.7914    1.0000 </r>
       <r>  -12.7914    1.0000 </r>
       <r>  -12.7913    1.0000 </r>
       <r>  -12.6537    1.0000 </r>
       <r>  -12.6537    1.0000 </r>
       <r>  -12.6537    1.0000 </r>
       <r>  -12.6037    1.0000 </r>
       <r>  -12.6037    1.0000 </r>
       <r>  -12.6037    1.0000 </r>
       <r>  -12.5631    1.0000 </r>
       <r>  -12.5631    1.0000 </r>
       <r>  -12.5631    1.0000 </r>
       <r>  -12.5631    1.0000 </r>
       <r>  -12.5631    1.0000 </r>
       <r>  -12.5631    1.0000 </r>
       <r>   -1.3456    1.0000 </r>
       <r>   -1.3455    1.0000 </r>
       <r>   -1.3455    1.0000 </r>
       <r>   -1.0553    1.0000 </r>
       <r>   -0.8724    1.0000 </r>
       <r>   -0.8724    1.0000 </r>
       <r>   -0.8723    1.0000 </r>
       <r>   -0.7418    1.0000 </r>
       <r>   -0.7418    1.0000 </r>
       <r>   -0.7418    1.0000 </r>
       <r>   -0.6923    1.0000 </r>
       <r>   -0.6923    1.0000 </r>
       <r>   -0.6923    1.0000 </r>
       <r>   -0.6923    1.0000 </r>
       <r>   -0.6923    1.0000 </r>
       <r>   -0.6923    1.0000 </r>
       <r>   -0.4956    1.0000 </r>
       <r>   -0.4956    1.0000 </r>
       <r>   -0.4956    1.0000 </r>
       <r>   -0.4956    1.0000 </r>
       <r>   -0.4956    1.0000 </r>
       <r>   -0.4956    1.0000 </r>
       <r>   -0.3536    1.0000 </r>
       <r>   -0.3536    1.0000 </r>
       <r>   -0.3536    1.0000 </r>
       <r>   -0.1536    1.0000 </r>
       <r>   -0.1536    1.0000 </r>
       <r>   -0.1536    1.0000 </r>
       <r>    0.5403    1.0000 </r>
       <r>    0.5403    1.0000 </r>
       <r>    0.5403    1.0000 </r>
       <r>    0.5403    1.0000 </r>
       <r>    0.5403    1.0000 </r>
       <r>    0.5403    1.0000 </r>
       <r>    0.6488    1.0000 </r>
       <r>    0.6488    1.0000 </r>
       <r>    0.6488    1.0000 </r>
       <r>    0.7717    1.0000 </r>
       <r>    0.7717    1.0000 </r>
       <r>    0.7717    1.0000 </r>
       <r>    1.3102    1.0000 </r>
       <r>    1.3102    1.0000 </r>
       <r>    1.3102    1.0000 </r>
       <r>    1.3104    1.0000 </r>
       <r>    1.3104    1.0000 </r>
       <r>    1.3104    1.0000 </r>
       <r>    1.3185    1.0000 </r>
       <r>    1.3187    1.0000 </r>
       <r>    1.3187    1.0000 </r>
       <r>    1.6701    1.0000 </r>
       <r>    1.6701    1.0000 </r>
       <r>    1.6701    1.0000 </r>
       <r>    1.6703    1.0000 </r>
       <r>    1.6703    1.0000 </r>
       <r>    1.6703    1.0000 </r>
       <r>    1.7963    1.0000 </r>
       <r>    1.7963    1.0000 </r>
       <r>    1.7965    1.0000 </r>
       <r>    1.8533    1.0000 </r>
       <r>    1.8533    1.0000 </r>
       <r>    1.8533    1.0000 </r>
       <r>    1.8987    1.0000 </r>
       <r>    1.8987    1.0000 </r>
       <r>    1.8987    1.0000 </r>
       <r>    2.0601    1.0000 </r>
       <r>    2.0601    1.0000 </r>
       <r>    2.0601    1.0000 </r>
       <r>    2.0988    1.0000 </r>
       <r>    2.1001    1.0000 </r>
       <r>    2.1001    1.0000 </r>
       <r>    2.1001    1.0000 </r>
       <r>    2.1542    1.0000 </r>
       <r>    2.1542    1.0000 </r>
       <r>    2.1542    1.0000 </r>
       <r>    2.1871    1.0000 </r>
       <r>    2.1871    1.0000 </r>
       <r>    2.1871    1.0000 </r>
       <r>    2.1871    1.0000 </r>
       <r>    2.1871    1.0000 </r>
       <r>    2.1871    1.0000 </r>
       <r>    2.2912    1.0000 </r>
       <r>    2.2912    1.0000 </r>
       <r>    2.2914    1.0000 </r>
       <r>    2.4940    1.0000 </r>
       <r>    2.4940    1.0000 </r>
       <r>    2.5749    1.0000 </r>
       <r>    2.5749    1.0000 </r>
       <r>    2.5749    1.0000 </r>
       <r>    2.5784    1.0000 </r>
       <r>    2.5784    1.0000 </r>
       <r>    2.5784    1.0000 </r>
       <r>    2.6431    1.0000 </r>
       <r>    2.6431    1.0000 </r>
       <r>    2.6431    1.0000 </r>
       <r>    2.9614    1.0000 </r>
       <r>    2.9614    1.0000 </r>
       <r>    8.6443    0.0000 </r>
       <r>   10.2407    0.0000 </r>
       <r>   10.2407    0.0000 </r>
       <r>   10.2407    0.0000 </r>
       <r>   10.7569    0.0000 </r>
       <r>   11.0386    0.0000 </r>
       <r>   11.0386    0.0000 </r>
       <r>   11.0386    0.0000 </r>
       <r>   11.5268    0.0000 </r>
       <r>   11.5269    0.0000 </r>
       <r>   11.5269    0.0000 </r>
       <r>   12.1753    0.0000 </r>
       <r>   12.1753    0.0000 </r>
       <r>   12.1753    0.0000 </r>
       <r>   12.4706    0.0000 </r>
       <r>   12.4706    0.0000 </r>
       <r>   12.4706    0.0000 </r>
       <r>   12.4706    0.0000 </r>
       <r>   12.4706    0.0000 </r>
       <r>   12.4706    0.0000 </r>
       <r>   12.5045    0.0000 </r>
       <r>   12.5045    0.0000 </r>
       <r>   12.5045    0.0000 </r>
       <r>   12.8936    0.0000 </r>
       <r>   12.8936    0.0000 </r>
       <r>   12.8936    0.0000 </r>
       <r>   13.4494    0.0000 </r>
       <r>   13.4494    0.0000 </r>
       <r>   13.4495    0.0000 </r>
       <r>   13.5348    0.0000 </r>
       <r>   13.5348    0.0000 </r>
       <r>   13.5348    0.0000 </r>
       <r>   13.5348    0.0000 </r>
       <r>   13.5348    0.0000 </r>
       <r>   13.5348    0.0000 </r>
       <r>   13.5712    0.0000 </r>
       <r>   13.5712    0.0000 </r>
       <r>   13.5712    0.0000 </r>
       <r>   14.6113    0.0000 </r>
       <r>   14.6113    0.0000 </r>
       <r>   14.6113    0.0000 </r>
       <r>   14.6115    0.0000 </r>
       <r>   14.6115    0.0000 </r>
       <r>   14.6115    0.0000 </r>
       <r>   14.7207    0.0000 </r>
       <r>   14.7207    0.0000 </r>
       <r>   14.7207    0.0000 </r>
       <r>   14.7208    0.0000 </r>
       <r>   14.7208    0.0000 </r>
       <r>   14.7208    0.0000 </r>
       <r>   15.1241    0.0000 </r>
       <r>   15.1399    0.0000 </r>
      </set>
     </set>
    </set>
   </array>
  </eigenvalues>
  <separator name="orbital magnetization" >
   <v name="MAGDIPOLOUT">      0.00000000      0.00000000      0.00000000</v>
  </separator>
  <dos>
   <i name="efermi">      3.47171723 </i>
   <total>
    <array>
     <dimension dim="1">gridpoints</dimension>
     <dimension dim="2">spin</dimension>
     <field>energy</field>
     <field>total</field>
     <field>integrated</field>
     <set>
      <set comment="spin 1">
       <r>   -15.4302     0.0000     0.0000 </r>
       <r>   -15.3235     0.0000     0.0000 </r>
       <r>   -15.2167     0.0000     0.0000 </r>
       <r>   -15.1100     0.0000     0.0000 </r>
       <r>   -15.0032     0.0000     0.0000 </r>
       <r>   -14.8965     0.0000     0.0000 </r>
       <r>   -14.7897     0.0000     0.0000 </r>
       <r>   -14.6830     0.0000     0.0000 </r>
       <r>   -14.5762     0.0000     0.0000 </r>
       <r>   -14.4695     0.0000     0.0000 </r>
       <r>   -14.3627     0.0000     0.0000 </r>
       <r>   -14.2560     0.0006     0.0001 </r>
       <r>   -14.1492     0.1258     0.0135 </r>
       <r>   -14.0424     3.0275     0.3367 </r>
       <r>   -13.9357    10.1196     1.4170 </r>
       <r>   -13.8289     5.1048     1.9619 </r>
       <r>   -13.7222     1.6982     2.1432 </r>
       <r>   -13.6154    16.6199     3.9174 </r>
       <r>   -13.5087    29.8891     7.1082 </r>
       <r>   -13.4019     9.7266     8.1465 </r>
       <r>   -13.2952    18.5401    10.1258 </r>
       <r>   -13.1884    29.9263    13.3205 </r>
       <r>   -13.0817    21.5336    15.6192 </r>
       <r>   -12.9749    44.0465    20.3213 </r>
       <r>   -12.8682    62.4471    26.9878 </r>
       <r>   -12.7614    93.3578    36.9540 </r>
       <r>   -12.6547    78.6122    45.3461 </r>
       <r>   -12.5479   112.2236    57.3263 </r>
       <r>   -12.4412    57.0842    63.4202 </r>
       <r>   -12.3344     5.3588    63.9923 </r>
       <r>   -12.2276     0.0725    64.0000 </r>
       <r>   -12.1209     0.0001    64.0000 </r>
       <r>   -12.0141     0.0000    64.0000 </r>
       <r>   -11.9074     0.0000    64.0000 </r>
       <r>   -11.8006     0.0000    64.0000 </r>
       <r>   -11.6939     0.0000    64.0000 </r>
       <r>   -11.5871     0.0000    64.0000 </r>
       <r>   -11.4804     0.0000    64.0000 </r>
       <r>   -11.3736     0.0000    64.0000 </r>
       <r>   -11.2669     0.0000    64.0000 </r>
       <r>   -11.1601     0.0000    64.0000 </r>
       <r>   -11.0534     0.0000    64.0000 </r>
       <r>   -10.9466     0.0000    64.0000 </r>
       <r>   -10.8399     0.0000    64.0000 </r>
       <r>   -10.7331     0.0000    64.0000 </r>
       <r>   -10.6264     0.0000    64.0000 </r>
       <r>   -10.5196     0.0000    64.0000 </r>
       <r>   -10.4128     0.0000    64.0000 </r>
       <r>   -10.3061     0.0000    64.0000 </r>
       <r>   -10.1993     0.0000    64.0000 </r>
       <r>   -10.0926     0.0000    64.0000 </r>
       <r>    -9.9858     0.0000    64.0000 </r>
       <r>    -9.8791     0.0000    64.0000 </r>
       <r>    -9.7723     0.0000    64.0000 </r>
       <r>    -9.6656     0.0000    64.0000 </r>
       <r>    -9.5588     0.0000    64.0000 </r>
       <r>    -9.4521     0.0000    64.0000 </r>
       <r>    -9.3453     0.0000    64.0000 </r>
       <r>    -9.2386     0.0000    64.0000 </r>
       <r>    -9.1318     0.0000    64.0000 </r>
       <r>    -9.0251     0.0000    64.0000 </r>
       <r>    -8.9183     0.0000    64.0000 </r>
       <r>    -8.8115     0.0000    64.0000 </r>
       <r>    -8.7048     0.0000    64.0000 </r>
       <r>    -8.5980     0.0000    64.0000 </r>
       <r>    -8.4913     0.0000    64.0000 </r>
       <r>    -8.3845     0.0000    64.0000 </r>
       <r>    -8.2778     0.0000    64.0000 </r>
       <r>    -8.1710     0.0000    64.0000 </r>
       <r>    -8.0643     0.0000    64.0000 </r>
       <r>    -7.9575     0.0000    64.0000 </r>
       <r>    -7.8508     0.0000    64.0000 </r>
       <r>    -7.7440     0.0000    64.0000 </r>
       <r>    -7.6373     0.0000    64.0000 </r>
       <r>    -7.5305     0.0000    64.0000 </r>
       <r>    -7.4238     0.0000    64.0000 </r>
       <r>    -7.3170     0.0000    64.0000 </r>
       <r>    -7.2103     0.0000    64.0000 </r>
       <r>    -7.1035     0.0000    64.0000 </r>
       <r>    -6.9967     0.0000    64.0000 </r>
       <r>    -6.8900     0.0000    64.0000 </r>
       <r>    -6.7832     0.0000    64.0000 </r>
       <r>    -6.6765     0.0000    64.0000 </r>
       <r>    -6.5697     0.0000    64.0000 </r>
       <r>    -6.4630     0.0000    64.0000 </r>
       <r>    -6.3562     0.0000    64.0000 </r>
       <r>    -6.2495     0.0000    64.0000 </r>
       <r>    -6.1427     0.0000    64.0000 </r>
       <r>    -6.0360     0.0000    64.0000 </r>
       <r>    -5.9292     0.0000    64.0000 </r>
       <r>    -5.8225     0.0000    64.0000 </r>
       <r>    -5.7157     0.0000    64.0000 </r>
       <r>    -5.6090     0.0000    64.0000 </r>
       <r>    -5.5022     0.0000    64.0000 </r>
       <r>    -5.3955     0.0000    64.0000 </r>
       <r>    -5.2887     0.0000    64.0000 </r>
       <r>    -5.1819     0.0000    64.0000 </r>
       <r>    -5.0752     0.0000    64.0000 </r>
       <r>    -4.9684     0.0000    64.0000 </r>
       <r>    -4.8617     0.0000    64.0000 </r>
       <r>    -4.7549     0.0000    64.0000 </r>
       <r>    -4.6482     0.0000    64.0000 </r>
       <r>    -4.5414     0.0000    64.0000 </r>
       <r>    -4.4347     0.0000    64.0000 </r>
       <r>    -4.3279     0.0000    64.0000 </r>
       <r>    -4.2212     0.0000    64.0000 </r>
       <r>    -4.1144     0.0000    64.0000 </r>
       <r>    -4.0077     0.0000    64.0000 </r>
       <r>    -3.9009     0.0000    64.0000 </r>
       <r>    -3.7942     0.0000    64.0000 </r>
       <r>    -3.6874     0.0000    64.0000 </r>
       <r>    -3.5807     0.0000    64.0000 </r>
       <r>    -3.4739     0.0000    64.0000 </r>
       <r>    -3.3671     0.0000    64.0000 </r>
       <r>    -3.2604     0.0000    64.0000 </r>
       <r>    -3.1536     0.0000    64.0000 </r>
       <r>    -3.0469     0.0000    64.0000 </r>
       <r>    -2.9401     0.0000    64.0000 </r>
       <r>    -2.8334     0.0000    64.0000 </r>
       <r>    -2.7266     0.0000    64.0000 </r>
       <r>    -2.6199     0.0000    64.0000 </r>
       <r>    -2.5131     0.0000    64.0000 </r>
       <r>    -2.4064     0.0000    64.0000 </r>
       <r>    -2.2996     0.0000    64.0000 </r>
       <r>    -2.1929     0.0000    64.0000 </r>
       <r>    -2.0861     0.0000    64.0000 </r>
       <r>    -1.9794     0.0000    64.0000 </r>
       <r>    -1.8726     0.0000    64.0000 </r>
       <r>    -1.7659     0.0000    64.0000 </r>
       <r>    -1.6591     0.0003    64.0000 </r>
       <r>    -1.5523     0.0967    64.0103 </r>
       <r>    -1.4456     4.3186    64.4714 </r>
       <r>    -1.3388    25.8121    67.2269 </r>
       <r>    -1.2321    23.0420    69.6867 </r>
       <r>    -1.1253     5.9103    70.3176 </r>
       <r>    -1.0186    11.1963    71.5129 </r>
       <r>    -0.9118    20.9340    73.7476 </r>
       <r>    -0.8051    46.8991    78.7543 </r>
       <r>    -0.6983    86.2704    87.9639 </r>
       <r>    -0.5916    75.5151    96.0254 </r>
       <r>    -0.4848    64.3798   102.8981 </r>
       <r>    -0.3781    62.9038   109.6133 </r>
       <r>    -0.2713    36.8286   113.5448 </r>
       <r>    -0.1646    28.6937   116.6080 </r>
       <r>    -0.0578    26.8418   119.4734 </r>
       <r>     0.0489     4.8153   119.9875 </r>
       <r>     0.1557     0.1170   120.0000 </r>
       <r>     0.2625     0.0051   120.0005 </r>
       <r>     0.3692     0.8699   120.0934 </r>
       <r>     0.4760    19.9208   122.2200 </r>
       <r>     0.5827    70.8209   129.7803 </r>
       <r>     0.6895    66.0435   136.8307 </r>
       <r>     0.7962    45.6268   141.7015 </r>
       <r>     0.9030    19.7421   143.8090 </r>
       <r>     1.0097     1.7693   143.9979 </r>
       <r>     1.1165     0.4830   144.0494 </r>
       <r>     1.2232    16.7718   145.8399 </r>
       <r>     1.3300    82.9595   154.6961 </r>
       <r>     1.4367    61.6573   161.2782 </r>
       <r>     1.5435    10.7902   162.4300 </r>
       <r>     1.6502    40.9201   166.7984 </r>
       <r>     1.7570    77.4987   175.0716 </r>
       <r>     1.8638    85.2940   184.1770 </r>
       <r>     1.9705    70.1207   191.6626 </r>
       <r>     2.0773    78.9776   200.0937 </r>
       <r>     2.1840   139.5049   214.9862 </r>
       <r>     2.2908   102.6518   225.9446 </r>
       <r>     2.3975    37.9542   229.9964 </r>
       <r>     2.5043    39.4727   234.2102 </r>
       <r>     2.6110    91.6476   243.9938 </r>
       <r>     2.7178    64.2201   250.8495 </r>
       <r>     2.8245    11.4523   252.0721 </r>
       <r>     2.9313    11.8724   253.3395 </r>
       <r>     3.0380    19.7012   255.4427 </r>
       <r>     3.1448     5.0425   255.9810 </r>
       <r>     3.2515     0.1775   255.9999 </r>
       <r>     3.3583     0.0008   256.0000 </r>
       <r>     3.4650     0.0000   256.0000 </r>
       <r>     3.5718     0.0000   256.0000 </r>
       <r>     3.6786     0.0000   256.0000 </r>
       <r>     3.7853     0.0000   256.0000 </r>
       <r>     3.8921     0.0000   256.0000 </r>
       <r>     3.9988     0.0000   256.0000 </r>
       <r>     4.1056     0.0000   256.0000 </r>
       <r>     4.2123     0.0000   256.0000 </r>
       <r>     4.3191     0.0000   256.0000 </r>
       <r>     4.4258     0.0000   256.0000 </r>
       <r>     4.5326     0.0000   256.0000 </r>
       <r>     4.6393     0.0000   256.0000 </r>
       <r>     4.7461     0.0000   256.0000 </r>
       <r>     4.8528     0.0000   256.0000 </r>
       <r>     4.9596     0.0000   256.0000 </r>
       <r>     5.0663     0.0000   256.0000 </r>
       <r>     5.1731     0.0000   256.0000 </r>
       <r>     5.2798     0.0000   256.0000 </r>
       <r>     5.3866     0.0000   256.0000 </r>
       <r>     5.4934     0.0000   256.0000 </r>
       <r>     5.6001     0.0000   256.0000 </r>
       <r>     5.7069     0.0000   256.0000 </r>
       <r>     5.8136     0.0000   256.0000 </r>
       <r>     5.9204     0.0000   256.0000 </r>
       <r>     6.0271     0.0000   256.0000 </r>
       <r>     6.1339     0.0000   256.0000 </r>
       <r>     6.2406     0.0000   256.0000 </r>
       <r>     6.3474     0.0000   256.0000 </r>
       <r>     6.4541     0.0000   256.0000 </r>
       <r>     6.5609     0.0000   256.0000 </r>
       <r>     6.6676     0.0000   256.0000 </r>
       <r>     6.7744     0.0000   256.0000 </r>
       <r>     6.8811     0.0000   256.0000 </r>
       <r>     6.9879     0.0000   256.0000 </r>
       <r>     7.0946     0.0000   256.0000 </r>
       <r>     7.2014     0.0000   256.0000 </r>
       <r>     7.3082     0.0000   256.0000 </r>
       <r>     7.4149     0.0000   256.0000 </r>
       <r>     7.5217     0.0000   256.0000 </r>
       <r>     7.6284     0.0000   256.0000 </r>
       <r>     7.7352     0.0000   256.0000 </r>
       <r>     7.8419     0.0000   256.0000 </r>
       <r>     7.9487     0.0000   256.0000 </r>
       <r>     8.0554     0.0000   256.0000 </r>
       <r>     8.1622     0.0000   256.0000 </r>
       <r>     8.2689     0.0000   256.0000 </r>
       <r>     8.3757     0.0014   256.0001 </r>
       <r>     8.4824     0.2056   256.0221 </r>
       <r>     8.5892     3.8767   256.4359 </r>
       <r>     8.6959    10.2954   257.5350 </r>
       <r>     8.8027     4.1209   257.9749 </r>
       <r>     8.9094     0.2332   257.9998 </r>
       <r>     9.0162     0.0017   258.0000 </r>
       <r>     9.1230     0.0000   258.0000 </r>
       <r>     9.2297     0.0000   258.0000 </r>
       <r>     9.3365     0.0000   258.0000 </r>
       <r>     9.4432     0.0000   258.0000 </r>
       <r>     9.5500     0.0000   258.0000 </r>
       <r>     9.6567     0.0000   258.0000 </r>
       <r>     9.7635     0.0000   258.0000 </r>
       <r>     9.8702     0.0000   258.0000 </r>
       <r>     9.9770     0.0054   258.0006 </r>
       <r>    10.0837     0.7379   258.0794 </r>
       <r>    10.1905    12.6845   259.4335 </r>
       <r>    10.2972    30.8679   262.7287 </r>
       <r>    10.4040    11.3213   263.9373 </r>
       <r>    10.5107     0.5885   264.0001 </r>
       <r>    10.6175     0.4557   264.0487 </r>
       <r>    10.7242     5.5831   264.6448 </r>
       <r>    10.8310    10.0313   265.7156 </r>
       <r>    10.9378     6.8885   266.4510 </r>
       <r>    11.0445    25.7497   269.1999 </r>
       <r>    11.1513    23.1083   271.6667 </r>
       <r>    11.2580     3.0720   271.9947 </r>
       <r>    11.3648     0.6652   272.0657 </r>
       <r>    11.4715    11.5811   273.3020 </r>
       <r>    11.5783    30.8841   276.5990 </r>
       <r>    11.6850    12.4135   277.9242 </r>
       <r>    11.7918     0.7054   277.9995 </r>
       <r>    11.8985     0.0076   278.0003 </r>
       <r>    12.0053     0.4521   278.0485 </r>
       <r>    12.1120     9.9632   279.1121 </r>
       <r>    12.2188    30.6664   282.3859 </r>
       <r>    12.3255    16.7575   284.1748 </r>
       <r>    12.4323    40.0538   288.4506 </r>
       <r>    12.5391    90.6510   298.1279 </r>
       <r>    12.6458    34.2589   301.7851 </r>
       <r>    12.7526     3.2928   302.1367 </r>
       <r>    12.8593    16.3706   303.8843 </r>
       <r>    12.9661    29.9763   307.0843 </r>
       <r>    13.0728     8.2614   307.9663 </r>
       <r>    13.1796     0.3183   308.0003 </r>
       <r>    13.2863     0.6155   308.0660 </r>
       <r>    13.3931    14.1937   309.5812 </r>
       <r>    13.4998    71.6945   317.2348 </r>
       <r>    13.6066   102.8073   328.2098 </r>
       <r>    13.7133    33.5991   331.7966 </r>
       <r>    13.8201     1.8903   331.9984 </r>
       <r>    13.9268     0.0152   332.0000 </r>
       <r>    14.0336     0.0000   332.0000 </r>
       <r>    14.1403     0.0000   332.0000 </r>
       <r>    14.2471     0.0000   332.0000 </r>
       <r>    14.3539     0.0152   332.0016 </r>
       <r>    14.4606     1.8511   332.1992 </r>
       <r>    14.5674    29.8064   335.3812 </r>
       <r>    14.6741    88.2886   344.8062 </r>
       <r>    14.7809    81.7085   353.5289 </r>
       <r>    14.8876    22.1262   355.8909 </r>
       <r>    14.9944     2.0105   356.1055 </r>
       <r>    15.1011    11.4584   357.3287 </r>
       <r>    15.2079    19.6597   359.4275 </r>
       <r>    15.3146     5.1709   359.9795 </r>
       <r>    15.4214     0.1914   359.9999 </r>
       <r>    15.5281     0.0009   360.0000 </r>
       <r>    15.6349     0.0000   360.0000 </r>
       <r>    15.7416     0.0000   360.0000 </r>
       <r>    15.8484     0.0000   360.0000 </r>
       <r>    15.9551     0.0000   360.0000 </r>
       <r>    16.0619     0.0000   360.0000 </r>
       <r>    16.1687     0.0000   360.0000 </r>
       <r>    16.2754     0.0000   360.0000 </r>
       <r>    16.3822     0.0000   360.0000 </r>
       <r>    16.4889     0.0000   360.0000 </r>
       <r>    16.5957     0.0000   360.0000 </r>
      </set>
     </set>
    </array>
   </total>
   <partial>
    <array>
     <dimension dim="1">gridpoints</dimension>
     <dimension dim="2">spin</dimension>
     <dimension dim="3">ion</dimension>
     <field>energy</field>
     <field>    s</field>
     <field>   py</field>
     <field>   pz</field>
     <field>   px</field>
     <field>  dxy</field>
     <field>  dyz</field>
     <field>  dz2</field>
     <field>  dxz</field>
     <field>x2-y2</field>
     <set>
      <set comment="ion 1">
       <set comment="spin 1">
        <r>   -15.4302     0.0000     0.0000     0.0000     0.0000     0.0000     0.0000     0.0000     0.0000     0.0000 </r>
        <r>   -15.3235     0.0000     0.0000     0.0000     0.0000     0.0000     0.0000     0.0000     0.0000     0.0000 </r>
        <r>   -15.2167     0.0000     0.0000     0.0000     0.0000     0.0000     0.0000     0.0000     0.0000     0.0000 </r>
        <r>   -15.1100     0.0000     0.0000     0.0000     0.0000     0.0000     0.0000     0.0000     0.0000     0.0000 </r>
        <r>   -15.0032     0.0000     0.0000     0.0000     0.0000     0.0000     0.0000     0.0000     0.0000     0.0000 </r>
        <r>   -14.8965     0.0000     0.0000     0.0000     0.0000     0.0000     0.0000     0.0000     0.0000     0.0000 </r>
        <r>   -14.7897     0.0000     0.0000     0.0000     0.0000     0.0000     0.0000     0.0000     0.0000     0.0000 </r>
        <r>   -14.6830     0.0000     0.0000     0.0000     0.0000     0.0000     0.0000     0.0000     0.0000     0.0000 </r>
        <r>   -14.5762     0.0000     0.0000     0.0000     0.0000     0.0000     0.0000     0.0000     0.0000     0.0000 </r>
        <r>   -14.4695     0.0000     0.0000     0.0000     0.0000     0.0000     0.0000     0.0000     0.0000     0.0000 </r>
        <r>   -14.3627     0.0000     0.0000     0.0000     0.0000     0.0000     0.0000     0.0000     0.0000     0.0000 </r>
        <r>   -14.2560     0.0000     0.0000     0.0000     0.0000     0.0000     0.0000     0.0000     0.0000     0.0000 </r>
        <r>   -14.1492     0.0002     0.0000     0.0000     0.0000     0.0000     0.0000     0.0000     0.0000     0.0000 </r>
        <r>   -14.0424     0.0038     0.0001     0.0001     0.0001     0.0000     0.0000     0.0000     0.0000     0.0000 </r>
        <r>   -13.9357     0.0127     0.0003     0.0003     0.0003     0.0000     0.0000     0.0000     0.0000     0.0000 </r>
        <r>   -13.8289     0.0064     0.0001     0.0001     0.0001     0.0000     0.0000     0.0000     0.0000     0.0000 </r>
        <r>   -13.7222     0.0016     0.0001     0.0001     0.0001     0.0000     0.0000     0.0000     0.0000     0.0000 </r>
        <r>   -13.6154     0.0147     0.0013     0.0013     0.0013     0.0000     0.0000     0.0001     0.0000     0.0001 </r>
        <r>   -13.5087     0.0264     0.0023     0.0023     0.0023     0.0000     0.0000     0.0002     0.0000     0.0002 </r>
        <r>   -13.4019     0.0081     0.0008     0.0008     0.0008     0.0000     0.0000     0.0001     0.0000     0.0001 </r>
        <r>   -13.2952     0.0103     0.0023     0.0023     0.0023     0.0000     0.0000     0.0002     0.0000     0.0002 </r>
        <r>   -13.1884     0.0163     0.0038     0.0038     0.0038     0.0000     0.0000     0.0003     0.0000     0.0003 </r>
        <r>   -13.0817     0.0090     0.0027     0.0027     0.0027     0.0000     0.0000     0.0005     0.0000     0.0005 </r>
        <r>   -12.9749     0.0158     0.0049     0.0049     0.0049     0.0000     0.0000     0.0017     0.0000     0.0017 </r>
        <r>   -12.8682     0.0138     0.0081     0.0081     0.0081     0.0000     0.0000     0.0025     0.0000     0.0025 </r>
        <r>   -12.7614     0.0118     0.0138     0.0138     0.0138     0.0000     0.0000     0.0034     0.0000     0.0034 </r>
        <r>   -12.6547     0.0053     0.0095     0.0095     0.0095     0.0000     0.0000     0.0049     0.0000     0.0049 </r>
        <r>   -12.5479     0.0064     0.0091     0.0091     0.0091     0.0000     0.0000     0.0106     0.0000     0.0106 </r>
        <r>   -12.4412     0.0029     0.0043     0.0043     0.0043     0.0000     0.0000     0.0057     0.0000     0.0057 </r>
        <r>   -12.3344     0.0002     0.0004     0.0004     0.0004     0.0000     0.0000     0.0005     0.0000     0.0005 </r>
        <r>   -12.2276     0.0000     0.0000     0.0000     0.0000     0.0000     0.0000     0.0000     0.0000     0.0000 </r>
        <r>   -12.1209     0.0000     0.0000     0.0000     0.0000     0.0000     0.0000     0.0000     0.0000     0.0000 </r>
        <r>   -12.0141     0.0000     0.0000     0.0000     0.0000     0.0000     0.0000     0.0000     0.0000     0.0000 </r>
        <r>   -11.9074     0.0000     0.0000     0.0000     0.0000     0.0000     0.0000     0.0000     0.0000     0.0000 </r>
        <r>   -11.8006     0.0000     0.0000     0.0000     0.0000     0.0000     0.0000     0.0000     0.0000     0.0000 </r>
        <r>   -11.6939     0.0000     0.0000     0.0000     0.0000     0.0000     0.0000     0.0000     0.0000     0.0000 </r>
        <r>   -11.5871     0.0000     0.0000     0.0000     0.0000     0.0000     0.0000     0.0000     0.0000     0.0000 </r>
        <r>   -11.4804     0.0000     0.0000     0.0000     0.0000     0.0000     0.0000     0.0000     0.0000     0.0000 </r>
        <r>   -11.3736     0.0000     0.0000     0.0000     0.0000     0.0000     0.0000     0.0000     0.0000     0.0000 </r>
        <r>   -11.2669     0.0000     0.0000     0.0000     0.0000     0.0000     0.0000     0.0000     0.0000     0.0000 </r>
        <r>   -11.1601     0.0000     0.0000     0.0000     0.0000     0.0000     0.0000     0.0000     0.0000     0.0000 </r>
        <r>   -11.0534     0.0000     0.0000     0.0000     0.0000     0.0000     0.0000     0.0000     0.0000     0.0000 </r>
        <r>   -10.9466     0.0000     0.0000     0.0000     0.0000     0.0000     0.0000     0.0000     0.0000     0.0000 </r>
        <r>   -10.8399     0.0000     0.0000     0.0000     0.0000     0.0000     0.0000     0.0000     0.0000     0.0000 </r>
        <r>   -10.7331     0.0000     0.0000     0.0000     0.0000     0.0000     0.0000     0.0000     0.0000     0.0000 </r>
        <r>   -10.6264     0.0000     0.0000     0.0000     0.0000     0.0000     0.0000     0.0000     0.0000     0.0000 </r>
        <r>   -10.5196     0.0000     0.0000     0.0000     0.0000     0.0000     0.0000     0.0000     0.0000     0.0000 </r>
        <r>   -10.4128     0.0000     0.0000     0.0000     0.0000     0.0000     0.0000     0.0000     0.0000     0.0000 </r>
        <r>   -10.3061     0.0000     0.0000     0.0000     0.0000     0.0000     0.0000     0.0000     0.0000     0.0000 </r>
        <r>   -10.1993     0.0000     0.0000     0.0000     0.0000     0.0000     0.0000     0.0000     0.0000     0.0000 </r>
        <r>   -10.0926     0.0000     0.0000     0.0000     0.0000     0.0000     0.0000     0.0000     0.0000     0.0000 </r>
        <r>    -9.9858     0.0000     0.0000     0.0000     0.0000     0.0000     0.0000     0.0000     0.0000     0.0000 </r>
        <r>    -9.8791     0.0000     0.0000     0.0000     0.0000     0.0000     0.0000     0.0000     0.0000     0.0000 </r>
        <r>    -9.7723     0.0000     0.0000     0.0000     0.0000     0.0000     0.0000     0.0000     0.0000     0.0000 </r>
        <r>    -9.6656     0.0000     0.0000     0.0000     0.0000     0.0000     0.0000     0.0000     0.0000     0.0000 </r>
        <r>    -9.5588     0.0000     0.0000     0.0000     0.0000     0.0000     0.0000     0.0000     0.0000     0.0000 </r>
        <r>    -9.4521     0.0000     0.0000     0.0000     0.0000     0.0000     0.0000     0.0000     0.0000     0.0000 </r>
        <r>    -9.3453     0.0000     0.0000     0.0000     0.0000     0.0000     0.0000     0.0000     0.0000     0.0000 </r>
        <r>    -9.2386     0.0000     0.0000     0.0000     0.0000     0.0000     0.0000     0.0000     0.0000     0.0000 </r>
        <r>    -9.1318     0.0000     0.0000     0.0000     0.0000     0.0000     0.0000     0.0000     0.0000     0.0000 </r>
        <r>    -9.0251     0.0000     0.0000     0.0000     0.0000     0.0000     0.0000     0.0000     0.0000     0.0000 </r>
        <r>    -8.9183     0.0000     0.0000     0.0000     0.0000     0.0000     0.0000     0.0000     0.0000     0.0000 </r>
        <r>    -8.8115     0.0000     0.0000     0.0000     0.0000     0.0000     0.0000     0.0000     0.0000     0.0000 </r>
        <r>    -8.7048     0.0000     0.0000     0.0000     0.0000     0.0000     0.0000     0.0000     0.0000     0.0000 </r>
        <r>    -8.5980     0.0000     0.0000     0.0000     0.0000     0.0000     0.0000     0.0000     0.0000     0.0000 </r>
        <r>    -8.4913     0.0000     0.0000     0.0000     0.0000     0.0000     0.0000     0.0000     0.0000     0.0000 </r>
        <r>    -8.3845     0.0000     0.0000     0.0000     0.0000     0.0000     0.0000     0.0000     0.0000     0.0000 </r>
        <r>    -8.2778     0.0000     0.0000     0.0000     0.0000     0.0000     0.0000     0.0000     0.0000     0.0000 </r>
        <r>    -8.1710     0.0000     0.0000     0.0000     0.0000     0.0000     0.0000     0.0000     0.0000     0.0000 </r>
        <r>    -8.0643     0.0000     0.0000     0.0000     0.0000     0.0000     0.0000     0.0000     0.0000     0.0000 </r>
        <r>    -7.9575     0.0000     0.0000     0.0000     0.0000     0.0000     0.0000     0.0000     0.0000     0.0000 </r>
        <r>    -7.8508     0.0000     0.0000     0.0000     0.0000     0.0000     0.0000     0.0000     0.0000     0.0000 </r>
        <r>    -7.7440     0.0000     0.0000     0.0000     0.0000     0.0000     0.0000     0.0000     0.0000     0.0000 </r>
        <r>    -7.6373     0.0000     0.0000     0.0000     0.0000     0.0000     0.0000     0.0000     0.0000     0.0000 </r>
        <r>    -7.5305     0.0000     0.0000     0.0000     0.0000     0.0000     0.0000     0.0000     0.0000     0.0000 </r>
        <r>    -7.4238     0.0000     0.0000     0.0000     0.0000     0.0000     0.0000     0.0000     0.0000     0.0000 </r>
        <r>    -7.3170     0.0000     0.0000     0.0000     0.0000     0.0000     0.0000     0.0000     0.0000     0.0000 </r>
        <r>    -7.2103     0.0000     0.0000     0.0000     0.0000     0.0000     0.0000     0.0000     0.0000     0.0000 </r>
        <r>    -7.1035     0.0000     0.0000     0.0000     0.0000     0.0000     0.0000     0.0000     0.0000     0.0000 </r>
        <r>    -6.9967     0.0000     0.0000     0.0000     0.0000     0.0000     0.0000     0.0000     0.0000     0.0000 </r>
        <r>    -6.8900     0.0000     0.0000     0.0000     0.0000     0.0000     0.0000     0.0000     0.0000     0.0000 </r>
        <r>    -6.7832     0.0000     0.0000     0.0000     0.0000     0.0000     0.0000     0.0000     0.0000     0.0000 </r>
        <r>    -6.6765     0.0000     0.0000     0.0000     0.0000     0.0000     0.0000     0.0000     0.0000     0.0000 </r>
        <r>    -6.5697     0.0000     0.0000     0.0000     0.0000     0.0000     0.0000     0.0000     0.0000     0.0000 </r>
        <r>    -6.4630     0.0000     0.0000     0.0000     0.0000     0.0000     0.0000     0.0000     0.0000     0.0000 </r>
        <r>    -6.3562     0.0000     0.0000     0.0000     0.0000     0.0000     0.0000     0.0000     0.0000     0.0000 </r>
        <r>    -6.2495     0.0000     0.0000     0.0000     0.0000     0.0000     0.0000     0.0000     0.0000     0.0000 </r>
        <r>    -6.1427     0.0000     0.0000     0.0000     0.0000     0.0000     0.0000     0.0000     0.0000     0.0000 </r>
        <r>    -6.0360     0.0000     0.0000     0.0000     0.0000     0.0000     0.0000     0.0000     0.0000     0.0000 </r>
        <r>    -5.9292     0.0000     0.0000     0.0000     0.0000     0.0000     0.0000     0.0000     0.0000     0.0000 </r>
        <r>    -5.8225     0.0000     0.0000     0.0000     0.0000     0.0000     0.0000     0.0000     0.0000     0.0000 </r>
        <r>    -5.7157     0.0000     0.0000     0.0000     0.0000     0.0000     0.0000     0.0000     0.0000     0.0000 </r>
        <r>    -5.6090     0.0000     0.0000     0.0000     0.0000     0.0000     0.0000     0.0000     0.0000     0.0000 </r>
        <r>    -5.5022     0.0000     0.0000     0.0000     0.0000     0.0000     0.0000     0.0000     0.0000     0.0000 </r>
        <r>    -5.3955     0.0000     0.0000     0.0000     0.0000     0.0000     0.0000     0.0000     0.0000     0.0000 </r>
        <r>    -5.2887     0.0000     0.0000     0.0000     0.0000     0.0000     0.0000     0.0000     0.0000     0.0000 </r>
        <r>    -5.1819     0.0000     0.0000     0.0000     0.0000     0.0000     0.0000     0.0000     0.0000     0.0000 </r>
        <r>    -5.0752     0.0000     0.0000     0.0000     0.0000     0.0000     0.0000     0.0000     0.0000     0.0000 </r>
        <r>    -4.9684     0.0000     0.0000     0.0000     0.0000     0.0000     0.0000     0.0000     0.0000     0.0000 </r>
        <r>    -4.8617     0.0000     0.0000     0.0000     0.0000     0.0000     0.0000     0.0000     0.0000     0.0000 </r>
        <r>    -4.7549     0.0000     0.0000     0.0000     0.0000     0.0000     0.0000     0.0000     0.0000     0.0000 </r>
        <r>    -4.6482     0.0000     0.0000     0.0000     0.0000     0.0000     0.0000     0.0000     0.0000     0.0000 </r>
        <r>    -4.5414     0.0000     0.0000     0.0000     0.0000     0.0000     0.0000     0.0000     0.0000     0.0000 </r>
        <r>    -4.4347     0.0000     0.0000     0.0000     0.0000     0.0000     0.0000     0.0000     0.0000     0.0000 </r>
        <r>    -4.3279     0.0000     0.0000     0.0000     0.0000     0.0000     0.0000     0.0000     0.0000     0.0000 </r>
        <r>    -4.2212     0.0000     0.0000     0.0000     0.0000     0.0000     0.0000     0.0000     0.0000     0.0000 </r>
        <r>    -4.1144     0.0000     0.0000     0.0000     0.0000     0.0000     0.0000     0.0000     0.0000     0.0000 </r>
        <r>    -4.0077     0.0000     0.0000     0.0000     0.0000     0.0000     0.0000     0.0000     0.0000     0.0000 </r>
        <r>    -3.9009     0.0000     0.0000     0.0000     0.0000     0.0000     0.0000     0.0000     0.0000     0.0000 </r>
        <r>    -3.7942     0.0000     0.0000     0.0000     0.0000     0.0000     0.0000     0.0000     0.0000     0.0000 </r>
        <r>    -3.6874     0.0000     0.0000     0.0000     0.0000     0.0000     0.0000     0.0000     0.0000     0.0000 </r>
        <r>    -3.5807     0.0000     0.0000     0.0000     0.0000     0.0000     0.0000     0.0000     0.0000     0.0000 </r>
        <r>    -3.4739     0.0000     0.0000     0.0000     0.0000     0.0000     0.0000     0.0000     0.0000     0.0000 </r>
        <r>    -3.3671     0.0000     0.0000     0.0000     0.0000     0.0000     0.0000     0.0000     0.0000     0.0000 </r>
        <r>    -3.2604     0.0000     0.0000     0.0000     0.0000     0.0000     0.0000     0.0000     0.0000     0.0000 </r>
        <r>    -3.1536     0.0000     0.0000     0.0000     0.0000     0.0000     0.0000     0.0000     0.0000     0.0000 </r>
        <r>    -3.0469     0.0000     0.0000     0.0000     0.0000     0.0000     0.0000     0.0000     0.0000     0.0000 </r>
        <r>    -2.9401     0.0000     0.0000     0.0000     0.0000     0.0000     0.0000     0.0000     0.0000     0.0000 </r>
        <r>    -2.8334     0.0000     0.0000     0.0000     0.0000     0.0000     0.0000     0.0000     0.0000     0.0000 </r>
        <r>    -2.7266     0.0000     0.0000     0.0000     0.0000     0.0000     0.0000     0.0000     0.0000     0.0000 </r>
        <r>    -2.6199     0.0000     0.0000     0.0000     0.0000     0.0000     0.0000     0.0000     0.0000     0.0000 </r>
        <r>    -2.5131     0.0000     0.0000     0.0000     0.0000     0.0000     0.0000     0.0000     0.0000     0.0000 </r>
        <r>    -2.4064     0.0000     0.0000     0.0000     0.0000     0.0000     0.0000     0.0000     0.0000     0.0000 </r>
        <r>    -2.2996     0.0000     0.0000     0.0000     0.0000     0.0000     0.0000     0.0000     0.0000     0.0000 </r>
        <r>    -2.1929     0.0000     0.0000     0.0000     0.0000     0.0000     0.0000     0.0000     0.0000     0.0000 </r>
        <r>    -2.0861     0.0000     0.0000     0.0000     0.0000     0.0000     0.0000     0.0000     0.0000     0.0000 </r>
        <r>    -1.9794     0.0000     0.0000     0.0000     0.0000     0.0000     0.0000     0.0000     0.0000     0.0000 </r>
        <r>    -1.8726     0.0000     0.0000     0.0000     0.0000     0.0000     0.0000     0.0000     0.0000     0.0000 </r>
        <r>    -1.7659     0.0000     0.0000     0.0000     0.0000     0.0000     0.0000     0.0000     0.0000     0.0000 </r>
        <r>    -1.6591     0.0000     0.0000     0.0000     0.0000     0.0000     0.0000     0.0000     0.0000     0.0000 </r>
        <r>    -1.5523     0.0003     0.0000     0.0000     0.0000     0.0000     0.0000     0.0000     0.0000     0.0000 </r>
        <r>    -1.4456     0.0127     0.0004     0.0004     0.0004     0.0005     0.0005     0.0000     0.0005     0.0000 </r>
        <r>    -1.3388     0.0760     0.0021     0.0021     0.0021     0.0027     0.0027     0.0000     0.0027     0.0000 </r>
        <r>    -1.2321     0.0678     0.0019     0.0019     0.0019     0.0024     0.0024     0.0000     0.0024     0.0000 </r>
        <r>    -1.1253     0.0176     0.0003     0.0003     0.0003     0.0006     0.0006     0.0000     0.0006     0.0000 </r>
        <r>    -1.0186     0.0309     0.0010     0.0010     0.0010     0.0011     0.0011     0.0000     0.0011     0.0000 </r>
        <r>    -0.9118     0.0211     0.0119     0.0119     0.0119     0.0008     0.0008     0.0004     0.0008     0.0004 </r>
        <r>    -0.8051     0.0451     0.0269     0.0269     0.0269     0.0016     0.0016     0.0014     0.0016     0.0014 </r>
        <r>    -0.6983     0.1755     0.0221     0.0221     0.0221     0.0057     0.0057     0.0034     0.0057     0.0034 </r>
        <r>    -0.5916     0.1561     0.0178     0.0178     0.0178     0.0051     0.0051     0.0032     0.0051     0.0032 </r>
        <r>    -0.4848     0.0652     0.0337     0.0337     0.0337     0.0034     0.0034     0.0013     0.0034     0.0013 </r>
        <r>    -0.3781     0.0632     0.0314     0.0314     0.0314     0.0026     0.0026     0.0030     0.0026     0.0030 </r>
        <r>    -0.2713     0.0553     0.0115     0.0115     0.0115     0.0011     0.0011     0.0040     0.0011     0.0040 </r>
        <r>    -0.1646     0.0662     0.0026     0.0026     0.0026     0.0016     0.0016     0.0019     0.0016     0.0019 </r>
        <r>    -0.0578     0.0681     0.0008     0.0008     0.0008     0.0018     0.0018     0.0013     0.0018     0.0013 </r>
        <r>     0.0489     0.0123     0.0001     0.0001     0.0001     0.0003     0.0003     0.0002     0.0003     0.0002 </r>
        <r>     0.1557     0.0003     0.0000     0.0000     0.0000     0.0000     0.0000     0.0000     0.0000     0.0000 </r>
        <r>     0.2625     0.0000     0.0000     0.0000     0.0000     0.0000     0.0000     0.0000     0.0000     0.0000 </r>
        <r>     0.3692     0.0003     0.0005     0.0005     0.0005     0.0000     0.0000     0.0000     0.0000     0.0000 </r>
        <r>     0.4760     0.0079     0.0105     0.0105     0.0105     0.0011     0.0011     0.0010     0.0011     0.0010 </r>
        <r>     0.5827     0.0271     0.0370     0.0370     0.0370     0.0038     0.0038     0.0041     0.0038     0.0041 </r>
        <r>     0.6895     0.0316     0.0310     0.0310     0.0310     0.0035     0.0035     0.0053     0.0035     0.0053 </r>
        <r>     0.7962     0.0613     0.0098     0.0098     0.0098     0.0019     0.0019     0.0044     0.0019     0.0044 </r>
        <r>     0.9030     0.0374     0.0013     0.0013     0.0013     0.0007     0.0007     0.0019     0.0007     0.0019 </r>
        <r>     1.0097     0.0035     0.0001     0.0001     0.0001     0.0001     0.0001     0.0002     0.0001     0.0002 </r>
[...]
        <r>  0.0008  0.0000  0.0001  0.0001  0.0004  0.0006  0.0000  0.0001  0.0000 </r>
        <r>  0.0059  0.0001  0.0005  0.0003  0.0005  0.0006  0.0000  0.0002  0.0000 </r>
        <r>  0.0105  0.0005  0.0006  0.0005  0.0002  0.0002  0.0000  0.0003  0.0000 </r>
        <r>  0.0124  0.0005  0.0006  0.0007  0.0001  0.0003  0.0000  0.0001  0.0000 </r>
        <r>  0.0027  0.0003  0.0001  0.0001  0.0000  0.0002  0.0000  0.0004  0.0000 </r>
        <r>  0.0066  0.0003  0.0002  0.0005  0.0000  0.0003  0.0000  0.0001  0.0000 </r>
        <r>  0.0066  0.0003  0.0002  0.0004  0.0000  0.0003  0.0000  0.0001  0.0000 </r>
        <r>  0.0029  0.0003  0.0001  0.0001  0.0000  0.0002  0.0000  0.0004  0.0000 </r>
        <r>  0.0125  0.0005  0.0006  0.0006  0.0001  0.0003  0.0000  0.0001  0.0000 </r>
        <r>  0.0106  0.0004  0.0006  0.0005  0.0002  0.0002  0.0000  0.0003  0.0000 </r>
        <r>  0.0001  0.0029  0.0007  0.0016  0.0000  0.0000  0.0000  0.0000  0.0000 </r>
        <r>  0.0010  0.0004  0.0044  0.0014  0.0000  0.0000  0.0000  0.0000  0.0000 </r>
        <r>  0.0016  0.0029  0.0020  0.0034  0.0000  0.0000  0.0000  0.0000  0.0000 </r>
        <r>  0.0002  0.0085  0.0009  0.0004  0.0000  0.0000  0.0000  0.0000  0.0000 </r>
        <r>  0.0002  0.0087  0.0009  0.0003  0.0000  0.0000  0.0000  0.0000  0.0000 </r>
        <r>  0.0016  0.0029  0.0020  0.0034  0.0000  0.0000  0.0000  0.0000  0.0000 </r>
        <r>  0.0010  0.0004  0.0042  0.0014  0.0000  0.0000  0.0000  0.0000  0.0000 </r>
        <r>  0.0001  0.0031  0.0007  0.0016  0.0000  0.0000  0.0000  0.0000  0.0000 </r>
        <r>  0.0003  0.0024  0.0115  0.0000  0.0000  0.0000  0.0000  0.0000  0.0000 </r>
        <r>  0.0000  0.0005  0.0033  0.0089  0.0000  0.0000  0.0000  0.0000  0.0000 </r>
        <r>  0.0002  0.0031  0.0006  0.0123  0.0000  0.0000  0.0000  0.0000  0.0000 </r>
        <r>  0.0001  0.0003  0.0043  0.0010  0.0000  0.0000  0.0000  0.0000  0.0000 </r>
        <r>  0.0001  0.0003  0.0046  0.0010  0.0000  0.0000  0.0000  0.0000  0.0000 </r>
        <r>  0.0002  0.0030  0.0005  0.0126  0.0000  0.0000  0.0000  0.0000  0.0000 </r>
        <r>  0.0000  0.0005  0.0034  0.0089  0.0000  0.0000  0.0000  0.0000  0.0000 </r>
        <r>  0.0003  0.0023  0.0117  0.0001  0.0000  0.0000  0.0000  0.0000  0.0000 </r>
        <r>  0.0010  0.0030  0.0013  0.0036  0.0000  0.0000  0.0000  0.0000  0.0000 </r>
        <r>  0.0009  0.0035  0.0024  0.0020  0.0000  0.0000  0.0000  0.0000  0.0000 </r>
        <r>  0.0005  0.0028  0.0004  0.0033  0.0000  0.0000  0.0000  0.0000  0.0000 </r>
        <r>  0.0002  0.0065  0.0010  0.0010  0.0000  0.0000  0.0000  0.0000  0.0000 </r>
        <r>  0.0002  0.0062  0.0011  0.0010  0.0000  0.0000  0.0000  0.0000  0.0000 </r>
        <r>  0.0005  0.0028  0.0003  0.0034  0.0000  0.0000  0.0000  0.0000  0.0000 </r>
        <r>  0.0009  0.0034  0.0023  0.0019  0.0000  0.0000  0.0000  0.0000  0.0000 </r>
        <r>  0.0010  0.0029  0.0013  0.0035  0.0000  0.0000  0.0000  0.0000  0.0000 </r>
        <r>  0.0004  0.0009  0.0060  0.0088  0.0000  0.0000  0.0000  0.0000  0.0000 </r>
        <r>  0.0000  0.0003  0.0061  0.0054  0.0000  0.0000  0.0000  0.0000  0.0000 </r>
        <r>  0.0005  0.0011  0.0058  0.0043  0.0000  0.0000  0.0000  0.0000  0.0000 </r>
        <r>  0.0001  0.0006  0.0025  0.0030  0.0000  0.0000  0.0000  0.0000  0.0000 </r>
        <r>  0.0001  0.0006  0.0025  0.0028  0.0000  0.0000  0.0000  0.0000  0.0000 </r>
        <r>  0.0005  0.0011  0.0058  0.0044  0.0000  0.0000  0.0000  0.0000  0.0000 </r>
        <r>  0.0000  0.0003  0.0060  0.0052  0.0000  0.0000  0.0000  0.0000  0.0000 </r>
        <r>  0.0004  0.0008  0.0059  0.0088  0.0000  0.0000  0.0000  0.0000  0.0000 </r>
       </set>
       <set comment="band 179">
        <r>  0.0026  0.0006  0.0002  0.0005  0.0014  0.0003  0.0000  0.0006  0.0000 </r>
        <r>  0.0007  0.0006  0.0005  0.0007  0.0006  0.0007  0.0000  0.0013  0.0000 </r>
        <r>  0.0016  0.0007  0.0003  0.0004  0.0004  0.0001  0.0000  0.0001  0.0000 </r>
        <r>  0.0006  0.0007  0.0004  0.0007  0.0001  0.0003  0.0000  0.0007  0.0000 </r>
        <r>  0.0008  0.0006  0.0005  0.0006  0.0001  0.0002  0.0000  0.0008  0.0000 </r>
        <r>  0.0020  0.0007  0.0003  0.0005  0.0003  0.0000  0.0000  0.0001  0.0000 </r>
        <r>  0.0005  0.0007  0.0005  0.0007  0.0006  0.0009  0.0000  0.0011  0.0000 </r>
        <r>  0.0028  0.0006  0.0002  0.0004  0.0015  0.0002  0.0000  0.0006  0.0000 </r>
        <r>  0.0021  0.0003  0.0000  0.0005  0.0015  0.0011  0.0000  0.0013  0.0000 </r>
        <r>  0.0016  0.0003  0.0001  0.0005  0.0013  0.0011  0.0000  0.0011  0.0000 </r>
        <r>  0.0002  0.0005  0.0000  0.0006  0.0001  0.0002  0.0000  0.0002  0.0000 </r>
        <r>  0.0000  0.0005  0.0000  0.0007  0.0000  0.0004  0.0000  0.0008  0.0000 </r>
        <r>  0.0001  0.0005  0.0000  0.0006  0.0000  0.0003  0.0000  0.0008  0.0000 </r>
        <r>  0.0002  0.0005  0.0000  0.0007  0.0001  0.0003  0.0000  0.0002  0.0000 </r>
        <r>  0.0015  0.0003  0.0001  0.0005  0.0014  0.0010  0.0000  0.0011  0.0000 </r>
        <r>  0.0019  0.0003  0.0000  0.0004  0.0015  0.0014  0.0000  0.0012  0.0000 </r>
        <r>  0.0002  0.0008  0.0000  0.0013  0.0001  0.0006  0.0000  0.0003  0.0000 </r>
        <r>  0.0001  0.0009  0.0000  0.0012  0.0000  0.0002  0.0000  0.0003  0.0000 </r>
        <r>  0.0028  0.0005  0.0001  0.0009  0.0005  0.0017  0.0000  0.0015  0.0000 </r>
        <r>  0.0031  0.0004  0.0000  0.0008  0.0005  0.0001  0.0000  0.0001  0.0000 </r>
        <r>  0.0032  0.0004  0.0000  0.0008  0.0005  0.0001  0.0000  0.0001  0.0000 </r>
        <r>  0.0027  0.0005  0.0002  0.0009  0.0005  0.0015  0.0000  0.0017  0.0000 </r>
        <r>  0.0001  0.0009  0.0000  0.0012  0.0000  0.0002  0.0000  0.0002  0.0000 </r>
        <r>  0.0002  0.0008  0.0000  0.0013  0.0001  0.0007  0.0000  0.0003  0.0000 </r>
        <r>  0.0029  0.0002  0.0003  0.0009  0.0006  0.0002  0.0000  0.0002  0.0000 </r>
        <r>  0.0019  0.0004  0.0005  0.0009  0.0002  0.0011  0.0000  0.0006  0.0000 </r>
        <r>  0.0004  0.0006  0.0004  0.0011  0.0002  0.0007  0.0000  0.0004  0.0000 </r>
        <r>  0.0013  0.0004  0.0003  0.0011  0.0009  0.0003  0.0000  0.0001  0.0000 </r>
        <r>  0.0014  0.0005  0.0003  0.0012  0.0008  0.0003  0.0000  0.0001  0.0000 </r>
        <r>  0.0003  0.0006  0.0004  0.0011  0.0003  0.0006  0.0000  0.0004  0.0000 </r>
        <r>  0.0017  0.0004  0.0005  0.0010  0.0003  0.0010  0.0000  0.0006  0.0000 </r>
        <r>  0.0029  0.0002  0.0003  0.0010  0.0006  0.0003  0.0000  0.0002  0.0000 </r>
        <r>  0.0000  0.0020  0.0000  0.0009  0.0000  0.0000  0.0000  0.0000  0.0000 </r>
        <r>  0.0000  0.0001  0.0005  0.0010  0.0000  0.0000  0.0000  0.0000  0.0000 </r>
        <r>  0.0000  0.0051  0.0028  0.0058  0.0000  0.0000  0.0000  0.0000  0.0000 </r>
        <r>  0.0000  0.0070  0.0047  0.0073  0.0000  0.0000  0.0000  0.0000  0.0000 </r>
        <r>  0.0000  0.0069  0.0047  0.0077  0.0000  0.0000  0.0000  0.0000  0.0000 </r>
        <r>  0.0000  0.0049  0.0030  0.0067  0.0000  0.0000  0.0000  0.0000  0.0000 </r>
        <r>  0.0000  0.0001  0.0004  0.0011  0.0000  0.0000  0.0000  0.0000  0.0000 </r>
        <r>  0.0000  0.0022  0.0000  0.0012  0.0000  0.0000  0.0000  0.0000  0.0000 </r>
        <r>  0.0000  0.0059  0.0079  0.0045  0.0000  0.0000  0.0000  0.0000  0.0000 </r>
        <r>  0.0000  0.0053  0.0005  0.0048  0.0000  0.0000  0.0000  0.0000  0.0000 </r>
        <r>  0.0000  0.0026  0.0039  0.0021  0.0000  0.0000  0.0000  0.0000  0.0000 </r>
        <r>  0.0000  0.0034  0.0005  0.0028  0.0000  0.0000  0.0000  0.0000  0.0000 </r>
        <r>  0.0000  0.0034  0.0007  0.0024  0.0000  0.0000  0.0000  0.0000  0.0000 </r>
        <r>  0.0000  0.0025  0.0039  0.0019  0.0000  0.0000  0.0000  0.0000  0.0000 </r>
        <r>  0.0000  0.0054  0.0004  0.0043  0.0000  0.0000  0.0000  0.0000  0.0000 </r>
        <r>  0.0000  0.0058  0.0077  0.0042  0.0000  0.0000  0.0000  0.0000  0.0000 </r>
        <r>  0.0000  0.0042  0.0013  0.0079  0.0000  0.0000  0.0000  0.0000  0.0000 </r>
        <r>  0.0000  0.0034  0.0051  0.0064  0.0000  0.0000  0.0000  0.0000  0.0000 </r>
        <r>  0.0000  0.0016  0.0044  0.0047  0.0000  0.0000  0.0000  0.0000  0.0000 </r>
        <r>  0.0000  0.0019  0.0004  0.0040  0.0000  0.0000  0.0000  0.0000  0.0000 </r>
        <r>  0.0000  0.0015  0.0004  0.0039  0.0000  0.0000  0.0000  0.0000  0.0000 </r>
        <r>  0.0000  0.0014  0.0055  0.0048  0.0000  0.0000  0.0000  0.0000  0.0000 </r>
        <r>  0.0000  0.0034  0.0046  0.0063  0.0000  0.0000  0.0000  0.0000  0.0000 </r>
        <r>  0.0000  0.0046  0.0018  0.0075  0.0000  0.0000  0.0000  0.0000  0.0000 </r>
        <r>  0.0000  0.0097  0.0018  0.0117  0.0000  0.0000  0.0000  0.0000  0.0000 </r>
        <r>  0.0000  0.0040  0.0031  0.0051  0.0000  0.0000  0.0000  0.0000  0.0000 </r>
        <r>  0.0000  0.0004  0.0003  0.0052  0.0000  0.0000  0.0000  0.0000  0.0000 </r>
        <r>  0.0000  0.0023  0.0001  0.0013  0.0000  0.0000  0.0000  0.0000  0.0000 </r>
        <r>  0.0000  0.0019  0.0002  0.0014  0.0000  0.0000  0.0000  0.0000  0.0000 </r>
        <r>  0.0000  0.0002  0.0003  0.0051  0.0000  0.0000  0.0000  0.0000  0.0000 </r>
        <r>  0.0000  0.0043  0.0030  0.0050  0.0000  0.0000  0.0000  0.0000  0.0000 </r>
        <r>  0.0000  0.0103  0.0017  0.0113  0.0000  0.0000  0.0000  0.0000  0.0000 </r>
       </set>
       <set comment="band 180">
        <r>  0.0008  0.0004  0.0015  0.0000  0.0001  0.0001  0.0000  0.0002  0.0000 </r>
        <r>  0.0026  0.0002  0.0013  0.0000  0.0007  0.0008  0.0000  0.0009  0.0000 </r>
        <r>  0.0028  0.0002  0.0013  0.0001  0.0005  0.0006  0.0000  0.0007  0.0000 </r>
        <r>  0.0004  0.0004  0.0015  0.0000  0.0003  0.0002  0.0000  0.0002  0.0000 </r>
        <r>  0.0007  0.0005  0.0015  0.0000  0.0002  0.0002  0.0000  0.0003  0.0000 </r>
        <r>  0.0021  0.0002  0.0012  0.0001  0.0007  0.0007  0.0000  0.0006  0.0000 </r>
        <r>  0.0032  0.0002  0.0012  0.0000  0.0008  0.0006  0.0000  0.0010  0.0000 </r>
        <r>  0.0003  0.0004  0.0015  0.0000  0.0001  0.0002  0.0000  0.0002  0.0000 </r>
        <r>  0.0007  0.0003  0.0012  0.0000  0.0001  0.0003  0.0000  0.0005  0.0000 </r>
        <r>  0.0020  0.0001  0.0010  0.0001  0.0007  0.0009  0.0000  0.0005  0.0000 </r>
        <r>  0.0025  0.0001  0.0010  0.0000  0.0011  0.0013  0.0000  0.0012  0.0000 </r>
        <r>  0.0003  0.0003  0.0013  0.0001  0.0000  0.0001  0.0000  0.0001  0.0000 </r>
        <r>  0.0003  0.0003  0.0013  0.0000  0.0000  0.0002  0.0000  0.0001  0.0000 </r>
        <r>  0.0026  0.0001  0.0010  0.0000  0.0012  0.0012  0.0000  0.0014  0.0000 </r>
        <r>  0.0018  0.0001  0.0011  0.0001  0.0003  0.0010  0.0000  0.0005  0.0000 </r>
        <r>  0.0006  0.0003  0.0012  0.0000  0.0004  0.0002  0.0000  0.0006  0.0000 </r>
        <r>  0.0013  0.0002  0.0012  0.0001  0.0002  0.0005  0.0000  0.0007  0.0000 </r>
        <r>  0.0020  0.0003  0.0011  0.0000  0.0006  0.0008  0.0000  0.0004  0.0000 </r>
        <r>  0.0004  0.0004  0.0013  0.0002  0.0004  0.0004  0.0000  0.0004  0.0000 </r>
        <r>  0.0025  0.0003  0.0010  0.0001  0.0003  0.0006  0.0000  0.0007  0.0000 </r>
        <r>  0.0013  0.0003  0.0012  0.0001  0.0004  0.0004  0.0000  0.0008  0.0000 </r>
        <r>  0.0011  0.0004  0.0012  0.0002  0.0003  0.0006  0.0000  0.0004  0.0000 </r>
        <r>  0.0011  0.0003  0.0013  0.0000  0.0003  0.0006  0.0000  0.0006  0.0000 </r>
        <r>  0.0025  0.0002  0.0011  0.0001  0.0003  0.0005  0.0000  0.0007  0.0000 </r>
        <r>  0.0010  0.0002  0.0015  0.0002  0.0002  0.0003  0.0000  0.0004  0.0000 </r>
        <r>  0.0026  0.0002  0.0012  0.0000  0.0007  0.0010  0.0000  0.0006  0.0000 </r>
        <r>  0.0008  0.0002  0.0015  0.0002  0.0008  0.0005  0.0000  0.0003  0.0000 </r>
        <r>  0.0021  0.0002  0.0013  0.0000  0.0002  0.0004  0.0000  0.0006  0.0000 </r>
        <r>  0.0019  0.0002  0.0013  0.0001  0.0003  0.0005  0.0000  0.0003  0.0000 </r>
        <r>  0.0011  0.0002  0.0014  0.0002  0.0005  0.0006  0.0000  0.0005  0.0000 </r>
        <r>  0.0021  0.0002  0.0013  0.0000  0.0007  0.0010  0.0000  0.0004  0.0000 </r>
        <r>  0.0009  0.0002  0.0014  0.0002  0.0003  0.0002  0.0000  0.0004  0.0000 </r>
        <r>  0.0000  0.0000  0.0026  0.0004  0.0000  0.0000  0.0000  0.0000  0.0000 </r>
        <r>  0.0000  0.0065  0.0103  0.0038  0.0000  0.0000  0.0000  0.0000  0.0000 </r>
        <r>  0.0000  0.0036  0.0073  0.0028  0.0000  0.0000  0.0000  0.0000  0.0000 </r>
        <r>  0.0000  0.0006  0.0049  0.0009  0.0000  0.0000  0.0000  0.0000  0.0000 </r>
        <r>  0.0000  0.0004  0.0049  0.0016  0.0000  0.0000  0.0000  0.0000  0.0000 </r>
        <r>  0.0000  0.0037  0.0072  0.0022  0.0000  0.0000  0.0000  0.0000  0.0000 </r>
        <r>  0.0000  0.0059  0.0109  0.0051  0.0000  0.0000  0.0000  0.0000  0.0000 </r>
        <r>  0.0000  0.0000  0.0026  0.0001  0.0000  0.0000  0.0000  0.0000  0.0000 </r>
        <r>  0.0000  0.0005  0.0039  0.0006  0.0000  0.0000  0.0000  0.0000  0.0000 </r>
        <r>  0.0000  0.0074  0.0107  0.0037  0.0000  0.0000  0.0000  0.0000  0.0000 </r>
        <r>  0.0000  0.0037  0.0083  0.0025  0.0000  0.0000  0.0000  0.0000  0.0000 </r>
        <r>  0.0000  0.0003  0.0055  0.0011  0.0000  0.0000  0.0000  0.0000  0.0000 </r>
        <r>  0.0000  0.0000  0.0045  0.0007  0.0000  0.0000  0.0000  0.0000  0.0000 </r>
        <r>  0.0000  0.0060  0.0092  0.0024  0.0000  0.0000  0.0000  0.0000  0.0000 </r>
        <r>  0.0000  0.0052  0.0092  0.0031  0.0000  0.0000  0.0000  0.0000  0.0000 </r>
        <r>  0.0000  0.0006  0.0046  0.0004  0.0000  0.0000  0.0000  0.0000  0.0000 </r>
        <r>  0.0000  0.0033  0.0096  0.0037  0.0000  0.0000  0.0000  0.0000  0.0000 </r>
        <r>  0.0000  0.0025  0.0047  0.0010  0.0000  0.0000  0.0000  0.0000  0.0000 </r>
        <r>  0.0000  0.0021  0.0072  0.0020  0.0000  0.0000  0.0000  0.0000  0.0000 </r>
        <r>  0.0000  0.0017  0.0069  0.0013  0.0000  0.0000  0.0000  0.0000  0.0000 </r>
        <r>  0.0000  0.0023  0.0077  0.0004  0.0000  0.0000  0.0000  0.0000  0.0000 </r>
        <r>  0.0000  0.0027  0.0058  0.0035  0.0000  0.0000  0.0000  0.0000  0.0000 </r>
        <r>  0.0000  0.0015  0.0058  0.0006  0.0000  0.0000  0.0000  0.0000  0.0000 </r>
        <r>  0.0000  0.0027  0.0085  0.0057  0.0000  0.0000  0.0000  0.0000  0.0000 </r>
        <r>  0.0000  0.0014  0.0046  0.0009  0.0000  0.0000  0.0000  0.0000  0.0000 </r>
        <r>  0.0000  0.0035  0.0074  0.0025  0.0000  0.0000  0.0000  0.0000  0.0000 </r>
        <r>  0.0000  0.0051  0.0050  0.0021  0.0000  0.0000  0.0000  0.0000  0.0000 </r>
        <r>  0.0000  0.0022  0.0073  0.0030  0.0000  0.0000  0.0000  0.0000  0.0000 </r>
        <r>  0.0000  0.0023  0.0055  0.0033  0.0000  0.0000  0.0000  0.0000  0.0000 </r>
        <r>  0.0000  0.0036  0.0072  0.0028  0.0000  0.0000  0.0000  0.0000  0.0000 </r>
        <r>  0.0000  0.0048  0.0055  0.0023  0.0000  0.0000  0.0000  0.0000  0.0000 </r>
        <r>  0.0000  0.0015  0.0064  0.0013  0.0000  0.0000  0.0000  0.0000  0.0000 </r>
       </set>
      </set>
     </set>
    </set>
   </array>
  </projected>
 </calculation>
 <structure name="finalpos" >
  <crystal>
   <varray name="basis" >
    <v>       8.41945600       0.00000000       0.00000000 </v>
    <v>       0.00000000       8.41945600       0.00000000 </v>
    <v>       0.00000000       0.00000000       8.41945600 </v>
   </varray>
   <i name="volume">    596.83199255 </i>
   <varray name="rec_basis" >
    <v>       0.11877252       0.00000000       0.00000000 </v>
    <v>       0.00000000       0.11877252       0.00000000 </v>
    <v>       0.00000000       0.00000000       0.11877252 </v>
   </varray>
  </crystal>
  <varray name="positions" >
   <v>       0.00000000       0.00000000       0.00000000 </v>
   <v>       0.00000000       0.00000000       0.50000000 </v>
   <v>       0.00000000       0.50000000       0.00000000 </v>
   <v>       0.00000000       0.50000000       0.50000000 </v>
   <v>       0.50000000       0.00000000       0.00000000 </v>
   <v>       0.50000000       0.00000000       0.50000000 </v>
   <v>       0.50000000       0.50000000       0.00000000 </v>
   <v>       0.50000000       0.50000000       0.50000000 </v>
   <v>       0.00000000       0.25000000       0.25000000 </v>
   <v>       0.00000000       0.25000000       0.75000000 </v>
   <v>       0.00000000       0.75000000       0.25000000 </v>
   <v>       0.00000000       0.75000000       0.75000000 </v>
   <v>       0.50000000       0.25000000       0.25000000 </v>
   <v>       0.50000000       0.25000000       0.75000000 </v>
   <v>       0.50000000       0.75000000       0.25000000 </v>
   <v>       0.50000000       0.75000000       0.75000000 </v>
   <v>       0.25000000       0.00000000       0.25000000 </v>
   <v>       0.25000000       0.00000000       0.75000000 </v>
   <v>       0.25000000       0.50000000       0.25000000 </v>
   <v>       0.25000000       0.50000000       0.75000000 </v>
   <v>       0.75000000       0.00000000       0.25000000 </v>
   <v>       0.75000000       0.00000000       0.75000000 </v>
   <v>       0.75000000       0.50000000       0.25000000 </v>
   <v>       0.75000000       0.50000000       0.75000000 </v>
   <v>       0.25000000       0.25000000       0.00000000 </v>
   <v>       0.25000000       0.25000000       0.50000000 </v>
   <v>       0.25000000       0.75000000       0.00000000 </v>
   <v>       0.25000000       0.75000000       0.50000000 </v>
   <v>       0.75000000       0.25000000       0.00000000 </v>
   <v>       0.75000000       0.25000000       0.50000000 </v>
   <v>       0.75000000       0.75000000       0.00000000 </v>
   <v>       0.75000000       0.75000000       0.50000000 </v>
   <v>       0.25000000       0.00000000       0.00000000 </v>
   <v>       0.25000000       0.00000000       0.50000000 </v>
   <v>       0.25000000       0.50000000       0.00000000 </v>
   <v>       0.25000000       0.50000000       0.50000000 </v>
   <v>       0.75000000       0.00000000       0.00000000 </v>
   <v>       0.75000000       0.00000000       0.50000000 </v>
   <v>       0.75000000       0.50000000       0.00000000 </v>
   <v>       0.75000000       0.50000000       0.50000000 </v>
   <v>       0.25000000       0.25000000       0.25000000 </v>
   <v>       0.25000000       0.25000000       0.75000000 </v>
   <v>       0.25000000       0.75000000       0.25000000 </v>
   <v>       0.25000000       0.75000000       0.75000000 </v>
   <v>       0.75000000       0.25000000       0.25000000 </v>
   <v>       0.75000000       0.25000000       0.75000000 </v>
   <v>       0.75000000       0.75000000       0.25000000 </v>
   <v>       0.75000000       0.75000000       0.75000000 </v>
   <v>       0.00000000       0.00000000       0.25000000 </v>
   <v>       0.00000000       0.00000000       0.75000000 </v>
   <v>       0.00000000       0.50000000       0.25000000 </v>
   <v>       0.00000000       0.50000000       0.75000000 </v>
   <v>       0.50000000       0.00000000       0.25000000 </v>
   <v>       0.50000000       0.00000000       0.75000000 </v>
   <v>       0.50000000       0.50000000       0.25000000 </v>
   <v>       0.50000000       0.50000000       0.75000000 </v>
   <v>       0.00000000       0.25000000       0.00000000 </v>
   <v>       0.00000000       0.25000000       0.50000000 </v>
   <v>       0.00000000       0.75000000       0.00000000 </v>
   <v>       0.00000000       0.75000000       0.50000000 </v>
   <v>       0.50000000       0.25000000       0.00000000 </v>
   <v>       0.50000000       0.25000000       0.50000000 </v>
   <v>       0.50000000       0.75000000       0.00000000 </v>
   <v>       0.50000000       0.75000000       0.50000000 </v>
  </varray>
 </structure>
</modeling>
