   17   17   20    2
  0.9011457E+01  0.6006014E-09  0.6006014E-09  0.6006014E-09  0.5000000E-15
  1.000000000000000E-004
  CAR 
 unknown system                          
     64      8     52
 
  0.0000000E+00  0.0000000E+00  0.0000000E+00  0.1250000E+00
    1      -13.789638    -13.789662   1.000000   1.000000
    2      -12.615252    -12.615285   1.000000   1.000000
    3      -12.587914    -12.587948   1.000000   1.000000
    4      -12.587013    -12.587047   1.000000   1.000000
    5      -12.585607    -12.585640   1.000000   1.000000
    6      -12.348441    -12.348476   1.000000   1.000000
    7      -12.347490    -12.347525   1.000000   1.000000
    8      -12.346943    -12.346978   1.000000   1.000000
    9       -1.333127     -1.333131   1.000000   1.000000
   10       -1.034158     -1.034158   1.000000   1.000000
   11       -1.033770     -1.033771   1.000000   1.000000
   12       -1.033161     -1.033160   1.000000   1.000000
   13       -0.784403     -0.784411   1.000000   1.000000
   14       -0.455584     -0.455587   1.000000   1.000000
   15       -0.455280     -0.455283   1.000000   1.000000
   16        1.831186      1.831163   1.000000   1.000000
   17        1.831551      1.831529   1.000000   1.000000
   18        1.831889      1.831867   1.000000   1.000000
   19        2.187913      2.187892   1.000000   1.000000
   20        2.188740      2.188718   1.000000   1.000000
   21        2.190288      2.190267   1.000000   1.000000
   22        2.427275      2.427247   1.000000   1.000000
   23        2.428761      2.428734   1.000000   1.000000
   24        2.430558      2.430531   1.000000   1.000000
   25        2.805962      2.805934   1.000000   1.000000
   26        2.806032      2.806004   1.000000   1.000000
   27        2.879063      2.879035   1.000000   1.000000
   28        2.879314      2.879287   1.000000   1.000000
   29        2.879497      2.879470   1.000000   1.000000
   30        3.268914      3.268881   1.000000   1.000000
   31        3.270403      3.270371   1.000000   1.000000
   32        3.270530      3.270498   1.000000   1.000000
   33        7.894603      7.894615   0.000000   0.000000
   34       10.658487     10.658473   0.000000   0.000000
   35       11.173521     11.173545   0.000000   0.000000
   36       11.176525     11.176549   0.000000   0.000000
   37       11.178202     11.178227   0.000000   0.000000
   38       12.304419     12.304445   0.000000   0.000000
   39       12.306599     12.306625   0.000000   0.000000
   40       12.315724     12.315751   0.000000   0.000000
   41       12.653553     12.653584   0.000000   0.000000
   42       12.655596     12.655628   0.000000   0.000000
   43       13.411337     13.411381   0.000000   0.000000
   44       15.608592     15.608587   0.000000   0.000000
   45       15.846824     15.846825   0.000000   0.000000
   46       15.850331     15.850333   0.000000   0.000000
   47       15.851550     15.851552   0.000000   0.000000
   48       16.256269     16.256262   0.000000   0.000000
   49       16.257780     16.257773   0.000000   0.000000
   50       16.433438     16.433434   0.000000   0.000000
   51       18.686657     18.686660   0.000000   0.000000
   52       18.688388     18.691830   0.000000   0.000000
 
  0.5000000E+00  0.0000000E+00  0.0000000E+00  0.1250000E+00
    1      -13.279607    -13.279635   1.000000   1.000000
    2      -13.200939    -13.200967   1.000000   1.000000
    3      -12.522124    -12.522159   1.000000   1.000000
    4      -12.491988    -12.492024   1.000000   1.000000
    5      -12.481883    -12.481918   1.000000   1.000000
    6      -12.470163    -12.470196   1.000000   1.000000
    7      -12.460915    -12.460947   1.000000   1.000000
    8      -12.454070    -12.454103   1.000000   1.000000
    9       -0.555329     -0.555337   1.000000   1.000000
   10       -0.505810     -0.505819   1.000000   1.000000
   11       -0.285036     -0.285041   1.000000   1.000000
   12       -0.281379     -0.281383   1.000000   1.000000
   13       -0.197496     -0.197499   1.000000   1.000000
   14       -0.192416     -0.192420   1.000000   1.000000
   15        0.672113      0.672097   1.000000   1.000000
   16        0.722928      0.722919   1.000000   1.000000
   17        1.296845      1.296826   1.000000   1.000000
   18        1.402541      1.402526   1.000000   1.000000
   19        1.535892      1.535875   1.000000   1.000000
   20        1.550090      1.550074   1.000000   1.000000
   21        1.580425      1.580409   1.000000   1.000000
   22        1.592802      1.592785   1.000000   1.000000
   23        2.204222      2.204196   1.000000   1.000000
   24        2.213154      2.213128   1.000000   1.000000
   25        2.256229      2.256206   1.000000   1.000000
   26        2.270308      2.270285   1.000000   1.000000
   27        2.457181      2.457155   1.000000   1.000000
   28        2.575027      2.575004   1.000000   1.000000
   29        2.969935      2.969905   1.000000   1.000000
   30        2.973819      2.973789   1.000000   1.000000
   31        3.025092      3.025063   1.000000   1.000000
   32        3.026739      3.026709   1.000000   1.000000
   33       10.075216     10.075219   0.000000   0.000000
   34       10.384879     10.384880   0.000000   0.000000
   35       12.084127     12.084104   0.000000   0.000000
   36       12.329637     12.329648   0.000000   0.000000
   37       12.344144     12.344156   0.000000   0.000000
   38       13.072315     13.072337   0.000000   0.000000
   39       13.239534     13.239556   0.000000   0.000000
   40       13.251951     13.251973   0.000000   0.000000
   41       14.069958     14.069963   0.000000   0.000000
   42       14.107419     14.107425   0.000000   0.000000
   43       14.405262     14.405284   0.000000   0.000000
   44       14.579403     14.579408   0.000000   0.000000
   45       15.100701     15.100707   0.000000   0.000000
   46       15.131165     15.131171   0.000000   0.000000
   47       15.374654     15.374677   0.000000   0.000000
   48       15.997265     15.997287   0.000000   0.000000
   49       16.041994     16.042016   0.000000   0.000000
   50       16.084724     16.084746   0.000000   0.000000
   51       16.409600     16.405824   0.000000   0.000000
   52       16.487313     16.453147   0.000000   0.000000
 
  0.0000000E+00  0.5000000E+00  0.0000000E+00  0.1250000E+00
    1      -13.279544    -13.279573   1.000000   1.000000
    2      -13.200962    -13.200990   1.000000   1.000000
    3      -12.523243    -12.523278   1.000000   1.000000
    4      -12.491415    -12.491451   1.000000   1.000000
    5      -12.481176    -12.481212   1.000000   1.000000
    6      -12.470619    -12.470651   1.000000   1.000000
    7      -12.462127    -12.462159   1.000000   1.000000
    8      -12.452590    -12.452624   1.000000   1.000000
    9       -0.555300     -0.555308   1.000000   1.000000
   10       -0.507235     -0.507244   1.000000   1.000000
   11       -0.285712     -0.285718   1.000000   1.000000
   12       -0.282141     -0.282146   1.000000   1.000000
   13       -0.196744     -0.196747   1.000000   1.000000
   14       -0.191324     -0.191327   1.000000   1.000000
   15        0.673549      0.673533   1.000000   1.000000
   16        0.722566      0.722557   1.000000   1.000000
   17        1.297447      1.297428   1.000000   1.000000
   18        1.402578      1.402563   1.000000   1.000000
   19        1.539388      1.539371   1.000000   1.000000
   20        1.546210      1.546194   1.000000   1.000000
   21        1.581038      1.581021   1.000000   1.000000
   22        1.592006      1.591989   1.000000   1.000000
   23        2.205029      2.205003   1.000000   1.000000
   24        2.210339      2.210313   1.000000   1.000000
   25        2.259020      2.258997   1.000000   1.000000
   26        2.269120      2.269097   1.000000   1.000000
   27        2.457723      2.457697   1.000000   1.000000
   28        2.574883      2.574860   1.000000   1.000000
   29        2.968219      2.968189   1.000000   1.000000
   30        2.974106      2.974077   1.000000   1.000000
   31        3.025393      3.025363   1.000000   1.000000
   32        3.028261      3.028231   1.000000   1.000000
   33       10.074299     10.074302   0.000000   0.000000
   34       10.384011     10.384012   0.000000   0.000000
   35       12.084828     12.084805   0.000000   0.000000
   36       12.330375     12.330385   0.000000   0.000000
   37       12.338863     12.338874   0.000000   0.000000
   38       13.074729     13.074750   0.000000   0.000000
   39       13.239342     13.239365   0.000000   0.000000
   40       13.252127     13.252150   0.000000   0.000000
   41       14.073562     14.073568   0.000000   0.000000
   42       14.108467     14.108474   0.000000   0.000000
   43       14.405620     14.405642   0.000000   0.000000
   44       14.582485     14.582489   0.000000   0.000000
   45       15.101893     15.101899   0.000000   0.000000
   46       15.124459     15.124466   0.000000   0.000000
   47       15.372380     15.372404   0.000000   0.000000
   48       16.004055     16.004077   0.000000   0.000000
   49       16.045590     16.045612   0.000000   0.000000
   50       16.081300     16.081322   0.000000   0.000000
   51       16.402391     16.400256   0.000000   0.000000
   52       16.469926     16.451975   0.000000   0.000000
 
  0.5000000E+00  0.5000000E+00  0.0000000E+00  0.1250000E+00
    1      -13.095309    -13.095338   1.000000   1.000000
    2      -13.086354    -13.086384   1.000000   1.000000
    3      -12.665078    -12.665111   1.000000   1.000000
    4      -12.656387    -12.656419   1.000000   1.000000
    5      -12.648934    -12.648966   1.000000   1.000000
    6      -12.648082    -12.648115   1.000000   1.000000
    7      -12.304965    -12.305001   1.000000   1.000000
    8      -12.303739    -12.303775   1.000000   1.000000
    9       -0.223401     -0.223412   1.000000   1.000000
   10       -0.144384     -0.144392   1.000000   1.000000
   11        0.060053      0.060047   1.000000   1.000000
   12        0.061325      0.061319   1.000000   1.000000
   13        0.257672      0.257658   1.000000   1.000000
   14        0.397023      0.397012   1.000000   1.000000
   15        0.612760      0.612752   1.000000   1.000000
   16        0.670995      0.670985   1.000000   1.000000
   17        0.817714      0.817702   1.000000   1.000000
   18        0.833680      0.833669   1.000000   1.000000
   19        1.386358      1.386341   1.000000   1.000000
   20        1.387390      1.387373   1.000000   1.000000
   21        1.392181      1.392164   1.000000   1.000000
   22        1.468379      1.468364   1.000000   1.000000
   23        1.575084      1.575067   1.000000   1.000000
   24        1.575721      1.575704   1.000000   1.000000
   25        2.497590      2.497565   1.000000   1.000000
   26        2.498260      2.498235   1.000000   1.000000
   27        2.573519      2.573492   1.000000   1.000000
   28        2.573982      2.573955   1.000000   1.000000
   29        2.721400      2.721374   1.000000   1.000000
   30        2.723016      2.722990   1.000000   1.000000
   31        2.798251      2.798223   1.000000   1.000000
   32        2.884312      2.884285   1.000000   1.000000
   33       10.987117     10.987105   0.000000   0.000000
   34       11.001324     11.001325   0.000000   0.000000
   35       12.257910     12.257882   0.000000   0.000000
   36       12.515932     12.515934   0.000000   0.000000
   37       12.522015     12.522017   0.000000   0.000000
   38       12.857922     12.857938   0.000000   0.000000
   39       13.802781     13.802779   0.000000   0.000000
   40       13.967496     13.967513   0.000000   0.000000
   41       13.971574     13.971591   0.000000   0.000000
   42       14.408565     14.408581   0.000000   0.000000
   43       14.663810     14.663833   0.000000   0.000000
   44       14.962902     14.962905   0.000000   0.000000
   45       14.984245     14.984254   0.000000   0.000000
   46       15.159738     15.159774   0.000000   0.000000
   47       15.229177     15.229198   0.000000   0.000000
   48       15.324780     15.324795   0.000000   0.000000
   49       15.328787     15.328802   0.000000   0.000000
   50       15.556749     15.556781   0.000000   0.000000
   51       16.541917     16.541944   0.000000   0.000000
   52       17.104545     17.104978   0.000000   0.000000
 
  0.0000000E+00  0.0000000E+00  0.5000000E+00  0.1250000E+00
    1      -13.279756    -13.279785   1.000000   1.000000
    2      -13.200757    -13.200785   1.000000   1.000000
    3      -12.521400    -12.521435   1.000000   1.000000
    4      -12.492354    -12.492391   1.000000   1.000000
    5      -12.484757    -12.484793   1.000000   1.000000
    6      -12.468589    -12.468622   1.000000   1.000000
    7      -12.461229    -12.461261   1.000000   1.000000
    8      -12.452841    -12.452875   1.000000   1.000000
    9       -0.557233     -0.557240   1.000000   1.000000
   10       -0.505454     -0.505462   1.000000   1.000000
   11       -0.284611     -0.284616   1.000000   1.000000
   12       -0.280065     -0.280070   1.000000   1.000000
   13       -0.197129     -0.197132   1.000000   1.000000
   14       -0.193424     -0.193428   1.000000   1.000000
   15        0.672143      0.672127   1.000000   1.000000
   16        0.724020      0.724011   1.000000   1.000000
   17        1.298972      1.298953   1.000000   1.000000
   18        1.402730      1.402716   1.000000   1.000000
   19        1.540277      1.540261   1.000000   1.000000
   20        1.547099      1.547082   1.000000   1.000000
   21        1.581150      1.581134   1.000000   1.000000
   22        1.588703      1.588686   1.000000   1.000000
   23        2.207390      2.207364   1.000000   1.000000
   24        2.212889      2.212864   1.000000   1.000000
   25        2.257292      2.257269   1.000000   1.000000
   26        2.264838      2.264815   1.000000   1.000000
   27        2.454263      2.454237   1.000000   1.000000
   28        2.577083      2.577061   1.000000   1.000000
   29        2.972378      2.972348   1.000000   1.000000
   30        2.976226      2.976197   1.000000   1.000000
   31        3.023569      3.023540   1.000000   1.000000
   32        3.024681      3.024651   1.000000   1.000000
   33       10.075824     10.075827   0.000000   0.000000
   34       10.383205     10.383207   0.000000   0.000000
   35       12.084247     12.084224   0.000000   0.000000
   36       12.332159     12.332170   0.000000   0.000000
   37       12.340497     12.340509   0.000000   0.000000
   38       13.073912     13.073934   0.000000   0.000000
   39       13.241250     13.241273   0.000000   0.000000
   40       13.245647     13.245670   0.000000   0.000000
   41       14.088410     14.088415   0.000000   0.000000
   42       14.099003     14.099009   0.000000   0.000000
   43       14.403265     14.403287   0.000000   0.000000
   44       14.583650     14.583654   0.000000   0.000000
   45       15.107027     15.107033   0.000000   0.000000
   46       15.116944     15.116950   0.000000   0.000000
   47       15.372602     15.372625   0.000000   0.000000
   48       16.015600     16.015621   0.000000   0.000000
   49       16.030590     16.030612   0.000000   0.000000
   50       16.082470     16.082492   0.000000   0.000000
   51       16.432921     16.428413   0.000000   0.000000
   52       16.505546     16.469890   0.000000   0.000000
 
  0.5000000E+00  0.0000000E+00  0.5000000E+00  0.1250000E+00
    1      -13.094091    -13.094120   1.000000   1.000000
    2      -13.087477    -13.087507   1.000000   1.000000
    3      -12.665876    -12.665909   1.000000   1.000000
    4      -12.655879    -12.655911   1.000000   1.000000
    5      -12.649557    -12.649590   1.000000   1.000000
    6      -12.647340    -12.647372   1.000000   1.000000
    7      -12.304675    -12.304711   1.000000   1.000000
    8      -12.303956    -12.303992   1.000000   1.000000
    9       -0.223517     -0.223528   1.000000   1.000000
   10       -0.143786     -0.143793   1.000000   1.000000
   11        0.060175      0.060169   1.000000   1.000000
   12        0.060635      0.060629   1.000000   1.000000
   13        0.256751      0.256737   1.000000   1.000000
   14        0.398222      0.398211   1.000000   1.000000
   15        0.614616      0.614608   1.000000   1.000000
   16        0.668955      0.668945   1.000000   1.000000
   17        0.817717      0.817705   1.000000   1.000000
   18        0.833764      0.833753   1.000000   1.000000
   19        1.383062      1.383044   1.000000   1.000000
   20        1.388114      1.388097   1.000000   1.000000
   21        1.394547      1.394530   1.000000   1.000000
   22        1.467032      1.467018   1.000000   1.000000
   23        1.573850      1.573833   1.000000   1.000000
   24        1.577591      1.577574   1.000000   1.000000
   25        2.497477      2.497451   1.000000   1.000000
   26        2.498029      2.498004   1.000000   1.000000
   27        2.572105      2.572078   1.000000   1.000000
   28        2.576831      2.576804   1.000000   1.000000
   29        2.720889      2.720864   1.000000   1.000000
   30        2.723265      2.723239   1.000000   1.000000
   31        2.798398      2.798371   1.000000   1.000000
   32        2.884409      2.884381   1.000000   1.000000
   33       10.986740     10.986729   0.000000   0.000000
   34       11.001777     11.001777   0.000000   0.000000
   35       12.257702     12.257674   0.000000   0.000000
   36       12.513695     12.513696   0.000000   0.000000
   37       12.523318     12.523320   0.000000   0.000000
   38       12.859987     12.860003   0.000000   0.000000
   39       13.800513     13.800512   0.000000   0.000000
   40       13.964557     13.964573   0.000000   0.000000
   41       13.968218     13.968235   0.000000   0.000000
   42       14.412605     14.412621   0.000000   0.000000
   43       14.666895     14.666919   0.000000   0.000000
   44       14.963940     14.963942   0.000000   0.000000
   45       14.984399     14.984408   0.000000   0.000000
   46       15.164084     15.164121   0.000000   0.000000
   47       15.228713     15.228734   0.000000   0.000000
   48       15.323862     15.323876   0.000000   0.000000
   49       15.329779     15.329794   0.000000   0.000000
   50       15.552364     15.552396   0.000000   0.000000
   51       16.534734     16.534761   0.000000   0.000000
   52       17.107150     17.106047   0.000000   0.000000
 
  0.0000000E+00  0.5000000E+00  0.5000000E+00  0.1250000E+00
    1      -13.094141    -13.094170   1.000000   1.000000
    2      -13.087392    -13.087422   1.000000   1.000000
    3      -12.665727    -12.665760   1.000000   1.000000
    4      -12.656316    -12.656349   1.000000   1.000000
    5      -12.649049    -12.649082   1.000000   1.000000
    6      -12.647629    -12.647662   1.000000   1.000000
    7      -12.304433    -12.304469   1.000000   1.000000
    8      -12.304162    -12.304197   1.000000   1.000000
    9       -0.223284     -0.223295   1.000000   1.000000
   10       -0.143632     -0.143640   1.000000   1.000000
   11        0.060268      0.060262   1.000000   1.000000
   12        0.060482      0.060475   1.000000   1.000000
   13        0.256518      0.256504   1.000000   1.000000
   14        0.398183      0.398172   1.000000   1.000000
   15        0.614537      0.614529   1.000000   1.000000
   16        0.668612      0.668602   1.000000   1.000000
   17        0.817713      0.817701   1.000000   1.000000
   18        0.833699      0.833687   1.000000   1.000000
   19        1.382995      1.382978   1.000000   1.000000
   20        1.388942      1.388925   1.000000   1.000000
   21        1.393836      1.393820   1.000000   1.000000
   22        1.467216      1.467201   1.000000   1.000000
   23        1.574078      1.574061   1.000000   1.000000
   24        1.576604      1.576587   1.000000   1.000000
   25        2.496696      2.496671   1.000000   1.000000
   26        2.499122      2.499097   1.000000   1.000000
   27        2.573182      2.573155   1.000000   1.000000
   28        2.576901      2.576874   1.000000   1.000000
   29        2.722870      2.722844   1.000000   1.000000
   30        2.723175      2.723149   1.000000   1.000000
   31        2.796418      2.796390   1.000000   1.000000
   32        2.884195      2.884168   1.000000   1.000000
   33       10.986472     10.986461   0.000000   0.000000
   34       11.001957     11.001957   0.000000   0.000000
   35       12.258982     12.258955   0.000000   0.000000
   36       12.514647     12.514649   0.000000   0.000000
   37       12.522453     12.522454   0.000000   0.000000
   38       12.859517     12.859534   0.000000   0.000000
   39       13.799318     13.799317   0.000000   0.000000
   40       13.964412     13.964429   0.000000   0.000000
   41       13.968356     13.968372   0.000000   0.000000
   42       14.412508     14.412523   0.000000   0.000000
   43       14.667308     14.667331   0.000000   0.000000
   44       14.960900     14.960902   0.000000   0.000000
   45       14.985048     14.985057   0.000000   0.000000
   46       15.165864     15.165900   0.000000   0.000000
   47       15.232071     15.232093   0.000000   0.000000
   48       15.323671     15.323686   0.000000   0.000000
   49       15.329169     15.329185   0.000000   0.000000
   50       15.548507     15.548539   0.000000   0.000000
   51       16.534874     16.534902   0.000000   0.000000
   52       17.105235     17.110275   0.000000   0.000000
 
  0.5000000E+00  0.5000000E+00  0.5000000E+00  0.1250000E+00
    1      -13.278565    -13.278593   1.000000   1.000000
    2      -13.202062    -13.202090   1.000000   1.000000
    3      -12.523911    -12.523946   1.000000   1.000000
    4      -12.485334    -12.485370   1.000000   1.000000
    5      -12.480382    -12.480418   1.000000   1.000000
    6      -12.470317    -12.470350   1.000000   1.000000
    7      -12.468613    -12.468645   1.000000   1.000000
    8      -12.452508    -12.452541   1.000000   1.000000
    9       -0.551962     -0.551970   1.000000   1.000000
   10       -0.508189     -0.508197   1.000000   1.000000
   11       -0.285293     -0.285298   1.000000   1.000000
   12       -0.284804     -0.284809   1.000000   1.000000
   13       -0.193706     -0.193708   1.000000   1.000000
   14       -0.191512     -0.191516   1.000000   1.000000
   15        0.673059      0.673043   1.000000   1.000000
   16        0.720844      0.720835   1.000000   1.000000
   17        1.293301      1.293282   1.000000   1.000000
   18        1.404756      1.404741   1.000000   1.000000
   19        1.535818      1.535801   1.000000   1.000000
   20        1.543607      1.543589   1.000000   1.000000
   21        1.585212      1.585195   1.000000   1.000000
   22        1.590985      1.590967   1.000000   1.000000
   23        2.201301      2.201275   1.000000   1.000000
   24        2.206281      2.206255   1.000000   1.000000
   25        2.263939      2.263916   1.000000   1.000000
   26        2.274168      2.274145   1.000000   1.000000
   27        2.463222      2.463196   1.000000   1.000000
   28        2.570312      2.570290   1.000000   1.000000
   29        2.964483      2.964453   1.000000   1.000000
   30        2.968552      2.968523   1.000000   1.000000
   31        3.030540      3.030511   1.000000   1.000000
   32        3.033408      3.033378   1.000000   1.000000
   33       10.072237     10.072240   0.000000   0.000000
   34       10.389297     10.389299   0.000000   0.000000
   35       12.084521     12.084498   0.000000   0.000000
   36       12.331679     12.331691   0.000000   0.000000
   37       12.336563     12.336574   0.000000   0.000000
   38       13.079594     13.079616   0.000000   0.000000
   39       13.243065     13.243088   0.000000   0.000000
   40       13.254165     13.254188   0.000000   0.000000
   41       14.064657     14.064662   0.000000   0.000000
   42       14.088968     14.088974   0.000000   0.000000
   43       14.415348     14.415368   0.000000   0.000000
   44       14.571837     14.571842   0.000000   0.000000
   45       15.115558     15.115564   0.000000   0.000000
   46       15.133432     15.133438   0.000000   0.000000
   47       15.371372     15.371396   0.000000   0.000000
   48       16.010098     16.010119   0.000000   0.000000
   49       16.041107     16.041129   0.000000   0.000000
   50       16.072701     16.072722   0.000000   0.000000
   51       16.408777     16.405794   0.000000   0.000000
   52       16.451238     16.437519   0.000000   0.000000
