   17   17   20    2
  0.9011457E+01  0.6006014E-09  0.6006014E-09  0.6006014E-09  0.5000000E-15
  1.000000000000000E-004
  CAR 
 unknown system                          
     64     16     52
 
  0.2500000E+00  0.2500000E+00  0.2500000E+00  0.6250000E-01
    1      -13.648149    -13.648177   1.000000   1.000000
    2      -12.808993    -12.809027   1.000000   1.000000
    3      -12.590983    -12.591020   1.000000   1.000000
    4      -12.570967    -12.571004   1.000000   1.000000
    5      -12.568924    -12.568961   1.000000   1.000000
    6      -12.401413    -12.401451   1.000000   1.000000
    7      -12.400443    -12.400481   1.000000   1.000000
    8      -12.398535    -12.398573   1.000000   1.000000
    9       -1.053585     -1.053589   1.000000   1.000000
   10       -0.785584     -0.785584   1.000000   1.000000
   11       -0.783747     -0.783747   1.000000   1.000000
   12       -0.608754     -0.608761   1.000000   1.000000
   13       -0.569260     -0.569263   1.000000   1.000000
   14       -0.271629     -0.271632   1.000000   1.000000
   15       -0.270885     -0.270888   1.000000   1.000000
   16        1.469180      1.469159   1.000000   1.000000
   17        1.663649      1.663628   1.000000   1.000000
   18        1.667276      1.667255   1.000000   1.000000
   19        1.976682      1.976656   1.000000   1.000000
   20        2.051921      2.051895   1.000000   1.000000
   21        2.052862      2.052836   1.000000   1.000000
   22        2.261149      2.261122   1.000000   1.000000
   23        2.264498      2.264472   1.000000   1.000000
   24        2.268650      2.268623   1.000000   1.000000
   25        2.366668      2.366642   1.000000   1.000000
   26        2.463929      2.463900   1.000000   1.000000
   27        2.465543      2.465513   1.000000   1.000000
   28        2.761554      2.761523   1.000000   1.000000
   29        2.847252      2.847219   1.000000   1.000000
   30        2.847934      2.847901   1.000000   1.000000
   31        3.176192      3.176156   1.000000   1.000000
   32        3.176583      3.176547   1.000000   1.000000
   33        8.775461      8.775486   0.000000   0.000000
   34       10.877382     10.877400   0.000000   0.000000
   35       11.454055     11.454081   0.000000   0.000000
   36       11.737427     11.737468   0.000000   0.000000
   37       11.745834     11.745875   0.000000   0.000000
   38       12.654343     12.654383   0.000000   0.000000
   39       12.687308     12.687352   0.000000   0.000000
   40       12.695786     12.695829   0.000000   0.000000
   41       13.233114     13.233161   0.000000   0.000000
   42       13.240414     13.240461   0.000000   0.000000
   43       13.751497     13.751544   0.000000   0.000000
   44       15.354892     15.354914   0.000000   0.000000
   45       15.577797     15.577818   0.000000   0.000000
   46       15.584968     15.584990   0.000000   0.000000
   47       15.604834     15.604860   0.000000   0.000000
   48       16.143387     16.143419   0.000000   0.000000
   49       16.183461     16.183486   0.000000   0.000000
   50       16.190234     16.190259   0.000000   0.000000
   51       17.437815     17.435553   0.000000   0.000000
   52       17.442741     17.440565   0.000000   0.000000
 
  0.2500000E+00  0.0000000E+00  0.0000000E+00  0.6250000E-01
    1      -13.648169    -13.648197   1.000000   1.000000
    2      -12.808838    -12.808872   1.000000   1.000000
    3      -12.591577    -12.591614   1.000000   1.000000
    4      -12.570627    -12.570665   1.000000   1.000000
    5      -12.568909    -12.568947   1.000000   1.000000
    6      -12.402060    -12.402098   1.000000   1.000000
    7      -12.399835    -12.399873   1.000000   1.000000
    8      -12.398387    -12.398424   1.000000   1.000000
    9       -1.053622     -1.053626   1.000000   1.000000
   10       -0.785786     -0.785786   1.000000   1.000000
   11       -0.783910     -0.783910   1.000000   1.000000
   12       -0.608744     -0.608751   1.000000   1.000000
   13       -0.568895     -0.568897   1.000000   1.000000
   14       -0.271936     -0.271939   1.000000   1.000000
   15       -0.270761     -0.270765   1.000000   1.000000
   16        1.468860      1.468840   1.000000   1.000000
   17        1.665058      1.665037   1.000000   1.000000
   18        1.666867      1.666846   1.000000   1.000000
   19        1.976440      1.976415   1.000000   1.000000
   20        2.051583      2.051558   1.000000   1.000000
   21        2.053370      2.053344   1.000000   1.000000
   22        2.260652      2.260625   1.000000   1.000000
   23        2.264012      2.263985   1.000000   1.000000
   24        2.269420      2.269393   1.000000   1.000000
   25        2.367126      2.367101   1.000000   1.000000
   26        2.462839      2.462810   1.000000   1.000000
   27        2.466986      2.466957   1.000000   1.000000
   28        2.762105      2.762073   1.000000   1.000000
   29        2.846756      2.846723   1.000000   1.000000
   30        2.847668      2.847634   1.000000   1.000000
   31        3.175673      3.175636   1.000000   1.000000
   32        3.176192      3.176156   1.000000   1.000000
   33        8.775518      8.775544   0.000000   0.000000
   34       10.877135     10.877152   0.000000   0.000000
   35       11.453800     11.453826   0.000000   0.000000
   36       11.739590     11.739630   0.000000   0.000000
   37       11.744131     11.744172   0.000000   0.000000
   38       12.651175     12.651215   0.000000   0.000000
   39       12.687591     12.687634   0.000000   0.000000
   40       12.695943     12.695986   0.000000   0.000000
   41       13.235715     13.235762   0.000000   0.000000
   42       13.241571     13.241619   0.000000   0.000000
   43       13.751693     13.751740   0.000000   0.000000
   44       15.354684     15.354706   0.000000   0.000000
   45       15.578849     15.578870   0.000000   0.000000
   46       15.580718     15.580739   0.000000   0.000000
   47       15.604842     15.604868   0.000000   0.000000
   48       16.146596     16.146627   0.000000   0.000000
   49       16.185703     16.185728   0.000000   0.000000
   50       16.188454     16.188480   0.000000   0.000000
   51       17.438277     17.435909   0.000000   0.000000
   52       17.480626     17.447622   0.000000   0.000000
 
  0.0000000E+00  0.0000000E+00 -0.2500000E+00  0.6250000E-01
    1      -13.648171    -13.648198   1.000000   1.000000
    2      -12.808958    -12.808993   1.000000   1.000000
    3      -12.590449    -12.590486   1.000000   1.000000
    4      -12.571293    -12.571330   1.000000   1.000000
    5      -12.569211    -12.569249   1.000000   1.000000
    6      -12.401153    -12.401190   1.000000   1.000000
    7      -12.400521    -12.400559   1.000000   1.000000
    8      -12.398647    -12.398685   1.000000   1.000000
    9       -1.054012     -1.054016   1.000000   1.000000
   10       -0.785067     -0.785067   1.000000   1.000000
   11       -0.783826     -0.783826   1.000000   1.000000
   12       -0.609362     -0.609368   1.000000   1.000000
   13       -0.568858     -0.568860   1.000000   1.000000
   14       -0.271749     -0.271752   1.000000   1.000000
   15       -0.270716     -0.270720   1.000000   1.000000
   16        1.469622      1.469602   1.000000   1.000000
   17        1.664920      1.664899   1.000000   1.000000
   18        1.666710      1.666689   1.000000   1.000000
   19        1.977580      1.977555   1.000000   1.000000
   20        2.051646      2.051621   1.000000   1.000000
   21        2.052716      2.052690   1.000000   1.000000
   22        2.262571      2.262544   1.000000   1.000000
   23        2.264757      2.264730   1.000000   1.000000
   24        2.266680      2.266653   1.000000   1.000000
   25        2.366920      2.366895   1.000000   1.000000
   26        2.463419      2.463390   1.000000   1.000000
   27        2.464298      2.464269   1.000000   1.000000
   28        2.761731      2.761700   1.000000   1.000000
   29        2.847448      2.847414   1.000000   1.000000
   30        2.848274      2.848241   1.000000   1.000000
   31        3.175873      3.175836   1.000000   1.000000
   32        3.176295      3.176259   1.000000   1.000000
   33        8.775540      8.775566   0.000000   0.000000
   34       10.876710     10.876728   0.000000   0.000000
   35       11.454994     11.455020   0.000000   0.000000
   36       11.735160     11.735201   0.000000   0.000000
   37       11.746936     11.746977   0.000000   0.000000
   38       12.651753     12.651792   0.000000   0.000000
   39       12.683628     12.683671   0.000000   0.000000
   40       12.700611     12.700654   0.000000   0.000000
   41       13.235817     13.235864   0.000000   0.000000
   42       13.241697     13.241745   0.000000   0.000000
   43       13.751769     13.751816   0.000000   0.000000
   44       15.355200     15.355222   0.000000   0.000000
   45       15.577290     15.577311   0.000000   0.000000
   46       15.581565     15.581586   0.000000   0.000000
   47       15.603446     15.603472   0.000000   0.000000
   48       16.147362     16.147394   0.000000   0.000000
   49       16.185322     16.185347   0.000000   0.000000
   50       16.188947     16.188972   0.000000   0.000000
   51       17.436335     17.434889   0.000000   0.000000
   52       17.446927     17.473129   0.000000   0.000000
 
  0.0000000E+00  0.2500000E+00  0.0000000E+00  0.6250000E-01
    1      -13.648160    -13.648188   1.000000   1.000000
    2      -12.809068    -12.809102   1.000000   1.000000
    3      -12.589137    -12.589174   1.000000   1.000000
    4      -12.571324    -12.571361   1.000000   1.000000
    5      -12.570431    -12.570468   1.000000   1.000000
    6      -12.401121    -12.401159   1.000000   1.000000
    7      -12.399913    -12.399951   1.000000   1.000000
    8      -12.399254    -12.399292   1.000000   1.000000
    9       -1.054194     -1.054198   1.000000   1.000000
   10       -0.784582     -0.784582   1.000000   1.000000
   11       -0.783873     -0.783873   1.000000   1.000000
   12       -0.608945     -0.608952   1.000000   1.000000
   13       -0.569495     -0.569497   1.000000   1.000000
   14       -0.271395     -0.271398   1.000000   1.000000
   15       -0.270945     -0.270948   1.000000   1.000000
   16        1.470173      1.470153   1.000000   1.000000
   17        1.664804      1.664783   1.000000   1.000000
   18        1.666200      1.666179   1.000000   1.000000
   19        1.978248      1.978223   1.000000   1.000000
   20        2.052229      2.052203   1.000000   1.000000
   21        2.052769      2.052743   1.000000   1.000000
   22        2.260953      2.260926   1.000000   1.000000
   23        2.263130      2.263103   1.000000   1.000000
   24        2.268794      2.268767   1.000000   1.000000
   25        2.366826      2.366801   1.000000   1.000000
   26        2.461960      2.461931   1.000000   1.000000
   27        2.465022      2.464993   1.000000   1.000000
   28        2.761221      2.761190   1.000000   1.000000
   29        2.847488      2.847455   1.000000   1.000000
   30        2.848957      2.848924   1.000000   1.000000
   31        3.175701      3.175665   1.000000   1.000000
   32        3.176633      3.176597   1.000000   1.000000
   33        8.775675      8.775701   0.000000   0.000000
   34       10.877295     10.877312   0.000000   0.000000
   35       11.454814     11.454841   0.000000   0.000000
   36       11.739232     11.739273   0.000000   0.000000
   37       11.743025     11.743066   0.000000   0.000000
   38       12.652162     12.652201   0.000000   0.000000
   39       12.689555     12.689598   0.000000   0.000000
   40       12.695019     12.695062   0.000000   0.000000
   41       13.233464     13.233511   0.000000   0.000000
   42       13.242524     13.242571   0.000000   0.000000
   43       13.751655     13.751702   0.000000   0.000000
   44       15.355109     15.355131   0.000000   0.000000
   45       15.579269     15.579290   0.000000   0.000000
   46       15.580528     15.580549   0.000000   0.000000
   47       15.603830     15.603856   0.000000   0.000000
   48       16.145849     16.145881   0.000000   0.000000
   49       16.185066     16.185091   0.000000   0.000000
   50       16.189079     16.189104   0.000000   0.000000
   51       17.437354     17.436834   0.000000   0.000000
   52       17.469659     17.444181   0.000000   0.000000
 
 -0.2500000E+00  0.2500000E+00  0.2500000E+00  0.6250000E-01
    1      -13.293513    -13.293544   1.000000   1.000000
    2      -13.002104    -13.002137   1.000000   1.000000
    3      -12.773466    -12.773501   1.000000   1.000000
    4      -12.620675    -12.620710   1.000000   1.000000
    5      -12.610774    -12.610810   1.000000   1.000000
    6      -12.451401    -12.451439   1.000000   1.000000
    7      -12.368073    -12.368111   1.000000   1.000000
    8      -12.365425    -12.365462   1.000000   1.000000
    9       -0.447250     -0.447258   1.000000   1.000000
   10       -0.225996     -0.226003   1.000000   1.000000
   11       -0.221009     -0.221016   1.000000   1.000000
   12       -0.157982     -0.157986   1.000000   1.000000
   13        0.075954      0.075949   1.000000   1.000000
   14        0.144664      0.144657   1.000000   1.000000
   15        0.238709      0.238701   1.000000   1.000000
   16        0.766202      0.766188   1.000000   1.000000
   17        1.030398      1.030383   1.000000   1.000000
   18        1.057392      1.057379   1.000000   1.000000
   19        1.163517      1.163503   1.000000   1.000000
   20        1.642322      1.642302   1.000000   1.000000
   21        1.664738      1.664718   1.000000   1.000000
   22        1.840554      1.840530   1.000000   1.000000
   23        1.958830      1.958806   1.000000   1.000000
   24        2.163335      2.163309   1.000000   1.000000
   25        2.234158      2.234132   1.000000   1.000000
   26        2.407158      2.407129   1.000000   1.000000
   27        2.439718      2.439691   1.000000   1.000000
   28        2.518007      2.517978   1.000000   1.000000
   29        2.627167      2.627137   1.000000   1.000000
   30        2.853330      2.853297   1.000000   1.000000
   31        2.856668      2.856636   1.000000   1.000000
   32        2.946162      2.946128   1.000000   1.000000
   33       10.283891     10.283908   0.000000   0.000000
   34       11.113067     11.113081   0.000000   0.000000
   35       11.875563     11.875577   0.000000   0.000000
   36       12.436118     12.436144   0.000000   0.000000
   37       12.458983     12.458993   0.000000   0.000000
   38       12.989222     12.989258   0.000000   0.000000
   39       13.622095     13.622133   0.000000   0.000000
   40       13.689320     13.689359   0.000000   0.000000
   41       14.003341     14.003372   0.000000   0.000000
   42       14.093378     14.093418   0.000000   0.000000
   43       14.234863     14.234896   0.000000   0.000000
   44       14.735620     14.735655   0.000000   0.000000
   45       15.156687     15.156731   0.000000   0.000000
   46       15.172393     15.172427   0.000000   0.000000
   47       15.369014     15.369052   0.000000   0.000000
   48       15.558895     15.558931   0.000000   0.000000
   49       15.681479     15.681520   0.000000   0.000000
   50       15.776601     15.776646   0.000000   0.000000
   51       16.426747     16.426793   0.000000   0.000000
   52       16.904931     16.909425   0.000000   0.000000
 
  0.2500000E+00 -0.2500000E+00  0.2500000E+00  0.6250000E-01
    1      -13.293468    -13.293499   1.000000   1.000000
    2      -13.002362    -13.002395   1.000000   1.000000
    3      -12.773152    -12.773187   1.000000   1.000000
    4      -12.618973    -12.619009   1.000000   1.000000
    5      -12.612438    -12.612474   1.000000   1.000000
    6      -12.451719    -12.451758   1.000000   1.000000
    7      -12.367244    -12.367282   1.000000   1.000000
    8      -12.366081    -12.366119   1.000000   1.000000
    9       -0.448238     -0.448246   1.000000   1.000000
   10       -0.227842     -0.227847   1.000000   1.000000
   11       -0.219721     -0.219730   1.000000   1.000000
   12       -0.156659     -0.156663   1.000000   1.000000
   13        0.077104      0.077099   1.000000   1.000000
   14        0.144486      0.144479   1.000000   1.000000
   15        0.238931      0.238923   1.000000   1.000000
   16        0.767574      0.767560   1.000000   1.000000
   17        1.029105      1.029091   1.000000   1.000000
   18        1.056669      1.056656   1.000000   1.000000
   19        1.163774      1.163761   1.000000   1.000000
   20        1.642255      1.642235   1.000000   1.000000
   21        1.664714      1.664694   1.000000   1.000000
   22        1.841499      1.841475   1.000000   1.000000
   23        1.957813      1.957788   1.000000   1.000000
   24        2.164002      2.163975   1.000000   1.000000
   25        2.234285      2.234259   1.000000   1.000000
   26        2.404660      2.404631   1.000000   1.000000
   27        2.439401      2.439374   1.000000   1.000000
   28        2.519414      2.519385   1.000000   1.000000
   29        2.625713      2.625682   1.000000   1.000000
   30        2.853034      2.853001   1.000000   1.000000
   31        2.857435      2.857403   1.000000   1.000000
   32        2.946954      2.946920   1.000000   1.000000
   33       10.284513     10.284530   0.000000   0.000000
   34       11.113300     11.113314   0.000000   0.000000
   35       11.874769     11.874784   0.000000   0.000000
   36       12.435763     12.435789   0.000000   0.000000
   37       12.454909     12.454920   0.000000   0.000000
   38       12.994465     12.994502   0.000000   0.000000
   39       13.616459     13.616497   0.000000   0.000000
   40       13.695778     13.695817   0.000000   0.000000
   41       14.014251     14.014282   0.000000   0.000000
   42       14.097410     14.097450   0.000000   0.000000
   43       14.223266     14.223298   0.000000   0.000000
   44       14.733039     14.733074   0.000000   0.000000
   45       15.156120     15.156166   0.000000   0.000000
   46       15.182184     15.182215   0.000000   0.000000
   47       15.360525     15.360563   0.000000   0.000000
   48       15.546040     15.546076   0.000000   0.000000
   49       15.677962     15.678004   0.000000   0.000000
   50       15.789889     15.789934   0.000000   0.000000
   51       16.419007     16.419053   0.000000   0.000000
   52       16.910797     16.901092   0.000000   0.000000
 
  0.2500000E+00  0.2500000E+00 -0.2500000E+00  0.6250000E-01
    1      -13.293553    -13.293584   1.000000   1.000000
    2      -13.002194    -13.002226   1.000000   1.000000
    3      -12.773471    -12.773506   1.000000   1.000000
    4      -12.619473    -12.619509   1.000000   1.000000
    5      -12.611641    -12.611677   1.000000   1.000000
    6      -12.451542    -12.451580   1.000000   1.000000
    7      -12.367102    -12.367139   1.000000   1.000000
    8      -12.366455    -12.366492   1.000000   1.000000
    9       -0.448099     -0.448107   1.000000   1.000000
   10       -0.225840     -0.225847   1.000000   1.000000
   11       -0.222687     -0.222695   1.000000   1.000000
   12       -0.156362     -0.156366   1.000000   1.000000
   13        0.076568      0.076562   1.000000   1.000000
   14        0.144622      0.144616   1.000000   1.000000
   15        0.239245      0.239237   1.000000   1.000000
   16        0.767009      0.766995   1.000000   1.000000
   17        1.030149      1.030134   1.000000   1.000000
   18        1.057070      1.057057   1.000000   1.000000
   19        1.163537      1.163523   1.000000   1.000000
   20        1.642940      1.642920   1.000000   1.000000
   21        1.664575      1.664555   1.000000   1.000000
   22        1.841351      1.841327   1.000000   1.000000
   23        1.959132      1.959108   1.000000   1.000000
   24        2.164046      2.164020   1.000000   1.000000
   25        2.233403      2.233377   1.000000   1.000000
   26        2.405991      2.405961   1.000000   1.000000
   27        2.438014      2.437987   1.000000   1.000000
   28        2.518321      2.518293   1.000000   1.000000
   29        2.626568      2.626538   1.000000   1.000000
   30        2.853426      2.853393   1.000000   1.000000
   31        2.856929      2.856897   1.000000   1.000000
   32        2.946499      2.946465   1.000000   1.000000
   33       10.284315     10.284332   0.000000   0.000000
   34       11.112048     11.112062   0.000000   0.000000
   35       11.873470     11.873485   0.000000   0.000000
   36       12.437120     12.437146   0.000000   0.000000
   37       12.457451     12.457461   0.000000   0.000000
   38       12.991781     12.991817   0.000000   0.000000
   39       13.620634     13.620673   0.000000   0.000000
   40       13.694687     13.694727   0.000000   0.000000
   41       14.004967     14.004998   0.000000   0.000000
   42       14.095486     14.095525   0.000000   0.000000
   43       14.232465     14.232498   0.000000   0.000000
   44       14.733628     14.733663   0.000000   0.000000
   45       15.156557     15.156601   0.000000   0.000000
   46       15.176763     15.176796   0.000000   0.000000
   47       15.360203     15.360241   0.000000   0.000000
   48       15.552969     15.553005   0.000000   0.000000
   49       15.680387     15.680429   0.000000   0.000000
   50       15.787541     15.787586   0.000000   0.000000
   51       16.424090     16.424137   0.000000   0.000000
   52       16.890480     16.899532   0.000000   0.000000
 
  0.2500000E+00  0.0000000E+00  0.5000000E+00  0.6250000E-01
    1      -13.293500    -13.293530   1.000000   1.000000
    2      -13.002330    -13.002363   1.000000   1.000000
    3      -12.772984    -12.773019   1.000000   1.000000
    4      -12.620408    -12.620443   1.000000   1.000000
    5      -12.611252    -12.611289   1.000000   1.000000
    6      -12.451519    -12.451558   1.000000   1.000000
    7      -12.367744    -12.367781   1.000000   1.000000
    8      -12.365684    -12.365722   1.000000   1.000000
    9       -0.447823     -0.447831   1.000000   1.000000
   10       -0.226106     -0.226110   1.000000   1.000000
   11       -0.221198     -0.221207   1.000000   1.000000
   12       -0.157767     -0.157772   1.000000   1.000000
   13        0.076939      0.076933   1.000000   1.000000
   14        0.144380      0.144373   1.000000   1.000000
   15        0.239302      0.239294   1.000000   1.000000
   16        0.766968      0.766954   1.000000   1.000000
   17        1.030209      1.030195   1.000000   1.000000
   18        1.057202      1.057189   1.000000   1.000000
   19        1.162917      1.162903   1.000000   1.000000
   20        1.642943      1.642922   1.000000   1.000000
   21        1.664029      1.664009   1.000000   1.000000
   22        1.840446      1.840422   1.000000   1.000000
   23        1.958542      1.958517   1.000000   1.000000
   24        2.164272      2.164245   1.000000   1.000000
   25        2.234024      2.233999   1.000000   1.000000
   26        2.405700      2.405670   1.000000   1.000000
   27        2.439080      2.439053   1.000000   1.000000
   28        2.519087      2.519058   1.000000   1.000000
   29        2.626913      2.626883   1.000000   1.000000
   30        2.853833      2.853801   1.000000   1.000000
   31        2.856069      2.856036   1.000000   1.000000
   32        2.946502      2.946467   1.000000   1.000000
   33       10.284143     10.284160   0.000000   0.000000
   34       11.113346     11.113360   0.000000   0.000000
   35       11.871969     11.871984   0.000000   0.000000
   36       12.439720     12.439746   0.000000   0.000000
   37       12.456386     12.456396   0.000000   0.000000
   38       12.992764     12.992800   0.000000   0.000000
   39       13.615970     13.616008   0.000000   0.000000
   40       13.695764     13.695804   0.000000   0.000000
   41       14.009661     14.009692   0.000000   0.000000
   42       14.097871     14.097911   0.000000   0.000000
   43       14.224732     14.224765   0.000000   0.000000
   44       14.733309     14.733344   0.000000   0.000000
   45       15.155315     15.155359   0.000000   0.000000
   46       15.182966     15.182999   0.000000   0.000000
   47       15.362485     15.362523   0.000000   0.000000
   48       15.549173     15.549208   0.000000   0.000000
   49       15.678519     15.678560   0.000000   0.000000
   50       15.787369     15.787414   0.000000   0.000000
   51       16.422718     16.422764   0.000000   0.000000
   52       16.911167     16.908392   0.000000   0.000000
 
 -0.2500000E+00  0.5000000E+00  0.5000000E+00  0.6250000E-01
    1      -13.293383    -13.293414   1.000000   1.000000
    2      -13.002470    -13.002503   1.000000   1.000000
    3      -12.773065    -12.773101   1.000000   1.000000
    4      -12.620658    -12.620694   1.000000   1.000000
    5      -12.610765    -12.610802   1.000000   1.000000
    6      -12.451761    -12.451799   1.000000   1.000000
    7      -12.367839    -12.367877   1.000000   1.000000
    8      -12.365477    -12.365515   1.000000   1.000000
    9       -0.447268     -0.447276   1.000000   1.000000
   10       -0.227154     -0.227158   1.000000   1.000000
   11       -0.219236     -0.219245   1.000000   1.000000
   12       -0.158405     -0.158409   1.000000   1.000000
   13        0.076546      0.076541   1.000000   1.000000
   14        0.144443      0.144437   1.000000   1.000000
   15        0.238934      0.238926   1.000000   1.000000
   16        0.766334      0.766319   1.000000   1.000000
   17        1.029256      1.029241   1.000000   1.000000
   18        1.057325      1.057311   1.000000   1.000000
   19        1.163304      1.163290   1.000000   1.000000
   20        1.642627      1.642607   1.000000   1.000000
   21        1.664223      1.664203   1.000000   1.000000
   22        1.840547      1.840523   1.000000   1.000000
   23        1.958359      1.958335   1.000000   1.000000
   24        2.163498      2.163472   1.000000   1.000000
   25        2.234338      2.234311   1.000000   1.000000
   26        2.406649      2.406619   1.000000   1.000000
   27        2.440227      2.440200   1.000000   1.000000
   28        2.518837      2.518809   1.000000   1.000000
   29        2.626642      2.626612   1.000000   1.000000
   30        2.853790      2.853758   1.000000   1.000000
   31        2.856147      2.856115   1.000000   1.000000
   32        2.946763      2.946729   1.000000   1.000000
   33       10.283664     10.283681   0.000000   0.000000
   34       11.114924     11.114938   0.000000   0.000000
   35       11.872816     11.872831   0.000000   0.000000
   36       12.437895     12.437921   0.000000   0.000000
   37       12.454242     12.454253   0.000000   0.000000
   38       12.994470     12.994507   0.000000   0.000000
   39       13.616582     13.616621   0.000000   0.000000
   40       13.695257     13.695297   0.000000   0.000000
   41       14.014218     14.014248   0.000000   0.000000
   42       14.096629     14.096669   0.000000   0.000000
   43       14.220322     14.220354   0.000000   0.000000
   44       14.732436     14.732471   0.000000   0.000000
   45       15.155772     15.155818   0.000000   0.000000
   46       15.186108     15.186140   0.000000   0.000000
   47       15.363147     15.363185   0.000000   0.000000
   48       15.545288     15.545324   0.000000   0.000000
   49       15.676779     15.676821   0.000000   0.000000
   50       15.788067     15.788112   0.000000   0.000000
   51       16.420357     16.420403   0.000000   0.000000
   52       16.903345     16.912762   0.000000   0.000000
 
  0.2500000E+00  0.5000000E+00  0.0000000E+00  0.6250000E-01
    1      -13.293473    -13.293504   1.000000   1.000000
    2      -13.002410    -13.002443   1.000000   1.000000
    3      -12.773107    -12.773142   1.000000   1.000000
    4      -12.619409    -12.619445   1.000000   1.000000
    5      -12.612187    -12.612223   1.000000   1.000000
    6      -12.450973    -12.451011   1.000000   1.000000
    7      -12.367297    -12.367335   1.000000   1.000000
    8      -12.366566    -12.366604   1.000000   1.000000
    9       -0.448413     -0.448421   1.000000   1.000000
   10       -0.229187     -0.229195   1.000000   1.000000
   11       -0.218667     -0.218673   1.000000   1.000000
   12       -0.156438     -0.156443   1.000000   1.000000
   13        0.076625      0.076619   1.000000   1.000000
   14        0.144846      0.144840   1.000000   1.000000
   15        0.238804      0.238796   1.000000   1.000000
   16        0.767528      0.767514   1.000000   1.000000
   17        1.031240      1.031225   1.000000   1.000000
   18        1.056585      1.056572   1.000000   1.000000
   19        1.162548      1.162534   1.000000   1.000000
   20        1.642677      1.642656   1.000000   1.000000
   21        1.664816      1.664796   1.000000   1.000000
   22        1.840792      1.840768   1.000000   1.000000
   23        1.959396      1.959371   1.000000   1.000000
   24        2.164005      2.163979   1.000000   1.000000
   25        2.233621      2.233596   1.000000   1.000000
   26        2.405383      2.405353   1.000000   1.000000
   27        2.437881      2.437853   1.000000   1.000000
   28        2.518803      2.518775   1.000000   1.000000
   29        2.626408      2.626378   1.000000   1.000000
   30        2.854015      2.853983   1.000000   1.000000
   31        2.856322      2.856289   1.000000   1.000000
   32        2.946573      2.946538   1.000000   1.000000
   33       10.284244     10.284261   0.000000   0.000000
   34       11.113578     11.113591   0.000000   0.000000
   35       11.871202     11.871217   0.000000   0.000000