 vasp.5.4.1 05Feb16 (build Mar 31 2016 13:39:20) complex                        
  
 executed on           IFC91_ompi date 2018.04.28  12:56:46
 running on   16 total cores
 distrk:  each k-point on   16 cores,    1 groups
 distr:  one band on NCORES_PER_BAND=   4 cores,    4 groups


--------------------------------------------------------------------------------------------------------


 INCAR:
 POTCAR:    PAW_PBE Mg 13Apr2007                  
 POTCAR:    PAW_PBE O 08Apr2002                   
 POTCAR:    PAW_PBE Mg 13Apr2007                  
   VRHFIN =Mg: s2p0                                                             
   LEXCH  = PE                                                                  
   EATOM  =    23.0369 eV,    1.6932 Ry                                         
                                                                                
   TITEL  = PAW_PBE Mg 13Apr2007                                                
   LULTRA =        F    use ultrasoft PP ?                                      
   IUNSCR =        1    unscreen: 0-lin 1-nonlin 2-no                           
   RPACOR =    1.500    partial core radius                                     
   POMASS =   24.305; ZVAL   =    2.000    mass and valenz                      
   RCORE  =    2.000    outmost cutoff radius                                   
   RWIGS  =    2.880; RWIGS  =    1.524    wigner-seitz radius (au A)           
   ENMAX  =  126.143; ENMIN  =   94.607 eV                                      
   RCLOC  =    1.506    cutoff for local pot                                    
   LCOR   =        T    correct aug charges                                     
   LPAW   =        T    paw PP                                                  
   EAUG   =  454.734                                                            
   DEXC   =    0.000                                                            
   RMAX   =    2.045    core radius for proj-oper                               
   RAUG   =    1.300    factor for augmentation sphere                          
   RDEP   =    2.025    radius for radial grids                                 
   RDEPT  =    1.942    core radius for aug-charge                              
                                                                                
   Atomic configuration                                                         
    6 entries                                                                   
     n  l   j            E        occ.                                          
     1  0  0.50     -1259.6230   2.0000                                         
     2  0  0.50       -79.8442   2.0000                                         
     2  1  1.50       -46.6121   6.0000                                         
     3  0  0.50        -4.7055   2.0000                                         
     3  1  0.50        -1.3660   0.0000                                         
     3  2  1.50        -1.3606   0.0000                                         
   Description                                                                  
     l       E           TYP  RCUT    TYP  RCUT                                 
     0     -4.7054661     23  2.000                                             
     0     27.2116520     23  2.000                                             
     1      1.3605826     23  2.000                                             
     1     27.2116520     23  2.000                                             
     2     -1.3605826     23  2.000                                             
  local pseudopotential read in
  partial core-charges read in
  partial kinetic energy density read in
  atomic valenz-charges read in
  non local Contribution for L=           0  read in
    real space projection operators read in
  non local Contribution for L=           0  read in
    real space projection operators read in
  non local Contribution for L=           1  read in
    real space projection operators read in
  non local Contribution for L=           1  read in
    real space projection operators read in
  non local Contribution for L=           2  read in
    real space projection operators read in
    PAW grid and wavefunctions read in
 
   number of l-projection  operators is LMAX  =           5
   number of lm-projection operators is LMMAX =          13
 
 POTCAR:    PAW_PBE O 08Apr2002                   
   VRHFIN =O: s2p4                                                              
   LEXCH  = PE                                                                  
   EATOM  =   432.3788 eV,   31.7789 Ry                                         
                                                                                
   TITEL  = PAW_PBE O 08Apr2002                                                 
   LULTRA =        F    use ultrasoft PP ?                                      
   IUNSCR =        1    unscreen: 0-lin 1-nonlin 2-no                           
   RPACOR =    1.200    partial core radius                                     
   POMASS =   16.000; ZVAL   =    6.000    mass and valenz                      
   RCORE  =    1.520    outmost cutoff radius                                   
   RWIGS  =    1.550; RWIGS  =    0.820    wigner-seitz radius (au A)           
   ENMAX  =  400.000; ENMIN  =  300.000 eV                                      
   ICORE  =        2    local potential                                         
   LCOR   =        T    correct aug charges                                     
   LPAW   =        T    paw PP                                                  
   EAUG   =  605.392                                                            
   DEXC   =    0.000                                                            
   RMAX   =    1.553    core radius for proj-oper                               
   RAUG   =    1.300    factor for augmentation sphere                          
   RDEP   =    1.550    radius for radial grids                                 
   RDEPT  =    1.329    core radius for aug-charge                              
                                                                                
   Atomic configuration                                                         
    4 entries                                                                   
     n  l   j            E        occ.                                          
     1  0  0.50      -514.6923   2.0000                                         
     2  0  0.50       -23.9615   2.0000                                         
     2  1  0.50        -9.0305   4.0000                                         
     3  2  1.50        -9.5241   0.0000                                         
   Description                                                                  
     l       E           TYP  RCUT    TYP  RCUT                                 
     0    -23.9615318     23  1.200                                             
     0     -9.5240782     23  1.200                                             
     1     -9.0304911     23  1.520                                             
     1      8.1634956     23  1.520                                             
     2     -9.5240782      7  1.500                                             
  local pseudopotential read in
  partial core-charges read in
  partial kinetic energy density read in
  kinetic energy density of atom read in
  atomic valenz-charges read in
  non local Contribution for L=           0  read in
    real space projection operators read in
  non local Contribution for L=           0  read in
    real space projection operators read in
  non local Contribution for L=           1  read in
    real space projection operators read in
  non local Contribution for L=           1  read in
    real space projection operators read in
    PAW grid and wavefunctions read in
 
   number of l-projection  operators is LMAX  =           4
   number of lm-projection operators is LMMAX =           8
 
 Optimization of the real space projectors (new method)

 maximal supplied QI-value         = 18.90
 optimisation between [QCUT,QGAM] = [ 10.20, 20.41] = [ 29.16,116.64] Ry 
 Optimized for a Real-space Cutoff    1.30 Angstroem

   l    n(q)    QCUT    max X(q) W(low)/X(q) W(high)/X(q)  e(spline) 
   0      8    10.205    28.265    0.22E-03    0.17E-03    0.53E-07
   0      8    10.205    10.429    0.17E-03    0.15E-03    0.43E-07
   1      7    10.205    13.073    0.71E-04    0.41E-03    0.76E-07
   1      7    10.205     9.625    0.71E-04    0.33E-03    0.63E-07
   2      7    10.205     4.652    0.24E-03    0.41E-03    0.55E-07
 Optimization of the real space projectors (new method)

 maximal supplied QI-value         = 24.76
 optimisation between [QCUT,QGAM] = [ 10.15, 20.30] = [ 28.85,115.39] Ry 
 Optimized for a Real-space Cutoff    1.38 Angstroem

   l    n(q)    QCUT    max X(q) W(low)/X(q) W(high)/X(q)  e(spline) 
   0      8    10.150    20.381    0.22E-03    0.32E-03    0.29E-06
   0      8    10.150    15.268    0.23E-03    0.35E-03    0.30E-06
   1      8    10.150     5.964    0.46E-03    0.53E-03    0.21E-06
   1      8    10.150     5.382    0.38E-03    0.45E-03    0.19E-06
  PAW_PBE Mg 13Apr2007                  :
 energy of atom  1       EATOM=  -23.0369
 kinetic energy error for atom=    0.0001 (will be added to EATOM!!)
  PAW_PBE O 08Apr2002                   :
 energy of atom  2       EATOM= -432.3788
 kinetic energy error for atom=    0.1156 (will be added to EATOM!!)
 
 
 POSCAR: Mg9 O8                                  
  positions in direct lattice
  velocities in cartesian coordinates
 exchange correlation table for  LEXCH =        8
   RHO(1)=    0.500       N(1)  =     2000
   RHO(2)=  100.500       N(2)  =     4000
 


--------------------------------------------------------------------------------------------------------


 ion  position               nearest neighbor table
   1  0.122  0.127  0.123-  12 1.84  11 1.85  14 1.85  10 1.85   3 2.12   4 2.12   2 2.12   6 2.12
                             7 3.52   9 3.52   5 3.52   5 3.52   8 3.52   8 3.52   8 3.52   9 3.52
   2  0.977  0.984  0.979-  15 1.98  16 1.98  13 1.98   1 2.12  14 2.29  11 2.30  12 2.31   3 2.55
                             4 2.55   6 2.55   5 3.01   8 3.01   7 3.02   7 3.02   8 3.02   5 3.02
   3  0.977  0.984  0.555-  15 1.98  17 1.98  13 1.98   1 2.12  14 2.30  12 2.30  10 2.30   6 2.54
                             4 2.54   2 2.55   9 3.01   5 3.01   7 3.02   7 3.02   5 3.02   9 3.03
   4  0.980  0.559  0.978-  13 1.98  16 1.98  17 1.98   1 2.12  10 2.29  11 2.30  14 2.31   6 2.54
                             3 2.54   2 2.55   8 3.01   9 3.01   5 3.01   5 3.02   9 3.02   8 3.02
   5  0.996  0.502  0.499-  17 2.11  10 2.12  16 2.12  11 2.12  15 2.13  12 2.13   9 3.00   8 3.00
                             7 3.00   7 3.01   8 3.01   9 3.01   2 3.01   4 3.01   3 3.01   3 3.02
   6  0.554  0.980  0.980-  17 1.98  16 1.98  15 1.98   1 2.12  12 2.29  11 2.30  10 2.31   3 2.54
                             4 2.54   2 2.55   8 3.00   9 3.01   7 3.02   7 3.02   9 3.02   8 3.03
   7  0.496  0.001  0.498-  13 2.11  14 2.12  16 2.12  10 2.12  11 2.12  17 2.12   9 3.00   8 3.00
                             5 3.00   5 3.01   8 3.01   9 3.01   2 3.02   6 3.02   3 3.02   2 3.02
   8  0.497  0.502  0.998-  17 2.11  15 2.12  14 2.12  12 2.12  10 2.12  13 2.12   5 3.00   9 3.00
                             7 3.00   6 3.00   7 3.01   9 3.01   4 3.01   5 3.01   2 3.01   2 3.02
   9  0.498  0.501  0.498-  15 2.11  16 2.12  13 2.12  12 2.12  14 2.12  11 2.13   5 3.00   7 3.00
                             8 3.00   3 3.01   8 3.01   6 3.01   7 3.01   4 3.01   5 3.01   6 3.02
  10  0.246  0.254  0.249-   1 1.85   5 2.12   8 2.12   7 2.12   4 2.29   3 2.30   6 2.31
  11  0.247  0.252  0.747-   1 1.85   5 2.12   7 2.12   9 2.13   2 2.30   4 2.30   6 2.30
  12  0.248  0.751  0.248-   1 1.84   8 2.12   9 2.12   5 2.13   6 2.29   3 2.30   2 2.31
  13  0.248  0.753  0.747-   4 1.98   3 1.98   2 1.98   7 2.11   9 2.12   8 2.12
  14  0.745  0.251  0.248-   1 1.85   7 2.12   8 2.12   9 2.12   2 2.29   3 2.30   4 2.31
  15  0.745  0.253  0.748-   2 1.98   3 1.98   6 1.98   9 2.11   8 2.12   5 2.13
  16  0.747  0.751  0.249-   6 1.98   2 1.98   4 1.98   5 2.12   9 2.12   7 2.12
  17  0.747  0.750  0.748-   6 1.98   3 1.98   4 1.98   5 2.11   8 2.11   7 2.12
 
  LATTYP: Found a face centered cubic cell.
 ALAT       =     8.4937860000
  
  Lattice vectors:
  
 A1 = (   0.0000000000,   4.2468930000,   4.2468930000)
 A2 = (   4.2468930000,   0.0000000000,   4.2468930000)
 A3 = (   4.2468930000,   4.2468930000,   0.0000000000)


Analysis of symmetry for initial positions (statically):
=====================================================================
 Subroutine PRICEL returns:
 Original cell was already a primitive cell.
 

 Routine SETGRP: Setting up the symmetry group for a 
 face centered cubic supercell.


 Subroutine GETGRP returns: Found  1 space group operations
 (whereof  1 operations were pure point group operations)
 out of a pool of 48 trial point group operations.


The static configuration has the point symmetry C_1 .


Analysis of symmetry for dynamics (positions and initial velocities):
=====================================================================
 Subroutine PRICEL returns:
 Original cell was already a primitive cell.
 

 Routine SETGRP: Setting up the symmetry group for a 
 face centered cubic supercell.


 Subroutine GETGRP returns: Found  1 space group operations
 (whereof  1 operations were pure point group operations)
 out of a pool of 48 trial point group operations.


The dynamic configuration has the point symmetry C_1 .


Analysis of structural, dynamic, and magnetic symmetry:
=====================================================================
 Subroutine PRICEL returns:
 Original cell was already a primitive cell.
 

 Routine SETGRP: Setting up the symmetry group for a 
 face centered cubic supercell.


 Subroutine GETGRP returns: Found  1 space group operations
 (whereof  1 operations were pure point group operations)
 out of a pool of 48 trial point group operations.


The magnetic configuration has the point symmetry C_1 .


 Subroutine INISYM returns: Found  1 space group operations
 (whereof  1 operations are pure point group operations),
 and found     1 'primitive' translations

 
 
 KPOINTS: k-point mesh                            

Automatic generation of k-mesh.
Space group operators:
 irot       det(A)        alpha          n_x          n_y          n_z        tau_x        tau_y        tau_z
    1     1.000000     0.000000     1.000000     0.000000     0.000000     0.000000     0.000000     0.000000
 
 Subroutine IBZKPT returns following result:
 ===========================================
 
 Found      8 irreducible k-points:
 
 Following reciprocal coordinates:
            Coordinates               Weight
  0.000000  0.000000  0.000000      1.000000
  0.500000  0.000000  0.000000      1.000000
  0.000000  0.500000  0.000000      1.000000
  0.500000  0.500000  0.000000      1.000000
  0.000000  0.000000  0.500000      1.000000
  0.500000  0.000000  0.500000      1.000000
  0.000000  0.500000  0.500000      1.000000
  0.500000  0.500000  0.500000      1.000000
 
 Following cartesian coordinates:
            Coordinates               Weight
  0.000000  0.000000  0.000000      1.000000
 -0.058867  0.058867  0.058867      1.000000
  0.058867 -0.058867  0.058867      1.000000
  0.000000  0.000000  0.117733      1.000000
  0.058867  0.058867 -0.058867      1.000000
  0.000000  0.117733  0.000000      1.000000
  0.117733  0.000000  0.000000      1.000000
  0.058867  0.058867  0.058867      1.000000
 


--------------------------------------------------------------------------------------------------------




 Dimension of arrays:
   k-points           NKPTS =      8   k-points in BZ     NKDIM =      8   number of bands    NBANDS=     52
   number of dos      NEDOS =    301   number of ions     NIONS =     17
   non local maximal  LDIM  =      5   non local SUM 2l+1 LMDIM =     13
   total plane-waves  NPLWV =  27000
   max r-space proj   IRMAX =   1992   max aug-charges    IRDMAX=   7686
   dimension x,y,z NGX =    30 NGY =   30 NGZ =   30
   dimension x,y,z NGXF=    60 NGYF=   60 NGZF=   60
   support grid    NGXF=    60 NGYF=   60 NGZF=   60
   ions per type =               9   8
 NGX,Y,Z   is equivalent  to a cutoff of   8.30,  8.30,  8.30 a.u.
 NGXF,Y,Z  is equivalent  to a cutoff of  16.61, 16.61, 16.61 a.u.


 I would recommend the setting:
   dimension x,y,z NGX =    29 NGY =   29 NGZ =   29
 SYSTEM =  unknown system                          
 POSCAR =  Mg9 O8                                  

 Startparameter for this run:
   NWRITE =      2    write-flag & timer
   PREC   = n         normal or accurate (medium, high low for compatibility)
   ISTART =      0    job   : 0-new  1-cont  2-samecut
   ICHARG =      2    charge: 1-file 2-atom 10-const
   ISPIN  =      2    spin polarized calculation?
   LNONCOLLINEAR =      F non collinear calculations
   LSORBIT =      F    spin-orbit coupling
   INIWAV =      1    electr: 0-lowe 1-rand  2-diag
   LASPH  =      T    aspherical Exc in radial PAW
   METAGGA=      F    non-selfconsistent MetaGGA calc.

 Electronic Relaxation 1
   ENCUT  =  400.0 eV  29.40 Ry    5.42 a.u.   9.79  9.79  9.79*2*pi/ulx,y,z
   ENINI  =  400.0     initial cutoff
   ENAUG  =  605.4 eV  augmentation charge cutoff
   NELM   =    100;   NELMIN=  4; NELMDL=  0     # of ELM steps 
   EDIFF  = 0.1E-05   stopping-criterion for ELM
   LREAL  =      T    real-space projection
   NLSPLINE    = F    spline interpolate recip. space projectors
   LCOMPAT=      F    compatible to vasp.4.4
   GGA_COMPAT  = T    GGA compatible to vasp.4.4-vasp.4.6
   LMAXPAW     = -100 max onsite density
   LMAXMIX     =    2 max onsite mixed and CHGCAR
   VOSKOWN=      0    Vosko Wilk Nusair interpolation
   ROPT   =   -0.00050  -0.00050
 Ionic relaxation
   EDIFFG = -.5E-01   stopping-criterion for IOM
   NSW    =     20    number of steps for IOM
   NBLOCK =      1;   KBLOCK =     20    inner block; outer block 
   IBRION =      2    ionic relax: 0-MD 1-quasi-New 2-CG
   NFREE  =      1    steps in history (QN), initial steepest desc. (CG)
   ISIF   =      2    stress and relaxation
   IWAVPR =     11    prediction:  0-non 1-charg 2-wave 3-comb
   ISYM   =      2    0-nonsym 1-usesym 2-fastsym
   LCORR  =      T    Harris-Foulkes like correction to forces

   POTIM  = 0.5000    time-step for ionic-motion
   TEIN   =    0.0    initial temperature
   TEBEG  =    0.0;   TEEND  =   0.0 temperature during run
   SMASS  =  -3.00    Nose mass-parameter (am)
   estimated Nose-frequenzy (Omega)   =  0.10E-29 period in steps =****** mass=  -0.824E-27a.u.
   SCALEE = 1.0000    scale energy and forces
   NPACO  =    256;   APACO  = 16.0  distance and # of slots for P.C.
   PSTRESS=    0.0 pullay stress

  Mass of Ions in am
   POMASS =  24.30 16.00
  Ionic Valenz
   ZVAL   =   2.00  6.00
  Atomic Wigner-Seitz radii
   RWIGS  =  -1.00 -1.00
  virtual crystal weights 
   VCA    =   1.00  1.00
   NELECT =      64.0000    total number of electrons
   NUPDOWN=      -1.0000    fix difference up-down

 DOS related values:
   EMIN   =  10.00;   EMAX   =-10.00  energy-range for DOS
   EFERMI =   0.00
   ISMEAR =     0;   SIGMA  =   0.05  broadening in eV -4-tet -1-fermi 0-gaus

 Electronic relaxation 2 (details)
   IALGO  =     38    algorithm
   LDIAG  =      T    sub-space diagonalisation (order eigenvalues)
   LSUBROT=      F    optimize rotation matrix (better conditioning)
   TURBO    =      0    0=normal 1=particle mesh
   IRESTART =      0    0=no restart 2=restart with 2 vectors
   NREBOOT  =      0    no. of reboots
   NMIN     =      0    reboot dimension
   EREF     =   0.00    reference energy to select bands
   IMIX   =      4    mixing-type and parameters
     AMIX     =   0.40;   BMIX     =  1.00
     AMIX_MAG =   1.60;   BMIX_MAG =  1.00
     AMIN     =   0.10
     WC   =   100.;   INIMIX=   1;  MIXPRE=   1;  MAXMIX= -45

 Intra band minimization:
   WEIMIN = 0.0010     energy-eigenvalue tresh-hold
   EBREAK =  0.48E-08  absolut break condition
   DEPER  =   0.30     relativ break condition  

   TIME   =   0.40     timestep for ELM

  volume/ion in A,a.u.               =       9.01        60.81
  Fermi-wavevector in a.u.,A,eV,Ry     =   1.223827  2.312698 20.378173  1.497753
  Thomas-Fermi vector in A             =   2.358924
 
 Write flags
   LWAVE  =      F    write WAVECAR
   LCHARG =      F    write CHGCAR
   LVTOT  =      F    write LOCPOT, total local potential
   LVHAR  =      F    write LOCPOT, Hartree potential only
   LELF   =      F    write electronic localiz. function (ELF)
   LORBIT =     12    0 simple, 1 ext, 2 COOP (PROOUT)


 Dipole corrections
   LMONO  =      F    monopole corrections only (constant potential shift)
   LDIPOL =      F    correct potential (dipole corrections)
   IDIPOL =      0    1-x, 2-y, 3-z, 4-all directions 
   EPSILON=  1.0000000 bulk dielectric constant

 Exchange correlation treatment:
   GGA     =    --    GGA type
   LEXCH   =     8    internal setting for exchange type
   VOSKOWN=      0    Vosko Wilk Nusair interpolation
   LHFCALC =     F    Hartree Fock is set to
   LHFONE  =     F    Hartree Fock one center treatment
   AEXX    =    0.0000 exact exchange contribution

 Linear response parameters
   LEPSILON=     F    determine dielectric tensor
   LRPA    =     F    only Hartree local field effects (RPA)
   LNABLA  =     F    use nabla operator in PAW spheres
   LVEL    =     F    velocity operator in full k-point grid
   LINTERFAST=   F  fast interpolation
   KINTER  =     0    interpolate to denser k-point grid
   CSHIFT  =0.1000    complex shift for real part using Kramers Kronig
   OMEGAMAX=  -1.0    maximum frequency
   DEG_THRESHOLD= 0.2000000E-02 threshold for treating states as degnerate
   RTIME   =    0.100 relaxation time in fs

 Orbital magnetization related:
   ORBITALMAG=     F  switch on orbital magnetization
   LCHIMAG   =     F  perturbation theory with respect to B field
   DQ        =  0.001000  dq finite difference perturbation B field



--------------------------------------------------------------------------------------------------------


 conjugate gradient relaxation of ions
 charge density and potential will be updated during run
 spin polarized calculation
 Variant of blocked Davidson
 Davidson routine will perform the subspace rotation
 perform sub-space diagonalisation
    after iterative eigenvector-optimisation
 modified Broyden-mixing scheme, WC =      100.0
 initial mixing is a Kerker type mixing with AMIX =  0.4000 and BMIX =      1.0000
 Hartree-type preconditioning will be used
 using additional bands           20
 real space projection scheme for non local part
 use partial core corrections
 calculate Harris-corrections to forces 
   (improved forces if not selfconsistent)
 use gradient corrections 
 use of overlap-Matrix (Vanderbilt PP)
 Gauss-broadening in eV      SIGMA  =   0.05


--------------------------------------------------------------------------------------------------------


  energy-cutoff  :      400.00
  volume of cell :      153.19
      direct lattice vectors                 reciprocal lattice vectors
     0.000000000  4.246893000  4.246893000    -0.117733129  0.117733129  0.117733129
     4.246893000  0.000000000  4.246893000     0.117733129 -0.117733129  0.117733129
     4.246893000  4.246893000  0.000000000     0.117733129  0.117733129 -0.117733129

  length of vectors
     6.006013679  6.006013679  6.006013679     0.203919761  0.203919761  0.203919761


 
 k-points in units of 2pi/SCALE and weight: k-point mesh                            
   0.00000000  0.00000000  0.00000000       0.125
  -0.05886656  0.05886656  0.05886656       0.125
   0.05886656 -0.05886656  0.05886656       0.125
   0.00000000  0.00000000  0.11773313       0.125
   0.05886656  0.05886656 -0.05886656       0.125
   0.00000000  0.11773313  0.00000000       0.125
   0.11773313  0.00000000  0.00000000       0.125
   0.05886656  0.05886656  0.05886656       0.125
 
 k-points in reciprocal lattice and weights: k-point mesh                            
   0.00000000  0.00000000  0.00000000       0.125
   0.50000000  0.00000000  0.00000000       0.125
   0.00000000  0.50000000  0.00000000       0.125
   0.50000000  0.50000000  0.00000000       0.125
   0.00000000  0.00000000  0.50000000       0.125
   0.50000000  0.00000000  0.50000000       0.125
   0.00000000  0.50000000  0.50000000       0.125
   0.50000000  0.50000000  0.50000000       0.125
 
 position of ions in fractional coordinates (direct lattice) 
   0.12182448  0.12694107  0.12341773
   0.97727882  0.98394460  0.97877713
   0.97670564  0.98351994  0.55537341
   0.97991568  0.55897610  0.97795845
   0.99621213  0.50228829  0.49887864
   0.55425543  0.98039115  0.97987402
   0.49645100  0.00139093  0.49809891
   0.49712839  0.50233257  0.99765308
   0.49810120  0.50141252  0.49845598
   0.24613365  0.25387741  0.24883458
   0.24700754  0.25206063  0.74702706
   0.24836314  0.75090250  0.24838714
   0.24842828  0.75272302  0.74669812
   0.74534442  0.25143002  0.24842144
   0.74506928  0.25289289  0.74846651
   0.74736095  0.75093222  0.24909029
   0.74692896  0.75048911  0.74752053
 
 position of ions in cartesian coordinates  (Angst):
   1.06324703  1.04151745  1.05648067
   8.33546914  8.30716030  8.32910599
   6.53551540  6.50657578  8.32486831
   6.52719660  8.31488195  6.53550875
   4.25184886  6.34949054  6.36397096
   8.32503643  6.51528363  6.51747984
   2.12127990  4.22374703  2.11428141
   6.37027855  6.34817696  4.24460378
   4.24633455  4.23227172  4.24482786
   2.13496405  2.10207712  2.12349349
   4.24301852  4.22155858  2.11948915
   4.24387617  2.10964525  4.24377425
   6.36788114  4.22619532  4.25178245
   2.12281567  4.22041728  4.23319438
   4.25266623  6.34288668  4.23823857
   4.24698862  4.23182179  6.36309077
   6.36188665  6.34676709  6.35937432
 


--------------------------------------------------------------------------------------------------------


 k-point  1 :   0.0000 0.0000 0.0000  plane waves:    2733
 k-point  2 :   0.5000 0.0000 0.0000  plane waves:    2788
 k-point  3 :   0.0000 0.5000 0.0000  plane waves:    2788
 k-point  4 :   0.5000 0.5000 0.0000  plane waves:    2778
 k-point  5 :   0.0000 0.0000 0.5000  plane waves:    2788
 k-point  6 :   0.5000 0.0000 0.5000  plane waves:    2778
 k-point  7 :   0.0000 0.5000 0.5000  plane waves:    2778
 k-point  8 :   0.5000 0.5000 0.5000  plane waves:    2788

 maximum and minimum number of plane-waves per node :       715      668

 maximum number of plane-waves:      2788
 maximum index in each direction: 
   IXMAX=    9   IYMAX=    9   IZMAX=    9
   IXMIN=  -10   IYMIN=  -10   IZMIN=  -10

 WARNING: aliasing errors must be expected set NGX to  40 to avoid them
 WARNING: aliasing errors must be expected set NGY to  40 to avoid them
 WARNING: aliasing errors must be expected set NGZ to  40 to avoid them
 aliasing errors are usually negligible using standard VASP settings
 and one can safely disregard these warnings

 real space projection operators:
  total allocation   :       2381.21 KBytes
  max/ min on nodes  :        640.55        549.62


 parallel 3D FFT for wavefunctions:
    minimum data exchange during FFTs selected (reduces bandwidth)
 parallel 3D FFT for charge:
    minimum data exchange during FFTs selected (reduces bandwidth)


 total amount of memory used by VASP on root node    36478. kBytes
========================================================================

   base      :      30000. kBytes
   nonlr-proj:       1354. kBytes
   fftplans  :        708. kBytes
   grid      :       1766. kBytes
   one-center:         81. kBytes
   wavefun   :       2569. kBytes
 
     INWAV:  cpu time    0.0000: real time    0.0000
 Broyden mixing: mesh for mixing (old mesh)
   NGX = 19   NGY = 19   NGZ = 19
  (NGX  = 60   NGY  = 60   NGZ  = 60)
  gives a total of   6859 points

 initial charge density was supplied:
 charge density of overlapping atoms calculated
 number of electron      66.0000000 magnetization      17.0000000
 keeping initial charge density in first step


--------------------------------------------------------------------------------------------------------


 Maximum index for non-local projection operator          513
 Maximum index for augmentation-charges          555 (set IRDMAX)


--------------------------------------------------------------------------------------------------------


 First call to EWALD:  gamma=   0.331
 Maximum number of real-space cells 3x 3x 3
 Maximum number of reciprocal cells 3x 3x 3

 FEWALD executed in parallel
    FEWALD:  cpu time    0.0040: real time    0.0017


----------------------------------------- Iteration    1(   1)  ---------------------------------------


    POTLOK:  cpu time    0.0200: real time    0.0211
    SETDIJ:  cpu time    0.9561: real time    0.9569
     EDDAV:  cpu time    0.5760: real time    0.5783
       DOS:  cpu time    0.0000: real time    0.0003
    --------------------------------------------
      LOOP:  cpu time    1.5521: real time    1.5596

 eigenvalue-minimisations  :  1736
 total energy-change (2. order) : 0.2504303E+03  (-0.2670024E+04)
 number of electron      66.0000000 magnetization      17.0000000
 augmentation part       66.0000000 magnetization      17.0000000

 Free energy of the ion-electron system (eV)
  ---------------------------------------------------
  alpha Z        PSCENC =       167.07285220
  Ewald energy   TEWEN  =     -2904.81758449
  -Hartree energ DENC   =      -981.69809557
  -exchange      EXHF   =         0.00000000
  -V(xc)+E(xc)   XCENC  =      -207.33869182
  PAW double counting   =      3357.85734499    -2905.44438128
  entropy T*S    EENTRO =        -0.00000000
  eigenvalues    EBANDS =        59.36230402
  atomic energy  EATOM  =      3665.43652948
  Solvation  Ediel_sol  =         0.00000000
  ---------------------------------------------------
  free energy    TOTEN  =       250.43027755 eV

  energy without entropy =      250.43027755  energy(sigma->0) =      250.43027755


--------------------------------------------------------------------------------------------------------




----------------------------------------- Iteration    1(   2)  ---------------------------------------


     EDDAV:  cpu time    0.6600: real time    0.6618
       DOS:  cpu time    0.0000: real time    0.0002
    --------------------------------------------
      LOOP:  cpu time    0.6600: real time    0.6647

 eigenvalue-minimisations  :  2096
 total energy-change (2. order) :-0.3395681E+03  (-0.3280531E+03)
 number of electron      66.0000000 magnetization      17.0000000
 augmentation part       66.0000000 magnetization      17.0000000

 Free energy of the ion-electron system (eV)
  ---------------------------------------------------
  alpha Z        PSCENC =       167.07285220
  Ewald energy   TEWEN  =     -2904.81758449
  -Hartree energ DENC   =      -981.69809557
  -exchange      EXHF   =         0.00000000
  -V(xc)+E(xc)   XCENC  =      -207.33869182
  PAW double counting   =      3357.85734499    -2905.44438128
  entropy T*S    EENTRO =        -0.00000000
  eigenvalues    EBANDS =      -280.20577783
  atomic energy  EATOM  =      3665.43652948
  Solvation  Ediel_sol  =         0.00000000
  ---------------------------------------------------
  free energy    TOTEN  =       -89.13780431 eV

  energy without entropy =      -89.13780431  energy(sigma->0) =      -89.13780431


--------------------------------------------------------------------------------------------------------




----------------------------------------- Iteration    1(   3)  ---------------------------------------


     EDDAV:  cpu time    0.6440: real time    0.6455
       DOS:  cpu time    0.0000: real time    0.0002
    --------------------------------------------
      LOOP:  cpu time    0.6440: real time    0.6486

 eigenvalue-minimisations  :  2020
 total energy-change (2. order) :-0.1722278E+02  (-0.1712390E+02)
 number of electron      66.0000000 magnetization      17.0000000
 augmentation part       66.0000000 magnetization      17.0000000

 Free energy of the ion-electron system (eV)
  ---------------------------------------------------
  alpha Z        PSCENC =       167.07285220
  Ewald energy   TEWEN  =     -2904.81758449
  -Hartree energ DENC   =      -981.69809557
  -exchange      EXHF   =         0.00000000
  -V(xc)+E(xc)   XCENC  =      -207.33869182
  PAW double counting   =      3357.85734499    -2905.44438128
  entropy T*S    EENTRO =        -0.00000000
  eigenvalues    EBANDS =      -297.42855667
  atomic energy  EATOM  =      3665.43652948
  Solvation  Ediel_sol  =         0.00000000
  ---------------------------------------------------
  free energy    TOTEN  =      -106.36058315 eV

  energy without entropy =     -106.36058315  energy(sigma->0) =     -106.36058315


--------------------------------------------------------------------------------------------------------




----------------------------------------- Iteration    1(   4)  ---------------------------------------


     EDDAV:  cpu time    0.6240: real time    0.6260
       DOS:  cpu time    0.0000: real time    0.0002
    --------------------------------------------
      LOOP:  cpu time    0.6240: real time    0.6308

 eigenvalue-minimisations  :  1948
 total energy-change (2. order) :-0.1018602E+00  (-0.1017855E+00)
 number of electron      66.0000000 magnetization      17.0000000
 augmentation part       66.0000000 magnetization      17.0000000

 Free energy of the ion-electron system (eV)
  ---------------------------------------------------
  alpha Z        PSCENC =       167.07285220
  Ewald energy   TEWEN  =     -2904.81758449
  -Hartree energ DENC   =      -981.69809557
  -exchange      EXHF   =         0.00000000
  -V(xc)+E(xc)   XCENC  =      -207.33869182
  PAW double counting   =      3357.85734499    -2905.44438128
  entropy T*S    EENTRO =        -0.00000000
  eigenvalues    EBANDS =      -297.53041687
  atomic energy  EATOM  =      3665.43652948
  Solvation  Ediel_sol  =         0.00000000
  ---------------------------------------------------
  free energy    TOTEN  =      -106.46244335 eV

  energy without entropy =     -106.46244335  energy(sigma->0) =     -106.46244335


--------------------------------------------------------------------------------------------------------




----------------------------------------- Iteration    1(   5)  ---------------------------------------


     EDDAV:  cpu time    0.6320: real time    0.6315
       DOS:  cpu time    0.0000: real time    0.0002
    CHARGE:  cpu time    0.0200: real time    0.0212
    MIXING:  cpu time    0.0000: real time    0.0008
    --------------------------------------------
      LOOP:  cpu time    0.6520: real time    0.6565

 eigenvalue-minimisations  :  1972
 total energy-change (2. order) :-0.4890033E-03  (-0.4889710E-03)
 number of electron      63.9999889 magnetization       0.0966274
 augmentation part        6.3528182 magnetization       0.1474387

 Broyden mixing:
  rms(total) = 0.28895E+01    rms(broyden)= 0.28843E+01
  rms(prec ) = 0.46823E+01
  weight for this iteration     100.00

 Free energy of the ion-electron system (eV)
  ---------------------------------------------------
  alpha Z        PSCENC =       167.07285220
  Ewald energy   TEWEN  =     -2904.81758449
  -Hartree energ DENC   =      -981.69809557
  -exchange      EXHF   =         0.00000000
  -V(xc)+E(xc)   XCENC  =      -207.33869182
  PAW double counting   =      3357.85734499    -2905.44438128
  entropy T*S    EENTRO =        -0.00000000
  eigenvalues    EBANDS =      -297.53090587
  atomic energy  EATOM  =      3665.43652948
  Solvation  Ediel_sol  =         0.00000000
  ---------------------------------------------------
  free energy    TOTEN  =      -106.46293235 eV

  energy without entropy =     -106.46293235  energy(sigma->0) =     -106.46293235


--------------------------------------------------------------------------------------------------------




----------------------------------------- Iteration    1(   6)  ---------------------------------------


    POTLOK:  cpu time    0.0200: real time    0.0203
    SETDIJ:  cpu time    0.9601: real time    0.9640
     EDDAV:  cpu time    0.5880: real time    0.5912
       DOS:  cpu time    0.0000: real time    0.0003
    CHARGE:  cpu time    0.0240: real time    0.0210
    MIXING:  cpu time    0.0000: real time    0.0006
    --------------------------------------------
      LOOP:  cpu time    1.5961: real time    1.6010

 eigenvalue-minimisations  :  1816
 total energy-change (2. order) : 0.4286867E+01  (-0.3564041E+01)
 number of electron      63.9999908 magnetization       0.0052818
 augmentation part        5.3483600 magnetization      -0.1190325

 Broyden mixing:
  rms(total) = 0.79138E+00    rms(broyden)= 0.79006E+00
  rms(prec ) = 0.10902E+01
  weight for this iteration     100.00

 eigenvalues of (default mixing * dielectric matrix)
  average eigenvalue GAMMA=   0.8315
  0.8315

 Free energy of the ion-electron system (eV)
  ---------------------------------------------------
  alpha Z        PSCENC =       167.07285220
  Ewald energy   TEWEN  =     -2904.81758449
  -Hartree energ DENC   =     -1124.46383704
  -exchange      EXHF   =         0.00000000
  -V(xc)+E(xc)   XCENC  =      -206.22435948
  PAW double counting   =      3972.25116735    -3522.39227796
  entropy T*S    EENTRO =        -0.00000000
  eigenvalues    EBANDS =      -149.03855501
  atomic energy  EATOM  =      3665.43652948
  Solvation  Ediel_sol  =         0.00000000
  ---------------------------------------------------
  free energy    TOTEN  =      -102.17606494 eV

  energy without entropy =     -102.17606494  energy(sigma->0) =     -102.17606494


--------------------------------------------------------------------------------------------------------




----------------------------------------- Iteration    1(   7)  ---------------------------------------


    POTLOK:  cpu time    0.0200: real time    0.0202
    SETDIJ:  cpu time    0.9601: real time    0.9641
     EDDAV:  cpu time    0.5760: real time    0.5756
       DOS:  cpu time    0.0000: real time    0.0003
    CHARGE:  cpu time    0.0200: real time    0.0210
    MIXING:  cpu time    0.0000: real time    0.0006
    --------------------------------------------
      LOOP:  cpu time    1.5761: real time    1.5849

 eigenvalue-minimisations  :  1752
 total energy-change (2. order) :-0.1760113E+00  (-0.1138026E+00)
 number of electron      63.9999908 magnetization      -0.0022913
 augmentation part        5.3272372 magnetization      -0.0100658

 Broyden mixing:
  rms(total) = 0.41343E+00    rms(broyden)= 0.41335E+00
  rms(prec ) = 0.64185E+00
  weight for this iteration     100.00

 eigenvalues of (default mixing * dielectric matrix)
  average eigenvalue GAMMA=   0.9650
  0.9650  0.9650

 Free energy of the ion-electron system (eV)
  ---------------------------------------------------
  alpha Z        PSCENC =       167.07285220
  Ewald energy   TEWEN  =     -2904.81758449
  -Hartree energ DENC   =     -1129.93737771
  -exchange      EXHF   =         0.00000000
  -V(xc)+E(xc)   XCENC  =      -205.70546669
  PAW double counting   =      4200.86352343    -3750.84921573
  entropy T*S    EENTRO =        -0.00000000
  eigenvalues    EBANDS =      -144.41533679
  atomic energy  EATOM  =      3665.43652948
  Solvation  Ediel_sol  =         0.00000000
  ---------------------------------------------------
  free energy    TOTEN  =      -102.35207628 eV

  energy without entropy =     -102.35207628  energy(sigma->0) =     -102.35207628


--------------------------------------------------------------------------------------------------------




----------------------------------------- Iteration    1(   8)  ---------------------------------------


    POTLOK:  cpu time    0.0200: real time    0.0202
    SETDIJ:  cpu time    0.9641: real time    0.9630
     EDDAV:  cpu time    0.6320: real time    0.6335
       DOS:  cpu time    0.0000: real time    0.0003
    CHARGE:  cpu time    0.0240: real time    0.0257
    MIXING:  cpu time    0.0000: real time    0.0006
    --------------------------------------------
      LOOP:  cpu time    1.6401: real time    1.6466

 eigenvalue-minimisations  :  1976
 total energy-change (2. order) : 0.7658314E-01  (-0.1103842E-01)
 number of electron      63.9999908 magnetization      -0.0017560
 augmentation part        5.3441486 magnetization      -0.0032431

 Broyden mixing:
  rms(total) = 0.17204E+00    rms(broyden)= 0.17204E+00
  rms(prec ) = 0.26689E+00
  weight for this iteration     100.00

 eigenvalues of (default mixing * dielectric matrix)
  average eigenvalue GAMMA=   1.2734
  2.0756  0.9130  0.8315

 Free energy of the ion-electron system (eV)
  ---------------------------------------------------
  alpha Z        PSCENC =       167.07285220
  Ewald energy   TEWEN  =     -2904.81758449
  -Hartree energ DENC   =     -1135.26361257
  -exchange      EXHF   =         0.00000000
  -V(xc)+E(xc)   XCENC  =      -204.90355254
  PAW double counting   =      4437.58744559    -3987.42643504
  entropy T*S    EENTRO =        -0.00000000
  eigenvalues    EBANDS =      -139.96113578
  atomic energy  EATOM  =      3665.43652948
  Solvation  Ediel_sol  =         0.00000000
  ---------------------------------------------------
  free energy    TOTEN  =      -102.27549314 eV

  energy without entropy =     -102.27549314  energy(sigma->0) =     -102.27549314


--------------------------------------------------------------------------------------------------------




----------------------------------------- Iteration    1(   9)  ---------------------------------------


    POTLOK:  cpu time    0.0200: real time    0.0202
    SETDIJ:  cpu time    0.9641: real time    0.9639
     EDDAV:  cpu time    0.6000: real time    0.6039
       DOS:  cpu time    0.0000: real time    0.0003
    CHARGE:  cpu time    0.0240: real time    0.0210
    MIXING:  cpu time    0.0000: real time    0.0006
    --------------------------------------------
      LOOP:  cpu time    1.6081: real time    1.6131

 eigenvalue-minimisations  :  1864
 total energy-change (2. order) : 0.2183364E-02  (-0.4932531E-02)
 number of electron      63.9999908 magnetization      -0.0006187
 augmentation part        5.3389708 magnetization       0.0001601

 Broyden mixing:
  rms(total) = 0.54174E-01    rms(broyden)= 0.54170E-01
  rms(prec ) = 0.60074E-01
  weight for this iteration     100.00

 eigenvalues of (default mixing * dielectric matrix)
  average eigenvalue GAMMA=   1.2581
  2.4667  0.9587  0.9587  0.6484

 Free energy of the ion-electron system (eV)
  ---------------------------------------------------
  alpha Z        PSCENC =       167.07285220
  Ewald energy   TEWEN  =     -2904.81758449
  -Hartree energ DENC   =     -1141.33106262
  -exchange      EXHF   =         0.00000000
  -V(xc)+E(xc)   XCENC  =      -204.14881960
  PAW double counting   =      4584.33587314    -4134.14359416
  entropy T*S    EENTRO =        -0.00000000
  eigenvalues    EBANDS =      -134.67750373
  atomic energy  EATOM  =      3665.43652948
  Solvation  Ediel_sol  =         0.00000000
  ---------------------------------------------------
  free energy    TOTEN  =      -102.27330978 eV

  energy without entropy =     -102.27330978  energy(sigma->0) =     -102.27330978


--------------------------------------------------------------------------------------------------------




----------------------------------------- Iteration    1(  10)  ---------------------------------------


    POTLOK:  cpu time    0.0200: real time    0.0201
    SETDIJ:  cpu time    0.9601: real time    0.9644
     EDDAV:  cpu time    0.6400: real time    0.6410
       DOS:  cpu time    0.0000: real time    0.0003
    CHARGE:  cpu time    0.0200: real time    0.0212
    MIXING:  cpu time    0.0000: real time    0.0007
    --------------------------------------------
      LOOP:  cpu time    1.6441: real time    1.6503

 eigenvalue-minimisations  :  2016
 total energy-change (2. order) : 0.1425169E-02  (-0.2354491E-03)
 number of electron      63.9999908 magnetization       0.0003439
 augmentation part        5.3348987 magnetization       0.0013251

 Broyden mixing:
  rms(total) = 0.15216E-01    rms(broyden)= 0.15213E-01
  rms(prec ) = 0.20439E-01
  weight for this iteration     100.00

 eigenvalues of (default mixing * dielectric matrix)
  average eigenvalue GAMMA=   1.2115
  2.5159  1.0968  0.9464  0.8593  0.6392

 Free energy of the ion-electron system (eV)
  ---------------------------------------------------
  alpha Z        PSCENC =       167.07285220
  Ewald energy   TEWEN  =     -2904.81758449
  -Hartree energ DENC   =     -1141.97207393
  -exchange      EXHF   =         0.00000000
  -V(xc)+E(xc)   XCENC  =      -204.08284927
  PAW double counting   =      4579.17278787    -4128.99539026
  entropy T*S    EENTRO =        -0.00000000
  eigenvalues    EBANDS =      -134.08615622
  atomic energy  EATOM  =      3665.43652948
  Solvation  Ediel_sol  =         0.00000000
  ---------------------------------------------------
  free energy    TOTEN  =      -102.27188461 eV

  energy without entropy =     -102.27188461  energy(sigma->0) =     -102.27188461


--------------------------------------------------------------------------------------------------------




----------------------------------------- Iteration    1(  11)  ---------------------------------------


    POTLOK:  cpu time    0.0200: real time    0.0201
    SETDIJ:  cpu time    0.9601: real time    0.9631
     EDDAV:  cpu time    0.6280: real time    0.6291
       DOS:  cpu time    0.0000: real time    0.0003
    CHARGE:  cpu time    0.0200: real time    0.0207
    MIXING:  cpu time    0.0000: real time    0.0007
    --------------------------------------------
      LOOP:  cpu time    1.6281: real time    1.6377

 eigenvalue-minimisations  :  1960
 total energy-change (2. order) :-0.4624172E-03  (-0.6064595E-04)
 number of electron      63.9999908 magnetization       0.0001650
 augmentation part        5.3343946 magnetization      -0.0002624

 Broyden mixing:
  rms(total) = 0.71333E-02    rms(broyden)= 0.71325E-02
  rms(prec ) = 0.92915E-02
  weight for this iteration     100.00

 eigenvalues of (default mixing * dielectric matrix)
  average eigenvalue GAMMA=   1.3568
  2.7017  2.1110  0.9738  0.9738  0.7481  0.6325

 Free energy of the ion-electron system (eV)
  ---------------------------------------------------
  alpha Z        PSCENC =       167.07285220
  Ewald energy   TEWEN  =     -2904.81758449
  -Hartree energ DENC   =     -1142.04007028
  -exchange      EXHF   =         0.00000000
  -V(xc)+E(xc)   XCENC  =      -204.06225340
  PAW double counting   =      4565.05637566    -4114.89018464
  entropy T*S    EENTRO =        -0.00000000
  eigenvalues    EBANDS =      -134.02801156
  atomic energy  EATOM  =      3665.43652948
  Solvation  Ediel_sol  =         0.00000000
  ---------------------------------------------------
  free energy    TOTEN  =      -102.27234703 eV

  energy without entropy =     -102.27234703  energy(sigma->0) =     -102.27234703


--------------------------------------------------------------------------------------------------------




----------------------------------------- Iteration    1(  12)  ---------------------------------------


    POTLOK:  cpu time    0.0200: real time    0.0201
    SETDIJ:  cpu time    0.9641: real time    0.9635
     EDDAV:  cpu time    0.6040: real time    0.6065
       DOS:  cpu time    0.0000: real time    0.0003
    CHARGE:  cpu time    0.0240: real time    0.0232
    MIXING:  cpu time    0.0000: real time    0.0007
    --------------------------------------------
      LOOP:  cpu time    1.6121: real time    1.6176

 eigenvalue-minimisations  :  1864
 total energy-change (2. order) :-0.1492969E-03  (-0.1759688E-04)
 number of electron      63.9999908 magnetization      -0.0000226
 augmentation part        5.3350737 magnetization      -0.0002188

 Broyden mixing:
  rms(total) = 0.21150E-02    rms(broyden)= 0.21142E-02
  rms(prec ) = 0.27790E-02
  weight for this iteration     100.00

 eigenvalues of (default mixing * dielectric matrix)
  average eigenvalue GAMMA=   1.3277
  2.7380  2.3687  0.9976  0.9976  0.8309  0.7317  0.6297

 Free energy of the ion-electron system (eV)
  ---------------------------------------------------
  alpha Z        PSCENC =       167.07285220
  Ewald energy   TEWEN  =     -2904.81758449
  -Hartree energ DENC   =     -1141.99723497
  -exchange      EXHF   =         0.00000000
  -V(xc)+E(xc)   XCENC  =      -204.05496804
  PAW double counting   =      4557.22702168    -4107.06526958
  entropy T*S    EENTRO =        -0.00000000
  eigenvalues    EBANDS =      -134.07384260
  atomic energy  EATOM  =      3665.43652948
  Solvation  Ediel_sol  =         0.00000000
  ---------------------------------------------------
  free energy    TOTEN  =      -102.27249633 eV

  energy without entropy =     -102.27249633  energy(sigma->0) =     -102.27249633


--------------------------------------------------------------------------------------------------------




----------------------------------------- Iteration    1(  13)  ---------------------------------------


    POTLOK:  cpu time    0.0200: real time    0.0201
    SETDIJ:  cpu time    0.9641: real time    0.9653
     EDDAV:  cpu time    0.6440: real time    0.6453
       DOS:  cpu time    0.0000: real time    0.0003
    CHARGE:  cpu time    0.0200: real time    0.0208
    MIXING:  cpu time    0.0000: real time    0.0008
    --------------------------------------------
      LOOP:  cpu time    1.6481: real time    1.6558

 eigenvalue-minimisations  :  1992
 total energy-change (2. order) :-0.9888813E-05  (-0.1293838E-05)
 number of electron      63.9999908 magnetization      -0.0000041
 augmentation part        5.3350858 magnetization      -0.0000091

 Broyden mixing:
  rms(total) = 0.93306E-03    rms(broyden)= 0.93276E-03
  rms(prec ) = 0.13334E-02
  weight for this iteration     100.00

 eigenvalues of (default mixing * dielectric matrix)
  average eigenvalue GAMMA=   1.2801
  2.7070  2.4293  1.0113  0.9251  0.9251  0.9162  0.6289  0.6981

 Free energy of the ion-electron system (eV)
  ---------------------------------------------------
  alpha Z        PSCENC =       167.07285220
  Ewald energy   TEWEN  =     -2904.81758449
  -Hartree energ DENC   =     -1142.00962137
  -exchange      EXHF   =         0.00000000
  -V(xc)+E(xc)   XCENC  =      -204.05294788
  PAW double counting   =      4555.66611908    -4105.50595047
  entropy T*S    EENTRO =        -0.00000000
  eigenvalues    EBANDS =      -134.06190277
  atomic energy  EATOM  =      3665.43652948
  Solvation  Ediel_sol  =         0.00000000
  ---------------------------------------------------
  free energy    TOTEN  =      -102.27250621 eV

  energy without entropy =     -102.27250621  energy(sigma->0) =     -102.27250621


--------------------------------------------------------------------------------------------------------




----------------------------------------- Iteration    1(  14)  ---------------------------------------


    POTLOK:  cpu time    0.0200: real time    0.0201
    SETDIJ:  cpu time    0.9601: real time    0.9633
     EDDAV:  cpu time    0.6080: real time    0.6062
       DOS:  cpu time    0.0000: real time    0.0003
    CHARGE:  cpu time    0.0200: real time    0.0209
    MIXING:  cpu time    0.0000: real time    0.0008
    --------------------------------------------
      LOOP:  cpu time    1.6081: real time    1.6149

 eigenvalue-minimisations  :  1856
 total energy-change (2. order) :-0.1263009E-05  (-0.4096804E-06)
 number of electron      63.9999908 magnetization       0.0000094
 augmentation part        5.3349542 magnetization       0.0000017

 Broyden mixing:
  rms(total) = 0.45665E-03    rms(broyden)= 0.45654E-03
  rms(prec ) = 0.58028E-03
  weight for this iteration     100.00

 eigenvalues of (default mixing * dielectric matrix)
  average eigenvalue GAMMA=   1.3579
  2.7630  2.5092  1.9990  1.0451  0.9358  0.9358  0.7550  0.6281  0.6498

 Free energy of the ion-electron system (eV)
  ---------------------------------------------------
  alpha Z        PSCENC =       167.07285220
  Ewald energy   TEWEN  =     -2904.81758449
  -Hartree energ DENC   =     -1142.02800271
  -exchange      EXHF   =         0.00000000
  -V(xc)+E(xc)   XCENC  =      -204.05170919
  PAW double counting   =      4555.02293706    -4104.86394279
  entropy T*S    EENTRO =        -0.00000000
  eigenvalues    EBANDS =      -134.04358704
  atomic energy  EATOM  =      3665.43652948
  Solvation  Ediel_sol  =         0.00000000
  ---------------------------------------------------
  free energy    TOTEN  =      -102.27250748 eV

  energy without entropy =     -102.27250748  energy(sigma->0) =     -102.27250748


--------------------------------------------------------------------------------------------------------




----------------------------------------- Iteration    1(  15)  ---------------------------------------


    POTLOK:  cpu time    0.0200: real time    0.0201
    SETDIJ:  cpu time    0.9641: real time    0.9656
     EDDAV:  cpu time    0.4480: real time    0.4497
       DOS:  cpu time    0.0000: real time    0.0003
    --------------------------------------------
      LOOP:  cpu time    1.4321: real time    1.4385

 eigenvalue-minimisations  :  1196
 total energy-change (2. order) :-0.3750201E-06  (-0.7450696E-07)
 number of electron      63.9999908 magnetization       0.0000094
 augmentation part        5.3349542 magnetization       0.0000017

 Free energy of the ion-electron system (eV)
  ---------------------------------------------------
  alpha Z        PSCENC =       167.07285220
  Ewald energy   TEWEN  =     -2904.81758449
  -Hartree energ DENC   =     -1142.02731700
  -exchange      EXHF   =         0.00000000
  -V(xc)+E(xc)   XCENC  =      -204.05169179
  PAW double counting   =      4554.87984396    -4104.72109345
  entropy T*S    EENTRO =        -0.00000000
  eigenvalues    EBANDS =      -134.04404677
  atomic energy  EATOM  =      3665.43652948
  Solvation  Ediel_sol  =         0.00000000
  ---------------------------------------------------
  free energy    TOTEN  =      -102.27250785 eV

  energy without entropy =     -102.27250785  energy(sigma->0) =     -102.27250785


--------------------------------------------------------------------------------------------------------




 average (electrostatic) potential at core
  the test charge radii are     1.0714  0.7215
  (the norm of the test charge is              1.0000)
       1 -35.3427       2 -35.0252       3 -35.0415       4 -35.0384       5 -34.0975
       6 -35.0318       7 -34.0975       8 -34.0973       9 -34.1057      10 -69.4511
      11 -69.4636      12 -69.4600      13 -69.3222      14 -69.4601      15 -69.3231
      16 -69.3169      17 -69.3320
 
 
 
 E-fermi :   3.5379     XC(G=0): -11.0667     alpha+bet :-13.8766


 spin component 1

 k-point     1 :       0.0000    0.0000    0.0000
  band No.  band energies     occupation 
      1     -13.7896      1.00000
      2     -12.6153      1.00000
      3     -12.5879      1.00000
      4     -12.5870      1.00000
      5     -12.5856      1.00000
      6     -12.3484      1.00000
      7     -12.3475      1.00000
      8     -12.3469      1.00000
      9      -1.3331      1.00000
     10      -1.0342      1.00000
     11      -1.0338      1.00000
     12      -1.0332      1.00000
     13      -0.7844      1.00000
     14      -0.4556      1.00000
     15      -0.4553      1.00000
     16       1.8312      1.00000
     17       1.8316      1.00000
     18       1.8319      1.00000
     19       2.1879      1.00000
     20       2.1887      1.00000
     21       2.1903      1.00000
     22       2.4273      1.00000
     23       2.4288      1.00000
     24       2.4306      1.00000
     25       2.8060      1.00000
     26       2.8060      1.00000
     27       2.8791      1.00000
     28       2.8793      1.00000
     29       2.8795      1.00000
     30       3.2689      1.00000
     31       3.2704      1.00000
     32       3.2705      1.00000
     33       7.8946      0.00000
     34      10.6585      0.00000
     35      11.1735      0.00000
     36      11.1765      0.00000
     37      11.1782      0.00000
     38      12.3044      0.00000
     39      12.3066      0.00000
     40      12.3157      0.00000
     41      12.6536      0.00000
     42      12.6556      0.00000
     43      13.4113      0.00000
     44      15.6086      0.00000
     45      15.8468      0.00000
     46      15.8503      0.00000
     47      15.8515      0.00000
     48      16.2563      0.00000
     49      16.2578      0.00000
     50      16.4334      0.00000
     51      18.6867      0.00000
     52      18.6884      0.00000

 k-point     2 :       0.5000    0.0000    0.0000
  band No.  band energies     occupation 
      1     -13.2796      1.00000
      2     -13.2009      1.00000
      3     -12.5221      1.00000
      4     -12.4920      1.00000
      5     -12.4819      1.00000
      6     -12.4702      1.00000
      7     -12.4609      1.00000
      8     -12.4541      1.00000
      9      -0.5553      1.00000
     10      -0.5058      1.00000
     11      -0.2850      1.00000
     12      -0.2814      1.00000
     13      -0.1975      1.00000
     14      -0.1924      1.00000
     15       0.6721      1.00000
     16       0.7229      1.00000
     17       1.2968      1.00000
     18       1.4025      1.00000
     19       1.5359      1.00000
     20       1.5501      1.00000
     21       1.5804      1.00000
     22       1.5928      1.00000
     23       2.2042      1.00000
     24       2.2132      1.00000
     25       2.2562      1.00000
     26       2.2703      1.00000
     27       2.4572      1.00000
     28       2.5750      1.00000
     29       2.9699      1.00000
     30       2.9738      1.00000
     31       3.0251      1.00000
     32       3.0267      1.00000
     33      10.0752      0.00000
     34      10.3849      0.00000
     35      12.0841      0.00000
     36      12.3296      0.00000
     37      12.3441      0.00000
     38      13.0723      0.00000
     39      13.2395      0.00000
     40      13.2520      0.00000
     41      14.0700      0.00000
     42      14.1074      0.00000
     43      14.4053      0.00000
     44      14.5794      0.00000
     45      15.1007      0.00000
     46      15.1312      0.00000
     47      15.3747      0.00000
     48      15.9973      0.00000
     49      16.0420      0.00000
     50      16.0847      0.00000
     51      16.4096      0.00000
     52      16.4873      0.00000

 k-point     3 :       0.0000    0.5000    0.0000
  band No.  band energies     occupation 
      1     -13.2795      1.00000
      2     -13.2010      1.00000
      3     -12.5232      1.00000
      4     -12.4914      1.00000
      5     -12.4812      1.00000
      6     -12.4706      1.00000
      7     -12.4621      1.00000
      8     -12.4526      1.00000
      9      -0.5553      1.00000
     10      -0.5072      1.00000
     11      -0.2857      1.00000
     12      -0.2821      1.00000
     13      -0.1967      1.00000
     14      -0.1913      1.00000
     15       0.6735      1.00000
     16       0.7226      1.00000
     17       1.2974      1.00000
     18       1.4026      1.00000
     19       1.5394      1.00000
     20       1.5462      1.00000
     21       1.5810      1.00000
     22       1.5920      1.00000
     23       2.2050      1.00000
     24       2.2103      1.00000
     25       2.2590      1.00000
     26       2.2691      1.00000
     27       2.4577      1.00000
     28       2.5749      1.00000
     29       2.9682      1.00000
     30       2.9741      1.00000
     31       3.0254      1.00000
     32       3.0283      1.00000
     33      10.0743      0.00000
     34      10.3840      0.00000
     35      12.0848      0.00000
     36      12.3304      0.00000
     37      12.3389      0.00000
     38      13.0747      0.00000
     39      13.2393      0.00000
     40      13.2521      0.00000
     41      14.0736      0.00000
     42      14.1085      0.00000
     43      14.4056      0.00000
     44      14.5825      0.00000
     45      15.1019      0.00000
     46      15.1245      0.00000
     47      15.3724      0.00000
     48      16.0041      0.00000
     49      16.0456      0.00000
     50      16.0813      0.00000
     51      16.4024      0.00000
     52      16.4699      0.00000

 k-point     4 :       0.5000    0.5000    0.0000
  band No.  band energies     occupation 
      1     -13.0953      1.00000
      2     -13.0864      1.00000
      3     -12.6651      1.00000
      4     -12.6564      1.00000
      5     -12.6489      1.00000
      6     -12.6481      1.00000
      7     -12.3050      1.00000
      8     -12.3037      1.00000
      9      -0.2234      1.00000
     10      -0.1444      1.00000
     11       0.0601      1.00000
     12       0.0613      1.00000
     13       0.2577      1.00000
     14       0.3970      1.00000
     15       0.6128      1.00000
     16       0.6710      1.00000
     17       0.8177      1.00000
     18       0.8337      1.00000
     19       1.3864      1.00000
     20       1.3874      1.00000
     21       1.3922      1.00000
     22       1.4684      1.00000
     23       1.5751      1.00000
     24       1.5757      1.00000
     25       2.4976      1.00000
     26       2.4983      1.00000
     27       2.5735      1.00000
     28       2.5740      1.00000
     29       2.7214      1.00000
     30       2.7230      1.00000
     31       2.7983      1.00000
     32       2.8843      1.00000
     33      10.9871      0.00000
     34      11.0013      0.00000
     35      12.2579      0.00000
     36      12.5159      0.00000
     37      12.5220      0.00000
     38      12.8579      0.00000
     39      13.8028      0.00000
     40      13.9675      0.00000
     41      13.9716      0.00000
     42      14.4086      0.00000
     43      14.6638      0.00000
     44      14.9629      0.00000
     45      14.9842      0.00000
     46      15.1597      0.00000
     47      15.2292      0.00000
     48      15.3248      0.00000
     49      15.3288      0.00000
     50      15.5567      0.00000
     51      16.5419      0.00000
     52      17.1045      0.00000

 k-point     5 :       0.0000    0.0000    0.5000
  band No.  band energies     occupation 
      1     -13.2798      1.00000
      2     -13.2008      1.00000
      3     -12.5214      1.00000
      4     -12.4924      1.00000
      5     -12.4848      1.00000
      6     -12.4686      1.00000
      7     -12.4612      1.00000
      8     -12.4528      1.00000
      9      -0.5572      1.00000
     10      -0.5055      1.00000
     11      -0.2846      1.00000
     12      -0.2801      1.00000
     13      -0.1971      1.00000
     14      -0.1934      1.00000
     15       0.6721      1.00000
     16       0.7240      1.00000
     17       1.2990      1.00000
     18       1.4027      1.00000
     19       1.5403      1.00000
     20       1.5471      1.00000
     21       1.5812      1.00000
     22       1.5887      1.00000
     23       2.2074      1.00000
     24       2.2129      1.00000
     25       2.2573      1.00000
     26       2.2648      1.00000
     27       2.4543      1.00000
     28       2.5771      1.00000
     29       2.9724      1.00000
     30       2.9762      1.00000
     31       3.0236      1.00000
     32       3.0247      1.00000
     33      10.0758      0.00000
     34      10.3832      0.00000
     35      12.0842      0.00000
     36      12.3322      0.00000
     37      12.3405      0.00000
     38      13.0739      0.00000
     39      13.2413      0.00000
     40      13.2456      0.00000
     41      14.0884      0.00000
     42      14.0990      0.00000
     43      14.4033      0.00000
     44      14.5837      0.00000
     45      15.1070      0.00000
     46      15.1169      0.00000
     47      15.3726      0.00000
     48      16.0156      0.00000
     49      16.0306      0.00000
     50      16.0825      0.00000
     51      16.4329      0.00000
     52      16.5055      0.00000

 k-point     6 :       0.5000    0.0000    0.5000
  band No.  band energies     occupation 
      1     -13.0941      1.00000
      2     -13.0875      1.00000
      3     -12.6659      1.00000
      4     -12.6559      1.00000
      5     -12.6496      1.00000
      6     -12.6473      1.00000
      7     -12.3047      1.00000
      8     -12.3040      1.00000
      9      -0.2235      1.00000
     10      -0.1438      1.00000
     11       0.0602      1.00000
     12       0.0606      1.00000
     13       0.2568      1.00000
     14       0.3982      1.00000
     15       0.6146      1.00000
     16       0.6690      1.00000
     17       0.8177      1.00000
     18       0.8338      1.00000
     19       1.3831      1.00000
     20       1.3881      1.00000
     21       1.3945      1.00000
     22       1.4670      1.00000
     23       1.5738      1.00000
     24       1.5776      1.00000
     25       2.4975      1.00000
     26       2.4980      1.00000
     27       2.5721      1.00000
     28       2.5768      1.00000
     29       2.7209      1.00000
     30       2.7233      1.00000
     31       2.7984      1.00000
     32       2.8844      1.00000
     33      10.9867      0.00000
     34      11.0018      0.00000
     35      12.2577      0.00000
     36      12.5137      0.00000
     37      12.5233      0.00000
     38      12.8600      0.00000
     39      13.8005      0.00000
     40      13.9646      0.00000
     41      13.9682      0.00000
     42      14.4126      0.00000
     43      14.6669      0.00000
     44      14.9639      0.00000
     45      14.9844      0.00000
     46      15.1641      0.00000
     47      15.2287      0.00000
     48      15.3239      0.00000
     49      15.3298      0.00000
     50      15.5524      0.00000
     51      16.5347      0.00000
     52      17.1072      0.00000

 k-point     7 :       0.0000    0.5000    0.5000
  band No.  band energies     occupation 
      1     -13.0941      1.00000
      2     -13.0874      1.00000
      3     -12.6657      1.00000
      4     -12.6563      1.00000
      5     -12.6490      1.00000
      6     -12.6476      1.00000
      7     -12.3044      1.00000
      8     -12.3042      1.00000
      9      -0.2233      1.00000
     10      -0.1436      1.00000
     11       0.0603      1.00000
     12       0.0605      1.00000
     13       0.2565      1.00000
     14       0.3982      1.00000
     15       0.6145      1.00000
     16       0.6686      1.00000
     17       0.8177      1.00000
     18       0.8337      1.00000
     19       1.3830      1.00000
     20       1.3889      1.00000
     21       1.3938      1.00000
     22       1.4672      1.00000
     23       1.5741      1.00000
     24       1.5766      1.00000
     25       2.4967      1.00000
     26       2.4991      1.00000
     27       2.5732      1.00000
     28       2.5769      1.00000
     29       2.7229      1.00000
     30       2.7232      1.00000
     31       2.7964      1.00000
     32       2.8842      1.00000
     33      10.9865      0.00000
     34      11.0020      0.00000
     35      12.2590      0.00000
     36      12.5146      0.00000
     37      12.5225      0.00000
     38      12.8595      0.00000
     39      13.7993      0.00000
     40      13.9644      0.00000
     41      13.9684      0.00000
     42      14.4125      0.00000
     43      14.6673      0.00000
     44      14.9609      0.00000
     45      14.9850      0.00000
     46      15.1659      0.00000
     47      15.2321      0.00000
     48      15.3237      0.00000
     49      15.3292      0.00000
     50      15.5485      0.00000
     51      16.5349      0.00000
     52      17.1052      0.00000

 k-point     8 :       0.5000    0.5000    0.5000
  band No.  band energies     occupation 
      1     -13.2786      1.00000
      2     -13.2021      1.00000
      3     -12.5239      1.00000
      4     -12.4853      1.00000
      5     -12.4804      1.00000
      6     -12.4703      1.00000
      7     -12.4686      1.00000
      8     -12.4525      1.00000
      9      -0.5520      1.00000
     10      -0.5082      1.00000
     11      -0.2853      1.00000
     12      -0.2848      1.00000
     13      -0.1937      1.00000
     14      -0.1915      1.00000
     15       0.6731      1.00000
     16       0.7208      1.00000
     17       1.2933      1.00000
     18       1.4048      1.00000
     19       1.5358      1.00000
     20       1.5436      1.00000
     21       1.5852      1.00000
     22       1.5910      1.00000
     23       2.2013      1.00000
     24       2.2063      1.00000
     25       2.2639      1.00000
     26       2.2742      1.00000
     27       2.4632      1.00000
     28       2.5703      1.00000
     29       2.9645      1.00000
     30       2.9686      1.00000
     31       3.0305      1.00000
     32       3.0334      1.00000
     33      10.0722      0.00000
     34      10.3893      0.00000
     35      12.0845      0.00000
     36      12.3317      0.00000
     37      12.3366      0.00000
     38      13.0796      0.00000
     39      13.2431      0.00000
     40      13.2542      0.00000
     41      14.0647      0.00000
     42      14.0890      0.00000
     43      14.4153      0.00000
     44      14.5718      0.00000
     45      15.1156      0.00000
     46      15.1334      0.00000
     47      15.3714      0.00000
     48      16.0101      0.00000
     49      16.0411      0.00000
     50      16.0727      0.00000
     51      16.4088      0.00000
     52      16.4512      0.00000

 spin component 2

 k-point     1 :       0.0000    0.0000    0.0000
  band No.  band energies     occupation 
      1     -13.7897      1.00000
      2     -12.6153      1.00000
      3     -12.5879      1.00000
      4     -12.5870      1.00000
      5     -12.5856      1.00000
      6     -12.3485      1.00000
      7     -12.3475      1.00000
      8     -12.3470      1.00000
      9      -1.3331      1.00000
     10      -1.0342      1.00000
     11      -1.0338      1.00000
     12      -1.0332      1.00000
     13      -0.7844      1.00000
     14      -0.4556      1.00000
     15      -0.4553      1.00000
     16       1.8312      1.00000
     17       1.8315      1.00000
     18       1.8319      1.00000
     19       2.1879      1.00000
     20       2.1887      1.00000
     21       2.1903      1.00000
     22       2.4272      1.00000
     23       2.4287      1.00000
     24       2.4305      1.00000
     25       2.8059      1.00000
     26       2.8060      1.00000
     27       2.8790      1.00000
     28       2.8793      1.00000
     29       2.8795      1.00000
     30       3.2689      1.00000
     31       3.2704      1.00000
     32       3.2705      1.00000
     33       7.8946      0.00000
     34      10.6585      0.00000
     35      11.1735      0.00000
     36      11.1765      0.00000
     37      11.1782      0.00000
     38      12.3044      0.00000
     39      12.3066      0.00000
     40      12.3158      0.00000
     41      12.6536      0.00000
     42      12.6556      0.00000
     43      13.4114      0.00000
     44      15.6086      0.00000
     45      15.8468      0.00000
     46      15.8503      0.00000
     47      15.8516      0.00000
     48      16.2563      0.00000
     49      16.2578      0.00000
     50      16.4334      0.00000
     51      18.6867      0.00000
     52      18.6918      0.00000

 k-point     2 :       0.5000    0.0000    0.0000
  band No.  band energies     occupation 
      1     -13.2796      1.00000
      2     -13.2010      1.00000
      3     -12.5222      1.00000
      4     -12.4920      1.00000
      5     -12.4819      1.00000
      6     -12.4702      1.00000
      7     -12.4609      1.00000
      8     -12.4541      1.00000
      9      -0.5553      1.00000
     10      -0.5058      1.00000
     11      -0.2850      1.00000
     12      -0.2814      1.00000
     13      -0.1975      1.00000
     14      -0.1924      1.00000
     15       0.6721      1.00000
     16       0.7229      1.00000
     17       1.2968      1.00000
     18       1.4025      1.00000
     19       1.5359      1.00000
     20       1.5501      1.00000
     21       1.5804      1.00000
     22       1.5928      1.00000
     23       2.2042      1.00000
     24       2.2131      1.00000
     25       2.2562      1.00000
     26       2.2703      1.00000
     27       2.4572      1.00000
     28       2.5750      1.00000
     29       2.9699      1.00000
     30       2.9738      1.00000
     31       3.0251      1.00000
     32       3.0267      1.00000
     33      10.0752      0.00000
     34      10.3849      0.00000
     35      12.0841      0.00000
     36      12.3296      0.00000
     37      12.3442      0.00000
     38      13.0723      0.00000
     39      13.2396      0.00000
     40      13.2520      0.00000
     41      14.0700      0.00000
     42      14.1074      0.00000
     43      14.4053      0.00000
     44      14.5794      0.00000
     45      15.1007      0.00000
     46      15.1312      0.00000
     47      15.3747      0.00000
     48      15.9973      0.00000
     49      16.0420      0.00000
     50      16.0847      0.00000
     51      16.4058      0.00000
     52      16.4531      0.00000

 k-point     3 :       0.0000    0.5000    0.0000
  band No.  band energies     occupation 
      1     -13.2796      1.00000
      2     -13.2010      1.00000
      3     -12.5233      1.00000
      4     -12.4915      1.00000
      5     -12.4812      1.00000
      6     -12.4707      1.00000
      7     -12.4622      1.00000
      8     -12.4526      1.00000
      9      -0.5553      1.00000
     10      -0.5072      1.00000
     11      -0.2857      1.00000
     12      -0.2821      1.00000
     13      -0.1967      1.00000
     14      -0.1913      1.00000
     15       0.6735      1.00000
     16       0.7226      1.00000
     17       1.2974      1.00000
     18       1.4026      1.00000
     19       1.5394      1.00000
     20       1.5462      1.00000
     21       1.5810      1.00000
     22       1.5920      1.00000
     23       2.2050      1.00000
     24       2.2103      1.00000
     25       2.2590      1.00000
     26       2.2691      1.00000
     27       2.4577      1.00000
     28       2.5749      1.00000
     29       2.9682      1.00000
     30       2.9741      1.00000
     31       3.0254      1.00000
     32       3.0282      1.00000
     33      10.0743      0.00000
     34      10.3840      0.00000
     35      12.0848      0.00000
     36      12.3304      0.00000
     37      12.3389      0.00000
     38      13.0748      0.00000
     39      13.2394      0.00000
     40      13.2522      0.00000
     41      14.0736      0.00000
     42      14.1085      0.00000
     43      14.4056      0.00000
     44      14.5825      0.00000
     45      15.1019      0.00000
     46      15.1245      0.00000
     47      15.3724      0.00000
     48      16.0041      0.00000
     49      16.0456      0.00000
     50      16.0813      0.00000
     51      16.4003      0.00000
     52      16.4520      0.00000

 k-point     4 :       0.5000    0.5000    0.0000
  band No.  band energies     occupation 
      1     -13.0953      1.00000
      2     -13.0864      1.00000
      3     -12.6651      1.00000
      4     -12.6564      1.00000
      5     -12.6490      1.00000
      6     -12.6481      1.00000
      7     -12.3050      1.00000
      8     -12.3038      1.00000
      9      -0.2234      1.00000
     10      -0.1444      1.00000
     11       0.0600      1.00000
     12       0.0613      1.00000
     13       0.2577      1.00000
     14       0.3970      1.00000
     15       0.6128      1.00000
     16       0.6710      1.00000
     17       0.8177      1.00000
     18       0.8337      1.00000
     19       1.3863      1.00000
     20       1.3874      1.00000
     21       1.3922      1.00000
     22       1.4684      1.00000
     23       1.5751      1.00000
     24       1.5757      1.00000
     25       2.4976      1.00000
     26       2.4982      1.00000
     27       2.5735      1.00000
     28       2.5740      1.00000
     29       2.7214      1.00000
     30       2.7230      1.00000
     31       2.7982      1.00000
     32       2.8843      1.00000
     33      10.9871      0.00000
     34      11.0013      0.00000
     35      12.2579      0.00000
     36      12.5159      0.00000
     37      12.5220      0.00000
     38      12.8579      0.00000
     39      13.8028      0.00000
     40      13.9675      0.00000
     41      13.9716      0.00000
     42      14.4086      0.00000
     43      14.6638      0.00000
     44      14.9629      0.00000
     45      14.9843      0.00000
     46      15.1598      0.00000
     47      15.2292      0.00000
     48      15.3248      0.00000
     49      15.3288      0.00000
     50      15.5568      0.00000
     51      16.5419      0.00000
     52      17.1050      0.00000

 k-point     5 :       0.0000    0.0000    0.5000
  band No.  band energies     occupation 
      1     -13.2798      1.00000
      2     -13.2008      1.00000
      3     -12.5214      1.00000
      4     -12.4924      1.00000
      5     -12.4848      1.00000
      6     -12.4686      1.00000
      7     -12.4613      1.00000
      8     -12.4529      1.00000
      9      -0.5572      1.00000
     10      -0.5055      1.00000
     11      -0.2846      1.00000
     12      -0.2801      1.00000
     13      -0.1971      1.00000
     14      -0.1934      1.00000
     15       0.6721      1.00000
     16       0.7240      1.00000
     17       1.2990      1.00000
     18       1.4027      1.00000
     19       1.5403      1.00000
     20       1.5471      1.00000
     21       1.5811      1.00000
     22       1.5887      1.00000
     23       2.2074      1.00000
     24       2.2129      1.00000
     25       2.2573      1.00000
     26       2.2648      1.00000
     27       2.4542      1.00000
     28       2.5771      1.00000
     29       2.9723      1.00000
     30       2.9762      1.00000
     31       3.0235      1.00000
     32       3.0247      1.00000
     33      10.0758      0.00000
     34      10.3832      0.00000
     35      12.0842      0.00000
     36      12.3322      0.00000
     37      12.3405      0.00000
     38      13.0739      0.00000
     39      13.2413      0.00000
     40      13.2457      0.00000
     41      14.0884      0.00000
     42      14.0990      0.00000
     43      14.4033      0.00000
     44      14.5837      0.00000
     45      15.1070      0.00000
     46      15.1170      0.00000
     47      15.3726      0.00000
     48      16.0156      0.00000
     49      16.0306      0.00000
     50      16.0825      0.00000
     51      16.4284      0.00000
     52      16.4699      0.00000

 k-point     6 :       0.5000    0.0000    0.5000
  band No.  band energies     occupation 
      1     -13.0941      1.00000
      2     -13.0875      1.00000
      3     -12.6659      1.00000
[...]
     34      11.0020      0.00000
     35      12.2590      0.00000
     36      12.5146      0.00000
     37      12.5225      0.00000
     38      12.8595      0.00000
     39      13.7993      0.00000
     40      13.9644      0.00000
     41      13.9684      0.00000
     42      14.4125      0.00000
     43      14.6673      0.00000
     44      14.9609      0.00000
     45      14.9851      0.00000
     46      15.1659      0.00000
     47      15.2321      0.00000
     48      15.3237      0.00000
     49      15.3292      0.00000
     50      15.5485      0.00000
     51      16.5349      0.00000
     52      17.1103      0.00000

 k-point     8 :       0.5000    0.5000    0.5000
  band No.  band energies     occupation 
      1     -13.2786      1.00000
      2     -13.2021      1.00000
      3     -12.5239      1.00000
      4     -12.4854      1.00000
      5     -12.4804      1.00000
      6     -12.4704      1.00000
      7     -12.4686      1.00000
      8     -12.4525      1.00000
      9      -0.5520      1.00000
     10      -0.5082      1.00000
     11      -0.2853      1.00000
     12      -0.2848      1.00000
     13      -0.1937      1.00000
     14      -0.1915      1.00000
     15       0.6730      1.00000
     16       0.7208      1.00000
     17       1.2933      1.00000
     18       1.4047      1.00000
     19       1.5358      1.00000
     20       1.5436      1.00000
     21       1.5852      1.00000
     22       1.5910      1.00000
     23       2.2013      1.00000
     24       2.2063      1.00000
     25       2.2639      1.00000
     26       2.2741      1.00000
     27       2.4632      1.00000
     28       2.5703      1.00000
     29       2.9645      1.00000
     30       2.9685      1.00000
     31       3.0305      1.00000
     32       3.0334      1.00000
     33      10.0722      0.00000
     34      10.3893      0.00000
     35      12.0845      0.00000
     36      12.3317      0.00000
     37      12.3366      0.00000
     38      13.0796      0.00000
     39      13.2431      0.00000
     40      13.2542      0.00000
     41      14.0647      0.00000
     42      14.0890      0.00000
     43      14.4154      0.00000
     44      14.5718      0.00000
     45      15.1156      0.00000
     46      15.1334      0.00000
     47      15.3714      0.00000
     48      16.0101      0.00000
     49      16.0411      0.00000
     50      16.0727      0.00000
     51      16.4058      0.00000
     52      16.4375      0.00000


--------------------------------------------------------------------------------------------------------


 soft charge-density along one line, spin component           1
         0         1         2         3         4         5         6         7         8         9
 total charge-density along one line
 
 soft charge-density along one line, spin component           2
         0         1         2         3         4         5         6         7         8         9
 total charge-density along one line
 
 pseudopotential strength for first ion, spin component:           1
  3.016   9.574  -0.000  -0.000   0.000  -0.000  -0.000   0.000
  9.574  30.249  -0.000  -0.000   0.000  -0.000  -0.000   0.000
 -0.000  -0.000   7.463  -0.000  -0.000  10.792  -0.000  -0.000
 -0.000  -0.000  -0.000   7.463  -0.000  -0.000  10.792  -0.000
  0.000   0.000  -0.000  -0.000   7.463  -0.000  -0.000  10.792
 -0.000  -0.000  10.792  -0.000  -0.000  14.834  -0.000  -0.000
 -0.000  -0.000  -0.000  10.792  -0.000  -0.000  14.834  -0.000
  0.000   0.000  -0.000  -0.000  10.792  -0.000  -0.000  14.834
 -0.000  -0.000   0.000  -0.007   0.000   0.000  -0.009   0.000
 -0.000  -0.000  -0.000  -0.000  -0.007  -0.000  -0.000  -0.009
  0.000   0.000  -0.000  -0.000   0.000  -0.000  -0.000   0.000
 -0.000  -0.000  -0.007   0.000  -0.000  -0.009   0.000  -0.000
  0.000   0.000   0.000   0.000   0.000   0.000   0.000   0.000
 pseudopotential strength for first ion, spin component:           2
  3.016   9.574  -0.000  -0.000   0.000  -0.000  -0.000   0.000
  9.574  30.249  -0.000  -0.000   0.000  -0.000  -0.000   0.000
 -0.000  -0.000   7.463  -0.000  -0.000  10.792  -0.000  -0.000
 -0.000  -0.000  -0.000   7.463  -0.000  -0.000  10.792  -0.000
  0.000   0.000  -0.000  -0.000   7.463  -0.000  -0.000  10.792
 -0.000  -0.000  10.792  -0.000  -0.000  14.834  -0.000  -0.000
 -0.000  -0.000  -0.000  10.792  -0.000  -0.000  14.834  -0.000
  0.000   0.000  -0.000  -0.000  10.792  -0.000  -0.000  14.834
 -0.000  -0.000   0.000  -0.007   0.000   0.000  -0.009   0.000
 -0.000  -0.000  -0.000  -0.000  -0.007  -0.000  -0.000  -0.009
  0.000   0.000  -0.000  -0.000   0.000  -0.000  -0.000   0.000
 -0.000  -0.000  -0.007   0.000  -0.000  -0.009   0.000  -0.000
  0.000   0.000   0.000   0.000   0.000   0.000   0.000   0.000
 total augmentation occupancy for first ion, spin component:           1
  1.825  -0.090  -0.000  -0.001  -0.001   0.000   0.000   0.000  -0.000  -0.001  -0.000   0.000   0.000
 -0.090   0.005   0.000   0.000   0.000  -0.000  -0.000  -0.000   0.000   0.000   0.000  -0.000  -0.000
 -0.000   0.000   0.224  -0.000  -0.000  -0.022   0.000   0.000  -0.001  -0.001  -0.000   0.076   0.000
 -0.001   0.000  -0.000   0.223   0.000   0.000  -0.022   0.000   0.076  -0.000  -0.000   0.000   0.000
 -0.001   0.000  -0.000   0.000   0.224   0.000  -0.000  -0.022   0.000   0.076   0.000   0.000   0.000
  0.000  -0.000  -0.022   0.000   0.000   0.002  -0.000  -0.000   0.000   0.000   0.000  -0.008  -0.000
  0.000  -0.000   0.000  -0.022  -0.000  -0.000   0.002  -0.000  -0.008   0.000   0.000  -0.000  -0.000
  0.000  -0.000   0.000   0.000  -0.022  -0.000  -0.000   0.002  -0.000  -0.008  -0.000  -0.000  -0.000
 -0.000   0.000  -0.001   0.076   0.000   0.000  -0.008  -0.000   0.076   0.000   0.000  -0.000   0.000
 -0.001   0.000  -0.001  -0.000   0.076   0.000   0.000  -0.008   0.000   0.076   0.000  -0.000   0.000
 -0.000   0.000  -0.000  -0.000   0.000   0.000   0.000  -0.000   0.000   0.000   0.037  -0.000  -0.000
  0.000  -0.000   0.076   0.000   0.000  -0.008  -0.000  -0.000  -0.000  -0.000  -0.000   0.076   0.000
  0.000  -0.000   0.000   0.000   0.000  -0.000  -0.000  -0.000   0.000   0.000  -0.000   0.000   0.037
 total augmentation occupancy for first ion, spin component:           2
  0.000  -0.000  -0.000   0.000   0.000  -0.000  -0.000  -0.000   0.000   0.000  -0.000   0.000  -0.000
 -0.000  -0.000  -0.000  -0.000  -0.000   0.000   0.000   0.000  -0.000  -0.000  -0.000  -0.000   0.000
 -0.000  -0.000   0.000  -0.000  -0.000  -0.000  -0.000   0.000  -0.000  -0.000  -0.000   0.000  -0.000
  0.000  -0.000  -0.000   0.000  -0.000   0.000  -0.000  -0.000   0.000   0.000   0.000  -0.000   0.000
  0.000  -0.000  -0.000  -0.000   0.000   0.000  -0.000  -0.000   0.000   0.000  -0.000  -0.000   0.000
 -0.000   0.000  -0.000   0.000   0.000   0.000   0.000  -0.000   0.000   0.000   0.000  -0.000   0.000
 -0.000   0.000  -0.000  -0.000  -0.000   0.000   0.000   0.000  -0.000  -0.000   0.000   0.000   0.000
 -0.000   0.000   0.000  -0.000  -0.000  -0.000   0.000   0.000  -0.000  -0.000  -0.000   0.000  -0.000
  0.000  -0.000  -0.000   0.000   0.000   0.000  -0.000  -0.000   0.000  -0.000   0.000  -0.000   0.000
  0.000  -0.000  -0.000   0.000   0.000   0.000  -0.000  -0.000  -0.000   0.000  -0.000  -0.000   0.000
 -0.000  -0.000  -0.000   0.000  -0.000   0.000   0.000  -0.000   0.000  -0.000   0.000   0.000  -0.000
  0.000  -0.000   0.000  -0.000  -0.000  -0.000   0.000   0.000  -0.000  -0.000   0.000   0.000  -0.000
 -0.000   0.000  -0.000   0.000   0.000   0.000   0.000  -0.000   0.000   0.000  -0.000  -0.000   0.000


------------------------ aborting loop because EDIFF is reached ----------------------------------------


 


 total charge     
 
# of ion     s       p       d       tot
----------------------------------------
  1        0.262   0.339   0.165   0.766
  2        0.170   0.203   0.090   0.463
  3        0.171   0.203   0.090   0.463
  4        0.171   0.203   0.090   0.463
  5        0.131   0.156   0.068   0.354
  6        0.171   0.203   0.090   0.463
  7        0.131   0.156   0.068   0.354
  8        0.131   0.156   0.068   0.354
  9        0.130   0.156   0.067   0.354
 10        1.567   3.549   0.000   5.117
 11        1.567   3.550   0.000   5.117
 12        1.567   3.550   0.000   5.117
 13        1.567   3.583   0.000   5.150
 14        1.567   3.550   0.000   5.117
 15        1.567   3.583   0.000   5.150
 16        1.567   3.583   0.000   5.149
 17        1.567   3.583   0.000   5.150
------------------------------------------------
tot       14.002  30.306   0.795  45.103
 


 magnetization (x)
 
# of ion     s       p       d       tot
----------------------------------------
  1        0.000  -0.000   0.000   0.000
  2        0.000   0.000   0.000   0.000
  3        0.000   0.000   0.000   0.000
  4        0.000   0.000   0.000   0.000
  5        0.000   0.000   0.000   0.000
  6        0.000   0.000   0.000   0.000
  7        0.000   0.000   0.000   0.000
  8        0.000   0.000   0.000   0.000
  9        0.000   0.000   0.000   0.000
 10       -0.000  -0.000   0.000  -0.000
 11       -0.000  -0.000   0.000  -0.000
 12       -0.000  -0.000   0.000  -0.000
 13        0.000  -0.000   0.000  -0.000
 14       -0.000  -0.000   0.000  -0.000
 15        0.000  -0.000   0.000  -0.000
 16        0.000  -0.000   0.000  -0.000
 17        0.000  -0.000   0.000  -0.000
------------------------------------------------
tot        0.000  -0.000   0.000  -0.000
 
    CHARGE:  cpu time    0.0240: real time    0.0209
    FORLOC:  cpu time    0.0000: real time    0.0016
    FORNL :  cpu time    0.1520: real time    0.1529
    STRESS:  cpu time    0.4640: real time    0.4614
    FORCOR:  cpu time    0.0200: real time    0.0212
    FORHAR:  cpu time    0.0040: real time    0.0031
    MIXING:  cpu time    0.0000: real time    0.0010
    OFIELD:  cpu time    0.0000: real time    0.0000

  FORCE on cell =-STRESS in cart. coord.  units (eV):
  Direction    XX          YY          ZZ          XY          YZ          ZX
  --------------------------------------------------------------------------------------
  Alpha Z   167.07285   167.07285   167.07285
  Ewald    -968.10872  -968.27106  -968.44390     0.03636     0.02629     0.20469
  Hartree   380.67949   380.67964   380.65555     0.01177     0.02287     0.02934
  E(xc)    -293.31873  -293.31612  -293.31473    -0.00017     0.00046    -0.00273
  Local    -339.85233  -339.71609  -339.53042    -0.04201    -0.09311    -0.22951
  n-local  -137.86469  -137.87172  -137.88885     0.00406    -0.00603     0.01513
  augment    54.71001    54.71255    54.71081     0.00013     0.00026    -0.00007
  Kinetic  1135.78249  1135.78207  1135.78246    -0.01105    -0.02218    -0.00560
  Fock        0.00000     0.00000     0.00000     0.00000     0.00000     0.00000
  -------------------------------------------------------------------------------------
  Total      -0.89963    -0.92788    -0.95622    -0.00091    -0.07144     0.01125
  in kB      -9.40873    -9.70414   -10.00056    -0.00947    -0.74712     0.11764
  external pressure =       -9.70 kB  Pullay stress =        0.00 kB


 VOLUME and BASIS-vectors are now :
 -----------------------------------------------------------------------------
  energy-cutoff  :      400.00
  volume of cell :      153.19
      direct lattice vectors                 reciprocal lattice vectors
     0.000000000  4.246893000  4.246893000    -0.117733129  0.117733129  0.117733129
     4.246893000  0.000000000  4.246893000     0.117733129 -0.117733129  0.117733129
     4.246893000  4.246893000  0.000000000     0.117733129  0.117733129 -0.117733129

  length of vectors
     6.006013679  6.006013679  6.006013679     0.203919761  0.203919761  0.203919761


 FORCES acting on ions
    electron-ion (+dipol)            ewald-force                    non-local-force                 convergence-correction
 -----------------------------------------------------------------------------------------------
   -.221E+00 -.981E-01 -.142E+00   0.197E+00 0.103E+00 0.138E+00   0.567E-01 0.187E-02 0.381E-01   -.123E-05 -.495E-05 -.125E-06
   -.689E+01 -.729E+01 -.700E+01   0.504E+01 0.536E+01 0.511E+01   0.185E+01 0.193E+01 0.187E+01   -.296E-05 -.572E-05 0.136E-05
   0.718E+01 0.711E+01 -.711E+01   -.528E+01 -.522E+01 0.523E+01   -.192E+01 -.188E+01 0.190E+01   0.450E-05 0.245E-05 -.122E-04
   0.709E+01 -.690E+01 0.731E+01   -.520E+01 0.507E+01 -.536E+01   -.187E+01 0.185E+01 -.196E+01   -.135E-05 -.134E-04 0.139E-05
   0.299E+00 -.242E+00 -.238E+00   -.250E+00 0.173E+00 0.194E+00   -.665E-01 0.336E-01 0.408E-01   0.714E-05 0.705E-05 -.372E-06
   -.742E+01 0.723E+01 0.685E+01   0.549E+01 -.532E+01 -.502E+01   0.195E+01 -.194E+01 -.182E+01   -.129E-04 -.166E-05 0.542E-05
   -.141E+00 0.176E+00 -.468E+00   0.902E-01 -.141E+00 0.384E+00   0.311E-01 -.159E-01 0.850E-01   0.689E-05 0.635E-05 0.247E-05
   -.287E+00 -.628E-01 0.382E+00   0.220E+00 0.319E-01 -.329E+00   0.412E-01 0.146E-01 -.696E-01   -.200E-06 0.357E-05 0.747E-05
   0.268E+00 0.430E+00 0.389E+00   -.207E+00 -.349E+00 -.313E+00   -.393E-01 -.102E+00 -.741E-01   -.350E-05 0.175E-06 -.642E-05
   -.858E+01 -.909E+01 -.899E+01   0.131E+02 0.136E+02 0.135E+02   -.452E+01 -.455E+01 -.457E+01   -.304E-03 -.304E-03 -.318E-03
   0.899E+01 0.895E+01 -.955E+01   -.136E+02 -.134E+02 0.141E+02   0.463E+01 0.447E+01 -.456E+01   0.307E-03 0.302E-03 -.324E-03
   0.901E+01 -.918E+01 0.942E+01   -.135E+02 0.137E+02 -.141E+02   0.450E+01 -.454E+01 0.467E+01   0.315E-03 -.319E-03 0.315E-03
   0.888E+01 -.869E+01 -.840E+01   -.130E+02 0.128E+02 0.126E+02   0.410E+01 -.408E+01 -.422E+01   0.315E-03 -.310E-03 -.299E-03
   -.950E+01 0.887E+01 0.891E+01   0.140E+02 -.135E+02 -.134E+02   -.451E+01 0.463E+01 0.449E+01   -.316E-03 0.309E-03 0.313E-03
   -.859E+01 0.892E+01 -.860E+01   0.128E+02 -.130E+02 0.126E+02   -.424E+01 0.409E+01 -.401E+01   -.310E-03 0.317E-03 -.297E-03
   -.875E+01 -.862E+01 0.882E+01   0.129E+02 0.129E+02 -.129E+02   -.408E+01 -.423E+01 0.406E+01   -.301E-03 -.300E-03 0.305E-03
   0.860E+01 0.863E+01 0.841E+01   -.128E+02 -.128E+02 -.125E+02   0.416E+01 0.414E+01 0.414E+01   0.295E-03 0.300E-03 0.297E-03
 -----------------------------------------------------------------------------------------------
   -.630E-01 0.154E+00 -.159E-01   -.711E-14 -.533E-14 0.195E-13   0.621E-01 -.174E+00 0.474E-02   -.237E-05 -.929E-05 -.802E-05
 
 
 POSITION                                       TOTAL-FORCE (eV/Angst)
 -----------------------------------------------------------------------------------
      1.06325      1.04152      1.05648         0.032992      0.008290      0.035234
      8.33547      8.30716      8.32911        -0.005593      0.007207     -0.013665
      6.53552      6.50658      8.32487        -0.015691      0.005133      0.008951
      6.52720      8.31488      6.53551         0.012372      0.017301     -0.006260
      4.25185      6.34949      6.36397        -0.016578     -0.034170     -0.002412
      8.32504      6.51528      6.51748         0.030724     -0.018975      0.004201
      2.12128      4.22375      2.11428        -0.019334      0.020033      0.001339
      6.37028      6.34818      4.24460        -0.025993     -0.015205     -0.016107
      4.24633      4.23227      4.24483         0.021667     -0.019054      0.002669
      2.13496      2.10208      2.12349        -0.038775     -0.010434     -0.020722
      4.24302      4.22156      2.11949         0.010471     -0.002077      0.016127
      4.24388      2.10965      4.24377        -0.015933      0.012526     -0.021405
      6.36788      4.22620      4.25178        -0.013713      0.018057     -0.010062
      2.12282      4.22042      4.23319         0.015937      0.024390      0.011584
      4.25267      6.34289      4.23824         0.005185     -0.017108      0.030441
      4.24699      4.23182      6.36309         0.022502      0.008247     -0.024695
      6.36189      6.34677      6.35937        -0.000240     -0.004161      0.004785
 -----------------------------------------------------------------------------------
    total drift:                               -0.000901     -0.020199     -0.011162


--------------------------------------------------------------------------------------------------------



  FREE ENERGIE OF THE ION-ELECTRON SYSTEM (eV)
  ---------------------------------------------------
  free  energy   TOTEN  =      -102.27250785 eV

  energy  without entropy=     -102.27250785  energy(sigma->0) =     -102.27250785
 


--------------------------------------------------------------------------------------------------------


    POTLOK:  cpu time    0.9801: real time    0.9846


--------------------------------------------------------------------------------------------------------




--------------------------------------------------------------------------------------------------------


  
 reached required accuracy - stopping structural energy minimisation
     LOOP+:  cpu time   22.7334: real time   22.8439
    4ORBIT:  cpu time    0.0000: real time    0.0000
 


 total charge     
 
# of ion     s       p       d       tot
----------------------------------------
  1        0.262   0.339   0.165   0.766
  2        0.170   0.203   0.090   0.463
  3        0.171   0.203   0.090   0.463
  4        0.171   0.203   0.090   0.463
  5        0.131   0.156   0.068   0.354
  6        0.171   0.203   0.090   0.463
  7        0.131   0.156   0.068   0.354
  8        0.131   0.156   0.068   0.354
  9        0.130   0.156   0.067   0.354
 10        1.567   3.549   0.000   5.117
 11        1.567   3.550   0.000   5.117
 12        1.567   3.550   0.000   5.117
 13        1.567   3.583   0.000   5.150
 14        1.567   3.550   0.000   5.117
 15        1.567   3.583   0.000   5.150
 16        1.567   3.583   0.000   5.149
 17        1.567   3.583   0.000   5.150
------------------------------------------------
tot       14.002  30.306   0.795  45.103
 


 magnetization (x)
 
# of ion     s       p       d       tot
----------------------------------------
  1        0.000  -0.000   0.000   0.000
  2        0.000   0.000   0.000   0.000
  3        0.000   0.000   0.000   0.000
  4        0.000   0.000   0.000   0.000
  5        0.000   0.000   0.000   0.000
  6        0.000   0.000   0.000   0.000
  7        0.000   0.000   0.000   0.000
  8        0.000   0.000   0.000   0.000
  9        0.000   0.000   0.000   0.000
 10       -0.000  -0.000   0.000  -0.000
 11       -0.000  -0.000   0.000  -0.000
 12       -0.000  -0.000   0.000  -0.000
 13        0.000  -0.000   0.000  -0.000
 14       -0.000  -0.000   0.000  -0.000
 15        0.000  -0.000   0.000  -0.000
 16        0.000  -0.000   0.000  -0.000
 17        0.000  -0.000   0.000  -0.000
------------------------------------------------
tot        0.000  -0.000   0.000  -0.000
 

 total amount of memory used by VASP on root node    36478. kBytes
========================================================================

   base      :      30000. kBytes
   nonlr-proj:       1354. kBytes
   fftplans  :        708. kBytes
   grid      :       1766. kBytes
   one-center:         81. kBytes
   wavefun   :       2569. kBytes
 
  
  
 General timing and accounting informations for this job:
 ========================================================
  
                  Total CPU time used (sec):       23.965
                            User time (sec):       23.785
                          System time (sec):        0.180
                         Elapsed time (sec):       24.279
  
                   Maximum memory used (kb):       38580.
                   Average memory used (kb):           0.
  
                          Minor page faults:        10341
                          Major page faults:            8
                 Voluntary context switches:         1009
